Generated by trjconv : CNT in water t= 353.00000
33518
    1C        C    1   2.846   2.770   4.745
    1C        C    2   2.898   2.716   4.865
    1C        C    3   2.841   2.770   4.982
    1C        C    4   2.848   2.777   4.257
    1C        C    5   2.898   2.727   4.380
    1C        C    6   2.843   2.771   4.502
    1C        C    7   3.012   2.642   4.625
    1C        C    8   2.893   2.717   4.623
    1C        C    9   3.076   2.606   4.746
    1C        C   10   3.009   2.630   4.868
    1C        C   11   3.177   2.488   4.975
    1C        C   12   3.056   2.558   4.978
    1C        C   13   2.849   2.773   3.769
    1C        C   14   2.900   2.727   3.892
    1C        C   15   2.849   2.778   4.014
    1C        C   16   3.016   2.647   4.138
    1C        C   17   2.900   2.727   4.135
    1C        C   18   3.077   2.609   4.260
    1C        C   19   3.012   2.645   4.380
    1C        C   20   3.204   2.554   4.502
    1C        C   21   3.074   2.608   4.502
    1C        C   22   3.273   2.531   4.623
    1C        C   23   3.206   2.548   4.746
    1C        C   24   3.409   2.480   4.862
    1C        C   25   3.267   2.497   4.864
    1C        C   26   3.488   2.467   4.977
    1C        C   27   2.854   2.772   3.278
    1C        C   28   2.904   2.725   3.402
    1C        C   29   2.857   2.775   3.525
    1C        C   30   3.019   2.643   3.647
    1C        C   31   2.904   2.725   3.648
    1C        C   32   3.077   2.607   3.771
    1C        C   33   3.013   2.642   3.892
    1C        C   34   3.203   2.549   4.017
    1C        C   35   3.075   2.609   4.015
    1C        C   36   3.272   2.522   4.137
    1C        C   37   3.205   2.549   4.258
    1C        C   38   3.412   2.513   4.380
    1C        C   39   3.272   2.531   4.381
    1C        C   40   3.482   2.507   4.503
    1C        C   41   3.412   2.505   4.625
    1C        C   42   3.629   2.483   4.741
    1C        C   43   3.487   2.483   4.743
    1C        C   44   3.704   2.488   4.861
    1C        C   45   3.627   2.471   4.977
    1C        C   46   2.841   2.755   2.794
    1C        C   47   2.898   2.711   2.916
    1C        C   48   2.849   2.764   3.037
    1C        C   49   3.016   2.630   3.160
    1C        C   50   2.906   2.719   3.158
    1C        C   51   3.079   2.600   3.283
    1C        C   52   3.017   2.640   3.404
    1C        C   53   3.205   2.539   3.526
    1C        C   54   3.077   2.601   3.526
    1C        C   55   3.271   2.520   3.650
    1C        C   56   3.205   2.546   3.772
    1C        C   57   3.410   2.502   3.892
    1C        C   58   3.271   2.528   3.895
    1C        C   59   3.483   2.500   4.013
    1C        C   60   3.412   2.503   4.136
    1C        C   61   3.624   2.498   4.259
    1C        C   62   3.483   2.501   4.258
    1C        C   63   3.697   2.505   4.380
    1C        C   64   3.624   2.503   4.501
    1C        C   65   3.833   2.542   4.617
    1C        C   66   3.700   2.498   4.620
    1C        C   67   3.905   2.562   4.737
    1C        C   68   3.839   2.529   4.857
    1C        C   69   4.044   2.588   4.972
    1C        C   70   3.917   2.528   4.974
    1C        C   71   2.824   2.731   2.307
    1C        C   72   2.884   2.692   2.429
    1C        C   73   2.830   2.743   2.549
    1C        C   74   3.005   2.624   2.671
    1C        C   75   2.888   2.703   2.672
    1C        C   76   3.070   2.590   2.792
    1C        C   77   3.013   2.628   2.915
    1C        C   78   3.204   2.536   3.033
    1C        C   79   3.076   2.595   3.037
    1C        C   80   3.272   2.520   3.156
    1C        C   81   3.208   2.544   3.280
    1C        C   82   3.411   2.496   3.400
    1C        C   83   3.272   2.520   3.404
    1C        C   84   3.480   2.492   3.524
    1C        C   85   3.410   2.497   3.646
    1C        C   86   3.621   2.496   3.768
    1C        C   87   3.480   2.495   3.769
    1C        C   88   3.693   2.506   3.890
    1C        C   89   3.624   2.499   4.013
    1C        C   90   3.828   2.548   4.134
    1C        C   91   3.693   2.507   4.136
    1C        C   92   3.900   2.567   4.254
    1C        C   93   3.835   2.536   4.375
    1C        C   94   4.026   2.634   4.494
    1C        C   95   3.901   2.568   4.496
    1C        C   96   4.086   2.674   4.615
    1C        C   97   4.032   2.627   4.737
    1C        C   98   4.187   2.768   4.855
    1C        C   99   4.100   2.654   4.858
    1C        C  100   4.212   2.842   4.971
    1C        C  101   2.824   2.731   2.069
    1C        C  102   2.989   2.589   2.187
    1C        C  103   2.873   2.674   2.187
    1C        C  104   3.060   2.570   2.309
    1C        C  105   2.998   2.608   2.430
    1C        C  106   3.198   2.530   2.549
    1C        C  107   3.068   2.585   2.550
    1C        C  108   3.269   2.510   2.670
    1C        C  109   3.202   2.540   2.790
    1C        C  110   3.409   2.486   2.914
    1C        C  111   3.271   2.513   2.911
    1C        C  112   3.481   2.482   3.035
    1C        C  113   3.411   2.497   3.157
    1C        C  114   3.624   2.494   3.278
    1C        C  115   3.483   2.486   3.279
    1C        C  116   3.691   2.512   3.401
    1C        C  117   3.621   2.502   3.523
    1C        C  118   3.828   2.538   3.646
    1C        C  119   3.691   2.503   3.646
    1C        C  120   3.893   2.571   3.767
    1C        C  121   3.828   2.547   3.891
    1C        C  122   4.019   2.640   4.011
    1C        C  123   3.894   2.573   4.012
    1C        C  124   4.082   2.678   4.132
    1C        C  125   4.023   2.636   4.254
    1C        C  126   4.195   2.765   4.375
    1C        C  127   4.088   2.673   4.374
    1C        C  128   4.242   2.823   4.495
    1C        C  129   4.193   2.767   4.614
    1C        C  130   4.324   2.938   4.738
    1C        C  131   4.237   2.825   4.735
    1C        C  132   4.356   3.003   4.859
    1C        C  133   4.291   2.957   4.974
    1C        C  134   3.174   2.466   2.082
    1C        C  135   3.040   2.507   2.082
    1C        C  136   3.261   2.477   2.191
    1C        C  137   3.191   2.515   2.307
    1C        C  138   3.402   2.473   2.427
    1C        C  139   3.264   2.501   2.428
    1C        C  140   3.477   2.473   2.547
    1C        C  141   3.408   2.488   2.670
    1C        C  142   3.621   2.492   2.787
    1C        C  143   3.480   2.484   2.791
    1C        C  144   3.691   2.500   2.909
    1C        C  145   3.622   2.493   3.032
    1C        C  146   3.827   2.543   3.156
    1C        C  147   3.692   2.503   3.155
    1C        C  148   3.894   2.569   3.277
    1C        C  149   3.829   2.541   3.400
    1C        C  150   4.020   2.625   3.524
    1C        C  151   3.894   2.560   3.524
    1C        C  152   4.077   2.672   3.645
    1C        C  153   4.016   2.640   3.768
    1C        C  154   4.192   2.761   3.885
    1C        C  155   4.081   2.674   3.889
    1C        C  156   4.242   2.813   4.006
    1C        C  157   4.193   2.764   4.130
    1C        C  158   4.333   2.924   4.249
    1C        C  159   4.245   2.814   4.252
    1C        C  160   4.374   2.984   4.369
    1C        C  161   4.335   2.930   4.494
    1C        C  162   4.439   3.115   4.613
    1C        C  163   4.371   2.991   4.616
    1C        C  164   4.470   3.180   4.734
    1C        C  165   4.431   3.123   4.857
    1C        C  166   4.519   3.320   4.973
    1C        C  167   4.478   3.187   4.972
    1C        C  168   3.475   2.425   2.072
    1C        C  169   3.401   2.458   2.186
    1C        C  170   3.615   2.462   2.305
    1C        C  171   3.473   2.450   2.307
    1C        C  172   3.690   2.481   2.423
    1C        C  173   3.618   2.476   2.545
    1C        C  174   3.826   2.537   2.663
    1C        C  175   3.689   2.501   2.664
    1C        C  176   3.893   2.562   2.785
    1C        C  177   3.828   2.537   2.908
    1C        C  178   4.019   2.623   3.031
    1C        C  179   3.891   2.563   3.031
    1C        C  180   4.078   2.665   3.152
    1C        C  181   4.019   2.635   3.277
    1C        C  182   4.189   2.754   3.396
    1C        C  183   4.077   2.667   3.402
    1C        C  184   4.242   2.803   3.518
    1C        C  185   4.190   2.757   3.641
    1C        C  186   4.338   2.911   3.760
    1C        C  187   4.246   2.804   3.762
    1C        C  188   4.377   2.974   3.881
    1C        C  189   4.336   2.919   4.004
    1C        C  190   4.446   3.102   4.127
    1C        C  191   4.376   2.979   4.126
    1C        C  192   4.475   3.170   4.248
    1C        C  193   4.448   3.105   4.370
    1C        C  194   4.512   3.311   4.491
    1C        C  195   4.469   3.177   4.490
    1C        C  196   4.526   3.384   4.612
    1C        C  197   4.510   3.316   4.735
    1C        C  198   4.549   3.534   4.850
    1C        C  199   4.530   3.392   4.854
    1C        C  200   4.582   3.618   4.960
    1C        C  201   3.615   2.411   2.071
    1C        C  202   3.822   2.512   2.182
    1C        C  203   3.690   2.455   2.184
    1C        C  204   3.895   2.543   2.300
    1C        C  205   3.826   2.516   2.420
    1C        C  206   4.019   2.614   2.540
    1C        C  207   3.894   2.549   2.540
    1C        C  208   4.079   2.659   2.660
    1C        C  209   4.018   2.628   2.784
    1C        C  210   4.186   2.751   2.908
    1C        C  211   4.075   2.665   2.908
    1C        C  212   4.243   2.795   3.030
    1C        C  213   4.192   2.748   3.153
    1C        C  214   4.325   2.914   3.272
    1C        C  215   4.243   2.799   3.274
    1C        C  216   4.365   2.973   3.394
    1C        C  217   4.328   2.915   3.517
    1C        C  218   4.436   3.100   3.639
    1C        C  219   4.371   2.974   3.638
    1C        C  220   4.464   3.167   3.760
    1C        C  221   4.440   3.100   3.882
    1C        C  222   4.503   3.304   4.003
    1C        C  223   4.469   3.166   4.004
    1C        C  224   4.519   3.375   4.124
    1C        C  225   4.511   3.307   4.247
    1C        C  226   4.526   3.521   4.369
    1C        C  227   4.521   3.380   4.368
    1C        C  228   4.525   3.597   4.488
    1C        C  229   4.531   3.525   4.609
    1C        C  230   4.500   3.740   4.726
    1C        C  231   4.535   3.603   4.726
    1C        C  232   4.493   3.818   4.844
    1C        C  233   4.546   3.754   4.957
    1C        C  234   4.017   2.602   2.064
    1C        C  235   3.891   2.543   2.064
    1C        C  236   4.085   2.647   2.178
    1C        C  237   4.020   2.610   2.298
    1C        C  238   4.195   2.736   2.419
    1C        C  239   4.082   2.650   2.419
    1C        C  240   4.246   2.789   2.540
    1C        C  241   4.187   2.750   2.662
    1C        C  242   4.331   2.904   2.782
    1C        C  243   4.238   2.798   2.785
    1C        C  244   4.373   2.960   2.905
    1C        C  245   4.336   2.901   3.028
    1C        C  246   4.437   3.091   3.148
    1C        C  247   4.371   2.966   3.148
    1C        C  248   4.458   3.160   3.269
    1C        C  249   4.430   3.098   3.393
    1C        C  250   4.495   3.300   3.512
    1C        C  251   4.461   3.163   3.515
    1C        C  252   4.506   3.370   3.634
    1C        C  253   4.498   3.304   3.759
    1C        C  254   4.520   3.515   3.877
    1C        C  255   4.513   3.373   3.881
    1C        C  256   4.515   3.583   4.000
    1C        C  257   4.519   3.517   4.125
    1C        C  258   4.490   3.728   4.239
    1C        C  259   4.515   3.589   4.246
    1C        C  260   4.467   3.798   4.359
    1C        C  261   4.491   3.734   4.483
    1C        C  262   4.425   3.938   4.603
    1C        C  263   4.475   3.806   4.603
    1C        C  264   4.394   4.006   4.723
    1C        C  265   4.432   3.945   4.844
    1C        C  266   4.316   4.130   4.955
    1C        C  267   4.393   4.014   4.960
    1C        C  268   4.256   2.778   2.057
    1C        C  269   4.196   2.735   2.176
    1C        C  270   4.344   2.888   2.298
    1C        C  271   4.251   2.781   2.298
    1C        C  272   4.379   2.956   2.417
    1C        C  273   4.336   2.898   2.538
    1C        C  274   4.445   3.082   2.659
    1C        C  275   4.374   2.960   2.659
    1C        C  276   4.473   3.147   2.781
    1C        C  277   4.439   3.085   2.903
    1C        C  278   4.503   3.288   3.021
    1C        C  279   4.470   3.151   3.024
    1C        C  280   4.509   3.362   3.141
    1C        C  281   4.491   3.297   3.265
    1C        C  282   4.516   3.507   3.386
    1C        C  283   4.507   3.366   3.387
    1C        C  284   4.515   3.578   3.509
    1C        C  285   4.519   3.511   3.633
    1C        C  286   4.493   3.723   3.753
    1C        C  287   4.518   3.584   3.754
    1C        C  288   4.474   3.792   3.875
    1C        C  289   4.491   3.722   3.997
    1C        C  290   4.419   3.927   4.113
    1C        C  291   4.474   3.796   4.116
    1C        C  292   4.388   3.990   4.235
    1C        C  293   4.415   3.930   4.360
    1C        C  294   4.321   4.123   4.476
    1C        C  295   4.388   3.999   4.480
    1C        C  296   4.282   4.187   4.596
    1C        C  297   4.318   4.126   4.718
    1C        C  298   4.200   4.313   4.836
    1C        C  299   4.278   4.194   4.837
    1C        C  300   4.168   4.397   4.948
    1C        C  301   4.347   2.883   2.060
    1C        C  302   4.466   3.069   2.172
    1C        C  303   4.390   2.948   2.177
    1C        C  304   4.479   3.142   2.293
    1C        C  305   4.442   3.082   2.416
    1C        C  306   4.506   3.284   2.534
    1C        C  307   4.475   3.147   2.537
    1C        C  308   4.515   3.355   2.656
    1C        C  309   4.503   3.285   2.779
    1C        C  310   4.525   3.500   2.898
    1C        C  311   4.517   3.359   2.899
    1C        C  312   4.519   3.572   3.019
    1C        C  313   4.518   3.503   3.143
    1C        C  314   4.485   3.715   3.261
    1C        C  315   4.512   3.577   3.263
    1C        C  316   4.468   3.784   3.384
    1C        C  317   4.493   3.718   3.506
    1C        C  318   4.419   3.917   3.622
    1C        C  319   4.474   3.787   3.628
    1C        C  320   4.386   3.979   3.745
    1C        C  321   4.420   3.922   3.869
    1C        C  322   4.312   4.107   3.991
    1C        C  323   4.386   3.987   3.990
    1C        C  324   4.273   4.166   4.113
    1C        C  325   4.320   4.114   4.236
    1C        C  326   4.180   4.281   4.353
    1C        C  327   4.279   4.180   4.354
    1C        C  328   4.132   4.338   4.472
    1C        C  329   4.192   4.296   4.593
    1C        C  330   4.024   4.434   4.713
    1C        C  331   4.140   4.351   4.712
    1C        C  332   3.966   4.484   4.831
    1C        C  333   4.048   4.469   4.944
    1C        C  334   4.553   3.266   2.060
    1C        C  335   4.530   3.128   2.059
    1C        C  336   4.540   3.349   2.172
    1C        C  337   4.521   3.278   2.293
    1C        C  338   4.525   3.494   2.407
    1C        C  339   4.527   3.353   2.413
    1C        C  340   4.518   3.565   2.529
    1C        C  341   4.524   3.496   2.652
    1C        C  342   4.501   3.707   2.773
    1C        C  343   4.523   3.567   2.774
    1C        C  344   4.477   3.780   2.892
    1C        C  345   4.491   3.710   3.014
    1C        C  346   4.423   3.911   3.136
    1C        C  347   4.473   3.779   3.136
    1C        C  348   4.387   3.979   3.255
    1C        C  349   4.417   3.915   3.378
    1C        C  350   4.309   4.097   3.500
    1C        C  351   4.389   3.980   3.500
    1C        C  352   4.270   4.156   3.622
    1C        C  353   4.314   4.101   3.745
    1C        C  354   4.170   4.259   3.864
    1C        C  355   4.269   4.158   3.866
    1C        C  356   4.118   4.312   3.984
    1C        C  357   4.170   4.263   4.106
    1C        C  358   4.009   4.399   4.228
    1C        C  359   4.125   4.319   4.228
    1C        C  360   3.949   4.443   4.348
    1C        C  361   4.014   4.415   4.471
    1C        C  362   3.828   4.518   4.590
    1C        C  363   3.958   4.462   4.591
    1C        C  364   3.761   4.551   4.710
    1C        C  365   3.835   4.536   4.829
    1C        C  366   3.626   4.589   4.947
    1C        C  367   3.763   4.563   4.946
    1C        C  368   4.513   3.567   2.052
    1C        C  369   4.528   3.490   2.168
    1C        C  370   4.501   3.707   2.288
    1C        C  371   4.523   3.567   2.286
    1C        C  372   4.488   3.777   2.410
    1C        C  373   4.499   3.705   2.531
    1C        C  374   4.425   3.906   2.647
    1C        C  375   4.481   3.776   2.652
    1C        C  376   4.396   3.974   2.767
    1C        C  377   4.422   3.910   2.891
    1C        C  378   4.322   4.096   3.011
    1C        C  379   4.395   3.975   3.013
    1C        C  380   4.271   4.152   3.130
    1C        C  381   4.314   4.100   3.254
    1C        C  382   4.171   4.255   3.374
    1C        C  383   4.268   4.152   3.377
    1C        C  384   4.117   4.300   3.496
    1C        C  385   4.169   4.256   3.619
    1C        C  386   4.004   4.389   3.740
    1C        C  387   4.117   4.305   3.741
    1C        C  388   3.944   4.429   3.861
    1C        C  389   4.002   4.392   3.984
    1C        C  390   3.812   4.483   4.104
    1C        C  391   3.943   4.431   4.107
    1C        C  392   3.750   4.514   4.227
    1C        C  393   3.822   4.504   4.348
    1C        C  394   3.616   4.554   4.473
    1C        C  395   3.755   4.530   4.469
    1C        C  396   3.544   4.564   4.595
    1C        C  397   3.620   4.564   4.714
    1C        C  398   3.407   4.548   4.840
    1C        C  399   3.546   4.570   4.834
    1C        C  400   3.337   4.518   4.958
    1C        C  401   4.506   3.705   2.047
    1C        C  402   4.459   3.915   2.169
    1C        C  403   4.491   3.777   2.167
    1C        C  404   4.408   3.977   2.285
    1C        C  405   4.436   3.908   2.405
    1C        C  406   4.324   4.093   2.522
    1C        C  407   4.397   3.972   2.525
    1C        C  408   4.275   4.146   2.643
    1C        C  409   4.315   4.089   2.766
    1C        C  410   4.176   4.249   2.884
    1C        C  411   4.275   4.147   2.888
    1C        C  412   4.120   4.294   3.006
    1C        C  413   4.168   4.248   3.131
    1C        C  414   3.995   4.374   3.252
    1C        C  415   4.110   4.292   3.252
    1C        C  416   3.937   4.414   3.374
    1C        C  417   3.998   4.377   3.496
    1C        C  418   3.809   4.473   3.619
    1C        C  419   3.938   4.417   3.618
    1C        C  420   3.742   4.502   3.740
    1C        C  421   3.812   4.480   3.861
    1C        C  422   3.607   4.540   3.987
    1C        C  423   3.744   4.508   3.982
    1C        C  424   3.539   4.547   4.111
    1C        C  425   3.612   4.544   4.232
    1C        C  426   3.400   4.548   4.356
    1C        C  427   3.541   4.556   4.354
    1C        C  428   3.329   4.546   4.477
    1C        C  429   3.403   4.556   4.597
    1C        C  430   3.196   4.507   4.720
    1C        C  431   3.335   4.537   4.719
    1C        C  432   3.123   4.488   4.840
    1C        C  433   3.199   4.496   4.957
    1C        C  434   4.385   4.123   2.050
    1C        C  435   4.447   3.997   2.056
    1C        C  436   4.300   4.162   2.159
    1C        C  437   4.329   4.094   2.281
    1C        C  438   4.177   4.248   2.399
    1C        C  439   4.272   4.144   2.401
    1C        C  440   4.121   4.292   2.521
    1C        C  441   4.173   4.244   2.643
    1C        C  442   4.000   4.371   2.765
    1C        C  443   4.116   4.291   2.764
    1C        C  444   3.938   4.407   2.886
    1C        C  445   4.000   4.369   3.007
    1C        C  446   3.808   4.465   3.130
    1C        C  447   3.936   4.405   3.127
    1C        C  448   3.739   4.490   3.251
    1C        C  449   3.806   4.468   3.374
    1C        C  450   3.606   4.531   3.496
    1C        C  451   3.743   4.497   3.497
    1C        C  452   3.537   4.544   3.618
    1C        C  453   3.605   4.536   3.742
    1C        C  454   3.396   4.544   3.863
    1C        C  455   3.537   4.551   3.865
    1C        C  456   3.328   4.535   3.987
    1C        C  457   3.398   4.538   4.110
    1C        C  458   3.193   4.499   4.236
    1C        C  459   3.330   4.533   4.234
    1C        C  460   3.123   4.482   4.358
    1C        C  461   3.192   4.510   4.478
    1C        C  462   2.994   4.431   4.603
    1C        C  463   3.124   4.487   4.600
    1C        C  464   2.929   4.397   4.724
    1C        C  465   2.989   4.438   4.846
    1C        C  466   2.800   4.333   4.957
    1C        C  467   2.904   4.427   4.961
    1C        C  468   4.123   4.285   2.038
    1C        C  469   4.187   4.249   2.158
    1C        C  470   4.005   4.370   2.278
    1C        C  471   4.129   4.301   2.277
    1C        C  472   3.938   4.401   2.398
    1C        C  473   4.000   4.366   2.520
    1C        C  474   3.813   4.466   2.641
    1C        C  475   3.943   4.409   2.641
    1C        C  476   3.744   4.487   2.762
    1C        C  477   3.812   4.471   2.885
    1C        C  478   3.604   4.517   3.007
    1C        C  479   3.742   4.489   3.007
    1C        C  480   3.531   4.530   3.128
    1C        C  481   3.601   4.520   3.250
    1C        C  482   3.393   4.533   3.377
    1C        C  483   3.535   4.538   3.374
    1C        C  484   3.323   4.533   3.499
    1C        C  485   3.396   4.543   3.619
    1C        C  486   3.188   4.501   3.745
    1C        C  487   3.326   4.532   3.741
    1C        C  488   3.125   4.478   3.869
    1C        C  489   3.191   4.500   3.992
    1C        C  490   3.001   4.408   4.116
    1C        C  491   3.127   4.473   4.115
    1C        C  492   2.936   4.380   4.239
    1C        C  493   2.994   4.426   4.359
    1C        C  494   2.825   4.299   4.483
    1C        C  495   2.934   4.390   4.482
    1C        C  496   2.772   4.251   4.605
    1C        C  497   2.816   4.311   4.724
    1C        C  498   2.661   4.161   4.845
    1C        C  499   2.750   4.271   4.842
    1C        C  500   2.592   4.116   4.958
    1C        C  501   4.001   4.351   2.038
    1C        C  502   3.813   4.458   2.155
    1C        C  503   3.942   4.401   2.155
    1C        C  504   3.741   4.477   2.275
    1C        C  505   3.808   4.455   2.398
    1C        C  506   3.603   4.507   2.522
    1C        C  507   3.743   4.483   2.520
    1C        C  508   3.532   4.517   2.644
    1C        C  509   3.606   4.518   2.763
    1C        C  510   3.394   4.525   2.885
    1C        C  511   3.535   4.529   2.885
    1C        C  512   3.320   4.523   3.006
    1C        C  513   3.390   4.533   3.128
    1C        C  514   3.188   4.493   3.255
    1C        C  515   3.326   4.522   3.253
    1C        C  516   3.121   4.469   3.377
    1C        C  517   3.185   4.502   3.499
    1C        C  518   2.997   4.409   3.626
    1C        C  519   3.121   4.477   3.623
    1C        C  520   2.938   4.371   3.749
    1C        C  521   3.001   4.408   3.869
    1C        C  522   2.836   4.279   3.998
    1C        C  523   2.945   4.368   3.993
    1C        C  524   2.780   4.235   4.120
    1C        C  525   2.827   4.291   4.241
    1C        C  526   2.692   4.129   4.362
    1C        C  527   2.774   4.244   4.363
    1C        C  528   2.649   4.073   4.485
    1C        C  529   2.684   4.140   4.604
    1C        C  530   2.582   3.957   4.730
    1C        C  531   2.634   4.089   4.726
    1C        C  532   2.538   3.899   4.852
    1C        C  533   2.524   3.994   4.958
    1C        C  534   3.616   4.545   2.039
    1C        C  535   3.750   4.504   2.038
    1C        C  536   3.534   4.534   2.155
    1C        C  537   3.604   4.513   2.278
    1C        C  538   3.392   4.518   2.397
    1C        C  539   3.533   4.517   2.400
    1C        C  540   3.320   4.510   2.519
    1C        C  541   3.391   4.513   2.642
    1C        C  542   3.183   4.484   2.766
    1C        C  543   3.321   4.512   2.765
    1C        C  544   3.117   4.462   2.888
    1C        C  545   3.183   4.488   3.011
    1C        C  546   2.993   4.402   3.134
    1C        C  547   3.118   4.468   3.134
    1C        C  548   2.936   4.360   3.257
    1C        C  549   3.000   4.397   3.377
    1C        C  550   2.831   4.280   3.503
    1C        C  551   2.942   4.367   3.503
    1C        C  552   2.781   4.230   3.626
    1C        C  553   2.832   4.278   3.748
    1C        C  554   2.702   4.119   3.874
    1C        C  555   2.788   4.231   3.874
    1C        C  556   2.658   4.063   3.996
    1C        C  557   2.693   4.123   4.119
    1C        C  558   2.588   3.941   4.242
    1C        C  559   2.657   4.064   4.242
    1C        C  560   2.558   3.880   4.366
    1C        C  561   2.588   3.946   4.488
    1C        C  562   2.517   3.749   4.611
    1C        C  563   2.564   3.882   4.611
    1C        C  564   2.506   3.681   4.734
    1C        C  565   2.512   3.758   4.853
    1C        C  566   2.528   3.546   4.974
    1C        C  567   2.522   3.685   4.972
    1C        C  568   3.325   4.477   2.039
    1C        C  569   3.393   4.515   2.156
    1C        C  570   3.180   4.482   2.279
    1C        C  571   3.319   4.514   2.277
    1C        C  572   3.114   4.454   2.401
    1C        C  573   3.182   4.482   2.522
    1C        C  574   2.986   4.402   2.646
    1C        C  575   3.115   4.461   2.644
    1C        C  576   2.928   4.360   2.768
    1C        C  577   2.995   4.391   2.889
    1C        C  578   2.828   4.266   3.015
    1C        C  579   2.935   4.358   3.013
    1C        C  580   2.777   4.218   3.137
    1C        C  581   2.828   4.269   3.259
    1C        C  582   2.693   4.113   3.384
    1C        C  583   2.778   4.226   3.383
    1C        C  584   2.650   4.060   3.508
    1C        C  585   2.693   4.120   3.629
    1C        C  586   2.595   3.935   3.755
    1C        C  587   2.659   4.061   3.753
    1C        C  588   2.570   3.867   3.876
    1C        C  589   2.597   3.935   3.997
    1C        C  590   2.531   3.736   4.124
    1C        C  591   2.568   3.872   4.120
    1C        C  592   2.515   3.671   4.248
    1C        C  593   2.524   3.743   4.369
    1C        C  594   2.511   3.532   4.492
    1C        C  595   2.510   3.674   4.491
    1C        C  596   2.515   3.465   4.617
    1C        C  597   2.514   3.539   4.737
    1C        C  598   2.530   3.326   4.860
    1C        C  599   2.521   3.467   4.859
    1C        C  600   2.520   3.246   4.974
    1C        C  601   3.193   4.437   2.042
    1C        C  602   2.982   4.392   2.160
    1C        C  603   3.117   4.438   2.159
    1C        C  604   2.923   4.356   2.284
    1C        C  605   2.990   4.387   2.404
    1C        C  606   2.818   4.266   2.531
    1C        C  607   2.926   4.357   2.527
    1C        C  608   2.763   4.219   2.652
    1C        C  609   2.817   4.273   2.771
    1C        C  610   2.683   4.109   2.896
    1C        C  611   2.773   4.218   2.894
    1C        C  612   2.644   4.053   3.020
    1C        C  613   2.688   4.109   3.142
    1C        C  614   2.584   3.926   3.266
    1C        C  615   2.650   4.051   3.265
    1C        C  616   2.562   3.864   3.391
    1C        C  617   2.589   3.932   3.512
    1C        C  618   2.525   3.731   3.637
    1C        C  619   2.566   3.866   3.635
    1C        C  620   2.510   3.660   3.759
    1C        C  621   2.525   3.733   3.879
    1C        C  622   2.501   3.524   4.009
    1C        C  623   2.517   3.665   4.002
    1C        C  624   2.508   3.455   4.132
    1C        C  625   2.509   3.530   4.251
    1C        C  626   2.531   3.318   4.377
    1C        C  627   2.511   3.458   4.373
    1C        C  628   2.549   3.251   4.500
    1C        C  629   2.536   3.326   4.619
    1C        C  630   2.595   3.119   4.740
    1C        C  631   2.551   3.255   4.740
    1C        C  632   2.615   3.049   4.862
    1C        C  633   2.558   3.111   4.978
    1C        C  634   2.778   4.305   2.055
    1C        C  635   2.893   4.384   2.048
    1C        C  636   2.749   4.229   2.169
    1C        C  637   2.811   4.268   2.290
    1C        C  638   2.670   4.109   2.410
    1C        C  639   2.758   4.220   2.411
    1C        C  640   2.631   4.048   2.531
    1C        C  641   2.679   4.105   2.651
    1C        C  642   2.585   3.919   2.776
    1C        C  643   2.646   4.047   2.775
    1C        C  644   2.562   3.854   2.899
    1C        C  645   2.585   3.924   3.020
    1C        C  646   2.526   3.723   3.148
    1C        C  647   2.562   3.860   3.143
    1C        C  648   2.508   3.657   3.272
    1C        C  649   2.521   3.729   3.393
    1C        C  650   2.500   3.520   3.518
    1C        C  651   2.506   3.661   3.516
    1C        C  652   2.509   3.451   3.641
    1C        C  653   2.503   3.519   3.765
    1C        C  654   2.527   3.311   3.888
    1C        C  655   2.503   3.450   3.888
    1C        C  656   2.536   3.244   4.012
    1C        C  657   2.526   3.315   4.134
    1C        C  658   2.586   3.111   4.259
    1C        C  659   2.549   3.247   4.256
    1C        C  660   2.629   3.051   4.380
    1C        C  661   2.604   3.121   4.500
    1C        C  662   2.707   2.933   4.624
    1C        C  663   2.630   3.052   4.621
    1C        C  664   2.748   2.873   4.745
    1C        C  665   2.692   2.928   4.863
    1C        C  666   2.745   2.870   4.980
    1C        C  667   2.677   4.023   2.057
    1C        C  668   2.683   4.104   2.171
    1C        C  669   2.580   3.912   2.292
    1C        C  670   2.641   4.041   2.290
    1C        C  671   2.550   3.846   2.413
    1C        C  672   2.579   3.916   2.532
    1C        C  673   2.505   3.721   2.660
    1C        C  674   2.548   3.855   2.656
    1C        C  675   2.494   3.650   2.782
    1C        C  676   2.516   3.720   2.902
    1C        C  677   2.504   3.513   3.031
    1C        C  678   2.506   3.654   3.027
    1C        C  679   2.501   3.443   3.154
    1C        C  680   2.502   3.516   3.275
    1C        C  681   2.531   3.307   3.398
    1C        C  682   2.502   3.445   3.398
    1C        C  683   2.549   3.240   3.521
    1C        C  684   2.531   3.311   3.642
    1C        C  685   2.600   3.113   3.771
    1C        C  686   2.545   3.244   3.766
    1C        C  687   2.632   3.052   3.894
    1C        C  688   2.591   3.113   4.014
    1C        C  689   2.702   2.935   4.137
    1C        C  690   2.615   3.046   4.136
    1C        C  691   2.761   2.888   4.256
    1C        C  692   2.714   2.939   4.380
    1C        C  693   2.750   2.877   4.502
    1C        C  694   2.623   3.894   2.056
    1C        C  695   2.525   3.703   2.173
    1C        C  696   2.575   3.835   2.174
    1C        C  697   2.501   3.637   2.295
    1C        C  698   2.514   3.710   2.415
    1C        C  699   2.488   3.505   2.539
    1C        C  700   2.494   3.647   2.540
    1C        C  701   2.495   3.437   2.663
    1C        C  702   2.489   3.509   2.785
    1C        C  703   2.526   3.303   2.910
    1C        C  704   2.501   3.442   2.909
    1C        C  705   2.545   3.234   3.032
    1C        C  706   2.531   3.305   3.153
    1C        C  707   2.600   3.106   3.279
    1C        C  708   2.550   3.239   3.276
    1C        C  709   2.634   3.045   3.401
    1C        C  710   2.606   3.110   3.523
    1C        C  711   2.712   2.935   3.647
    1C        C  712   2.631   3.050   3.648
    1C        C  713   2.760   2.883   3.770
    1C        C  714   2.714   2.937   3.892
    1C        C  715   2.751   2.880   4.016
    1C        C  716   2.445   3.499   2.057
    1C        C  717   2.483   3.634   2.059
    1C        C  718   2.470   3.422   2.175
    1C        C  719   2.485   3.495   2.296
    1C        C  720   2.522   3.291   2.422
    1C        C  721   2.490   3.429   2.421
    1C        C  722   2.542   3.227   2.546
    1C        C  723   2.523   3.299   2.666
    1C        C  724   2.599   3.103   2.789
    1C        C  725   2.543   3.233   2.789
    1C        C  726   2.629   3.039   2.911
    1C        C  727   2.597   3.102   3.033
    1C        C  728   2.710   2.925   3.156
    1C        C  729   2.630   3.042   3.157
    1C        C  730   2.758   2.875   3.279
    1C        C  731   2.715   2.929   3.403
    1C        C  732   2.759   2.877   3.527
    1C        C  733   2.495   3.195   2.071
    1C        C  734   2.489   3.281   2.182
    1C        C  735   2.591   3.088   2.302
    1C        C  736   2.530   3.217   2.302
    1C        C  737   2.623   3.027   2.425
    1C        C  738   2.592   3.094   2.545
    1C        C  739   2.707   2.918   2.668
    1C        C  740   2.629   3.036   2.668
    1C        C  741   2.751   2.864   2.791
    1C        C  742   2.710   2.923   2.913
    1C        C  743   2.747   2.863   3.035
    1C        C  744   2.554   3.070   2.067
    1C        C  745   2.688   2.897   2.185
    1C        C  746   2.616   3.018   2.182
    1C        C  747   2.732   2.840   2.306
    1C        C  748   2.693   2.904   2.426
    1C        C  749   2.738   2.850   2.548
    1C        C  750   2.741   2.843   2.067
    1C        C  751   3.657   2.288   2.000
    1C        O  752   3.649   2.175   2.056
    1C        O  753   3.640   2.301   1.862
    1C        C  754   4.628   3.038   1.993
    1C        O  755   4.614   2.987   1.879
    1C        O  756   4.757   3.021   2.046
    1C        C  757   4.479   4.227   2.002
    1C        O  758   4.559   4.278   2.085
    1C        O  759   4.494   4.270   1.870
    1C        C  760   3.580   4.647   1.938
    1C        O  761   3.585   4.769   1.969
    1C        O  762   3.584   4.629   1.799
    1C        C  763   2.882   4.490   1.946
    1C        O  764   2.842   4.474   1.827
    1C        O  765   2.844   4.622   1.976
    1C        C  766   2.332   3.467   1.966
    1C        O  767   2.341   3.482   1.841
    1C        O  768   2.198   3.464   2.008
    1C        C  769   4.682   3.572   5.060
    1C        O  770   4.655   3.573   5.183
    1C        O  771   4.817   3.586   5.027
    1C        C  772   4.259   4.424   5.061
    1C        O  773   4.244   4.354   5.164
    1C        O  774   4.373   4.504   5.046
    1C        C  775   4.132   2.504   5.056
    1C        O  776   4.193   2.406   5.005
    1C        O  777   4.202   2.556   5.166
    1C        C  778   2.906   4.528   5.069
    1C        O  779   2.894   4.652   5.047
    1C        O  780   2.939   4.486   5.198
    1C        C  781   2.480   3.025   5.069
    1C        O  782   2.404   2.929   5.036
    1C        O  783   2.494   3.019   5.207
    1C        C  784   2.413   4.000   5.056
    1C        O  785   2.296   4.021   5.014
    1C        O  786   2.441   4.007   5.193
    1C        C  787   2.938   2.425   2.013
    1C        O  788   2.912   2.424   1.890
    1C        O  789   2.885   2.311   2.073
    1C        C  790   3.184   2.379   5.075
    1C        O  791   3.137   2.265   5.051
    1C        O  792   3.200   2.415   5.209
    1C        H  793   4.299   3.010   5.067
    1C        H  794   4.140   2.830   5.049
    1C        H  795   4.459   3.139   5.066
    1C        H  796   4.482   3.377   5.055
    1C        H  797   4.598   3.817   5.026
    1C        H  798   4.399   3.964   5.054
    1C        H  799   4.263   4.155   5.045
    1C        H  800   4.035   4.543   5.020
    1C        H  801   3.801   4.530   5.040
    1C        H  802   3.587   4.647   5.028
    1C        H  803   3.390   4.514   5.050
    1C        H  804   3.151   4.522   5.049
    1C        H  805   3.878   2.479   5.060
    1C        H  806   3.667   2.494   5.073
    1C        H  807   2.979   2.520   5.043
    1C        H  808   3.440   2.461   5.073
    1C        H  809   2.882   2.757   5.080
    1C        H  810   2.724   2.909   5.077
    1C        H  811   2.446   3.285   5.042
    1C        H  812   2.594   3.513   5.052
    1C        H  813   2.478   3.726   5.061
    1C        H  814   2.571   4.189   5.034
    1C        H  815   2.798   4.284   5.052
    1C        H  816   2.690   2.864   1.976
    1C        H  817   2.812   2.660   1.990
    1C        H  818   3.222   2.469   1.986
    1C        H  819   3.423   2.371   1.996
    1C        H  820   3.826   2.564   1.982
    1C        H  821   4.067   2.602   1.970
    1C        H  822   4.232   2.726   1.966
    1C        H  823   4.416   2.888   1.979
    1C        H  824   4.621   3.302   1.986
    1C        H  825   4.474   3.517   1.966
    1C        H  826   4.467   3.746   1.956
    1C        H  827   3.809   4.540   1.956
    1C        H  828   3.939   4.342   1.952
    1C        H  829   4.176   4.281   1.945
    1C        H  830   4.491   3.954   1.969
    1C        H  831   2.642   3.839   1.966
    1C        H  832   2.697   4.064   1.960
    1C        H  833   2.697   4.322   1.987
    1C        H  834   3.372   4.475   1.943
    1C        H  835   3.147   4.428   1.945
    1C        H  836   2.509   2.998   2.002
    1C        H  837   2.445   3.226   1.982
    1C        H  838   2.432   3.690   1.983
    2V3OU   H29  839   2.800   3.552   3.717
    2V3OU   C27  840   2.792   3.500   3.816
    2V3OU   H27  841   2.736   3.564   3.890
    2V3OU   H28  842   2.736   3.404   3.802
    2V3OU   O11  843   2.919   3.467   3.872
    2V3OU   C15  844   2.925   3.394   3.990
    2V3OU   C13  845   3.052   3.370   4.047
    2V3OU   C14  846   3.081   3.268   4.138
    2V3OU   C16  847   2.983   3.178   4.181
    2V3OU    H6  848   2.994   3.107   4.264
    2V3OU   C12  849   3.216   3.228   4.184
    2V3OU    O2  850   3.239   3.126   4.253
    2V3OU   C10  851   3.328   3.307   4.132
    2V3OU    C8  852   3.457   3.268   4.165
    2V3OU   O10  853   3.483   3.153   4.234
    2V3OU   H26  854   3.400   3.114   4.263
    2V3OU    C6  855   3.566   3.350   4.122
    2V3OU    C5  856   3.535   3.469   4.057
    2V3OU    C4  857   3.702   3.291   4.118
    2V3OU    H4  858   3.732   3.231   4.209
    2V3OU    H5  859   3.709   3.221   4.029
    2V3OU    C2  860   3.814   3.394   4.106
    2V3OU    O6  861   3.812   3.474   4.224
    2V3OU   H21  862   3.768   3.555   4.194
    2V3OU    C3  863   3.781   3.494   3.995
    2V3OU    H2  864   3.861   3.571   3.999
    2V3OU    H3  865   3.779   3.438   3.898
    2V3OU   C25  866   3.951   3.327   4.095
    2V3OU    O7  867   3.998   3.299   3.984
    2V3OU   C26  868   4.023   3.288   4.223
    2V3OU   H22  869   4.062   3.382   4.270
    2V3OU   H23  870   4.109   3.220   4.199
    2V3OU    O8  871   3.961   3.209   4.322
    2V3OU   H24  872   3.921   3.269   4.387
    2V3OU    C1  873   3.647   3.561   4.019
    2V3OU    H1  874   3.620   3.613   3.922
    2V3OU    O3  875   3.659   3.656   4.125
    2V3OU   C19  876   3.617   3.792   4.111
    2V3OU    H9  877   3.523   3.804   4.050
    2V3OU    O4  878   3.711   3.850   4.023
    2V3OU   C20  879   3.844   3.872   4.070
    2V3OU   H10  880   3.888   3.771   4.093
    2V3OU   C24  881   3.607   3.853   4.250
    2V3OU   H16  882   3.546   3.783   4.313
    2V3OU   H17  883   3.555   3.952   4.244
    2V3OU   C23  884   3.750   3.873   4.301
    2V3OU   H15  885   3.797   3.770   4.316
    2V3OU    N1  886   3.737   3.955   4.420
    2V3OU   H19  887   3.802   3.929   4.491
    2V3OU   H20  888   3.648   3.929   4.458
    2V3OU   C21  889   3.846   3.948   4.203
    2V3OU   H11  890   3.946   3.927   4.250
    2V3OU    O5  891   3.827   4.088   4.190
    2V3OU   H18  892   3.770   4.100   4.267
    2V3OU   C22  893   3.913   3.947   3.957
    2V3OU   H12  894   3.865   4.046   3.938
    2V3OU   H13  895   3.902   3.890   3.861
    2V3OU   H14  896   4.024   3.951   3.972
    2V3OU   C11  897   3.160   3.467   4.025
    2V3OU    O1  898   3.135   3.583   3.988
    2V3OU    C9  899   3.298   3.426   4.059
    2V3OU    C7  900   3.403   3.504   4.013
    2V3OU    O9  901   3.389   3.615   3.932
    2V3OU   H25  902   3.293   3.624   3.923
    2V3OU   C17  903   2.825   3.310   4.041
    2V3OU    H7  904   2.728   3.356   4.020
    2V3OU   C18  905   2.857   3.209   4.131
    2V3OU    H8  906   2.788   3.167   4.206
    3SOL     OW  907   3.356   4.801   5.807
    3SOL    HW1  908   3.394   4.752   5.885
    3SOL    HW2  909   3.328   4.735   5.737
    4SOL     OW  910   7.005   6.915   0.063
    4SOL    HW1  911   6.915   6.916   0.107
    4SOL    HW2  912   7.017   6.999   0.010
    5SOL     OW  913   5.043   1.158   3.052
    5SOL    HW1  914   5.141   1.146   3.070
    5SOL    HW2  915   5.011   1.241   3.098
    6SOL     OW  916   5.296   2.148   3.053
    6SOL    HW1  917   5.374   2.143   2.990
    6SOL    HW2  918   5.263   2.056   3.073
    7SOL     OW  919   0.998   4.086   5.022
    7SOL    HW1  920   0.909   4.055   5.056
    7SOL    HW2  921   1.034   4.157   5.082
    8SOL     OW  922   2.547   2.094   5.198
    8SOL    HW1  923   2.608   2.097   5.119
    8SOL    HW2  924   2.557   2.007   5.245
    9SOL     OW  925   6.464   1.373   5.957
    9SOL    HW1  926   6.444   1.362   5.860
    9SOL    HW2  927   6.562   1.391   5.969
   10SOL     OW  928   3.639   4.971   4.185
   10SOL    HW1  929   3.649   4.938   4.091
   10SOL    HW2  930   3.548   4.949   4.218
   11SOL     OW  931   1.465   1.420   6.851
   11SOL    HW1  932   1.421   1.470   6.925
   11SOL    HW2  933   1.560   1.451   6.842
   12SOL     OW  934   2.673   4.735   3.910
   12SOL    HW1  935   2.749   4.700   3.964
   12SOL    HW2  936   2.603   4.771   3.972
   13SOL     OW  937   3.066   6.038   2.909
   13SOL    HW1  938   3.091   6.043   2.812
   13SOL    HW2  939   2.984   6.092   2.925
   14SOL     OW  940   4.378   4.701   6.099
   14SOL    HW1  941   4.420   4.614   6.124
   14SOL    HW2  942   4.343   4.695   6.005
   15SOL     OW  943   0.478   6.423   6.259
   15SOL    HW1  944   0.505   6.358   6.188
   15SOL    HW2  945   0.423   6.376   6.328
   16SOL     OW  946   5.409   2.380   6.481
   16SOL    HW1  947   5.403   2.462   6.424
   16SOL    HW2  948   5.404   2.405   6.577
   17SOL     OW  949   5.515   0.716   6.331
   17SOL    HW1  950   5.588   0.659   6.293
   17SOL    HW2  951   5.555   0.785   6.391
   18SOL     OW  952   3.369   1.264   5.151
   18SOL    HW1  953   3.446   1.224   5.101
   18SOL    HW2  954   3.351   1.209   5.233
   19SOL     OW  955   0.314   1.787   2.472
   19SOL    HW1  956   0.338   1.778   2.569
   19SOL    HW2  957   0.352   1.872   2.436
   20SOL     OW  958   5.669   1.851   5.529
   20SOL    HW1  959   5.766   1.844   5.504
   20SOL    HW2  960   5.613   1.837   5.447
   21SOL     OW  961   3.136   6.748   2.993
   21SOL    HW1  962   3.044   6.749   2.956
   21SOL    HW2  963   3.167   6.842   3.009
   22SOL     OW  964   0.890   6.038   6.160
   22SOL    HW1  965   0.898   6.045   6.260
   22SOL    HW2  966   0.970   5.991   6.124
   23SOL     OW  967   4.535   5.440   2.318
   23SOL    HW1  968   4.464   5.507   2.339
   23SOL    HW2  969   4.535   5.421   2.220
   24SOL     OW  970   3.820   0.072   2.274
   24SOL    HW1  971   3.795   0.145   2.210
   24SOL    HW2  972   3.919   0.058   2.272
   25SOL     OW  973   2.810   6.930   4.281
   25SOL    HW1  974   2.741   6.946   4.351
   25SOL    HW2  975   2.770   6.879   4.205
   26SOL     OW  976   0.902   1.981   6.762
   26SOL    HW1  977   0.855   1.935   6.687
   26SOL    HW2  978   0.961   1.916   6.810
   27SOL     OW  979   1.252   0.976   2.396
   27SOL    HW1  980   1.268   0.878   2.412
   27SOL    HW2  981   1.339   1.021   2.376
   28SOL     OW  982   1.010   0.759   4.075
   28SOL    HW1  983   1.067   0.736   4.155
   28SOL    HW2  984   1.014   0.858   4.059
   29SOL     OW  985   6.042   0.947   1.096
   29SOL    HW1  986   6.141   0.944   1.096
   29SOL    HW2  987   6.011   1.027   1.148
   30SOL     OW  988   3.429   0.644   4.816
   30SOL    HW1  989   3.510   0.640   4.757
   30SOL    HW2  990   3.380   0.730   4.800
   31SOL     OW  991   0.220   2.237   5.258
   31SOL    HW1  992   0.316   2.208   5.262
   31SOL    HW2  993   0.214   2.336   5.270
   32SOL     OW  994   1.467   1.377   2.448
   32SOL    HW1  995   1.550   1.376   2.504
   32SOL    HW2  996   1.451   1.469   2.414
   33SOL     OW  997   0.160   3.672   5.158
   33SOL    HW1  998   0.110   3.646   5.240
   33SOL    HW2  999   0.112   3.639   5.077
   34SOL     OW 1000   2.756   5.470   5.014
   34SOL    HW1 1001   2.738   5.560   4.974
   34SOL    HW2 1002   2.851   5.445   4.996
   35SOL     OW 1003   4.479   1.652   5.487
   35SOL    HW1 1004   4.526   1.614   5.408
   35SOL    HW2 1005   4.395   1.698   5.458
   36SOL     OW 1006   5.220   0.843   4.223
   36SOL    HW1 1007   5.244   0.747   4.206
   36SOL    HW2 1008   5.303   0.899   4.221
   37SOL     OW 1009   2.062   1.367   4.167
   37SOL    HW1 1010   2.080   1.463   4.187
   37SOL    HW2 1011   2.091   1.311   4.245
   38SOL     OW 1012   2.057   4.179   1.630
   38SOL    HW1 1013   2.041   4.088   1.670
   38SOL    HW2 1014   2.051   4.248   1.701
   39SOL     OW 1015   6.478   4.293   6.571
   39SOL    HW1 1016   6.477   4.338   6.661
   39SOL    HW2 1017   6.538   4.343   6.510
   40SOL     OW 1018   3.458   0.734   6.250
   40SOL    HW1 1019   3.464   0.793   6.170
   40SOL    HW2 1020   3.383   0.668   6.239
   41SOL     OW 1021   6.484   4.173   2.621
   41SOL    HW1 1022   6.473   4.272   2.609
   41SOL    HW2 1023   6.573   4.154   2.661
   42SOL     OW 1024   3.009   6.576   4.069
   42SOL    HW1 1025   2.940   6.508   4.045
   42SOL    HW2 1026   3.095   6.530   4.093
   43SOL     OW 1027   3.889   6.792   5.154
   43SOL    HW1 1028   3.878   6.788   5.055
   43SOL    HW2 1029   3.921   6.883   5.181
   44SOL     OW 1030   5.944   3.249   4.912
   44SOL    HW1 1031   5.851   3.212   4.912
   44SOL    HW2 1032   5.947   3.330   4.853
   45SOL     OW 1033   4.299   5.834   2.273
   45SOL    HW1 1034   4.239   5.914   2.263
   45SOL    HW2 1035   4.351   5.822   2.188
   46SOL     OW 1036   0.277   3.090   3.883
   46SOL    HW1 1037   0.188   3.083   3.839
   46SOL    HW2 1038   0.320   3.000   3.886
   47SOL     OW 1039   4.929   3.928   1.697
   47SOL    HW1 1040   5.022   3.933   1.662
   47SOL    HW2 1041   4.931   3.924   1.797
   48SOL     OW 1042   0.442   1.738   6.418
   48SOL    HW1 1043   0.463   1.795   6.338
   48SOL    HW2 1044   0.354   1.694   6.405
   49SOL     OW 1045   5.380   2.903   1.652
   49SOL    HW1 1046   5.315   2.852   1.595
   49SOL    HW2 1047   5.330   2.972   1.705
   50SOL     OW 1048   6.094   1.686   6.056
   50SOL    HW1 1049   6.068   1.680   6.153
   50SOL    HW2 1050   6.084   1.780   6.025
   51SOL     OW 1051   1.749   5.584   2.645
   51SOL    HW1 1052   1.799   5.531   2.713
   51SOL    HW2 1053   1.698   5.522   2.585
   52SOL     OW 1054   5.509   2.370   1.852
   52SOL    HW1 1055   5.593   2.329   1.887
   52SOL    HW2 1056   5.431   2.338   1.906
   53SOL     OW 1057   4.773   0.156   3.495
   53SOL    HW1 1058   4.763   0.058   3.477
   53SOL    HW2 1059   4.869   0.177   3.514
   54SOL     OW 1060   5.852   6.432   6.970
   54SOL    HW1 1061   5.763   6.473   6.949
   54SOL    HW2 1062   5.876   6.367   6.898
   55SOL     OW 1063   2.162   2.292   5.768
   55SOL    HW1 1064   2.157   2.211   5.709
   55SOL    HW2 1065   2.218   2.272   5.848
   56SOL     OW 1066   1.205   1.552   1.306
   56SOL    HW1 1067   1.291   1.513   1.274
   56SOL    HW2 1068   1.140   1.556   1.231
   57SOL     OW 1069   3.828   1.247   6.911
   57SOL    HW1 1070   3.772   1.318   6.868
   57SOL    HW2 1071   3.924   1.267   6.896
   58SOL     OW 1072   0.410   0.251   6.418
   58SOL    HW1 1073   0.322   0.280   6.381
   58SOL    HW2 1074   0.459   0.198   6.348
   59SOL     OW 1075   6.751   3.389   6.301
   59SOL    HW1 1076   6.713   3.479   6.276
   59SOL    HW2 1077   6.754   3.381   6.400
   60SOL     OW 1078   5.308   1.613   3.434
   60SOL    HW1 1079   5.391   1.655   3.399
   60SOL    HW2 1080   5.238   1.612   3.362
   61SOL     OW 1081   0.303   0.690   4.366
   61SOL    HW1 1082   0.320   0.593   4.380
   61SOL    HW2 1083   0.269   0.705   4.273
   62SOL     OW 1084   1.236   1.155   1.447
   62SOL    HW1 1085   1.141   1.136   1.470
   62SOL    HW2 1086   1.283   1.192   1.527
   63SOL     OW 1087   3.921   0.492   4.476
   63SOL    HW1 1088   3.870   0.418   4.432
   63SOL    HW2 1089   3.947   0.463   4.569
   64SOL     OW 1090   1.069   3.405   6.316
   64SOL    HW1 1091   1.141   3.375   6.379
   64SOL    HW2 1092   1.111   3.438   6.231
   65SOL     OW 1093   1.027   6.497   5.834
   65SOL    HW1 1094   1.072   6.474   5.921
   65SOL    HW2 1095   0.967   6.575   5.847
   66SOL     OW 1096   3.491   0.052   2.947
   66SOL    HW1 1097   3.445   0.033   2.860
   66SOL    HW2 1098   3.547   0.134   2.939
   67SOL     OW 1099   0.166   2.369   6.312
   67SOL    HW1 1100   0.106   2.416   6.378
   67SOL    HW2 1101   0.190   2.279   6.348
   68SOL     OW 1102   6.933   1.648   5.921
   68SOL    HW1 1103   7.011   1.629   5.981
   68SOL    HW2 1104   6.965   1.659   5.827
   69SOL     OW 1105   1.888   4.133   6.059
   69SOL    HW1 1106   1.969   4.091   6.019
   69SOL    HW2 1107   1.867   4.218   6.012
   70SOL     OW 1108   5.209   4.329   4.963
   70SOL    HW1 1109   5.160   4.338   5.050
   70SOL    HW2 1110   5.302   4.297   4.981
   71SOL     OW 1111   4.692   1.933   3.874
   71SOL    HW1 1112   4.685   1.856   3.938
   71SOL    HW2 1113   4.789   1.949   3.852
   72SOL     OW 1114   0.234   1.047   3.099
   72SOL    HW1 1115   0.291   0.976   3.140
   72SOL    HW2 1116   0.293   1.121   3.065
   73SOL     OW 1117   3.361   0.057   0.644
   73SOL    HW1 1118   3.331   0.094   0.732
   73SOL    HW2 1119   3.432   7.008   0.659
   74SOL     OW 1120   2.497   1.710   6.453
   74SOL    HW1 1121   2.433   1.782   6.480
   74SOL    HW2 1122   2.526   1.724   6.359
   75SOL     OW 1123   3.748   1.246   1.243
   75SOL    HW1 1124   3.842   1.277   1.231
   75SOL    HW2 1125   3.716   1.274   1.334
   76SOL     OW 1126   2.463   4.171   5.660
   76SOL    HW1 1127   2.393   4.200   5.594
   76SOL    HW2 1128   2.517   4.098   5.620
   77SOL     OW 1129   2.172   5.358   4.184
   77SOL    HW1 1130   2.177   5.285   4.252
   77SOL    HW2 1131   2.215   5.440   4.220
   78SOL     OW 1132   4.421   1.581   1.232
   78SOL    HW1 1133   4.324   1.594   1.252
   78SOL    HW2 1134   4.449   1.643   1.159
   79SOL     OW 1135   2.830   6.018   2.261
   79SOL    HW1 1136   2.826   6.111   2.298
   79SOL    HW2 1137   2.883   6.019   2.176
   80SOL     OW 1138   4.799   1.795   5.252
   80SOL    HW1 1139   4.763   1.707   5.282
   80SOL    HW2 1140   4.724   1.852   5.218
   81SOL     OW 1141   2.074   0.107   0.032
   81SOL    HW1 1142   2.005   0.120   6.981
   81SOL    HW2 1143   2.031   0.072   0.115
   82SOL     OW 1144   0.684   6.201   1.975
   82SOL    HW1 1145   0.713   6.143   2.051
   82SOL    HW2 1146   0.706   6.156   1.888
   83SOL     OW 1147   0.034   1.629   5.673
   83SOL    HW1 1148   0.001   1.535   5.678
   83SOL    HW2 1149   0.072   1.647   5.583
   84SOL     OW 1150   6.211   4.176   3.388
   84SOL    HW1 1151   6.227   4.087   3.430
   84SOL    HW2 1152   6.164   4.164   3.300
   85SOL     OW 1153   2.237   0.358   3.502
   85SOL    HW1 1154   2.287   0.389   3.421
   85SOL    HW2 1155   2.300   0.345   3.578
   86SOL     OW 1156   6.339   1.012   6.686
   86SOL    HW1 1157   6.316   1.034   6.591
   86SOL    HW2 1158   6.256   0.997   6.739
   87SOL     OW 1159   4.762   4.271   0.531
   87SOL    HW1 1160   4.717   4.350   0.488
   87SOL    HW2 1161   4.838   4.303   0.588
   88SOL     OW 1162   2.726   1.986   5.738
   88SOL    HW1 1163   2.721   2.021   5.831
   88SOL    HW2 1164   2.671   2.045   5.678
   89SOL     OW 1165   2.866   3.496   1.523
   89SOL    HW1 1166   2.823   3.412   1.491
   89SOL    HW2 1167   2.963   3.479   1.542
   90SOL     OW 1168   5.165   4.358   1.834
   90SOL    HW1 1169   5.108   4.356   1.915
   90SOL    HW2 1170   5.109   4.382   1.754
   91SOL     OW 1171   6.195   5.832   6.560
   91SOL    HW1 1172   6.264   5.811   6.491
   91SOL    HW2 1173   6.214   5.779   6.643
   92SOL     OW 1174   4.937   3.754   1.073
   92SOL    HW1 1175   4.915   3.712   1.161
   92SOL    HW2 1176   4.869   3.824   1.052
   93SOL     OW 1177   2.832   3.135   0.645
   93SOL    HW1 1178   2.875   3.214   0.689
   93SOL    HW2 1179   2.902   3.074   0.609
   94SOL     OW 1180   2.388   6.646   0.431
   94SOL    HW1 1181   2.307   6.588   0.420
   94SOL    HW2 1182   2.438   6.617   0.512
   95SOL     OW 1183   1.201   0.845   3.797
   95SOL    HW1 1184   1.113   0.852   3.749
   95SOL    HW2 1185   1.198   0.769   3.861
   96SOL     OW 1186   4.951   5.311   7.003
   96SOL    HW1 1187   4.876   5.250   6.981
   96SOL    HW2 1188   5.035   5.258   7.015
   97SOL     OW 1189   2.074   4.675   5.455
   97SOL    HW1 1190   2.164   4.668   5.412
   97SOL    HW2 1191   2.065   4.763   5.500
   98SOL     OW 1192   0.794   2.269   1.173
   98SOL    HW1 1193   0.756   2.248   1.083
   98SOL    HW2 1194   0.730   2.241   1.244
   99SOL     OW 1195   4.008   3.892   3.081
   99SOL    HW1 1196   3.910   3.908   3.069
   99SOL    HW2 1197   4.029   3.886   3.178
  100SOL     OW 1198   6.749   0.292   4.161
  100SOL    HW1 1199   6.820   0.353   4.126
  100SOL    HW2 1200   6.782   0.247   4.245
  101SOL     OW 1201   0.625   5.218   2.194
  101SOL    HW1 1202   0.648   5.302   2.145
  101SOL    HW2 1203   0.666   5.220   2.285
  102SOL     OW 1204   3.022   6.278   2.092
  102SOL    HW1 1205   2.970   6.364   2.093
  102SOL    HW2 1206   2.968   6.207   2.045
  103SOL     OW 1207   1.696   1.108   2.169
  103SOL    HW1 1208   1.757   1.044   2.124
  103SOL    HW2 1209   1.749   1.169   2.228
  104SOL     OW 1210   1.540   5.245   2.596
  104SOL    HW1 1211   1.532   5.181   2.672
  104SOL    HW2 1212   1.449   5.274   2.566
  105SOL     OW 1213   5.073   1.553   6.352
  105SOL    HW1 1214   5.062   1.566   6.450
  105SOL    HW2 1215   5.145   1.486   6.335
  106SOL     OW 1216   4.945   5.043   1.520
  106SOL    HW1 1217   4.883   4.988   1.577
  106SOL    HW2 1218   4.971   5.125   1.570
  107SOL     OW 1219   6.631   0.896   6.709
  107SOL    HW1 1220   6.689   0.940   6.778
  107SOL    HW2 1221   6.550   0.952   6.694
  108SOL     OW 1222   2.996   6.869   4.923
  108SOL    HW1 1223   2.900   6.892   4.937
  108SOL    HW2 1224   3.002   6.783   4.873
  109SOL     OW 1225   3.525   0.526   3.047
  109SOL    HW1 1226   3.562   0.519   3.139
  109SOL    HW2 1227   3.452   0.460   3.034
  110SOL     OW 1228   2.321   5.239   4.971
  110SOL    HW1 1229   2.270   5.165   5.014
  110SOL    HW2 1230   2.360   5.208   4.885
  111SOL     OW 1231   0.006   1.411   2.631
  111SOL    HW1 1232   0.016   1.497   2.681
  111SOL    HW2 1233   6.986   1.429   2.541
  112SOL     OW 1234   4.702   6.574   6.420
  112SOL    HW1 1235   4.704   6.633   6.339
  112SOL    HW2 1236   4.617   6.521   6.421
  113SOL     OW 1237   6.514   5.292   3.116
  113SOL    HW1 1238   6.585   5.257   3.176
  113SOL    HW2 1239   6.505   5.391   3.129
  114SOL     OW 1240   0.812   5.177   2.827
  114SOL    HW1 1241   0.740   5.243   2.808
  114SOL    HW2 1242   0.825   5.118   2.748
  115SOL     OW 1243   6.033   1.193   3.507
  115SOL    HW1 1244   5.963   1.247   3.554
  115SOL    HW2 1245   6.079   1.250   3.439
  116SOL     OW 1246   0.031   5.876   1.018
  116SOL    HW1 1247   0.044   5.974   1.010
  116SOL    HW2 1248   6.959   5.857   1.053
  117SOL     OW 1249   2.396   1.057   0.293
  117SOL    HW1 1250   2.416   1.128   0.225
  117SOL    HW2 1251   2.480   1.033   0.342
  118SOL     OW 1252   1.500   1.284   3.648
  118SOL    HW1 1253   1.496   1.301   3.746
  118SOL    HW2 1254   1.502   1.372   3.599
  119SOL     OW 1255   0.603   6.615   0.128
  119SOL    HW1 1256   0.542   6.690   0.100
  119SOL    HW2 1257   0.563   6.527   0.100
  120SOL     OW 1258   5.146   7.000   4.655
  120SOL    HW1 1259   5.050   7.005   4.682
  120SOL    HW2 1260   5.163   6.913   4.609
  121SOL     OW 1261   1.610   4.102   7.017
  121SOL    HW1 1262   1.624   4.076   6.921
  121SOL    HW2 1263   1.512   4.107   0.017
  122SOL     OW 1264   1.464   3.530   0.392
  122SOL    HW1 1265   1.500   3.525   0.485
  122SOL    HW2 1266   1.529   3.579   0.334
  123SOL     OW 1267   1.326   0.768   0.913
  123SOL    HW1 1268   1.269   0.794   0.834
  123SOL    HW2 1269   1.374   0.849   0.948
  124SOL     OW 1270   3.227   2.161   0.522
  124SOL    HW1 1271   3.191   2.194   0.609
  124SOL    HW2 1272   3.274   2.235   0.475
  125SOL     OW 1273   3.808   2.889   0.131
  125SOL    HW1 1274   3.838   2.797   0.105
  125SOL    HW2 1275   3.709   2.888   0.147
  126SOL     OW 1276   2.953   3.352   3.526
  126SOL    HW1 1277   2.901   3.298   3.460
  126SOL    HW2 1278   2.934   3.449   3.511
  127SOL     OW 1279   6.736   6.146   5.552
  127SOL    HW1 1280   6.724   6.229   5.498
  127SOL    HW2 1281   6.810   6.092   5.514
  128SOL     OW 1282   5.338   3.662   2.383
  128SOL    HW1 1283   5.387   3.576   2.367
  128SOL    HW2 1284   5.316   3.671   2.480
  129SOL     OW 1285   2.513   4.757   1.040
  129SOL    HW1 1286   2.548   4.774   1.132
  129SOL    HW2 1287   2.569   4.806   0.973
  130SOL     OW 1288   5.905   1.193   4.435
  130SOL    HW1 1289   5.814   1.169   4.401
  130SOL    HW2 1290   5.900   1.214   4.533
  131SOL     OW 1291   5.826   0.513   4.161
  131SOL    HW1 1292   5.869   0.424   4.168
  131SOL    HW2 1293   5.895   0.585   4.168
  132SOL     OW 1294   3.318   3.770   1.340
  132SOL    HW1 1295   3.317   3.775   1.240
  132SOL    HW2 1296   3.251   3.834   1.378
  133SOL     OW 1297   5.218   1.429   3.628
  133SOL    HW1 1298   5.242   1.454   3.721
  133SOL    HW2 1299   5.251   1.499   3.565
  134SOL     OW 1300   0.472   0.791   2.556
  134SOL    HW1 1301   0.384   0.747   2.566
  134SOL    HW2 1302   0.536   0.730   2.510
  135SOL     OW 1303   4.929   3.452   4.442
  135SOL    HW1 1304   4.938   3.385   4.368
  135SOL    HW2 1305   4.854   3.426   4.502
  136SOL     OW 1306   2.682   6.039   4.418
  136SOL    HW1 1307   2.736   6.112   4.378
  136SOL    HW2 1308   2.640   5.985   4.344
  137SOL     OW 1309   4.315   1.409   4.489
  137SOL    HW1 1310   4.263   1.413   4.574
  137SOL    HW2 1311   4.267   1.350   4.424
  138SOL     OW 1312   0.713   5.249   3.470
  138SOL    HW1 1313   0.670   5.266   3.381
  138SOL    HW2 1314   0.795   5.193   3.457
  139SOL     OW 1315   2.397   5.482   6.698
  139SOL    HW1 1316   2.398   5.396   6.648
  139SOL    HW2 1317   2.320   5.538   6.667
  140SOL     OW 1318   1.909   6.419   2.708
  140SOL    HW1 1319   1.888   6.374   2.621
  140SOL    HW2 1320   1.833   6.480   2.733
  141SOL     OW 1321   6.667   3.410   6.859
  141SOL    HW1 1322   6.738   3.475   6.886
  141SOL    HW2 1323   6.645   3.423   6.762
  142SOL     OW 1324   1.941   3.835   1.192
  142SOL    HW1 1325   1.971   3.830   1.288
  142SOL    HW2 1326   1.869   3.768   1.177
  143SOL     OW 1327   5.806   6.153   1.038
  143SOL    HW1 1328   5.883   6.137   1.100
  143SOL    HW2 1329   5.745   6.074   1.040
  144SOL     OW 1330   3.012   4.881   3.685
  144SOL    HW1 1331   3.109   4.898   3.670
  144SOL    HW2 1332   2.989   4.901   3.780
  145SOL     OW 1333   0.857   5.015   2.580
  145SOL    HW1 1334   0.791   4.946   2.550
  145SOL    HW2 1335   0.946   4.996   2.539
  146SOL     OW 1336   5.648   1.051   5.331
  146SOL    HW1 1337   5.551   1.075   5.319
  146SOL    HW2 1338   5.700   1.134   5.354
  147SOL     OW 1339   4.904   1.446   5.012
  147SOL    HW1 1340   4.979   1.498   4.971
  147SOL    HW2 1341   4.857   1.394   4.941
  148SOL     OW 1342   1.345   4.979   1.450
  148SOL    HW1 1343   1.424   5.040   1.453
  148SOL    HW2 1344   1.376   4.885   1.441
  149SOL     OW 1345   2.793   2.300   5.204
  149SOL    HW1 1346   2.741   2.292   5.120
  149SOL    HW2 1347   2.740   2.351   5.272
  150SOL     OW 1348   4.322   1.385   5.539
  150SOL    HW1 1349   4.409   1.427   5.563
  150SOL    HW2 1350   4.272   1.362   5.622
  151SOL     OW 1351   4.318   1.155   1.720
  151SOL    HW1 1352   4.394   1.174   1.782
  151SOL    HW2 1353   4.318   1.221   1.646
  152SOL     OW 1354   6.637   1.236   6.770
  152SOL    HW1 1355   6.697   1.227   6.690
  152SOL    HW2 1356   6.549   1.274   6.741
  153SOL     OW 1357   3.164   0.379   3.277
  153SOL    HW1 1358   3.159   0.316   3.354
  153SOL    HW2 1359   3.260   0.401   3.258
  154SOL     OW 1360   6.910   2.610   0.763
  154SOL    HW1 1361   6.937   2.705   0.755
  154SOL    HW2 1362   6.956   2.555   0.693
  155SOL     OW 1363   0.534   0.107   1.620
  155SOL    HW1 1364   0.440   0.129   1.593
  155SOL    HW2 1365   0.550   0.009   1.606
  156SOL     OW 1366   6.306   1.441   0.338
  156SOL    HW1 1367   6.323   1.455   0.241
  156SOL    HW2 1368   6.208   1.429   0.354
  157SOL     OW 1369   6.135   2.945   0.169
  157SOL    HW1 1370   6.129   3.037   0.207
  157SOL    HW2 1371   6.125   2.878   0.242
  158SOL     OW 1372   1.333   2.176   1.903
  158SOL    HW1 1373   1.428   2.180   1.934
  158SOL    HW2 1374   1.295   2.269   1.904
  159SOL     OW 1375   4.633   4.651   1.141
  159SOL    HW1 1376   4.621   4.681   1.046
  159SOL    HW2 1377   4.553   4.678   1.194
  160SOL     OW 1378   6.536   0.398   0.777
  160SOL    HW1 1379   6.516   0.395   0.875
  160SOL    HW2 1380   6.478   0.466   0.733
  161SOL     OW 1381   1.214   6.421   0.978
  161SOL    HW1 1382   1.173   6.331   0.961
  161SOL    HW2 1383   1.187   6.454   1.068
  162SOL     OW 1384   2.645   6.232   0.329
  162SOL    HW1 1385   2.683   6.152   0.284
  162SOL    HW2 1386   2.699   6.313   0.306
  163SOL     OW 1387   6.738   5.147   3.221
  163SOL    HW1 1388   6.744   5.087   3.141
  163SOL    HW2 1389   6.790   5.231   3.203
  164SOL     OW 1390   1.407   1.788   2.660
  164SOL    HW1 1391   1.430   1.885   2.648
  164SOL    HW2 1392   1.424   1.739   2.575
  165SOL     OW 1393   6.243   5.621   2.036
  165SOL    HW1 1394   6.187   5.582   2.109
  165SOL    HW2 1395   6.218   5.579   1.948
  166SOL     OW 1396   6.489   4.024   1.563
  166SOL    HW1 1397   6.453   3.950   1.621
  166SOL    HW2 1398   6.479   3.999   1.467
  167SOL     OW 1399   5.505   1.537   6.383
  167SOL    HW1 1400   5.426   1.487   6.348
  167SOL    HW2 1401   5.491   1.555   6.481
  168SOL     OW 1402   3.981   2.458   1.597
  168SOL    HW1 1403   3.970   2.362   1.571
  168SOL    HW2 1404   3.898   2.490   1.642
  169SOL     OW 1405   6.463   2.570   0.313
  169SOL    HW1 1406   6.512   2.491   0.349
  169SOL    HW2 1407   6.367   2.546   0.299
  170SOL     OW 1408   0.426   6.007   3.641
  170SOL    HW1 1409   0.465   6.006   3.733
  170SOL    HW2 1410   0.326   6.009   3.646
  171SOL     OW 1411   1.801   3.922   6.478
  171SOL    HW1 1412   1.817   3.926   6.379
  171SOL    HW2 1413   1.888   3.917   6.526
  172SOL     OW 1414   5.910   2.663   2.745
  172SOL    HW1 1415   5.981   2.697   2.807
  172SOL    HW2 1416   5.854   2.595   2.792
  173SOL     OW 1417   5.658   0.817   4.390
  173SOL    HW1 1418   5.651   0.852   4.483
  173SOL    HW2 1419   5.736   0.858   4.344
  174SOL     OW 1420   5.309   5.164   5.166
  174SOL    HW1 1421   5.306   5.234   5.094
  174SOL    HW2 1422   5.324   5.208   5.255
  175SOL     OW 1423   2.776   0.508   0.890
  175SOL    HW1 1424   2.713   0.586   0.888
  175SOL    HW2 1425   2.815   0.499   0.982
  176SOL     OW 1426   5.034   4.876   3.175
  176SOL    HW1 1427   5.030   4.950   3.242
  176SOL    HW2 1428   4.979   4.799   3.208
  177SOL     OW 1429   5.308   2.185   5.425
  177SOL    HW1 1430   5.367   2.116   5.384
  177SOL    HW2 1431   5.253   2.143   5.497
  178SOL     OW 1432   2.740   5.016   4.325
  178SOL    HW1 1433   2.648   5.052   4.332
  178SOL    HW2 1434   2.754   4.944   4.394
  179SOL     OW 1435   3.980   6.308   0.422
  179SOL    HW1 1436   4.043   6.234   0.399
  179SOL    HW2 1437   4.032   6.388   0.453
  180SOL     OW 1438   2.617   6.429   0.074
  180SOL    HW1 1439   2.525   6.414   0.109
  180SOL    HW2 1440   2.659   6.340   0.053
  181SOL     OW 1441   3.018   2.316   5.373
  181SOL    HW1 1442   2.934   2.308   5.318
  181SOL    HW2 1443   3.090   2.356   5.317
  182SOL     OW 1444   4.877   3.462   0.176
  182SOL    HW1 1445   4.883   3.494   0.081
  182SOL    HW2 1446   4.809   3.516   0.225
  183SOL     OW 1447   4.007   2.209   3.983
  183SOL    HW1 1448   3.914   2.204   4.020
  183SOL    HW2 1449   4.005   2.194   3.884
  184SOL     OW 1450   0.901   6.975   3.403
  184SOL    HW1 1451   0.847   6.997   3.322
  184SOL    HW2 1452   0.843   6.929   3.470
  185SOL     OW 1453   0.721   1.882   3.899
  185SOL    HW1 1454   0.817   1.855   3.905
  185SOL    HW2 1455   0.714   1.981   3.908
  186SOL     OW 1456   5.674   6.027   4.031
  186SOL    HW1 1457   5.599   5.966   4.007
  186SOL    HW2 1458   5.721   6.058   3.948
  187SOL     OW 1459   4.428   5.529   2.803
  187SOL    HW1 1460   4.357   5.597   2.787
  187SOL    HW2 1461   4.427   5.461   2.730
  188SOL     OW 1462   1.254   1.917   3.230
  188SOL    HW1 1463   1.257   1.915   3.330
  188SOL    HW2 1464   1.306   1.840   3.193
  189SOL     OW 1465   6.811   4.819   6.579
  189SOL    HW1 1466   6.776   4.872   6.657
  189SOL    HW2 1467   6.773   4.726   6.583
  190SOL     OW 1468   5.994   4.607   6.761
  190SOL    HW1 1469   6.027   4.583   6.669
  190SOL    HW2 1470   5.970   4.704   6.763
  191SOL     OW 1471   6.612   1.565   5.594
  191SOL    HW1 1472   6.533   1.531   5.543
  191SOL    HW2 1473   6.650   1.492   5.651
  192SOL     OW 1474   0.576   4.757   1.547
  192SOL    HW1 1475   0.614   4.839   1.590
  192SOL    HW2 1476   0.651   4.695   1.524
  193SOL     OW 1477   4.038   4.772   5.647
  193SOL    HW1 1478   4.063   4.803   5.556
  193SOL    HW2 1479   3.963   4.705   5.641
  194SOL     OW 1480   4.146   6.938   1.776
  194SOL    HW1 1481   4.053   6.967   1.797
  194SOL    HW2 1482   4.157   6.841   1.797
  195SOL     OW 1483   3.085   0.241   3.531
  195SOL    HW1 1484   3.124   0.327   3.562
  195SOL    HW2 1485   2.994   0.230   3.571
  196SOL     OW 1486   3.381   0.343   6.541
  196SOL    HW1 1487   3.403   0.291   6.458
  196SOL    HW2 1488   3.331   0.285   6.605
  197SOL     OW 1489   2.699   5.921   6.709
  197SOL    HW1 1490   2.632   5.847   6.702
  197SOL    HW2 1491   2.708   5.967   6.620
  198SOL     OW 1492   4.269   5.989   1.168
  198SOL    HW1 1493   4.254   5.953   1.076
  198SOL    HW2 1494   4.221   5.933   1.235
  199SOL     OW 1495   6.479   1.314   1.889
  199SOL    HW1 1496   6.473   1.216   1.905
  199SOL    HW2 1497   6.566   1.348   1.925
  200SOL     OW 1498   1.256   3.431   2.305
  200SOL    HW1 1499   1.250   3.380   2.219
  200SOL    HW2 1500   1.349   3.424   2.342
  201SOL     OW 1501   2.668   6.536   6.368
  201SOL    HW1 1502   2.647   6.597   6.292
  201SOL    HW2 1503   2.584   6.511   6.416
  202SOL     OW 1504   4.957   0.193   4.999
  202SOL    HW1 1505   4.889   0.213   4.928
  202SOL    HW2 1506   5.013   0.115   4.969
  203SOL     OW 1507   4.489   2.962   5.593
  203SOL    HW1 1508   4.484   2.989   5.497
  203SOL    HW2 1509   4.580   2.924   5.612
  204SOL     OW 1510   1.467   0.050   6.952
  204SOL    HW1 1511   1.433   0.140   6.979
  204SOL    HW2 1512   1.490   0.050   6.854
  205SOL     OW 1513   1.030   1.846   1.316
  205SOL    HW1 1514   0.948   1.904   1.313
  205SOL    HW2 1515   1.019   1.777   1.387
  206SOL     OW 1516   0.248   4.757   1.880
  206SOL    HW1 1517   0.344   4.730   1.887
  206SOL    HW2 1518   0.191   4.675   1.886
  207SOL     OW 1519   4.273   0.752   5.265
  207SOL    HW1 1520   4.238   0.722   5.354
  207SOL    HW2 1521   4.198   0.760   5.200
  208SOL     OW 1522   5.304   4.066   5.555
  208SOL    HW1 1523   5.329   4.160   5.576
  208SOL    HW2 1524   5.387   4.010   5.549
  209SOL     OW 1525   0.499   5.987   5.609
  209SOL    HW1 1526   0.485   5.906   5.665
  209SOL    HW2 1527   0.596   5.998   5.588
  210SOL     OW 1528   4.206   2.254   2.098
  210SOL    HW1 1529   4.162   2.244   2.187
  210SOL    HW2 1530   4.287   2.313   2.108
  211SOL     OW 1531   1.267   0.368   3.138
  211SOL    HW1 1532   1.314   0.439   3.190
  211SOL    HW2 1533   1.310   0.279   3.155
  212SOL     OW 1534   2.004   4.978   2.353
  212SOL    HW1 1535   2.014   5.077   2.367
  212SOL    HW2 1536   2.047   4.930   2.430
  213SOL     OW 1537   4.412   1.186   6.595
  213SOL    HW1 1538   4.401   1.262   6.659
  213SOL    HW2 1539   4.482   1.123   6.629
  214SOL     OW 1540   2.046   6.059   2.729
  214SOL    HW1 1541   2.127   6.037   2.675
  214SOL    HW2 1542   1.964   6.024   2.684
  215SOL     OW 1543   3.571   4.143   2.172
  215SOL    HW1 1544   3.593   4.240   2.186
  215SOL    HW2 1545   3.509   4.133   2.095
  216SOL     OW 1546   1.879   0.312   4.904
  216SOL    HW1 1547   1.872   0.407   4.934
  216SOL    HW2 1548   1.908   0.309   4.808
  217SOL     OW 1549   1.504   2.776   4.178
  217SOL    HW1 1550   1.442   2.839   4.225
  217SOL    HW2 1551   1.577   2.828   4.133
  218SOL     OW 1552   1.286   2.723   4.800
  218SOL    HW1 1553   1.212   2.757   4.858
  218SOL    HW2 1554   1.365   2.699   4.856
  219SOL     OW 1555   3.738   4.918   6.538
  219SOL    HW1 1556   3.704   4.888   6.449
  219SOL    HW2 1557   3.671   4.980   6.580
  220SOL     OW 1558   3.491   5.309   0.397
  220SOL    HW1 1559   3.568   5.373   0.400
  220SOL    HW2 1560   3.513   5.234   0.334
  221SOL     OW 1561   5.569   3.921   3.098
  221SOL    HW1 1562   5.591   4.015   3.124
  221SOL    HW2 1563   5.643   3.883   3.043
  222SOL     OW 1564   1.626   4.987   5.451
  222SOL    HW1 1565   1.544   4.946   5.410
  222SOL    HW2 1566   1.702   4.980   5.386
  223SOL     OW 1567   0.553   3.269   0.721
  223SOL    HW1 1568   0.630   3.306   0.772
  223SOL    HW2 1569   0.568   3.171   0.703
  224SOL     OW 1570   2.485   2.470   3.734
  224SOL    HW1 1571   2.535   2.386   3.757
  224SOL    HW2 1572   2.468   2.523   3.817
  225SOL     OW 1573   5.336   1.026   6.407
  225SOL    HW1 1574   5.264   1.043   6.474
  225SOL    HW2 1575   5.425   1.023   6.452
  226SOL     OW 1576   0.998   6.721   0.147
  226SOL    HW1 1577   1.098   6.725   0.150
  226SOL    HW2 1578   0.968   6.711   0.052
  227SOL     OW 1579   1.021   4.603   3.291
  227SOL    HW1 1580   1.066   4.589   3.379
  227SOL    HW2 1581   0.939   4.546   3.285
  228SOL     OW 1582   3.057   0.712   3.939
  228SOL    HW1 1583   3.128   0.671   3.996
  228SOL    HW2 1584   2.975   0.727   3.993
  229SOL     OW 1585   6.698   5.429   1.172
  229SOL    HW1 1586   6.771   5.464   1.113
  229SOL    HW2 1587   6.620   5.492   1.169
  230SOL     OW 1588   2.445   4.946   3.423
  230SOL    HW1 1589   2.513   4.873   3.425
  230SOL    HW2 1590   2.357   4.909   3.396
  231SOL     OW 1591   6.027   2.924   6.018
  231SOL    HW1 1592   6.112   2.873   6.034
  231SOL    HW2 1593   5.959   2.863   5.978
  232SOL     OW 1594   0.525   4.181   5.853
  232SOL    HW1 1595   0.609   4.229   5.878
  232SOL    HW2 1596   0.544   4.083   5.843
  233SOL     OW 1597   2.175   0.906   4.642
  233SOL    HW1 1598   2.189   0.873   4.736
  233SOL    HW2 1599   2.113   0.984   4.643
  234SOL     OW 1600   2.757   5.120   5.627
  234SOL    HW1 1601   2.822   5.085   5.694
  234SOL    HW2 1602   2.799   5.198   5.579
  235SOL     OW 1603   3.808   3.045   2.798
  235SOL    HW1 1604   3.739   2.988   2.843
  235SOL    HW2 1605   3.826   3.009   2.707
  236SOL     OW 1606   6.363   2.983   6.716
  236SOL    HW1 1607   6.302   2.949   6.787
  236SOL    HW2 1608   6.411   3.064   6.749
  237SOL     OW 1609   0.796   6.542   0.895
  237SOL    HW1 1610   0.801   6.463   0.956
  237SOL    HW2 1611   0.888   6.573   0.873
  238SOL     OW 1612   6.468   3.129   1.116
  238SOL    HW1 1613   6.525   3.188   1.058
  238SOL    HW2 1614   6.380   3.172   1.130
  239SOL     OW 1615   6.716   4.720   0.118
  239SOL    HW1 1616   6.657   4.684   0.046
  239SOL    HW2 1617   6.734   4.649   0.186
  240SOL     OW 1618   0.684   3.255   6.086
  240SOL    HW1 1619   0.762   3.199   6.115
  240SOL    HW2 1620   0.682   3.260   5.986
  241SOL     OW 1621   0.969   0.672   3.650
  241SOL    HW1 1622   1.014   0.696   3.565
  241SOL    HW2 1623   0.987   0.575   3.671
  242SOL     OW 1624   1.185   2.689   5.633
  242SOL    HW1 1625   1.240   2.769   5.610
  242SOL    HW2 1626   1.088   2.714   5.635
  243SOL     OW 1627   4.424   0.366   6.092
  243SOL    HW1 1628   4.450   0.461   6.106
  243SOL    HW2 1629   4.436   0.341   5.996
  244SOL     OW 1630   5.008   2.791   4.340
  244SOL    HW1 1631   5.064   2.874   4.335
  244SOL    HW2 1632   4.911   2.816   4.341
  245SOL     OW 1633   6.602   2.599   4.361
  245SOL    HW1 1634   6.618   2.585   4.459
  245SOL    HW2 1635   6.507   2.579   4.339
  246SOL     OW 1636   5.019   4.130   3.722
  246SOL    HW1 1637   5.101   4.164   3.769
  246SOL    HW2 1638   5.040   4.041   3.680
  247SOL     OW 1639   2.560   1.600   3.214
  247SOL    HW1 1640   2.625   1.526   3.196
  247SOL    HW2 1641   2.600   1.664   3.280
  248SOL     OW 1642   4.958   1.962   4.379
  248SOL    HW1 1643   4.963   1.988   4.283
  248SOL    HW2 1644   4.915   1.871   4.387
  249SOL     OW 1645   3.171   6.748   5.170
  249SOL    HW1 1646   3.089   6.694   5.154
  249SOL    HW2 1647   3.149   6.845   5.166
  250SOL     OW 1648   5.195   1.448   6.000
  250SOL    HW1 1649   5.098   1.466   6.016
  250SOL    HW2 1650   5.214   1.351   6.016
  251SOL     OW 1651   4.638   3.552   6.232
  251SOL    HW1 1652   4.598   3.554   6.324
  251SOL    HW2 1653   4.667   3.459   6.210
  252SOL     OW 1654   0.196   1.081   5.466
  252SOL    HW1 1655   0.173   1.149   5.535
  252SOL    HW2 1656   0.118   1.068   5.404
  253SOL     OW 1657   2.188   4.115   0.512
  253SOL    HW1 1658   2.205   4.180   0.586
  253SOL    HW2 1659   2.108   4.059   0.534
  254SOL     OW 1660   6.333   2.605   4.290
  254SOL    HW1 1661   6.351   2.600   4.192
  254SOL    HW2 1662   6.351   2.698   4.323
  255SOL     OW 1663   3.239   1.635   4.450
  255SOL    HW1 1664   3.141   1.624   4.435
  255SOL    HW2 1665   3.287   1.552   4.423
  256SOL     OW 1666   6.762   4.986   0.094
  256SOL    HW1 1667   6.778   5.033   0.181
  256SOL    HW2 1668   6.727   4.894   0.111
  257SOL     OW 1669   3.346   5.910   5.374
  257SOL    HW1 1670   3.337   5.975   5.449
  257SOL    HW2 1671   3.272   5.844   5.378
  258SOL     OW 1672   5.152   3.775   4.948
  258SOL    HW1 1673   5.054   3.783   4.963
  258SOL    HW2 1674   5.200   3.851   4.993
  259SOL     OW 1675   1.170   3.315   3.238
  259SOL    HW1 1676   1.169   3.411   3.208
  259SOL    HW2 1677   1.085   3.295   3.286
  260SOL     OW 1678   4.966   0.193   0.205
  260SOL    HW1 1679   4.982   0.262   0.275
  260SOL    HW2 1680   4.871   0.161   0.211
  261SOL     OW 1681   0.598   3.349   1.140
  261SOL    HW1 1682   0.594   3.447   1.159
  261SOL    HW2 1683   0.540   3.301   1.206
  262SOL     OW 1684   0.532   4.125   2.573
  262SOL    HW1 1685   0.487   4.073   2.646
  262SOL    HW2 1686   0.464   4.182   2.527
  263SOL     OW 1687   6.670   1.963   4.441
  263SOL    HW1 1688   6.683   1.940   4.345
  263SOL    HW2 1689   6.583   2.012   4.452
  264SOL     OW 1690   0.239   3.516   5.835
  264SOL    HW1 1691   0.207   3.592   5.778
  264SOL    HW2 1692   0.295   3.552   5.910
  265SOL     OW 1693   5.090   4.272   3.420
  265SOL    HW1 1694   5.078   4.248   3.516
  265SOL    HW2 1695   5.131   4.195   3.371
  266SOL     OW 1696   3.406   2.045   6.909
  266SOL    HW1 1697   3.315   2.034   6.949
  266SOL    HW2 1698   3.430   2.142   6.908
  267SOL     OW 1699   1.357   2.587   0.151
  267SOL    HW1 1700   1.359   2.532   0.234
  267SOL    HW2 1701   1.437   2.648   0.149
  268SOL     OW 1702   4.750   4.988   4.963
  268SOL    HW1 1703   4.682   4.966   4.893
  268SOL    HW2 1704   4.813   4.911   4.973
  269SOL     OW 1705   1.619   1.768   6.815
  269SOL    HW1 1706   1.666   1.855   6.803
  269SOL    HW2 1707   1.572   1.767   6.904
  270SOL     OW 1708   4.979   1.068   2.396
  270SOL    HW1 1709   4.908   1.021   2.449
  270SOL    HW2 1710   5.039   1.119   2.459
  271SOL     OW 1711   2.038   1.598   0.974
  271SOL    HW1 1712   2.064   1.694   0.961
  271SOL    HW2 1713   2.120   1.540   0.966
  272SOL     OW 1714   3.958   5.648   4.245
  272SOL    HW1 1715   3.900   5.638   4.164
  272SOL    HW2 1716   4.015   5.730   4.236
  273SOL     OW 1717   0.911   5.847   5.183
  273SOL    HW1 1718   0.812   5.834   5.186
  273SOL    HW2 1719   0.942   5.847   5.088
  274SOL     OW 1720   4.885   3.250   3.501
  274SOL    HW1 1721   4.885   3.330   3.440
  274SOL    HW2 1722   4.937   3.176   3.459
  275SOL     OW 1723   0.678   5.470   6.332
  275SOL    HW1 1724   0.699   5.396   6.396
  275SOL    HW2 1725   0.761   5.522   6.314
  276SOL     OW 1726   6.737   5.575   4.142
  276SOL    HW1 1727   6.714   5.479   4.152
  276SOL    HW2 1728   6.833   5.584   4.116
  277SOL     OW 1729   3.107   0.702   6.056
  277SOL    HW1 1730   3.057   0.779   6.018
  277SOL    HW2 1731   3.096   0.700   6.155
  278SOL     OW 1732   4.779   3.998   2.901
  278SOL    HW1 1733   4.743   3.910   2.870
  278SOL    HW2 1734   4.858   3.983   2.959
  279SOL     OW 1735   6.668   3.221   4.031
  279SOL    HW1 1736   6.693   3.135   3.988
  279SOL    HW2 1737   6.688   3.217   4.129
  280SOL     OW 1738   4.588   6.594   4.238
  280SOL    HW1 1739   4.686   6.595   4.259
  280SOL    HW2 1740   4.564   6.508   4.193
  281SOL     OW 1741   3.696   5.243   3.973
  281SOL    HW1 1742   3.766   5.261   4.043
  281SOL    HW2 1743   3.678   5.145   3.969
  282SOL     OW 1744   3.868   1.733   5.751
  282SOL    HW1 1745   3.830   1.721   5.659
  282SOL    HW2 1746   3.793   1.740   5.817
  283SOL     OW 1747   6.111   0.188   5.158
  283SOL    HW1 1748   6.180   0.121   5.131
  283SOL    HW2 1749   6.067   0.225   5.076
  284SOL     OW 1750   0.552   4.908   4.494
  284SOL    HW1 1751   0.502   4.903   4.580
  284SOL    HW2 1752   0.604   4.993   4.490
  285SOL     OW 1753   5.463   6.850   0.408
  285SOL    HW1 1754   5.434   6.903   0.488
  285SOL    HW2 1755   5.398   6.776   0.392
  286SOL     OW 1756   3.804   5.040   5.288
  286SOL    HW1 1757   3.860   5.051   5.370
  286SOL    HW2 1758   3.777   4.944   5.280
  287SOL     OW 1759   1.649   5.769   6.310
  287SOL    HW1 1760   1.629   5.682   6.356
  287SOL    HW2 1761   1.726   5.756   6.248
  288SOL     OW 1762   4.182   0.551   1.141
  288SOL    HW1 1763   4.096   0.504   1.161
  288SOL    HW2 1764   4.164   0.628   1.079
  289SOL     OW 1765   1.186   5.318   6.064
  289SOL    HW1 1766   1.195   5.290   5.968
  289SOL    HW2 1767   1.095   5.355   6.079
  290SOL     OW 1768   4.285   0.500   2.975
  290SOL    HW1 1769   4.301   0.579   3.033
  290SOL    HW2 1770   4.242   0.427   3.029
  291SOL     OW 1771   4.207   1.169   4.150
  291SOL    HW1 1772   4.151   1.225   4.211
  291SOL    HW2 1773   4.160   1.158   4.062
  292SOL     OW 1774   3.878   0.266   3.622
  292SOL    HW1 1775   3.810   0.194   3.627
  292SOL    HW2 1776   3.832   0.355   3.614
  293SOL     OW 1777   4.450   6.369   2.043
  293SOL    HW1 1778   4.475   6.342   2.136
  293SOL    HW2 1779   4.460   6.468   2.033
  294SOL     OW 1780   6.107   5.805   5.917
  294SOL    HW1 1781   6.013   5.780   5.893
  294SOL    HW2 1782   6.153   5.728   5.961
  295SOL     OW 1783   1.173   2.812   5.341
  295SOL    HW1 1784   1.209   2.893   5.295
  295SOL    HW2 1785   1.083   2.790   5.304
  296SOL     OW 1786   6.301   1.950   0.901
  296SOL    HW1 1787   6.401   1.946   0.901
  296SOL    HW2 1788   6.265   1.864   0.865
  297SOL     OW 1789   4.853   5.291   3.524
  297SOL    HW1 1790   4.820   5.286   3.619
  297SOL    HW2 1791   4.778   5.269   3.462
  298SOL     OW 1792   4.393   0.685   0.735
  298SOL    HW1 1793   4.300   0.718   0.721
  298SOL    HW2 1794   4.446   0.699   0.652
  299SOL     OW 1795   3.480   1.552   0.300
  299SOL    HW1 1796   3.385   1.527   0.281
  299SOL    HW2 1797   3.491   1.566   0.398
  300SOL     OW 1798   3.103   1.153   2.613
  300SOL    HW1 1799   3.034   1.086   2.639
  300SOL    HW2 1800   3.191   1.108   2.598
  301SOL     OW 1801   4.721   0.075   1.916
  301SOL    HW1 1802   4.795   0.011   1.896
  301SOL    HW2 1803   4.634   0.026   1.914
  302SOL     OW 1804   0.678   0.135   1.860
  302SOL    HW1 1805   0.664   0.226   1.898
  302SOL    HW2 1806   0.612   0.118   1.787
  303SOL     OW 1807   5.734   6.130   1.936
  303SOL    HW1 1808   5.713   6.100   1.843
  303SOL    HW2 1809   5.832   6.145   1.945
  304SOL     OW 1810   1.719   6.501   5.773
  304SOL    HW1 1811   1.721   6.416   5.721
  304SOL    HW2 1812   1.724   6.481   5.871
  305SOL     OW 1813   1.779   3.274   0.999
  305SOL    HW1 1814   1.787   3.181   0.964
  305SOL    HW2 1815   1.695   3.315   0.964
  306SOL     OW 1816   0.489   1.030   2.399
  306SOL    HW1 1817   0.491   0.949   2.456
  306SOL    HW2 1818   0.479   1.003   2.303
  307SOL     OW 1819   2.933   4.011   0.625
  307SOL    HW1 1820   2.897   3.942   0.688
  307SOL    HW2 1821   3.018   3.977   0.584
  308SOL     OW 1822   5.735   2.816   4.857
  308SOL    HW1 1823   5.811   2.829   4.794
  308SOL    HW2 1824   5.769   2.811   4.950
  309SOL     OW 1825   1.154   6.262   0.158
  309SOL    HW1 1826   1.176   6.310   0.073
  309SOL    HW2 1827   1.160   6.326   0.235
  310SOL     OW 1828   5.943   6.262   4.285
  310SOL    HW1 1829   6.004   6.240   4.361
  310SOL    HW2 1830   5.996   6.277   4.202
  311SOL     OW 1831   2.458   4.878   2.076
  311SOL    HW1 1832   2.430   4.973   2.083
  311SOL    HW2 1833   2.549   4.872   2.036
  312SOL     OW 1834   4.412   2.432   3.833
  312SOL    HW1 1835   4.442   2.516   3.788
  312SOL    HW2 1836   4.409   2.358   3.767
  313SOL     OW 1837   3.133   3.678   2.589
  313SOL    HW1 1838   3.225   3.716   2.580
  313SOL    HW2 1839   3.140   3.580   2.608
  314SOL     OW 1840   2.069   5.612   5.445
  314SOL    HW1 1841   2.031   5.626   5.353
  314SOL    HW2 1842   1.996   5.580   5.506
  315SOL     OW 1843   0.138   1.783   3.576
  315SOL    HW1 1844   0.175   1.693   3.557
  315SOL    HW2 1845   0.085   1.781   3.661
  316SOL     OW 1846   4.107   1.606   4.110
  316SOL    HW1 1847   4.203   1.582   4.127
  316SOL    HW2 1848   4.095   1.704   4.128
  317SOL     OW 1849   1.605   1.082   1.676
  317SOL    HW1 1850   1.646   1.170   1.696
  317SOL    HW2 1851   1.505   1.091   1.674
  318SOL     OW 1852   6.176   0.552   6.307
  318SOL    HW1 1853   6.251   0.575   6.369
  318SOL    HW2 1854   6.110   0.494   6.354
  319SOL     OW 1855   6.855   2.165   3.335
  319SOL    HW1 1856   6.870   2.079   3.383
  319SOL    HW2 1857   6.782   2.216   3.380
  320SOL     OW 1858   6.177   2.692   6.936
  320SOL    HW1 1859   6.199   2.685   6.839
  320SOL    HW2 1860   6.257   2.727   6.986
  321SOL     OW 1861   4.008   2.309   0.410
  321SOL    HW1 1862   3.975   2.289   0.502
  321SOL    HW2 1863   4.013   2.224   0.357
  322SOL     OW 1864   3.948   2.980   4.552
  322SOL    HW1 1865   3.967   2.882   4.560
  322SOL    HW2 1866   3.986   3.015   4.466
  323SOL     OW 1867   1.084   2.491   4.356
  323SOL    HW1 1868   1.076   2.584   4.320
  323SOL    HW2 1869   1.077   2.493   4.455
  324SOL     OW 1870   1.868   6.866   3.298
  324SOL    HW1 1871   1.930   6.804   3.251
  324SOL    HW2 1872   1.809   6.814   3.360
  325SOL     OW 1873   1.461   3.883   2.582
  325SOL    HW1 1874   1.388   3.816   2.579
  325SOL    HW2 1875   1.452   3.940   2.664
  326SOL     OW 1876   1.196   4.344   5.674
  326SOL    HW1 1877   1.183   4.355   5.575
  326SOL    HW2 1878   1.242   4.257   5.692
  327SOL     OW 1879   2.611   4.758   2.497
  327SOL    HW1 1880   2.638   4.812   2.418
  327SOL    HW2 1881   2.538   4.806   2.547
  328SOL     OW 1882   2.099   4.625   1.397
  328SOL    HW1 1883   2.125   4.541   1.444
  328SOL    HW2 1884   2.141   4.703   1.444
  329SOL     OW 1885   3.095   4.341   6.138
  329SOL    HW1 1886   3.165   4.285   6.093
  329SOL    HW2 1887   3.041   4.283   6.199
  330SOL     OW 1888   4.055   5.799   0.370
  330SOL    HW1 1889   4.007   5.729   0.423
  330SOL    HW2 1890   4.004   5.819   0.286
  331SOL     OW 1891   5.351   4.708   1.176
  331SOL    HW1 1892   5.435   4.715   1.123
  331SOL    HW2 1893   5.365   4.646   1.253
  332SOL     OW 1894   5.633   2.021   3.774
  332SOL    HW1 1895   5.698   1.947   3.793
  332SOL    HW2 1896   5.676   2.108   3.796
  333SOL     OW 1897   4.398   0.608   5.013
  333SOL    HW1 1898   4.355   0.692   4.978
  333SOL    HW2 1899   4.493   0.629   5.040
  334SOL     OW 1900   3.829   2.723   1.236
  334SOL    HW1 1901   3.740   2.725   1.281
  334SOL    HW2 1902   3.888   2.657   1.282
  335SOL     OW 1903   4.427   0.475   6.697
  335SOL    HW1 1904   4.526   0.462   6.688
  335SOL    HW2 1905   4.399   0.552   6.640
  336SOL     OW 1906   2.638   1.923   3.099
  336SOL    HW1 1907   2.714   1.858   3.097
  336SOL    HW2 1908   2.661   1.998   3.161
  337SOL     OW 1909   1.296   2.917   5.866
  337SOL    HW1 1910   1.367   2.980   5.896
  337SOL    HW2 1911   1.206   2.955   5.887
  338SOL     OW 1912   3.330   3.487   1.031
  338SOL    HW1 1913   3.269   3.499   1.109
  338SOL    HW2 1914   3.384   3.404   1.043
  339SOL     OW 1915   4.102   4.828   4.403
  339SOL    HW1 1916   4.059   4.893   4.466
  339SOL    HW2 1917   4.043   4.814   4.324
  340SOL     OW 1918   4.980   3.385   5.097
  340SOL    HW1 1919   4.937   3.310   5.148
  340SOL    HW2 1920   4.914   3.459   5.086
  341SOL     OW 1921   6.005   6.312   4.022
  341SOL    HW1 1922   5.922   6.279   3.978
  341SOL    HW2 1923   6.074   6.334   3.953
  342SOL     OW 1924   4.624   3.334   0.729
  342SOL    HW1 1925   4.619   3.372   0.821
  342SOL    HW2 1926   4.675   3.396   0.669
  343SOL     OW 1927   0.183   6.715   2.302
  343SOL    HW1 1928   0.258   6.709   2.368
  343SOL    HW2 1929   0.097   6.726   2.352
  344SOL     OW 1930   1.041   2.417   1.909
  344SOL    HW1 1931   0.961   2.440   1.855
  344SOL    HW2 1932   1.017   2.420   2.007
  345SOL     OW 1933   6.220   2.233   4.349
  345SOL    HW1 1934   6.174   2.309   4.302
  345SOL    HW2 1935   6.165   2.150   4.340
  346SOL     OW 1936   1.381   7.011   2.490
  346SOL    HW1 1937   1.408   6.935   2.549
  346SOL    HW2 1938   1.308   6.981   2.429
  347SOL     OW 1939   3.086   5.868   6.995
  347SOL    HW1 1940   3.107   5.785   6.943
  347SOL    HW2 1941   3.158   5.936   6.981
  348SOL     OW 1942   4.790   5.150   3.244
  348SOL    HW1 1943   4.857   5.162   3.171
  348SOL    HW2 1944   4.698   5.143   3.204
  349SOL     OW 1945   6.670   4.838   2.382
  349SOL    HW1 1946   6.627   4.819   2.470
  349SOL    HW2 1947   6.604   4.823   2.309
  350SOL     OW 1948   2.736   2.880   0.736
  350SOL    HW1 1949   2.642   2.871   0.767
  350SOL    HW2 1950   2.757   2.976   0.716
  351SOL     OW 1951   2.642   3.109   0.440
  351SOL    HW1 1952   2.683   3.138   0.527
  351SOL    HW2 1953   2.567   3.046   0.459
  352SOL     OW 1954   3.841   6.328   3.602
  352SOL    HW1 1955   3.776   6.253   3.609
  352SOL    HW2 1956   3.803   6.400   3.544
  353SOL     OW 1957   3.266   0.513   6.312
  353SOL    HW1 1958   3.257   0.442   6.382
  353SOL    HW2 1959   3.190   0.578   6.320
  354SOL     OW 1960   4.752   2.373   1.203
  354SOL    HW1 1961   4.778   2.463   1.240
  354SOL    HW2 1962   4.754   2.305   1.276
  355SOL     OW 1963   1.921   4.009   2.447
  355SOL    HW1 1964   1.834   3.965   2.426
  355SOL    HW2 1965   1.975   3.949   2.505
  356SOL     OW 1966   2.333   1.086   5.012
  356SOL    HW1 1967   2.304   1.159   5.073
  356SOL    HW2 1968   2.420   1.049   5.044
  357SOL     OW 1969   0.029   5.728   4.320
  357SOL    HW1 1970   7.018   5.699   4.229
  357SOL    HW2 1971   6.998   5.809   4.348
  358SOL     OW 1972   4.551   6.687   0.627
  358SOL    HW1 1973   4.622   6.621   0.602
  358SOL    HW2 1974   4.588   6.779   0.622
  359SOL     OW 1975   2.936   0.851   2.114
  359SOL    HW1 1976   2.975   0.941   2.096
  359SOL    HW2 1977   2.945   0.794   2.032
  360SOL     OW 1978   1.326   4.061   4.360
  360SOL    HW1 1979   1.347   4.066   4.458
  360SOL    HW2 1980   1.350   3.971   4.325
  361SOL     OW 1981   6.757   5.794   2.801
  361SOL    HW1 1982   6.793   5.881   2.768
  361SOL    HW2 1983   6.726   5.740   2.723
  362SOL     OW 1984   3.645   3.186   1.363
  362SOL    HW1 1985   3.708   3.108   1.367
  362SOL    HW2 1986   3.556   3.157   1.398
  363SOL     OW 1987   5.693   5.039   3.207
  363SOL    HW1 1988   5.629   5.098   3.157
  363SOL    HW2 1989   5.654   5.015   3.296
  364SOL     OW 1990   6.701   4.943   6.808
  364SOL    HW1 1991   6.630   4.899   6.863
  364SOL    HW2 1992   6.785   4.951   6.862
  365SOL     OW 1993   4.106   0.786   1.008
  365SOL    HW1 1994   4.195   0.823   0.984
  365SOL    HW2 1995   4.049   0.858   1.047
  366SOL     OW 1996   5.823   2.484   0.003
  366SOL    HW1 1997   5.760   2.536   0.060
  366SOL    HW2 1998   5.772   2.417   6.969
  367SOL     OW 1999   5.934   2.419   6.566
  367SOL    HW1 2000   5.864   2.447   6.501
  367SOL    HW2 2001   5.941   2.319   6.567
  368SOL     OW 2002   7.000   2.621   5.416
  368SOL    HW1 2003   6.990   2.629   5.515
  368SOL    HW2 2004   6.944   2.544   5.383
  369SOL     OW 2005   5.949   4.515   3.022
  369SOL    HW1 2006   5.920   4.609   3.007
  369SOL    HW2 2007   6.015   4.512   3.097
  370SOL     OW 2008   0.692   2.490   4.188
  370SOL    HW1 2009   0.622   2.514   4.121
  370SOL    HW2 2010   0.688   2.554   4.265
  371SOL     OW 2011   1.674   4.425   0.142
  371SOL    HW1 2012   1.672   4.334   0.099
  371SOL    HW2 2013   1.652   4.416   0.240
  372SOL     OW 2014   2.222   6.895   5.109
  372SOL    HW1 2015   2.291   6.959   5.075
  372SOL    HW2 2016   2.138   6.903   5.055
  373SOL     OW 2017   5.604   6.044   5.429
  373SOL    HW1 2018   5.659   6.097   5.494
  373SOL    HW2 2019   5.509   6.076   5.433
  374SOL     OW 2020   2.409   2.718   3.253
  374SOL    HW1 2021   2.422   2.628   3.296
  374SOL    HW2 2022   2.459   2.787   3.304
  375SOL     OW 2023   1.105   4.592   4.373
  375SOL    HW1 2024   1.051   4.674   4.392
  375SOL    HW2 2025   1.126   4.587   4.276
  376SOL     OW 2026   1.374   1.808   5.183
  376SOL    HW1 2027   1.433   1.879   5.144
  376SOL    HW2 2028   1.297   1.850   5.230
  377SOL     OW 2029   1.807   2.306   6.942
  377SOL    HW1 2030   1.822   2.352   0.010
  377SOL    HW2 2031   1.708   2.301   6.924
  378SOL     OW 2032   3.910   1.657   0.324
  378SOL    HW1 2033   3.973   1.695   0.256
  378SOL    HW2 2034   3.911   1.557   0.317
  379SOL     OW 2035   5.188   2.446   6.951
  379SOL    HW1 2036   5.138   2.364   6.979
  379SOL    HW2 2037   5.131   2.527   6.967
  380SOL     OW 2038   3.047   1.005   1.154
  380SOL    HW1 2039   3.101   1.054   1.085
  380SOL    HW2 2040   3.108   0.964   1.222
  381SOL     OW 2041   1.533   3.661   3.863
  381SOL    HW1 2042   1.603   3.712   3.813
  381SOL    HW2 2043   1.499   3.586   3.806
  382SOL     OW 2044   5.872   0.657   6.887
  382SOL    HW1 2045   5.805   0.664   6.814
  382SOL    HW2 2046   5.952   0.714   6.865
  383SOL     OW 2047   3.901   3.431   0.454
  383SOL    HW1 2048   3.888   3.368   0.378
  383SOL    HW2 2049   3.859   3.519   0.431
  384SOL     OW 2050   0.177   5.288   5.008
  384SOL    HW1 2051   0.151   5.200   4.967
  384SOL    HW2 2052   0.146   5.363   4.950
  385SOL     OW 2053   3.273   6.101   5.574
  385SOL    HW1 2054   3.270   6.180   5.512
  385SOL    HW2 2055   3.200   6.109   5.642
  386SOL     OW 2056   3.396   0.200   4.361
  386SOL    HW1 2057   3.457   0.128   4.327
  386SOL    HW2 2058   3.347   0.167   4.441
  387SOL     OW 2059   0.622   5.534   2.491
  387SOL    HW1 2060   0.718   5.519   2.466
  387SOL    HW2 2061   0.605   5.497   2.582
  388SOL     OW 2062   1.816   2.193   6.587
  388SOL    HW1 2063   1.732   2.247   6.575
  388SOL    HW2 2064   1.895   2.250   6.563
  389SOL     OW 2065   3.397   3.752   2.667
  389SOL    HW1 2066   3.394   3.840   2.620
  389SOL    HW2 2067   3.491   3.730   2.690
  390SOL     OW 2068   3.016   1.055   3.741
  390SOL    HW1 2069   2.970   0.992   3.804
  390SOL    HW2 2070   2.987   1.036   3.647
  391SOL     OW 2071   2.421   2.614   6.024
  391SOL    HW1 2072   2.337   2.575   6.062
  391SOL    HW2 2073   2.436   2.578   5.932
  392SOL     OW 2074   1.338   4.121   0.296
  392SOL    HW1 2075   1.331   4.022   0.298
  392SOL    HW2 2076   1.432   4.149   0.312
  393SOL     OW 2077   0.257   4.826   6.633
  393SOL    HW1 2078   0.192   4.878   6.577
  393SOL    HW2 2079   0.250   4.857   6.728
  394SOL     OW 2080   6.871   0.723   6.358
  394SOL    HW1 2081   6.872   0.623   6.358
  394SOL    HW2 2082   6.805   0.756   6.426
  395SOL     OW 2083   4.894   3.788   3.603
  395SOL    HW1 2084   4.983   3.832   3.591
  395SOL    HW2 2085   4.863   3.800   3.697
  396SOL     OW 2086   3.751   3.881   2.106
  396SOL    HW1 2087   3.735   3.978   2.123
  396SOL    HW2 2088   3.849   3.861   2.116
  397SOL     OW 2089   4.152   2.158   5.535
  397SOL    HW1 2090   4.211   2.221   5.586
  397SOL    HW2 2091   4.204   2.075   5.512
  398SOL     OW 2092   0.615   6.225   2.323
  398SOL    HW1 2093   0.583   6.275   2.403
  398SOL    HW2 2094   0.711   6.201   2.335
  399SOL     OW 2095   5.516   6.255   2.701
  399SOL    HW1 2096   5.427   6.234   2.660
  399SOL    HW2 2097   5.532   6.354   2.697
  400SOL     OW 2098   6.242   6.420   5.643
  400SOL    HW1 2099   6.266   6.374   5.557
  400SOL    HW2 2100   6.270   6.516   5.637
  401SOL     OW 2101   5.031   0.541   5.298
  401SOL    HW1 2102   4.987   0.606   5.235
  401SOL    HW2 2103   5.110   0.585   5.341
  402SOL     OW 2104   6.023   0.512   3.035
  402SOL    HW1 2105   6.059   0.598   3.072
  402SOL    HW2 2106   6.087   0.438   3.054
  403SOL     OW 2107   4.398   1.975   4.963
  403SOL    HW1 2108   4.365   1.977   4.868
  403SOL    HW2 2109   4.361   1.894   5.009
  404SOL     OW 2110   1.542   6.241   3.863
  404SOL    HW1 2111   1.564   6.168   3.927
  404SOL    HW2 2112   1.505   6.200   3.779
  405SOL     OW 2113   1.653   3.643   1.715
  405SOL    HW1 2114   1.749   3.662   1.737
  405SOL    HW2 2115   1.614   3.584   1.786
  406SOL     OW 2116   0.597   4.148   4.119
  406SOL    HW1 2117   0.592   4.210   4.197
  406SOL    HW2 2118   0.612   4.200   4.035
  407SOL     OW 2119   2.325   0.491   3.284
  407SOL    HW1 2120   2.258   0.473   3.212
  407SOL    HW2 2121   2.378   0.572   3.262
  408SOL     OW 2122   0.644   2.372   3.021
  408SOL    HW1 2123   0.567   2.390   2.960
  408SOL    HW2 2124   0.627   2.288   3.073
  409SOL     OW 2125   6.293   2.782   1.168
  409SOL    HW1 2126   6.198   2.808   1.187
  409SOL    HW2 2127   6.296   2.689   1.132
  410SOL     OW 2128   1.517   0.762   0.369
  410SOL    HW1 2129   1.491   0.752   0.466
  410SOL    HW2 2130   1.434   0.770   0.314
  411SOL     OW 2131   5.485   0.069   6.764
  411SOL    HW1 2132   5.472   6.996   6.728
  411SOL    HW2 2133   5.583   0.087   6.773
  412SOL     OW 2134   5.601   6.233   3.510
  412SOL    HW1 2135   5.631   6.322   3.542
  412SOL    HW2 2136   5.550   6.186   3.582
  413SOL     OW 2137   5.572   5.602   2.021
  413SOL    HW1 2138   5.558   5.598   2.120
  413SOL    HW2 2139   5.590   5.696   1.994
  414SOL     OW 2140   3.967   5.020   3.605
  414SOL    HW1 2141   4.065   4.999   3.601
  414SOL    HW2 2142   3.954   5.117   3.626
  415SOL     OW 2143   0.972   5.890   6.579
  415SOL    HW1 2144   1.025   5.931   6.505
  415SOL    HW2 2145   0.879   5.926   6.577
  416SOL     OW 2146   5.087   5.701   4.240
  416SOL    HW1 2147   5.078   5.725   4.337
  416SOL    HW2 2148   5.155   5.761   4.197
  417SOL     OW 2149   2.400   5.054   0.530
  417SOL    HW1 2150   2.436   5.129   0.476
  417SOL    HW2 2151   2.458   4.974   0.519
  418SOL     OW 2152   4.360   6.061   1.507
  418SOL    HW1 2153   4.451   6.021   1.498
  418SOL    HW2 2154   4.292   5.997   1.474
  419SOL     OW 2155   1.457   6.898   0.920
  419SOL    HW1 2156   1.418   6.980   0.963
  419SOL    HW2 2157   1.409   6.878   0.835
  420SOL     OW 2158   6.035   2.010   0.101
  420SOL    HW1 2159   6.023   1.964   0.013
  420SOL    HW2 2160   5.946   2.037   0.137
  421SOL     OW 2161   0.143   4.879   6.227
  421SOL    HW1 2162   0.119   4.868   6.324
  421SOL    HW2 2163   0.091   4.956   6.189
  422SOL     OW 2164   5.354   4.696   0.532
  422SOL    HW1 2165   5.283   4.726   0.468
  422SOL    HW2 2166   5.438   4.677   0.481
  423SOL     OW 2167   0.550   2.330   0.107
  423SOL    HW1 2168   0.521   2.355   0.015
  423SOL    HW2 2169   0.649   2.336   0.113
  424SOL     OW 2170   2.485   3.618   1.186
  424SOL    HW1 2171   2.481   3.718   1.175
  424SOL    HW2 2172   2.393   3.581   1.176
  425SOL     OW 2173   5.725   1.208   2.186
  425SOL    HW1 2174   5.819   1.235   2.209
  425SOL    HW2 2175   5.686   1.276   2.123
  426SOL     OW 2176   4.543   2.271   4.060
  426SOL    HW1 2177   4.580   2.356   4.024
  426SOL    HW2 2178   4.446   2.283   4.081
  427SOL     OW 2179   5.084   5.399   2.857
  427SOL    HW1 2180   5.157   5.375   2.921
  427SOL    HW2 2181   5.036   5.480   2.891
  428SOL     OW 2182   4.297   0.239   4.698
  428SOL    HW1 2183   4.312   0.273   4.791
  428SOL    HW2 2184   4.380   0.250   4.644
  429SOL     OW 2185   2.283   3.458   0.913
  429SOL    HW1 2186   2.218   3.501   0.975
  429SOL    HW2 2187   2.265   3.490   0.820
  430SOL     OW 2188   6.558   0.234   4.446
  430SOL    HW1 2189   6.512   0.192   4.524
  430SOL    HW2 2190   6.634   0.176   4.417
  431SOL     OW 2191   3.624   6.694   0.324
  431SOL    HW1 2192   3.556   6.622   0.310
  431SOL    HW2 2193   3.661   6.688   0.417
  432SOL     OW 2194   6.711   1.916   1.394
  432SOL    HW1 2195   6.672   1.986   1.335
  432SOL    HW2 2196   6.648   1.839   1.401
  433SOL     OW 2197   2.983   6.353   4.488
  433SOL    HW1 2198   2.976   6.255   4.506
  433SOL    HW2 2199   3.072   6.386   4.519
  434SOL     OW 2200   3.449   5.847   1.707
  434SOL    HW1 2201   3.514   5.881   1.776
  434SOL    HW2 2202   3.402   5.766   1.743
  435SOL     OW 2203   5.299   2.478   5.687
  435SOL    HW1 2204   5.208   2.446   5.660
  435SOL    HW2 2205   5.313   2.571   5.654
  436SOL     OW 2206   3.147   6.306   1.007
  436SOL    HW1 2207   3.156   6.233   0.939
  436SOL    HW2 2208   3.101   6.384   0.966
  437SOL     OW 2209   1.276   0.083   6.500
  437SOL    HW1 2210   1.253   0.118   6.410
  437SOL    HW2 2211   1.197   0.093   6.561
  438SOL     OW 2212   2.093   3.706   2.339
  438SOL    HW1 2213   2.112   3.622   2.287
  438SOL    HW2 2214   2.097   3.686   2.437
  439SOL     OW 2215   5.910   4.258   3.665
  439SOL    HW1 2216   5.996   4.295   3.629
  439SOL    HW2 2217   5.846   4.242   3.590
  440SOL     OW 2218   1.742   1.311   5.004
  440SOL    HW1 2219   1.722   1.337   5.098
  440SOL    HW2 2220   1.840   1.292   4.994
  441SOL     OW 2221   1.198   2.844   3.503
  441SOL    HW1 2222   1.167   2.770   3.562
  441SOL    HW2 2223   1.151   2.928   3.527
  442SOL     OW 2224   3.148   5.004   6.211
  442SOL    HW1 2225   3.238   5.043   6.230
  442SOL    HW2 2226   3.135   4.997   6.112
  443SOL     OW 2227   6.105   4.494   4.563
  443SOL    HW1 2228   6.102   4.395   4.560
  443SOL    HW2 2229   6.166   4.528   4.492
  444SOL     OW 2230   5.149   1.779   5.986
  444SOL    HW1 2231   5.076   1.711   5.977
  444SOL    HW2 2232   5.163   1.801   6.082
  445SOL     OW 2233   0.567   5.340   2.945
  445SOL    HW1 2234   0.472   5.321   2.973
  445SOL    HW2 2235   0.620   5.365   3.026
  446SOL     OW 2236   4.205   4.821   3.457
  446SOL    HW1 2237   4.293   4.782   3.433
  446SOL    HW2 2238   4.207   4.853   3.552
  447SOL     OW 2239   0.928   2.458   6.381
  447SOL    HW1 2240   1.024   2.485   6.387
  447SOL    HW2 2241   0.871   2.529   6.421
  448SOL     OW 2242   2.810   0.493   4.141
  448SOL    HW1 2243   2.806   0.454   4.049
  448SOL    HW2 2244   2.724   0.476   4.188
  449SOL     OW 2245   4.557   1.293   4.397
  449SOL    HW1 2246   4.629   1.255   4.455
  449SOL    HW2 2247   4.476   1.312   4.451
  450SOL     OW 2248   1.578   5.896   3.675
  450SOL    HW1 2249   1.584   5.907   3.774
  450SOL    HW2 2250   1.645   5.828   3.645
  451SOL     OW 2251   1.887   1.726   3.581
  451SOL    HW1 2252   1.919   1.774   3.500
  451SOL    HW2 2253   1.929   1.636   3.586
  452SOL     OW 2254   6.180   6.009   0.997
  452SOL    HW1 2255   6.277   6.030   0.986
  452SOL    HW2 2256   6.141   6.068   1.066
  453SOL     OW 2257   3.665   1.061   5.216
  453SOL    HW1 2258   3.734   1.031   5.283
  453SOL    HW2 2259   3.659   0.994   5.142
  454SOL     OW 2260   0.011   4.911   6.468
  454SOL    HW1 2261   0.002   5.009   6.489
  454SOL    HW2 2262   6.955   4.861   6.510
  455SOL     OW 2263   6.210   2.773   3.205
  455SOL    HW1 2264   6.150   2.695   3.224
  455SOL    HW2 2265   6.280   2.745   3.139
  456SOL     OW 2266   5.888   6.608   4.070
  456SOL    HW1 2267   5.913   6.512   4.082
  456SOL    HW2 2268   5.920   6.640   3.980
  457SOL     OW 2269   2.147   3.248   4.211
  457SOL    HW1 2270   2.066   3.201   4.176
  457SOL    HW2 2271   2.182   3.200   4.291
  458SOL     OW 2272   4.560   5.343   3.339
  458SOL    HW1 2273   4.460   5.341   3.344
  458SOL    HW2 2274   4.589   5.290   3.259
  459SOL     OW 2275   2.005   0.197   5.401
  459SOL    HW1 2276   2.027   0.260   5.327
  459SOL    HW2 2277   1.963   0.115   5.363
  460SOL     OW 2278   1.596   0.183   3.357
  460SOL    HW1 2279   1.551   0.264   3.394
  460SOL    HW2 2280   1.619   0.121   3.431
  461SOL     OW 2281   5.960   0.298   6.002
  461SOL    HW1 2282   5.963   0.307   6.101
  461SOL    HW2 2283   5.911   0.214   5.977
  462SOL     OW 2284   3.137   3.084   6.191
  462SOL    HW1 2285   3.098   3.086   6.099
  462SOL    HW2 2286   3.219   3.027   6.191
  463SOL     OW 2287   6.470   5.860   2.993
  463SOL    HW1 2288   6.442   5.915   2.914
  463SOL    HW2 2289   6.507   5.773   2.961
  464SOL     OW 2290   2.271   2.135   5.448
  464SOL    HW1 2291   2.272   2.165   5.352
  464SOL    HW2 2292   2.354   2.169   5.493
  465SOL     OW 2293   0.610   2.610   5.487
  465SOL    HW1 2294   0.683   2.591   5.422
  465SOL    HW2 2295   0.586   2.707   5.482
  466SOL     OW 2296   0.583   5.726   2.976
  466SOL    HW1 2297   0.511   5.668   2.938
  466SOL    HW2 2298   0.651   5.669   3.022
  467SOL     OW 2299   1.479   1.836   0.721
  467SOL    HW1 2300   1.497   1.752   0.670
  467SOL    HW2 2301   1.382   1.842   0.744
  468SOL     OW 2302   3.887   6.995   6.490
  468SOL    HW1 2303   3.884   6.989   6.589
  468SOL    HW2 2304   3.978   6.970   6.457
  469SOL     OW 2305   2.651   3.706   6.703
  469SOL    HW1 2306   2.718   3.775   6.730
  469SOL    HW2 2307   2.683   3.616   6.730
  470SOL     OW 2308   4.120   0.092   2.211
  470SOL    HW1 2309   4.145   0.166   2.149
  470SOL    HW2 2310   4.178   0.012   2.193
  471SOL     OW 2311   2.208   2.240   4.106
  471SOL    HW1 2312   2.136   2.184   4.063
  471SOL    HW2 2313   2.193   2.336   4.082
  472SOL     OW 2314   5.450   3.404   6.947
  472SOL    HW1 2315   5.537   3.388   6.902
  472SOL    HW2 2316   5.445   3.498   6.980
  473SOL     OW 2317   1.335   2.805   3.069
  473SOL    HW1 2318   1.341   2.809   3.168
  473SOL    HW2 2319   1.243   2.830   3.039
  474SOL     OW 2320   5.392   5.576   4.369
  474SOL    HW1 2321   5.376   5.606   4.275
  474SOL    HW2 2322   5.379   5.477   4.375
  475SOL     OW 2323   5.830   0.951   6.200
  475SOL    HW1 2324   5.794   0.896   6.125
  475SOL    HW2 2325   5.919   0.915   6.227
  476SOL     OW 2326   6.719   4.030   3.420
  476SOL    HW1 2327   6.748   4.115   3.464
  476SOL    HW2 2328   6.779   3.956   3.450
  477SOL     OW 2329   2.055   5.157   3.934
  477SOL    HW1 2330   1.963   5.173   3.970
  477SOL    HW2 2331   2.123   5.189   3.999
  478SOL     OW 2332   3.150   6.908   1.798
  478SOL    HW1 2333   3.186   6.904   1.706
  478SOL    HW2 2334   3.067   6.852   1.804
  479SOL     OW 2335   4.062   2.029   6.063
  479SOL    HW1 2336   4.022   2.113   6.098
  479SOL    HW2 2337   3.995   1.955   6.069
  480SOL     OW 2338   2.279   1.110   6.845
  480SOL    HW1 2339   2.299   1.192   6.899
  480SOL    HW2 2340   2.263   1.136   6.750
  481SOL     OW 2341   1.980   6.977   0.265
  481SOL    HW1 2342   1.895   6.963   0.214
  481SOL    HW2 2343   1.965   0.025   0.337
  482SOL     OW 2344   4.491   4.794   2.699
  482SOL    HW1 2345   4.437   4.744   2.766
  482SOL    HW2 2346   4.430   4.841   2.635
  483SOL     OW 2347   6.446   1.276   1.617
  483SOL    HW1 2348   6.363   1.222   1.627
  483SOL    HW2 2349   6.498   1.273   1.703
  484SOL     OW 2350   1.633   3.273   4.986
  484SOL    HW1 2351   1.721   3.308   4.955
  484SOL    HW2 2352   1.596   3.332   5.058
  485SOL     OW 2353   3.598   5.200   2.433
  485SOL    HW1 2354   3.636   5.260   2.503
  485SOL    HW2 2355   3.498   5.211   2.430
  486SOL     OW 2356   6.689   1.563   0.273
  486SOL    HW1 2357   6.708   1.661   0.274
  486SOL    HW2 2358   6.590   1.548   0.269
  487SOL     OW 2359   1.332   0.493   0.937
  487SOL    HW1 2360   1.333   0.593   0.941
  487SOL    HW2 2361   1.294   0.457   1.023
  488SOL     OW 2362   1.146   1.378   2.170
  488SOL    HW1 2363   1.075   1.439   2.137
  488SOL    HW2 2364   1.180   1.322   2.094
  489SOL     OW 2365   3.557   5.994   6.363
  489SOL    HW1 2366   3.510   5.909   6.388
  489SOL    HW2 2367   3.502   6.072   6.392
  490SOL     OW 2368   6.481   5.610   3.161
  490SOL    HW1 2369   6.486   5.645   3.254
  490SOL    HW2 2370   6.389   5.625   3.125
  491SOL     OW 2371   0.513   2.978   2.708
  491SOL    HW1 2372   0.536   2.884   2.732
  491SOL    HW2 2373   0.492   2.983   2.611
  492SOL     OW 2374   2.004   0.605   5.512
  492SOL    HW1 2375   2.066   0.606   5.590
  492SOL    HW2 2376   1.935   0.677   5.523
  493SOL     OW 2377   5.018   5.647   5.168
  493SOL    HW1 2378   4.987   5.717   5.233
  493SOL    HW2 2379   5.117   5.654   5.157
  494SOL     OW 2380   0.237   6.986   6.948
  494SOL    HW1 2381   0.190   6.947   6.869
  494SOL    HW2 2382   0.201   0.057   6.967
  495SOL     OW 2383   5.263   5.907   3.230
  495SOL    HW1 2384   5.329   5.887   3.302
  495SOL    HW2 2385   5.181   5.947   3.271
  496SOL     OW 2386   5.377   4.246   1.970
  496SOL    HW1 2387   5.297   4.282   1.922
  496SOL    HW2 2388   5.347   4.180   2.039
  497SOL     OW 2389   3.436   1.131   4.036
  497SOL    HW1 2390   3.450   1.227   4.011
  497SOL    HW2 2391   3.503   1.074   3.989
  498SOL     OW 2392   2.125   3.497   1.139
  498SOL    HW1 2393   2.029   3.470   1.149
  498SOL    HW2 2394   2.169   3.496   1.228
  499SOL     OW 2395   2.406   6.950   4.557
  499SOL    HW1 2396   2.493   6.980   4.517
  499SOL    HW2 2397   2.413   6.854   4.582
  500SOL     OW 2398   0.676   3.106   4.188
  500SOL    HW1 2399   0.738   3.131   4.262
  500SOL    HW2 2400   0.685   3.173   4.114
  501SOL     OW 2401   3.091   5.594   0.946
  501SOL    HW1 2402   3.113   5.688   0.971
  501SOL    HW2 2403   3.174   5.538   0.951
  502SOL     OW 2404   0.362   3.937   0.235
  502SOL    HW1 2405   0.308   3.891   0.165
  502SOL    HW2 2406   0.456   3.904   0.233
  503SOL     OW 2407   6.492   5.412   6.800
  503SOL    HW1 2408   6.505   5.323   6.756
  503SOL    HW2 2409   6.447   5.399   6.888
  504SOL     OW 2410   1.047   5.557   2.705
  504SOL    HW1 2411   0.970   5.616   2.729
  504SOL    HW2 2412   1.068   5.497   2.782
  505SOL     OW 2413   2.913   6.064   5.052
  505SOL    HW1 2414   2.841   6.129   5.079
  505SOL    HW2 2415   2.949   6.019   5.133
  506SOL     OW 2416   2.367   5.097   4.726
  506SOL    HW1 2417   2.438   5.032   4.752
  506SOL    HW2 2418   2.292   5.048   4.680
  507SOL     OW 2419   3.175   6.301   2.977
  507SOL    HW1 2420   3.177   6.348   2.889
  507SOL    HW2 2421   3.156   6.203   2.963
  508SOL     OW 2422   0.248   4.035   2.169
  508SOL    HW1 2423   0.169   4.034   2.230
  508SOL    HW2 2424   0.217   4.026   2.075
  509SOL     OW 2425   3.255   1.433   1.521
  509SOL    HW1 2426   3.166   1.397   1.550
  509SOL    HW2 2427   3.325   1.362   1.531
  510SOL     OW 2428   6.104   4.831   0.477
  510SOL    HW1 2429   6.041   4.833   0.400
  510SOL    HW2 2430   6.175   4.901   0.464
  511SOL     OW 2431   0.637   1.245   5.563
  511SOL    HW1 2432   0.573   1.175   5.532
  511SOL    HW2 2433   0.722   1.202   5.593
  512SOL     OW 2434   6.920   2.668   6.759
  512SOL    HW1 2435   6.937   2.684   6.856
  512SOL    HW2 2436   6.860   2.588   6.748
  513SOL     OW 2437   6.067   6.822   3.675
  513SOL    HW1 2438   6.023   6.868   3.751
  513SOL    HW2 2439   6.152   6.869   3.651
  514SOL     OW 2440   6.362   2.583   4.014
  514SOL    HW1 2441   6.327   2.497   3.975
  514SOL    HW2 2442   6.410   2.634   3.942
  515SOL     OW 2443   1.002   0.695   6.339
  515SOL    HW1 2444   0.942   0.631   6.291
  515SOL    HW2 2445   1.037   0.651   6.422
  516SOL     OW 2446   2.566   4.540   1.925
  516SOL    HW1 2447   2.505   4.576   1.997
  516SOL    HW2 2448   2.660   4.541   1.959
  517SOL     OW 2449   4.494   5.933   2.053
  517SOL    HW1 2450   4.418   5.997   2.058
  517SOL    HW2 2451   4.579   5.982   2.036
  518SOL     OW 2452   2.473   2.546   3.454
  518SOL    HW1 2453   2.554   2.503   3.414
  518SOL    HW2 2454   2.480   2.545   3.553
  519SOL     OW 2455   0.424   0.205   4.758
  519SOL    HW1 2456   0.375   0.282   4.718
  519SOL    HW2 2457   0.358   0.137   4.791
  520SOL     OW 2458   6.636   4.032   1.002
  520SOL    HW1 2459   6.671   4.125   0.992
  520SOL    HW2 2460   6.563   4.031   1.071
  521SOL     OW 2461   6.374   4.396   4.675
  521SOL    HW1 2462   6.359   4.427   4.769
  521SOL    HW2 2463   6.359   4.298   4.669
  522SOL     OW 2464   3.619   3.264   4.466
  522SOL    HW1 2465   3.629   3.194   4.537
  522SOL    HW2 2466   3.558   3.231   4.394
  523SOL     OW 2467   0.357   5.160   1.811
  523SOL    HW1 2468   0.361   5.178   1.909
  523SOL    HW2 2469   0.326   5.242   1.763
  524SOL     OW 2470   0.040   1.295   1.087
  524SOL    HW1 2471   0.092   1.255   1.163
  524SOL    HW2 2472   0.104   1.326   1.017
  525SOL     OW 2473   2.409   3.680   5.789
  525SOL    HW1 2474   2.401   3.644   5.696
  525SOL    HW2 2475   2.398   3.606   5.855
  526SOL     OW 2476   4.139   6.619   4.442
  526SOL    HW1 2477   4.072   6.587   4.509
  526SOL    HW2 2478   4.231   6.591   4.471
  527SOL     OW 2479   6.679   2.597   6.975
  527SOL    HW1 2480   6.580   2.595   6.984
  527SOL    HW2 2481   6.707   2.538   6.899
  528SOL     OW 2482   0.892   1.823   3.031
  528SOL    HW1 2483   0.878   1.728   3.059
  528SOL    HW2 2484   0.914   1.827   2.934
  529SOL     OW 2485   2.186   6.962   3.884
  529SOL    HW1 2486   2.131   6.879   3.875
  529SOL    HW2 2487   2.150   7.018   3.959
  530SOL     OW 2488   3.260   3.023   4.562
  530SOL    HW1 2489   3.169   3.055   4.536
  530SOL    HW2 2490   3.314   3.099   4.598
  531SOL     OW 2491   0.628   1.456   3.235
  531SOL    HW1 2492   0.582   1.370   3.259
  531SOL    HW2 2493   0.561   1.521   3.200
  532SOL     OW 2494   1.178   2.557   6.871
  532SOL    HW1 2495   1.276   2.556   6.890
  532SOL    HW2 2496   1.141   2.465   6.878
  533SOL     OW 2497   4.646   6.576   3.865
  533SOL    HW1 2498   4.732   6.536   3.896
  533SOL    HW2 2499   4.611   6.637   3.936
  534SOL     OW 2500   5.134   6.596   2.564
  534SOL    HW1 2501   5.057   6.653   2.538
  534SOL    HW2 2502   5.102   6.507   2.595
  535SOL     OW 2503   0.818   3.777   4.345
  535SOL    HW1 2504   0.915   3.756   4.333
  535SOL    HW2 2505   0.788   3.745   4.435
  536SOL     OW 2506   6.416   5.313   1.555
  536SOL    HW1 2507   6.500   5.278   1.515
  536SOL    HW2 2508   6.434   5.344   1.649
  537SOL     OW 2509   2.672   6.431   4.356
  537SOL    HW1 2510   2.763   6.401   4.328
  537SOL    HW2 2511   2.603   6.380   4.304
  538SOL     OW 2512   1.290   4.231   3.180
  538SOL    HW1 2513   1.322   4.296   3.248
  538SOL    HW2 2514   1.224   4.275   3.119
  539SOL     OW 2515   1.417   6.593   1.077
  539SOL    HW1 2516   1.358   6.667   1.045
  539SOL    HW2 2517   1.414   6.517   1.013
  540SOL     OW 2518   0.982   0.272   3.156
  540SOL    HW1 2519   0.957   0.281   3.060
  540SOL    HW2 2520   1.059   0.333   3.176
  541SOL     OW 2521   4.115   6.155   4.488
  541SOL    HW1 2522   4.158   6.166   4.399
  541SOL    HW2 2523   4.070   6.066   4.493
  542SOL     OW 2524   6.685   0.192   6.988
  542SOL    HW1 2525   6.785   0.194   6.990
  542SOL    HW2 2526   6.654   0.098   7.002
  543SOL     OW 2527   1.383   4.101   5.699
  543SOL    HW1 2528   1.478   4.109   5.669
  543SOL    HW2 2529   1.379   4.110   5.799
  544SOL     OW 2530   2.705   3.539   0.177
  544SOL    HW1 2531   2.719   3.465   0.111
  544SOL    HW2 2532   2.710   3.627   0.130
  545SOL     OW 2533   2.926   0.940   2.649
  545SOL    HW1 2534   2.849   0.990   2.610
  545SOL    HW2 2535   2.936   0.852   2.602
  546SOL     OW 2536   1.725   3.212   0.613
  546SOL    HW1 2537   1.661   3.203   0.537
  546SOL    HW2 2538   1.817   3.187   0.582
  547SOL     OW 2539   3.151   1.255   0.076
  547SOL    HW1 2540   3.166   1.250   6.997
  547SOL    HW2 2541   3.183   1.171   0.119
  548SOL     OW 2542   3.627   2.930   2.955
  548SOL    HW1 2543   3.661   2.876   3.032
  548SOL    HW2 2544   3.542   2.976   2.982
  549SOL     OW 2545   4.832   3.488   1.148
  549SOL    HW1 2546   4.902   3.467   1.217
  549SOL    HW2 2547   4.746   3.445   1.174
  550SOL     OW 2548   6.407   4.666   3.754
  550SOL    HW1 2549   6.338   4.616   3.701
  550SOL    HW2 2550   6.447   4.737   3.696
  551SOL     OW 2551   0.989   0.340   2.076
  551SOL    HW1 2552   1.052   0.346   1.998
  551SOL    HW2 2553   1.040   0.312   2.158
  552SOL     OW 2554   4.953   4.321   0.121
  552SOL    HW1 2555   4.962   4.398   0.185
  552SOL    HW2 2556   4.900   4.350   0.041
  553SOL     OW 2557   1.805   6.403   2.100
  553SOL    HW1 2558   1.775   6.482   2.154
  553SOL    HW2 2559   1.739   6.384   2.028
  554SOL     OW 2560   5.497   6.783   6.233
  554SOL    HW1 2561   5.517   6.732   6.317
  554SOL    HW2 2562   5.404   6.818   6.238
  555SOL     OW 2563   1.671   5.238   3.157
  555SOL    HW1 2564   1.659   5.190   3.244
  555SOL    HW2 2565   1.738   5.189   3.101
  556SOL     OW 2566   5.029   2.065   3.801
  556SOL    HW1 2567   4.960   2.133   3.828
  556SOL    HW2 2568   5.109   2.073   3.862
  557SOL     OW 2569   0.745   4.354   0.198
  557SOL    HW1 2570   0.707   4.433   0.245
  557SOL    HW2 2571   0.844   4.364   0.189
  558SOL     OW 2572   3.016   3.416   4.403
  558SOL    HW1 2573   3.080   3.449   4.334
  558SOL    HW2 2574   2.939   3.479   4.409
  559SOL     OW 2575   6.880   5.202   6.937
  559SOL    HW1 2576   6.869   5.288   6.987
  559SOL    HW2 2577   6.792   5.157   6.928
  560SOL     OW 2578   4.575   4.436   0.106
  560SOL    HW1 2579   4.502   4.433   0.175
  560SOL    HW2 2580   4.626   4.350   0.108
  561SOL     OW 2581   6.063   1.410   0.128
  561SOL    HW1 2582   6.081   1.317   0.160
  561SOL    HW2 2583   6.099   1.421   0.035
  562SOL     OW 2584   5.551   0.332   5.677
  562SOL    HW1 2585   5.488   0.409   5.689
  562SOL    HW2 2586   5.541   0.296   5.584
  563SOL     OW 2587   2.111   0.500   3.049
  563SOL    HW1 2588   2.099   0.526   2.954
  563SOL    HW2 2589   2.054   0.421   3.070
  564SOL     OW 2590   2.484   1.974   6.964
  564SOL    HW1 2591   2.464   1.970   6.866
  564SOL    HW2 2592   2.566   2.031   6.978
  565SOL     OW 2593   3.483   2.777   5.860
  565SOL    HW1 2594   3.496   2.817   5.951
  565SOL    HW2 2595   3.493   2.848   5.790
  566SOL     OW 2596   5.884   4.763   4.452
  566SOL    HW1 2597   5.832   4.678   4.465
  566SOL    HW2 2598   5.891   4.783   4.354
  567SOL     OW 2599   4.024   3.901   2.548
  567SOL    HW1 2600   4.074   3.978   2.507
  567SOL    HW2 2601   3.926   3.923   2.550
  568SOL     OW 2602   3.991   2.063   6.998
  568SOL    HW1 2603   3.981   2.088   0.074
  568SOL    HW2 2604   3.922   1.994   6.974
  569SOL     OW 2605   1.115   4.023   6.518
  569SOL    HW1 2606   1.161   4.070   6.594
  569SOL    HW2 2607   1.019   4.010   6.540
  570SOL     OW 2608   2.729   6.197   0.014
  570SOL    HW1 2609   2.774   6.110   0.031
  570SOL    HW2 2610   2.658   6.186   6.963
  571SOL     OW 2611   2.946   0.682   2.531
  571SOL    HW1 2612   2.883   0.607   2.509
  571SOL    HW2 2613   3.040   0.654   2.513
  572SOL     OW 2614   2.735   4.726   5.757
  572SOL    HW1 2615   2.649   4.698   5.800
  572SOL    HW2 2616   2.792   4.774   5.824
  573SOL     OW 2617   5.334   0.803   5.617
  573SOL    HW1 2618   5.254   0.833   5.564
  573SOL    HW2 2619   5.413   0.799   5.556
  574SOL     OW 2620   3.162   1.963   4.315
  574SOL    HW1 2621   3.125   1.890   4.259
  574SOL    HW2 2622   3.094   1.994   4.381
  575SOL     OW 2623   6.101   3.195   0.293
  575SOL    HW1 2624   6.124   3.255   0.369
  575SOL    HW2 2625   6.016   3.225   0.251
  576SOL     OW 2626   0.935   2.110   2.746
  576SOL    HW1 2627   0.958   2.022   2.787
  576SOL    HW2 2628   0.887   2.167   2.812
  577SOL     OW 2629   2.276   1.322   2.877
  577SOL    HW1 2630   2.231   1.235   2.856
  577SOL    HW2 2631   2.209   1.386   2.915
  578SOL     OW 2632   6.495   5.055   3.376
  578SOL    HW1 2633   6.412   5.110   3.379
  578SOL    HW2 2634   6.574   5.115   3.363
  579SOL     OW 2635   1.700   3.238   1.828
  579SOL    HW1 2636   1.628   3.204   1.889
  579SOL    HW2 2637   1.758   3.302   1.878
  580SOL     OW 2638   6.759   4.533   6.645
  580SOL    HW1 2639   6.745   4.502   6.739
  580SOL    HW2 2640   6.803   4.461   6.592
  581SOL     OW 2641   2.907   3.687   2.460
  581SOL    HW1 2642   2.982   3.704   2.523
  581SOL    HW2 2643   2.862   3.774   2.437
  582SOL     OW 2644   5.575   5.300   2.708
  582SOL    HW1 2645   5.481   5.277   2.682
  582SOL    HW2 2646   5.635   5.222   2.689
  583SOL     OW 2647   2.582   5.225   6.065
  583SOL    HW1 2648   2.624   5.135   6.068
  583SOL    HW2 2649   2.573   5.255   5.971
  584SOL     OW 2650   1.963   4.223   6.831
  584SOL    HW1 2651   2.016   4.191   6.754
  584SOL    HW2 2652   1.875   4.259   6.799
  585SOL     OW 2653   5.480   2.970   6.435
  585SOL    HW1 2654   5.555   3.021   6.393
  585SOL    HW2 2655   5.492   2.968   6.534
  586SOL     OW 2656   3.748   1.633   6.283
  586SOL    HW1 2657   3.669   1.660   6.337
  586SOL    HW2 2658   3.779   1.543   6.312
  587SOL     OW 2659   2.645   2.042   4.914
  587SOL    HW1 2660   2.685   2.065   4.825
  587SOL    HW2 2661   2.681   1.954   4.945
  588SOL     OW 2662   2.126   4.661   0.683
  588SOL    HW1 2663   2.106   4.688   0.589
  588SOL    HW2 2664   2.041   4.661   0.736
  589SOL     OW 2665   3.327   5.149   1.596
  589SOL    HW1 2666   3.389   5.203   1.538
  589SOL    HW2 2667   3.340   5.052   1.578
  590SOL     OW 2668   5.578   2.895   2.175
  590SOL    HW1 2669   5.573   2.873   2.077
  590SOL    HW2 2670   5.654   2.845   2.216
  591SOL     OW 2671   3.814   6.200   3.990
  591SOL    HW1 2672   3.789   6.251   4.073
  591SOL    HW2 2673   3.909   6.220   3.966
  592SOL     OW 2674   3.149   0.247   1.385
  592SOL    HW1 2675   3.179   0.284   1.472
  592SOL    HW2 2676   3.183   0.305   1.311
  593SOL     OW 2677   4.995   2.625   3.777
  593SOL    HW1 2678   4.984   2.534   3.739
  593SOL    HW2 2679   4.930   2.688   3.733
  594SOL     OW 2680   5.043   2.238   6.046
  594SOL    HW1 2681   5.093   2.170   6.099
  594SOL    HW2 2682   5.106   2.307   6.011
  595SOL     OW 2683   5.578   0.324   3.600
  595SOL    HW1 2684   5.533   0.242   3.567
  595SOL    HW2 2685   5.677   0.316   3.586
  596SOL     OW 2686   1.441   4.295   2.327
  596SOL    HW1 2687   1.439   4.201   2.294
  596SOL    HW2 2688   1.384   4.303   2.409
  597SOL     OW 2689   4.185   6.961   6.362
  597SOL    HW1 2690   4.220   6.925   6.275
  597SOL    HW2 2691   4.211   0.037   6.371
  598SOL     OW 2692   3.396   4.392   6.443
  598SOL    HW1 2693   3.442   4.476   6.472
  598SOL    HW2 2694   3.463   4.321   6.425
  599SOL     OW 2695   2.305   6.329   2.668
  599SOL    HW1 2696   2.327   6.289   2.758
  599SOL    HW2 2697   2.216   6.294   2.637
  600SOL     OW 2698   0.866   0.799   0.864
  600SOL    HW1 2699   0.843   0.896   0.877
  600SOL    HW2 2700   0.793   0.742   0.903
  601SOL     OW 2701   3.345   6.614   3.788
  601SOL    HW1 2702   3.362   6.592   3.692
  601SOL    HW2 2703   3.362   6.533   3.844
  602SOL     OW 2704   2.028   2.906   6.697
  602SOL    HW1 2705   1.981   2.867   6.776
  602SOL    HW2 2706   1.962   2.951   6.637
  603SOL     OW 2707   4.086   1.710   3.365
  603SOL    HW1 2708   4.095   1.642   3.439
  603SOL    HW2 2709   3.990   1.720   3.341
  604SOL     OW 2710   0.769   3.842   1.193
  604SOL    HW1 2711   0.814   3.929   1.214
  604SOL    HW2 2712   0.821   3.795   1.122
  605SOL     OW 2713   6.207   5.623   2.728
  605SOL    HW1 2714   6.291   5.570   2.735
  605SOL    HW2 2715   6.227   5.720   2.741
  606SOL     OW 2716   5.048   0.754   6.334
  606SOL    HW1 2717   4.983   0.827   6.356
  606SOL    HW2 2718   5.007   0.693   6.266
  607SOL     OW 2719   5.321   0.521   5.418
  607SOL    HW1 2720   5.389   0.564   5.477
  607SOL    HW2 2721   5.337   0.423   5.414
  608SOL     OW 2722   4.094   6.083   6.883
  608SOL    HW1 2723   4.098   5.995   6.930
  608SOL    HW2 2724   4.005   6.095   6.840
  609SOL     OW 2725   3.935   3.058   3.868
  609SOL    HW1 2726   3.944   2.979   3.928
  609SOL    HW2 2727   3.933   3.142   3.923
  610SOL     OW 2728   5.271   2.375   2.684
  610SOL    HW1 2729   5.263   2.287   2.638
  610SOL    HW2 2730   5.291   2.446   2.617
  611SOL     OW 2731   1.756   0.437   6.522
  611SOL    HW1 2732   1.854   0.418   6.516
  611SOL    HW2 2733   1.705   0.364   6.476
  612SOL     OW 2734   4.033   6.662   6.503
  612SOL    HW1 2735   4.006   6.606   6.582
  612SOL    HW2 2736   4.118   6.711   6.524
  613SOL     OW 2737   4.054   6.710   6.098
  613SOL    HW1 2738   4.118   6.681   6.027
  613SOL    HW2 2739   4.035   6.633   6.160
  614SOL     OW 2740   5.994   3.437   0.974
  614SOL    HW1 2741   5.929   3.415   0.902
  614SOL    HW2 2742   6.012   3.536   0.974
  615SOL     OW 2743   0.484   1.835   1.103
  615SOL    HW1 2744   0.456   1.928   1.127
  615SOL    HW2 2745   0.448   1.771   1.170
  616SOL     OW 2746   6.792   2.081   3.090
  616SOL    HW1 2747   6.770   1.990   3.126
  616SOL    HW2 2748   6.816   2.142   3.166
  617SOL     OW 2749   0.099   3.486   6.668
  617SOL    HW1 2750   0.084   3.390   6.695
  617SOL    HW2 2751   0.172   3.490   6.600
  618SOL     OW 2752   0.252   3.349   0.224
  618SOL    HW1 2753   0.201   3.333   0.140
  618SOL    HW2 2754   0.204   3.418   0.279
  619SOL     OW 2755   4.678   6.878   6.896
  619SOL    HW1 2756   4.705   6.816   6.823
  619SOL    HW2 2757   4.686   6.830   6.984
  620SOL     OW 2758   5.361   2.494   1.584
  620SOL    HW1 2759   5.414   2.457   1.660
  620SOL    HW2 2760   5.297   2.424   1.551
  621SOL     OW 2761   2.265   0.178   5.464
  621SOL    HW1 2762   2.290   0.274   5.460
  621SOL    HW2 2763   2.166   0.170   5.478
  622SOL     OW 2764   0.862   1.618   5.083
  622SOL    HW1 2765   0.832   1.526   5.106
  622SOL    HW2 2766   0.804   1.685   5.131
  623SOL     OW 2767   0.919   6.225   5.480
  623SOL    HW1 2768   0.896   6.283   5.558
  623SOL    HW2 2769   1.006   6.178   5.498
  624SOL     OW 2770   6.536   0.975   0.095
  624SOL    HW1 2771   6.580   0.891   0.063
  624SOL    HW2 2772   6.570   1.052   0.041
  625SOL     OW 2773   1.940   2.201   0.978
  625SOL    HW1 2774   1.869   2.246   1.032
  625SOL    HW2 2775   1.910   2.193   0.883
  626SOL     OW 2776   0.238   5.927   3.126
  626SOL    HW1 2777   0.144   5.938   3.159
  626SOL    HW2 2778   0.293   6.003   3.159
  627SOL     OW 2779   6.263   6.129   0.723
  627SOL    HW1 2780   6.301   6.183   0.797
  627SOL    HW2 2781   6.314   6.044   0.714
  628SOL     OW 2782   5.585   5.042   5.291
  628SOL    HW1 2783   5.650   5.117   5.277
  628SOL    HW2 2784   5.585   4.982   5.211
  629SOL     OW 2785   0.722   0.809   6.322
  629SOL    HW1 2786   0.745   0.733   6.383
  629SOL    HW2 2787   0.798   0.874   6.320
  630SOL     OW 2788   0.467   2.013   0.847
  630SOL    HW1 2789   0.425   1.968   0.926
  630SOL    HW2 2790   0.408   2.087   0.816
  631SOL     OW 2791   4.105   0.974   5.019
  631SOL    HW1 2792   4.151   0.915   4.952
  631SOL    HW2 2793   4.040   1.034   4.972
  632SOL     OW 2794   5.152   2.189   1.108
  632SOL    HW1 2795   5.121   2.191   1.013
  632SOL    HW2 2796   5.149   2.281   1.146
  633SOL     OW 2797   3.300   4.281   0.069
  633SOL    HW1 2798   3.286   4.200   0.011
  633SOL    HW2 2799   3.214   4.308   0.111
  634SOL     OW 2800   3.314   3.721   2.937
  634SOL    HW1 2801   3.370   3.729   2.854
  634SOL    HW2 2802   3.372   3.691   3.013
  635SOL     OW 2803   4.917   6.107   0.818
  635SOL    HW1 2804   4.870   6.113   0.906
  635SOL    HW2 2805   4.849   6.104   0.745
  636SOL     OW 2806   2.531   6.751   6.218
  636SOL    HW1 2807   2.576   6.838   6.236
  636SOL    HW2 2808   2.432   6.766   6.212
  637SOL     OW 2809   0.196   2.836   2.851
  637SOL    HW1 2810   0.112   2.850   2.903
  637SOL    HW2 2811   0.270   2.807   2.912
  638SOL     OW 2812   6.359   3.304   3.490
  638SOL    HW1 2813   6.367   3.235   3.562
  638SOL    HW2 2814   6.275   3.289   3.438
  639SOL     OW 2815   4.956   3.699   2.883
  639SOL    HW1 2816   4.911   3.714   2.795
  639SOL    HW2 2817   4.923   3.612   2.922
  640SOL     OW 2818   0.039   4.995   3.827
  640SOL    HW1 2819   0.020   5.077   3.774
  640SOL    HW2 2820   6.979   4.973   3.884
  641SOL     OW 2821   0.638   4.659   4.819
  641SOL    HW1 2822   0.547   4.617   4.822
  641SOL    HW2 2823   0.653   4.711   4.903
  642SOL     OW 2824   0.672   3.283   3.970
  642SOL    HW1 2825   0.659   3.196   3.921
  642SOL    HW2 2826   0.584   3.315   4.006
  643SOL     OW 2827   6.313   0.261   6.305
  643SOL    HW1 2828   6.300   0.198   6.381
  643SOL    HW2 2829   6.240   0.329   6.305
  644SOL     OW 2830   1.428   0.110   4.291
  644SOL    HW1 2831   1.345   0.109   4.346
  644SOL    HW2 2832   1.495   0.047   4.331
  645SOL     OW 2833   3.698   6.599   4.721
  645SOL    HW1 2834   3.741   6.539   4.788
  645SOL    HW2 2835   3.619   6.644   4.762
  646SOL     OW 2836   3.393   0.960   4.585
  646SOL    HW1 2837   3.308   0.914   4.611
  646SOL    HW2 2838   3.427   0.919   4.500
  647SOL     OW 2839   5.092   2.291   5.131
  647SOL    HW1 2840   5.081   2.343   5.215
  647SOL    HW2 2841   5.046   2.203   5.140
  648SOL     OW 2842   0.160   4.651   4.322
  648SOL    HW1 2843   0.139   4.725   4.386
  648SOL    HW2 2844   0.236   4.597   4.358
  649SOL     OW 2845   2.426   3.975   0.485
  649SOL    HW1 2846   2.339   4.020   0.502
  649SOL    HW2 2847   2.413   3.876   0.483
  650SOL     OW 2848   6.749   4.278   0.933
  650SOL    HW1 2849   6.789   4.269   1.024
  650SOL    HW2 2850   6.814   4.323   0.871
  651SOL     OW 2851   1.198   0.228   5.760
  651SOL    HW1 2852   1.135   0.164   5.716
  651SOL    HW2 2853   1.146   0.291   5.819
  652SOL     OW 2854   4.767   0.140   3.177
  652SOL    HW1 2855   4.713   0.067   3.136
  652SOL    HW2 2856   4.729   0.164   3.266
  653SOL     OW 2857   0.671   6.143   0.275
  653SOL    HW1 2858   0.704   6.067   0.219
  653SOL    HW2 2859   0.602   6.109   0.339
  654SOL     OW 2860   0.833   6.267   6.647
  654SOL    HW1 2861   0.933   6.260   6.648
  654SOL    HW2 2862   0.794   6.178   6.671
  655SOL     OW 2863   6.809   5.483   1.478
  655SOL    HW1 2864   6.753   5.404   1.499
  655SOL    HW2 2865   6.868   5.462   1.399
  656SOL     OW 2866   2.494   6.039   0.451
  656SOL    HW1 2867   2.435   6.063   0.529
  656SOL    HW2 2868   2.543   6.121   0.421
  657SOL     OW 2869   2.944   3.681   0.787
  657SOL    HW1 2870   2.860   3.731   0.768
  657SOL    HW2 2871   3.007   3.740   0.838
  658SOL     OW 2872   1.317   3.846   5.607
  658SOL    HW1 2873   1.348   3.923   5.663
  658SOL    HW2 2874   1.392   3.782   5.592
  659SOL     OW 2875   2.730   5.837   4.195
  659SOL    HW1 2876   2.806   5.782   4.230
  659SOL    HW2 2877   2.759   5.887   4.114
  660SOL     OW 2878   4.767   4.012   2.501
  660SOL    HW1 2879   4.791   4.086   2.564
  660SOL    HW2 2880   4.673   4.026   2.468
  661SOL     OW 2881   4.946   3.985   4.278
  661SOL    HW1 2882   5.046   3.976   4.271
  661SOL    HW2 2883   4.903   3.938   4.202
  662SOL     OW 2884   4.192   0.666   5.553
  662SOL    HW1 2885   4.107   0.687   5.602
  662SOL    HW2 2886   4.254   0.743   5.559
  663SOL     OW 2887   1.203   3.561   0.327
  663SOL    HW1 2888   1.184   3.637   0.265
  663SOL    HW2 2889   1.300   3.561   0.352
  664SOL     OW 2890   1.178   5.551   6.393
  664SOL    HW1 2891   1.252   5.615   6.411
  664SOL    HW2 2892   1.196   5.464   6.439
  665SOL     OW 2893   4.620   5.654   1.307
  665SOL    HW1 2894   4.648   5.749   1.322
  665SOL    HW2 2895   4.689   5.593   1.344
  666SOL     OW 2896   4.452   2.300   1.712
  666SOL    HW1 2897   4.388   2.358   1.663
  666SOL    HW2 2898   4.411   2.211   1.731
  667SOL     OW 2899   6.653   4.066   4.041
  667SOL    HW1 2900   6.588   4.137   4.014
  667SOL    HW2 2901   6.731   4.066   3.979
  668SOL     OW 2902   5.038   5.482   0.194
  668SOL    HW1 2903   4.970   5.437   0.136
  668SOL    HW2 2904   5.109   5.416   0.220
  669SOL     OW 2905   3.267   5.834   2.595
  669SOL    HW1 2906   3.272   5.930   2.624
  669SOL    HW2 2907   3.293   5.775   2.671
  670SOL     OW 2908   3.136   3.087   1.848
  670SOL    HW1 2909   3.212   3.023   1.854
  670SOL    HW2 2910   3.062   3.046   1.794
  671SOL     OW 2911   2.304   6.029   6.776
  671SOL    HW1 2912   2.337   5.983   6.694
  671SOL    HW2 2913   2.260   6.115   6.751
  672SOL     OW 2914   0.856   4.662   2.001
  672SOL    HW1 2915   0.931   4.659   2.066
  672SOL    HW2 2916   0.780   4.606   2.033
  673SOL     OW 2917   5.491   0.398   1.543
  673SOL    HW1 2918   5.466   0.312   1.497
  673SOL    HW2 2919   5.577   0.432   1.505
  674SOL     OW 2920   6.341   3.668   4.828
  674SOL    HW1 2921   6.297   3.663   4.738
  674SOL    HW2 2922   6.425   3.613   4.826
  675SOL     OW 2923   7.015   1.377   4.787
  675SOL    HW1 2924   0.084   1.407   4.752
  675SOL    HW2 2925   0.008   1.319   4.867
  676SOL     OW 2926   3.646   5.371   3.037
  676SOL    HW1 2927   3.708   5.420   2.976
  676SOL    HW2 2928   3.554   5.372   2.999
  677SOL     OW 2929   5.974   1.313   6.002
  677SOL    HW1 2930   6.038   1.385   6.029
  677SOL    HW2 2931   5.911   1.294   6.077
  678SOL     OW 2932   1.453   1.262   5.600
  678SOL    HW1 2933   1.552   1.256   5.617
  678SOL    HW2 2934   1.431   1.353   5.565
  679SOL     OW 2935   4.670   0.763   4.009
  679SOL    HW1 2936   4.758   0.804   4.035
  679SOL    HW2 2937   4.613   0.832   3.964
  680SOL     OW 2938   5.563   5.728   5.896
  680SOL    HW1 2939   5.579   5.713   5.994
  680SOL    HW2 2940   5.509   5.652   5.859
  681SOL     OW 2941   5.844   6.818   1.052
  681SOL    HW1 2942   5.787   6.892   1.016
  681SOL    HW2 2943   5.896   6.852   1.130
  682SOL     OW 2944   1.625   6.786   6.635
  682SOL    HW1 2945   1.660   6.725   6.706
  682SOL    HW2 2946   1.701   6.839   6.596
  683SOL     OW 2947   3.341   1.417   6.663
  683SOL    HW1 2948   3.278   1.370   6.725
  683SOL    HW2 2949   3.403   1.474   6.717
  684SOL     OW 2950   5.895   1.515   6.604
  684SOL    HW1 2951   5.821   1.476   6.549
  684SOL    HW2 2952   5.975   1.456   6.597
  685SOL     OW 2953   5.179   0.195   5.285
  685SOL    HW1 2954   5.168   0.279   5.230
  685SOL    HW2 2955   5.107   0.191   5.354
  686SOL     OW 2956   6.035   3.025   3.568
  686SOL    HW1 2957   5.942   2.987   3.562
  686SOL    HW2 2958   6.051   3.058   3.661
  687SOL     OW 2959   6.677   2.150   5.077
  687SOL    HW1 2960   6.657   2.227   5.138
  687SOL    HW2 2961   6.737   2.181   5.003
  688SOL     OW 2962   1.521   3.250   0.419
  688SOL    HW1 2963   1.444   3.186   0.423
  688SOL    HW2 2964   1.485   3.343   0.403
  689SOL     OW 2965   0.241   4.337   5.469
  689SOL    HW1 2966   0.259   4.254   5.417
  689SOL    HW2 2967   0.252   4.417   5.409
  690SOL     OW 2968   0.992   3.618   3.798
  690SOL    HW1 2969   1.026   3.686   3.863
  690SOL    HW2 2970   1.065   3.554   3.774
  691SOL     OW 2971   2.799   1.519   6.405
  691SOL    HW1 2972   2.878   1.481   6.452
  691SOL    HW2 2973   2.719   1.515   6.464
  692SOL     OW 2974   3.628   5.972   3.214
  692SOL    HW1 2975   3.617   6.055   3.158
  692SOL    HW2 2976   3.610   5.994   3.309
  693SOL     OW 2977   6.193   1.893   2.826
  693SOL    HW1 2978   6.219   1.986   2.854
  693SOL    HW2 2979   6.176   1.837   2.908
  694SOL     OW 2980   3.478   6.437   2.377
  694SOL    HW1 2981   3.476   6.352   2.325
  694SOL    HW2 2982   3.572   6.458   2.404
  695SOL     OW 2983   4.356   4.949   6.219
  695SOL    HW1 2984   4.381   4.858   6.185
  695SOL    HW2 2985   4.282   4.987   6.162
  696SOL     OW 2986   2.876   5.402   2.053
  696SOL    HW1 2987   2.828   5.481   2.090
  696SOL    HW2 2988   2.973   5.407   2.080
  697SOL     OW 2989   1.068   2.750   4.292
  697SOL    HW1 2990   1.035   2.839   4.320
  697SOL    HW2 2991   1.050   2.737   4.194
  698SOL     OW 2992   5.517   6.819   6.714
  698SOL    HW1 2993   5.573   6.779   6.787
  698SOL    HW2 2994   5.516   6.757   6.636
  699SOL     OW 2995   0.478   3.783   6.887
  699SOL    HW1 2996   0.389   3.780   6.933
  699SOL    HW2 2997   0.478   3.718   6.811
  700SOL     OW 2998   2.817   1.392   4.358
  700SOL    HW1 2999   2.858   1.304   4.332
  700SOL    HW2 3000   2.718   1.387   4.348
  701SOL     OW 3001   0.042   4.332   5.245
  701SOL    HW1 3002   0.020   4.346   5.341
  701SOL    HW2 3003   6.992   4.274   5.203
  702SOL     OW 3004   5.993   5.937   6.301
  702SOL    HW1 3005   6.022   5.920   6.395
  702SOL    HW2 3006   6.018   6.030   6.275
  703SOL     OW 3007   4.280   4.078   6.430
  703SOL    HW1 3008   4.216   4.024   6.484
  703SOL    HW2 3009   4.356   4.108   6.488
  704SOL     OW 3010   1.869   1.600   6.086
  704SOL    HW1 3011   1.802   1.602   6.160
  704SOL    HW2 3012   1.947   1.543   6.113
  705SOL     OW 3013   5.092   6.790   3.606
  705SOL    HW1 3014   5.135   6.748   3.526
  705SOL    HW2 3015   5.146   6.770   3.688
  706SOL     OW 3016   4.321   2.354   3.315
  706SOL    HW1 3017   4.385   2.423   3.349
  706SOL    HW2 3018   4.272   2.314   3.391
  707SOL     OW 3019   4.448   0.416   2.133
  707SOL    HW1 3020   4.459   0.319   2.111
  707SOL    HW2 3021   4.479   0.433   2.226
  708SOL     OW 3022   3.870   0.318   1.663
  708SOL    HW1 3023   3.783   0.330   1.616
  708SOL    HW2 3024   3.859   0.335   1.760
  709SOL     OW 3025   0.939   5.153   0.070
  709SOL    HW1 3026   0.942   5.063   0.025
  709SOL    HW2 3027   1.001   5.215   0.023
  710SOL     OW 3028   3.621   3.425   2.259
  710SOL    HW1 3029   3.660   3.350   2.314
  710SOL    HW2 3030   3.673   3.509   2.276
  711SOL     OW 3031   0.466   1.994   5.886
  711SOL    HW1 3032   0.432   2.047   5.963
  711SOL    HW2 3033   0.482   1.899   5.914
  712SOL     OW 3034   2.612   3.561   0.456
  712SOL    HW1 3035   2.677   3.534   0.527
  712SOL    HW2 3036   2.647   3.532   0.367
  713SOL     OW 3037   3.306   3.371   0.223
  713SOL    HW1 3038   3.312   3.336   0.130
  713SOL    HW2 3039   3.398   3.375   0.263
  714SOL     OW 3040   6.701   5.197   5.071
  714SOL    HW1 3041   6.775   5.135   5.095
  714SOL    HW2 3042   6.638   5.150   5.008
  715SOL     OW 3043   5.471   6.643   0.666
  715SOL    HW1 3044   5.431   6.651   0.575
  715SOL    HW2 3045   5.569   6.625   0.659
  716SOL     OW 3046   1.388   6.433   0.612
  716SOL    HW1 3047   1.432   6.490   0.682
  716SOL    HW2 3048   1.289   6.438   0.622
  717SOL     OW 3049   5.851   4.937   6.410
  717SOL    HW1 3050   5.755   4.965   6.418
  717SOL    HW2 3051   5.856   4.848   6.366
  718SOL     OW 3052   4.532   2.041   5.685
  718SOL    HW1 3053   4.542   2.137   5.660
  718SOL    HW2 3054   4.442   2.026   5.727
  719SOL     OW 3055   6.694   2.831   0.913
  719SOL    HW1 3056   6.598   2.854   0.926
  719SOL    HW2 3057   6.709   2.734   0.935
  720SOL     OW 3058   3.545   1.213   5.929
  720SOL    HW1 3059   3.608   1.290   5.935
  720SOL    HW2 3060   3.574   1.142   5.994
  721SOL     OW 3061   2.208   0.238   4.266
  721SOL    HW1 3062   2.152   0.290   4.202
  721SOL    HW2 3063   2.289   0.203   4.218
  722SOL     OW 3064   2.499   6.684   4.970
  722SOL    HW1 3065   2.402   6.661   4.958
  722SOL    HW2 3066   2.543   6.691   4.881
  723SOL     OW 3067   2.075   3.829   2.873
  723SOL    HW1 3068   2.114   3.760   2.934
  723SOL    HW2 3069   1.975   3.821   2.874
  724SOL     OW 3070   1.174   2.225   4.715
  724SOL    HW1 3071   1.215   2.217   4.805
  724SOL    HW2 3072   1.198   2.314   4.675
  725SOL     OW 3073   3.366   5.477   0.918
  725SOL    HW1 3074   3.383   5.567   0.957
  725SOL    HW2 3075   3.439   5.454   0.853
  726SOL     OW 3076   3.811   4.868   0.954
  726SOL    HW1 3077   3.770   4.944   0.904
  726SOL    HW2 3078   3.821   4.789   0.893
  727SOL     OW 3079   5.173   5.510   5.553
  727SOL    HW1 3080   5.113   5.492   5.632
  727SOL    HW2 3081   5.232   5.588   5.574
  728SOL     OW 3082   0.061   3.595   4.916
  728SOL    HW1 3083   0.029   3.687   4.897
  728SOL    HW2 3084   0.048   3.537   4.836
  729SOL     OW 3085   2.137   1.875   0.116
  729SOL    HW1 3086   2.080   1.817   0.174
  729SOL    HW2 3087   2.101   1.876   0.023
  730SOL     OW 3088   5.492   1.139   3.533
  730SOL    HW1 3089   5.516   1.085   3.453
  730SOL    HW2 3090   5.392   1.150   3.537
  731SOL     OW 3091   5.677   4.041   5.909
  731SOL    HW1 3092   5.725   4.068   5.992
  731SOL    HW2 3093   5.686   3.943   5.895
  732SOL     OW 3094   0.939   3.118   1.192
  732SOL    HW1 3095   1.021   3.093   1.243
  732SOL    HW2 3096   0.918   3.215   1.209
  733SOL     OW 3097   5.726   5.276   5.235
  733SOL    HW1 3098   5.645   5.334   5.230
  733SOL    HW2 3099   5.806   5.333   5.252
  734SOL     OW 3100   6.637   4.586   2.859
  734SOL    HW1 3101   6.735   4.597   2.878
  734SOL    HW2 3102   6.585   4.643   2.923
  735SOL     OW 3103   3.951   3.008   0.611
  735SOL    HW1 3104   3.888   3.083   0.630
  735SOL    HW2 3105   3.937   2.974   0.518
  736SOL     OW 3106   0.010   0.086   2.631
  736SOL    HW1 3107   0.081   0.152   2.658
  736SOL    HW2 3108   0.009   0.078   2.531
  737SOL     OW 3109   4.074   2.289   6.459
  737SOL    HW1 3110   4.046   2.349   6.385
  737SOL    HW2 3111   4.012   2.211   6.465
  738SOL     OW 3112   2.256   4.011   2.137
  738SOL    HW1 3113   2.249   4.067   2.220
  738SOL    HW2 3114   2.303   4.063   2.066
  739SOL     OW 3115   4.002   6.883   4.428
  739SOL    HW1 3116   4.054   6.800   4.413
  739SOL    HW2 3117   3.912   6.874   4.386
  740SOL     OW 3118   4.412   6.642   0.369
  740SOL    HW1 3119   4.502   6.601   0.385
  740SOL    HW2 3120   4.348   6.571   0.342
  741SOL     OW 3121   2.139   5.981   2.987
  741SOL    HW1 3122   2.100   5.996   2.896
  741SOL    HW2 3123   2.069   5.999   3.057
  742SOL     OW 3124   1.914   6.489   1.420
  742SOL    HW1 3125   1.967   6.407   1.444
  742SOL    HW2 3126   1.822   6.461   1.391
  743SOL     OW 3127   1.433   4.496   5.268
  743SOL    HW1 3128   1.446   4.517   5.172
  743SOL    HW2 3129   1.463   4.402   5.286
  744SOL     OW 3130   5.238   7.001   6.496
  744SOL    HW1 3131   5.211   6.905   6.506
  744SOL    HW2 3132   5.235   0.007   6.400
  745SOL     OW 3133   0.892   5.214   4.066
  745SOL    HW1 3134   0.973   5.262   4.099
  745SOL    HW2 3135   0.900   5.198   3.968
  746SOL     OW 3136   0.669   5.344   5.943
  746SOL    HW1 3137   0.669   5.444   5.954
  746SOL    HW2 3138   0.675   5.301   6.033
  747SOL     OW 3139   4.471   6.197   4.780
  747SOL    HW1 3140   4.408   6.121   4.768
  747SOL    HW2 3141   4.485   6.213   4.878
  748SOL     OW 3142   3.293   5.187   2.474
  748SOL    HW1 3143   3.196   5.201   2.496
  748SOL    HW2 3144   3.334   5.126   2.542
  749SOL     OW 3145   6.399   4.284   4.962
  749SOL    HW1 3146   6.366   4.229   4.885
  749SOL    HW2 3147   6.330   4.285   5.034
  750SOL     OW 3148   2.075   2.534   0.699
  750SOL    HW1 3149   2.145   2.543   0.769
  750SOL    HW2 3150   1.991   2.580   0.729
  751SOL     OW 3151   4.158   2.721   5.825
  751SOL    HW1 3152   4.119   2.629   5.829
  751SOL    HW2 3153   4.217   2.729   5.745
  752SOL     OW 3154   3.701   1.977   1.874
  752SOL    HW1 3155   3.749   2.020   1.797
  752SOL    HW2 3156   3.697   2.041   1.950
  753SOL     OW 3157   1.638   3.035   4.092
  753SOL    HW1 3158   1.589   3.047   4.006
  753SOL    HW2 3159   1.584   3.074   4.167
  754SOL     OW 3160   5.374   2.618   6.394
  754SOL    HW1 3161   5.319   2.614   6.310
  754SOL    HW2 3162   5.430   2.701   6.394
  755SOL     OW 3163   1.431   5.207   6.235
  755SOL    HW1 3164   1.515   5.244   6.196
  755SOL    HW2 3165   1.387   5.147   6.168
  756SOL     OW 3166   3.366   0.500   1.464
  756SOL    HW1 3167   3.321   0.528   1.379
  756SOL    HW2 3168   3.320   0.543   1.541
  757SOL     OW 3169   0.681   6.601   3.125
  757SOL    HW1 3170   0.643   6.532   3.186
  757SOL    HW2 3171   0.640   6.690   3.145
  758SOL     OW 3172   3.944   0.363   2.112
  758SOL    HW1 3173   3.924   0.413   2.027
  758SOL    HW2 3174   3.907   0.412   2.190
  759SOL     OW 3175   0.454   1.038   0.336
  759SOL    HW1 3176   0.526   0.968   0.336
  759SOL    HW2 3177   0.480   1.113   0.275
  760SOL     OW 3178   4.737   0.292   5.719
  760SOL    HW1 3179   4.731   0.275   5.620
  760SOL    HW2 3180   4.811   0.356   5.737
  761SOL     OW 3181   5.313   3.591   5.399
  761SOL    HW1 3182   5.332   3.540   5.484
  761SOL    HW2 3183   5.261   3.533   5.337
  762SOL     OW 3184   1.730   0.105   5.040
  762SOL    HW1 3185   1.638   0.106   4.999
  762SOL    HW2 3186   1.786   0.176   4.997
  763SOL     OW 3187   4.582   4.862   6.824
  763SOL    HW1 3188   4.654   4.930   6.807
  763SOL    HW2 3189   4.620   4.786   6.875
  764SOL     OW 3190   4.257   0.923   4.252
  764SOL    HW1 3191   4.252   1.019   4.224
  764SOL    HW2 3192   4.235   0.915   4.349
  765SOL     OW 3193   1.400   5.697   1.088
  765SOL    HW1 3194   1.489   5.691   1.042
  765SOL    HW2 3195   1.361   5.606   1.099
  766SOL     OW 3196   1.311   3.111   0.501
  766SOL    HW1 3197   1.345   3.030   0.454
  766SOL    HW2 3198   1.255   3.083   0.580
  767SOL     OW 3199   6.049   5.607   2.508
  767SOL    HW1 3200   6.101   5.605   2.593
  767SOL    HW2 3201   6.033   5.702   2.481
  768SOL     OW 3202   2.024   6.661   1.831
  768SOL    HW1 3203   1.990   6.599   1.901
  768SOL    HW2 3204   1.959   6.736   1.818
  769SOL     OW 3205   3.353   0.703   4.265
  769SOL    HW1 3206   3.404   0.639   4.323
  769SOL    HW2 3207   3.406   0.786   4.252
  770SOL     OW 3208   1.957   4.207   3.323
  770SOL    HW1 3209   1.962   4.269   3.244
  770SOL    HW2 3210   2.018   4.129   3.309
  771SOL     OW 3211   2.460   5.448   2.341
  771SOL    HW1 3212   2.478   5.532   2.289
  771SOL    HW2 3213   2.362   5.442   2.362
  772SOL     OW 3214   6.624   5.093   0.814
  772SOL    HW1 3215   6.701   5.136   0.767
  772SOL    HW2 3216   6.612   5.136   0.904
  773SOL     OW 3217   0.006   3.739   4.076
  773SOL    HW1 3218   7.012   3.752   3.977
  773SOL    HW2 3219   0.083   3.678   4.091
  774SOL     OW 3220   1.346   1.534   1.983
  774SOL    HW1 3221   1.411   1.570   2.050
  774SOL    HW2 3222   1.275   1.603   1.966
  775SOL     OW 3223   0.884   2.333   2.897
  775SOL    HW1 3224   0.801   2.359   2.947
  775SOL    HW2 3225   0.963   2.370   2.944
  776SOL     OW 3226   0.374   0.519   5.647
  776SOL    HW1 3227   0.446   0.505   5.714
  776SOL    HW2 3228   0.363   0.436   5.592
  777SOL     OW 3229   3.203   5.229   1.271
  777SOL    HW1 3230   3.147   5.310   1.257
  777SOL    HW2 3231   3.165   5.152   1.221
  778SOL     OW 3232   3.263   1.513   3.205
  778SOL    HW1 3233   3.307   1.591   3.249
  778SOL    HW2 3234   3.202   1.467   3.270
  779SOL     OW 3235   0.389   2.127   2.929
  779SOL    HW1 3236   0.333   2.044   2.935
  779SOL    HW2 3237   0.390   2.160   2.834
  780SOL     OW 3238   5.894   3.925   3.522
  780SOL    HW1 3239   5.802   3.959   3.541
  780SOL    HW2 3240   5.950   3.935   3.605
  781SOL     OW 3241   5.453   1.248   6.748
  781SOL    HW1 3242   5.440   1.165   6.801
  781SOL    HW2 3243   5.550   1.268   6.740
  782SOL     OW 3244   1.409   4.018   6.708
  782SOL    HW1 3245   1.498   4.037   6.750
  782SOL    HW2 3246   1.419   4.009   6.609
  783SOL     OW 3247   4.162   5.072   1.486
  783SOL    HW1 3248   4.112   4.987   1.504
  783SOL    HW2 3249   4.226   5.089   1.561
  784SOL     OW 3250   5.117   6.454   7.012
  784SOL    HW1 3251   5.148   6.417   0.080
  784SOL    HW2 3252   5.178   6.422   6.940
  785SOL     OW 3253   0.009   2.884   3.055
  785SOL    HW1 3254   0.075   2.903   3.127
  785SOL    HW2 3255   6.941   2.925   3.079
  786SOL     OW 3256   1.470   0.710   0.627
  786SOL    HW1 3257   1.558   0.681   0.665
  786SOL    HW2 3258   1.402   0.639   0.641
  787SOL     OW 3259   2.800   0.671   6.378
  787SOL    HW1 3260   2.786   0.575   6.354
  787SOL    HW2 3261   2.755   0.689   6.466
  788SOL     OW 3262   3.007   2.144   5.575
  788SOL    HW1 3263   3.018   2.225   5.518
  788SOL    HW2 3264   2.916   2.105   5.559
  789SOL     OW 3265   5.199   3.852   0.999
  789SOL    HW1 3266   5.275   3.809   1.047
  789SOL    HW2 3267   5.114   3.805   1.023
  790SOL     OW 3268   2.457   0.735   4.459
  790SOL    HW1 3269   2.525   0.661   4.459
  790SOL    HW2 3270   2.392   0.720   4.385
  791SOL     OW 3271   3.444   6.101   3.440
  791SOL    HW1 3272   3.412   6.159   3.515
  791SOL    HW2 3273   3.365   6.066   3.390
  792SOL     OW 3274   0.481   0.664   1.706
  792SOL    HW1 3275   0.576   0.637   1.718
  792SOL    HW2 3276   0.422   0.584   1.720
  793SOL     OW 3277   5.297   5.974   2.703
  793SOL    HW1 3278   5.252   6.062   2.691
  793SOL    HW2 3279   5.317   5.960   2.800
  794SOL     OW 3280   3.094   3.636   5.007
  794SOL    HW1 3281   3.094   3.732   4.979
  794SOL    HW2 3282   3.143   3.581   4.940
  795SOL     OW 3283   4.089   6.386   5.238
  795SOL    HW1 3284   4.153   6.440   5.293
  795SOL    HW2 3285   3.997   6.425   5.245
  796SOL     OW 3286   1.249   1.685   6.245
  796SOL    HW1 3287   1.213   1.741   6.320
  796SOL    HW2 3288   1.345   1.709   6.229
  797SOL     OW 3289   5.115   2.830   1.982
  797SOL    HW1 3290   5.126   2.733   1.960
  797SOL    HW2 3291   5.038   2.867   1.930
  798SOL     OW 3292   5.164   6.720   1.563
  798SOL    HW1 3293   5.157   6.820   1.569
  798SOL    HW2 3294   5.130   6.679   1.647
  799SOL     OW 3295   6.234   1.108   5.031
  799SOL    HW1 3296   6.301   1.089   5.103
  799SOL    HW2 3297   6.264   1.188   4.978
  800SOL     OW 3298   5.221   1.277   2.862
  800SOL    HW1 3299   5.194   1.243   2.772
  800SOL    HW2 3300   5.141   1.311   2.911
  801SOL     OW 3301   2.135   3.537   4.503
  801SOL    HW1 3302   2.109   3.627   4.539
  801SOL    HW2 3303   2.170   3.547   4.410
  802SOL     OW 3304   4.874   0.562   0.665
  802SOL    HW1 3305   4.825   0.505   0.731
  802SOL    HW2 3306   4.971   0.536   0.664
  803SOL     OW 3307   0.262   6.384   4.816
  803SOL    HW1 3308   0.332   6.456   4.815
  803SOL    HW2 3309   0.203   6.397   4.896
  804SOL     OW 3310   5.846   6.095   0.046
  804SOL    HW1 3311   5.755   6.118   0.081
  804SOL    HW2 3312   5.839   6.075   6.967
  805SOL     OW 3313   3.591   1.293   5.388
  805SOL    HW1 3314   3.646   1.231   5.332
  805SOL    HW2 3315   3.506   1.248   5.414
  806SOL     OW 3316   5.293   1.470   3.877
  806SOL    HW1 3317   5.323   1.565   3.877
  806SOL    HW2 3318   5.272   1.441   3.970
  807SOL     OW 3319   0.733   1.927   4.908
  807SOL    HW1 3320   0.706   1.951   4.815
  807SOL    HW2 3321   0.698   1.836   4.930
  808SOL     OW 3322   4.602   3.691   6.772
  808SOL    HW1 3323   4.614   3.592   6.780
  808SOL    HW2 3324   4.507   3.714   6.793
  809SOL     OW 3325   0.434   4.556   1.686
  809SOL    HW1 3326   0.461   4.626   1.620
  809SOL    HW2 3327   0.516   4.516   1.727
  810SOL     OW 3328   3.545   2.763   0.777
  810SOL    HW1 3329   3.630   2.731   0.736
  810SOL    HW2 3330   3.545   2.862   0.781
  811SOL     OW 3331   3.803   5.556   4.435
  811SOL    HW1 3332   3.750   5.632   4.473
  811SOL    HW2 3333   3.864   5.590   4.364
  812SOL     OW 3334   0.595   1.728   1.401
  812SOL    HW1 3335   0.607   1.644   1.348
  812SOL    HW2 3336   0.582   1.706   1.497
  813SOL     OW 3337   3.826   5.662   4.801
  813SOL    HW1 3338   3.883   5.676   4.883
  813SOL    HW2 3339   3.885   5.647   4.722
  814SOL     OW 3340   5.811   6.052   2.484
  814SOL    HW1 3341   5.821   6.150   2.499
  814SOL    HW2 3342   5.723   6.021   2.520
  815SOL     OW 3343   0.349   3.528   3.063
  815SOL    HW1 3344   0.342   3.626   3.048
  815SOL    HW2 3345   0.265   3.494   3.104
  816SOL     OW 3346   6.796   6.636   0.262
  816SOL    HW1 3347   6.874   6.667   0.316
  816SOL    HW2 3348   6.713   6.642   0.317
  817SOL     OW 3349   2.143   3.641   1.440
  817SOL    HW1 3350   2.224   3.693   1.467
  817SOL    HW2 3351   2.061   3.693   1.461
  818SOL     OW 3352   6.787   2.847   1.722
  818SOL    HW1 3353   6.711   2.831   1.659
  818SOL    HW2 3354   6.874   2.839   1.674
  819SOL     OW 3355   5.119   3.071   3.382
  819SOL    HW1 3356   5.115   3.004   3.308
  819SOL    HW2 3357   5.187   3.141   3.360
  820SOL     OW 3358   2.465   2.920   5.746
  820SOL    HW1 3359   2.484   2.862   5.667
  820SOL    HW2 3360   2.506   2.879   5.827
  821SOL     OW 3361   1.813   4.129   0.369
  821SOL    HW1 3362   1.893   4.150   0.312
  821SOL    HW2 3363   1.747   4.204   0.364
  822SOL     OW 3364   1.362   4.655   4.401
  822SOL    HW1 3365   1.264   4.635   4.400
  822SOL    HW2 3366   1.400   4.640   4.309
  823SOL     OW 3367   4.605   3.976   6.136
  823SOL    HW1 3368   4.702   3.973   6.162
  823SOL    HW2 3369   4.571   3.882   6.127
  824SOL     OW 3370   5.212   0.930   5.237
  824SOL    HW1 3371   5.181   1.014   5.193
  824SOL    HW2 3372   5.226   0.859   5.168
  825SOL     OW 3373   1.224   3.945   1.206
  825SOL    HW1 3374   1.223   4.011   1.130
  825SOL    HW2 3375   1.279   3.866   1.180
  826SOL     OW 3376   5.191   3.447   6.198
  826SOL    HW1 3377   5.197   3.534   6.150
  826SOL    HW2 3378   5.227   3.374   6.140
  827SOL     OW 3379   3.481   5.334   6.367
  827SOL    HW1 3380   3.394   5.381   6.348
  827SOL    HW2 3381   3.486   5.250   6.313
  828SOL     OW 3382   5.185   6.235   5.990
  828SOL    HW1 3383   5.166   6.332   5.980
  828SOL    HW2 3384   5.247   6.205   5.918
  829SOL     OW 3385   3.124   3.654   3.699
  829SOL    HW1 3386   3.085   3.717   3.766
  829SOL    HW2 3387   3.090   3.561   3.716
  830SOL     OW 3388   5.025   4.566   6.974
  830SOL    HW1 3389   5.040   4.653   0.001
  830SOL    HW2 3390   5.058   4.572   6.880
  831SOL     OW 3391   5.841   0.918   5.569
  831SOL    HW1 3392   5.905   0.876   5.505
  831SOL    HW2 3393   5.757   0.943   5.520
  832SOL     OW 3394   2.345   0.885   1.057
  832SOL    HW1 3395   2.381   0.801   1.097
  832SOL    HW2 3396   2.260   0.865   1.008
  833SOL     OW 3397   0.034   4.475   6.700
  833SOL    HW1 3398   0.011   4.497   6.605
  833SOL    HW2 3399   6.989   4.519   6.761
  834SOL     OW 3400   2.723   3.694   1.054
  834SOL    HW1 3401   2.640   3.657   1.095
  834SOL    HW2 3402   2.720   3.683   0.955
  835SOL     OW 3403   3.119   0.874   4.274
  835SOL    HW1 3404   3.077   0.802   4.218
  835SOL    HW2 3405   3.191   0.834   4.330
  836SOL     OW 3406   3.469   6.118   0.021
  836SOL    HW1 3407   3.501   6.137   0.114
  836SOL    HW2 3408   3.370   6.114   0.020
  837SOL     OW 3409   5.590   6.192   0.120
  837SOL    HW1 3410   5.611   6.252   0.197
  837SOL    HW2 3411   5.583   6.246   0.036
  838SOL     OW 3412   1.688   0.260   4.468
  838SOL    HW1 3413   1.752   0.217   4.404
  838SOL    HW2 3414   1.642   0.190   4.522
  839SOL     OW 3415   2.682   2.336   2.230
  839SOL    HW1 3416   2.764   2.323   2.174
  839SOL    HW2 3417   2.699   2.303   2.323
  840SOL     OW 3418   5.673   0.080   6.505
  840SOL    HW1 3419   5.758   0.055   6.552
  840SOL    HW2 3420   5.664   0.027   6.421
  841SOL     OW 3421   4.703   5.039   0.961
  841SOL    HW1 3422   4.781   5.055   0.900
  841SOL    HW2 3423   4.621   5.078   0.920
  842SOL     OW 3424   4.123   5.311   4.367
  842SOL    HW1 3425   4.107   5.215   4.387
  842SOL    HW2 3426   4.221   5.332   4.379
  843SOL     OW 3427   2.736   1.786   0.053
  843SOL    HW1 3428   2.745   1.862   7.008
  843SOL    HW2 3429   2.756   1.700   0.006
  844SOL     OW 3430   5.686   7.016   1.388
  844SOL    HW1 3431   5.595   6.981   1.407
  844SOL    HW2 3432   5.688   0.038   1.297
  845SOL     OW 3433   5.753   3.691   5.278
  845SOL    HW1 3434   5.787   3.617   5.220
  845SOL    HW2 3435   5.656   3.706   5.261
  846SOL     OW 3436   3.229   1.443   0.292
  846SOL    HW1 3437   3.209   1.371   0.225
  846SOL    HW2 3438   3.170   1.522   0.274
  847SOL     OW 3439   0.580   3.638   0.227
  847SOL    HW1 3440   0.570   3.713   0.161
  847SOL    HW2 3441   0.580   3.676   0.320
  848SOL     OW 3442   6.075   1.005   6.518
  848SOL    HW1 3443   6.158   0.994   6.463
  848SOL    HW2 3444   6.035   0.915   6.535
  849SOL     OW 3445   0.871   4.637   5.478
  849SOL    HW1 3446   0.865   4.730   5.442
  849SOL    HW2 3447   0.957   4.627   5.528
  850SOL     OW 3448   5.389   0.994   3.956
  850SOL    HW1 3449   5.426   1.008   4.048
  850SOL    HW2 3450   5.408   1.075   3.900
  851SOL     OW 3451   6.965   1.139   1.434
  851SOL    HW1 3452   0.040   1.157   1.406
  851SOL    HW2 3453   6.904   1.207   1.393
  852SOL     OW 3454   1.266   2.043   6.890
  852SOL    HW1 3455   1.195   1.995   6.942
  852SOL    HW2 3456   1.297   1.984   6.815
  853SOL     OW 3457   1.707   4.591   2.833
  853SOL    HW1 3458   1.653   4.506   2.836
  853SOL    HW2 3459   1.781   4.586   2.901
  854SOL     OW 3460   4.758   5.995   1.894
  854SOL    HW1 3461   4.816   6.005   1.975
  854SOL    HW2 3462   4.712   6.081   1.874
  855SOL     OW 3463   6.740   0.341   1.112
  855SOL    HW1 3464   6.749   0.342   1.212
  855SOL    HW2 3465   6.824   0.305   1.072
  856SOL     OW 3466   1.523   2.006   5.060
  856SOL    HW1 3467   1.453   2.074   5.036
  856SOL    HW2 3468   1.559   2.027   5.151
  857SOL     OW 3469   6.123   4.411   2.199
  857SOL    HW1 3470   6.035   4.451   2.225
  857SOL    HW2 3471   6.130   4.411   2.099
  858SOL     OW 3472   2.546   4.138   1.230
  858SOL    HW1 3473   2.535   4.118   1.327
  858SOL    HW2 3474   2.585   4.229   1.218
  859SOL     OW 3475   4.754   5.598   6.748
  859SOL    HW1 3476   4.777   5.609   6.651
  859SOL    HW2 3477   4.768   5.685   6.795
  860SOL     OW 3478   4.125   4.775   0.728
  860SOL    HW1 3479   4.134   4.817   0.818
  860SOL    HW2 3480   4.030   4.779   0.698
  861SOL     OW 3481   2.425   0.422   4.621
  861SOL    HW1 3482   2.433   0.515   4.656
  861SOL    HW2 3483   2.339   0.413   4.571
  862SOL     OW 3484   6.998   4.566   6.403
  862SOL    HW1 3485   6.996   4.555   6.304
  862SOL    HW2 3486   6.975   4.660   6.427
  863SOL     OW 3487   0.876   0.498   0.438
  863SOL    HW1 3488   0.905   0.566   0.505
  863SOL    HW2 3489   0.940   0.422   0.437
  864SOL     OW 3490   5.024   4.562   4.016
  864SOL    HW1 3491   5.118   4.569   4.048
  864SOL    HW2 3492   5.008   4.470   3.980
  865SOL     OW 3493   2.179   6.418   5.094
  865SOL    HW1 3494   2.170   6.484   5.169
  865SOL    HW2 3495   2.112   6.345   5.106
  866SOL     OW 3496   1.956   2.510   2.022
  866SOL    HW1 3497   2.043   2.516   1.973
  866SOL    HW2 3498   1.926   2.602   2.048
  867SOL     OW 3499   3.956   2.852   1.001
  867SOL    HW1 3500   3.988   2.941   1.035
  867SOL    HW2 3501   3.924   2.797   1.078
  868SOL     OW 3502   5.784   6.850   1.868
  868SOL    HW1 3503   5.762   6.927   1.807
  868SOL    HW2 3504   5.855   6.878   1.932
  869SOL     OW 3505   6.784   5.151   3.481
  869SOL    HW1 3506   6.710   5.217   3.493
  869SOL    HW2 3507   6.799   5.134   3.383
  870SOL     OW 3508   5.602   3.659   0.417
  870SOL    HW1 3509   5.529   3.679   0.352
  870SOL    HW2 3510   5.686   3.637   0.367
  871SOL     OW 3511   5.459   3.678   1.978
  871SOL    HW1 3512   5.466   3.601   2.042
  871SOL    HW2 3513   5.511   3.756   2.015
  872SOL     OW 3514   5.898   3.990   4.106
  872SOL    HW1 3515   5.811   3.947   4.082
  872SOL    HW2 3516   5.931   4.044   4.029
  873SOL     OW 3517   5.465   0.136   3.444
  873SOL    HW1 3518   5.525   0.129   3.364
  873SOL    HW2 3519   5.378   0.092   3.425
  874SOL     OW 3520   1.217   4.925   5.028
  874SOL    HW1 3521   1.268   5.009   5.046
  874SOL    HW2 3522   1.165   4.935   4.943
  875SOL     OW 3523   4.170   3.161   0.386
  875SOL    HW1 3524   4.197   3.107   0.465
  875SOL    HW2 3525   4.229   3.241   0.378
  876SOL     OW 3526   0.496   6.262   3.535
  876SOL    HW1 3527   0.465   6.178   3.579
  876SOL    HW2 3528   0.594   6.273   3.549
  877SOL     OW 3529   3.590   4.565   0.485
  877SOL    HW1 3530   3.663   4.602   0.428
  877SOL    HW2 3531   3.545   4.490   0.437
  878SOL     OW 3532   4.394   6.335   6.022
  878SOL    HW1 3533   4.401   6.336   6.121
  878SOL    HW2 3534   4.479   6.371   5.982
  879SOL     OW 3535   3.227   2.043   2.204
  879SOL    HW1 3536   3.217   1.944   2.212
  879SOL    HW2 3537   3.161   2.078   2.137
  880SOL     OW 3538   2.722   4.908   6.952
  880SOL    HW1 3539   2.643   4.965   6.930
  880SOL    HW2 3540   2.798   4.932   6.891
  881SOL     OW 3541   4.233   4.445   5.404
  881SOL    HW1 3542   4.194   4.375   5.345
  881SOL    HW2 3543   4.227   4.416   5.500
  882SOL     OW 3544   1.029   1.403   4.133
  882SOL    HW1 3545   1.109   1.401   4.073
  882SOL    HW2 3546   0.948   1.376   4.081
  883SOL     OW 3547   4.707   5.658   4.918
  883SOL    HW1 3548   4.784   5.603   4.952
  883SOL    HW2 3549   4.722   5.754   4.941
  884SOL     OW 3550   0.419   3.209   1.307
  884SOL    HW1 3551   0.448   3.113   1.302
  884SOL    HW2 3552   0.323   3.217   1.281
  885SOL     OW 3553   5.392   5.696   6.777
  885SOL    HW1 3554   5.321   5.720   6.844
  885SOL    HW2 3555   5.400   5.597   6.772
  886SOL     OW 3556   3.624   6.843   0.787
  886SOL    HW1 3557   3.650   6.865   0.881
  886SOL    HW2 3558   3.547   6.779   0.788
  887SOL     OW 3559   4.645   0.115   4.984
  887SOL    HW1 3560   4.675   0.196   5.035
  887SOL    HW2 3561   4.670   0.032   5.035
  888SOL     OW 3562   5.855   6.449   3.307
  888SOL    HW1 3563   5.839   6.423   3.212
  888SOL    HW2 3564   5.793   6.524   3.332
  889SOL     OW 3565   1.156   6.564   5.506
  889SOL    HW1 3566   1.133   6.492   5.571
  889SOL    HW2 3567   1.239   6.538   5.456
  890SOL     OW 3568   3.086   5.113   2.133
  890SOL    HW1 3569   2.988   5.102   2.145
  890SOL    HW2 3570   3.132   5.025   2.148
  891SOL     OW 3571   5.818   3.966   1.967
  891SOL    HW1 3572   5.911   4.003   1.971
  891SOL    HW2 3573   5.787   3.961   1.872
  892SOL     OW 3574   3.976   3.922   0.525
  892SOL    HW1 3575   4.025   3.835   0.513
  892SOL    HW2 3576   4.043   3.995   0.539
  893SOL     OW 3577   2.190   0.749   2.013
  893SOL    HW1 3578   2.097   0.721   1.991
  893SOL    HW2 3579   2.222   0.816   1.946
  894SOL     OW 3580   1.936   3.343   4.427
  894SOL    HW1 3581   1.929   3.253   4.471
  894SOL    HW2 3582   2.005   3.398   4.474
  895SOL     OW 3583   2.028   6.135   5.018
  895SOL    HW1 3584   1.983   6.168   5.102
  895SOL    HW2 3585   1.961   6.088   4.961
  896SOL     OW 3586   4.991   6.929   2.473
  896SOL    HW1 3587   5.081   6.923   2.518
  896SOL    HW2 3588   4.974   0.003   2.445
  897SOL     OW 3589   5.593   0.252   0.356
  897SOL    HW1 3590   5.604   0.350   0.340
  897SOL    HW2 3591   5.496   0.231   0.371
  898SOL     OW 3592   3.947   5.507   3.159
  898SOL    HW1 3593   3.911   5.428   3.208
  898SOL    HW2 3594   3.893   5.521   3.075
  899SOL     OW 3595   0.119   4.949   0.315
  899SOL    HW1 3596   0.070   5.013   0.375
  899SOL    HW2 3597   0.207   4.990   0.288
  900SOL     OW 3598   5.089   6.418   1.346
  900SOL    HW1 3599   5.176   6.419   1.297
  900SOL    HW2 3600   5.023   6.363   1.296
  901SOL     OW 3601   0.605   1.413   5.102
  901SOL    HW1 3602   0.684   1.385   5.156
  901SOL    HW2 3603   0.609   1.370   5.012
  902SOL     OW 3604   0.202   1.606   5.989
  902SOL    HW1 3605   0.194   1.615   6.089
  902SOL    HW2 3606   0.232   1.513   5.967
  903SOL     OW 3607   6.737   3.881   6.337
  903SOL    HW1 3608   6.697   3.949   6.398
  903SOL    HW2 3609   6.798   3.821   6.389
  904SOL     OW 3610   1.233   1.723   4.218
  904SOL    HW1 3611   1.258   1.689   4.308
  904SOL    HW2 3612   1.151   1.779   4.225
  905SOL     OW 3613   4.316   2.979   6.073
  905SOL    HW1 3614   4.230   2.934   6.095
  905SOL    HW2 3615   4.325   2.991   5.975
  906SOL     OW 3616   0.312   3.600   6.458
  906SOL    HW1 3617   0.301   3.694   6.426
  906SOL    HW2 3618   0.275   3.536   6.391
  907SOL     OW 3619   5.588   2.678   3.530
  907SOL    HW1 3620   5.559   2.586   3.505
  907SOL    HW2 3621   5.536   2.710   3.609
  908SOL     OW 3622   1.891   6.950   3.603
  908SOL    HW1 3623   1.951   0.002   3.638
  908SOL    HW2 3624   1.943   6.891   3.542
  909SOL     OW 3625   1.800   0.002   0.772
  909SOL    HW1 3626   1.856   6.972   0.706
  909SOL    HW2 3627   1.724   0.047   0.725
  910SOL     OW 3628   2.722   0.180   0.506
  910SOL    HW1 3629   2.666   0.222   0.434
  910SOL    HW2 3630   2.803   0.139   0.465
  911SOL     OW 3631   6.552   5.922   1.109
  911SOL    HW1 3632   6.635   5.870   1.125
  911SOL    HW2 3633   6.495   5.922   1.192
  912SOL     OW 3634   6.206   0.928   4.827
  912SOL    HW1 3635   6.122   0.962   4.784
  912SOL    HW2 3636   6.222   0.977   4.913
  913SOL     OW 3637   2.646   0.376   3.551
  913SOL    HW1 3638   2.732   0.348   3.594
  913SOL    HW2 3639   2.657   0.468   3.512
  914SOL     OW 3640   3.068   5.596   5.603
  914SOL    HW1 3641   3.143   5.632   5.659
  914SOL    HW2 3642   3.062   5.497   5.615
  915SOL     OW 3643   0.954   3.085   0.819
  915SOL    HW1 3644   0.926   3.147   0.745
  915SOL    HW2 3645   0.984   3.139   0.898
  916SOL     OW 3646   1.203   2.260   2.740
  916SOL    HW1 3647   1.248   2.230   2.824
  916SOL    HW2 3648   1.110   2.222   2.737
  917SOL     OW 3649   4.763   0.827   1.388
  917SOL    HW1 3650   4.748   0.908   1.332
  917SOL    HW2 3651   4.860   0.822   1.413
  918SOL     OW 3652   2.556   5.920   0.083
  918SOL    HW1 3653   2.630   5.920   0.016
  918SOL    HW2 3654   2.468   5.909   0.036
  919SOL     OW 3655   0.258   5.477   2.524
  919SOL    HW1 3656   0.256   5.430   2.612
  919SOL    HW2 3657   0.304   5.419   2.457
  920SOL     OW 3658   1.681   0.013   2.657
  920SOL    HW1 3659   1.775   6.998   2.658
  920SOL    HW2 3660   1.655   0.040   2.750
  921SOL     OW 3661   5.294   4.514   4.357
  921SOL    HW1 3662   5.209   4.494   4.406
  921SOL    HW2 3663   5.317   4.611   4.367
  922SOL     OW 3664   3.264   2.756   6.718
  922SOL    HW1 3665   3.170   2.762   6.752
  922SOL    HW2 3666   3.267   2.787   6.623
  923SOL     OW 3667   2.754   5.111   0.404
  923SOL    HW1 3668   2.805   5.119   0.490
  923SOL    HW2 3669   2.775   5.023   0.362
  924SOL     OW 3670   6.203   3.348   2.393
  924SOL    HW1 3671   6.270   3.388   2.330
  924SOL    HW2 3672   6.144   3.285   2.343
  925SOL     OW 3673   6.483   2.182   5.441
  925SOL    HW1 3674   6.481   2.135   5.529
  925SOL    HW2 3675   6.485   2.115   5.367
  926SOL     OW 3676   5.797   1.293   0.044
  926SOL    HW1 3677   5.772   1.203   0.078
  926SOL    HW2 3678   5.880   1.324   0.090
  927SOL     OW 3679   5.174   4.321   4.153
  927SOL    HW1 3680   5.221   4.409   4.152
  927SOL    HW2 3681   5.102   4.321   4.084
  928SOL     OW 3682   2.033   0.459   0.544
  928SOL    HW1 3683   2.031   0.452   0.444
  928SOL    HW2 3684   2.015   0.554   0.570
  929SOL     OW 3685   0.190   1.821   0.934
  929SOL    HW1 3686   0.215   1.745   0.994
  929SOL    HW2 3687   0.146   1.785   0.851
  930SOL     OW 3688   6.093   5.810   4.879
  930SOL    HW1 3689   6.134   5.895   4.846
  930SOL    HW2 3690   6.062   5.756   4.801
  931SOL     OW 3691   6.812   3.572   3.833
  931SOL    HW1 3692   6.726   3.528   3.857
  931SOL    HW2 3693   6.817   3.662   3.876
  932SOL     OW 3694   2.248   6.544   1.733
  932SOL    HW1 3695   2.174   6.504   1.787
  932SOL    HW2 3696   2.249   6.643   1.746
  933SOL     OW 3697   0.449   4.967   2.422
  933SOL    HW1 3698   0.365   5.016   2.402
  933SOL    HW2 3699   0.526   5.011   2.376
  934SOL     OW 3700   2.091   0.539   4.394
  934SOL    HW1 3701   2.007   0.493   4.422
  934SOL    HW2 3702   2.126   0.497   4.309
  935SOL     OW 3703   5.155   4.345   5.250
  935SOL    HW1 3704   5.080   4.405   5.279
  935SOL    HW2 3705   5.137   4.251   5.281
  936SOL     OW 3706   1.037   0.400   5.905
  936SOL    HW1 3707   1.013   0.486   5.859
  936SOL    HW2 3708   1.064   0.420   6.000
  937SOL     OW 3709   4.914   1.912   5.499
  937SOL    HW1 3710   4.833   1.895   5.555
  937SOL    HW2 3711   4.906   1.862   5.413
  938SOL     OW 3712   0.466   5.420   6.181
  938SOL    HW1 3713   0.543   5.433   6.243
  938SOL    HW2 3714   0.417   5.336   6.204
  939SOL     OW 3715   4.998   1.359   5.287
  939SOL    HW1 3716   4.942   1.420   5.230
  939SOL    HW2 3717   4.945   1.332   5.367
  940SOL     OW 3718   0.071   3.158   2.878
  940SOL    HW1 3719   0.001   3.208   2.827
  940SOL    HW2 3720   0.032   3.074   2.914
  941SOL     OW 3721   6.406   0.563   3.852
  941SOL    HW1 3722   6.354   0.490   3.896
  941SOL    HW2 3723   6.344   0.636   3.823
  942SOL     OW 3724   4.975   0.751   4.138
  942SOL    HW1 3725   4.998   0.710   4.049
  942SOL    HW2 3726   5.054   0.800   4.174
  943SOL     OW 3727   1.169   3.132   3.629
  943SOL    HW1 3728   1.265   3.158   3.620
  943SOL    HW2 3729   1.112   3.215   3.630
  944SOL     OW 3730   5.931   3.316   6.157
  944SOL    HW1 3731   5.895   3.408   6.174
  944SOL    HW2 3732   5.986   3.316   6.074
  945SOL     OW 3733   6.728   4.253   5.974
  945SOL    HW1 3734   6.702   4.291   6.062
  945SOL    HW2 3735   6.741   4.154   5.982
  946SOL     OW 3736   4.659   2.802   6.081
  946SOL    HW1 3737   4.714   2.823   6.162
  946SOL    HW2 3738   4.636   2.705   6.080
  947SOL     OW 3739   3.032   3.164   4.542
  947SOL    HW1 3740   2.938   3.136   4.560
  947SOL    HW2 3741   3.033   3.255   4.500
  948SOL     OW 3742   4.737   0.900   1.073
  948SOL    HW1 3743   4.807   0.909   1.002
  948SOL    HW2 3744   4.682   0.819   1.055
  949SOL     OW 3745   0.195   6.502   6.436
  949SOL    HW1 3746   0.214   6.586   6.487
  949SOL    HW2 3747   0.101   6.504   6.403
  950SOL     OW 3748   4.472   5.105   2.367
  950SOL    HW1 3749   4.491   5.133   2.272
  950SOL    HW2 3750   4.557   5.104   2.419
  951SOL     OW 3751   2.095   0.510   2.171
  951SOL    HW1 3752   2.111   0.421   2.127
  951SOL    HW2 3753   2.160   0.577   2.134
  952SOL     OW 3754   5.322   1.398   1.986
  952SOL    HW1 3755   5.227   1.368   1.978
  952SOL    HW2 3756   5.331   1.459   2.065
  953SOL     OW 3757   5.408   5.304   5.464
  953SOL    HW1 3758   5.344   5.365   5.510
  953SOL    HW2 3759   5.378   5.210   5.473
  954SOL     OW 3760   5.281   6.426   0.764
  954SOL    HW1 3761   5.343   6.504   0.753
  954SOL    HW2 3762   5.234   6.408   0.678
  955SOL     OW 3763   0.275   4.667   3.061
  955SOL    HW1 3764   0.238   4.641   2.972
  955SOL    HW2 3765   0.200   4.677   3.126
  956SOL     OW 3766   1.093   1.712   2.369
  956SOL    HW1 3767   1.007   1.763   2.358
  956SOL    HW2 3768   1.076   1.627   2.419
  957SOL     OW 3769   1.263   5.078   4.288
  957SOL    HW1 3770   1.337   5.015   4.263
  957SOL    HW2 3771   1.296   5.143   4.356
  958SOL     OW 3772   4.733   2.307   1.697
  958SOL    HW1 3773   4.633   2.309   1.699
  958SOL    HW2 3774   4.764   2.276   1.607
  959SOL     OW 3775   2.557   5.170   3.074
  959SOL    HW1 3776   2.491   5.227   3.122
  959SOL    HW2 3777   2.640   5.161   3.130
  960SOL     OW 3778   0.048   6.155   3.510
  960SOL    HW1 3779   0.096   6.122   3.591
  960SOL    HW2 3780   7.014   6.080   3.471
  961SOL     OW 3781   4.984   6.923   3.217
  961SOL    HW1 3782   4.964   6.898   3.312
  961SOL    HW2 3783   4.918   6.993   3.188
  962SOL     OW 3784   1.408   1.472   4.120
  962SOL    HW1 3785   1.338   1.542   4.139
  962SOL    HW2 3786   1.390   1.392   4.177
  963SOL     OW 3787   6.027   1.243   6.354
  963SOL    HW1 3788   6.030   1.152   6.396
  963SOL    HW2 3789   5.936   1.282   6.365
  964SOL     OW 3790   6.306   3.565   0.414
  964SOL    HW1 3791   6.386   3.506   0.430
  964SOL    HW2 3792   6.291   3.575   0.316
  965SOL     OW 3793   5.619   1.771   0.911
  965SOL    HW1 3794   5.542   1.826   0.878
  965SOL    HW2 3795   5.695   1.779   0.847
  966SOL     OW 3796   5.968   1.494   2.624
  966SOL    HW1 3797   5.893   1.525   2.565
  966SOL    HW2 3798   6.053   1.539   2.596
  967SOL     OW 3799   1.940   5.137   0.960
  967SOL    HW1 3800   2.040   5.133   0.964
  967SOL    HW2 3801   1.913   5.215   0.904
  968SOL     OW 3802   4.624   2.590   2.278
  968SOL    HW1 3803   4.644   2.669   2.221
  968SOL    HW2 3804   4.625   2.616   2.374
  969SOL     OW 3805   4.598   5.730   6.494
  969SOL    HW1 3806   4.578   5.761   6.401
  969SOL    HW2 3807   4.694   5.702   6.500
  970SOL     OW 3808   4.833   0.883   4.884
  970SOL    HW1 3809   4.803   0.956   4.822
  970SOL    HW2 3810   4.782   0.799   4.863
  971SOL     OW 3811   0.150   1.919   3.113
  971SOL    HW1 3812   0.189   1.914   3.205
  971SOL    HW2 3813   0.102   2.006   3.102
  972SOL     OW 3814   5.462   3.693   1.025
  972SOL    HW1 3815   5.464   3.604   1.071
  972SOL    HW2 3816   5.556   3.720   1.002
  973SOL     OW 3817   6.865   4.245   6.945
  973SOL    HW1 3818   6.838   4.159   6.990
  973SOL    HW2 3819   6.911   4.224   6.859
  974SOL     OW 3820   4.432   0.741   2.192
  974SOL    HW1 3821   4.400   0.810   2.257
  974SOL    HW2 3822   4.396   0.762   2.101
  975SOL     OW 3823   1.862   5.520   6.344
  975SOL    HW1 3824   1.935   5.459   6.315
  975SOL    HW2 3825   1.881   5.613   6.311
  976SOL     OW 3826   6.169   3.229   2.662
  976SOL    HW1 3827   6.208   3.273   2.581
  976SOL    HW2 3828   6.073   3.256   2.671
  977SOL     OW 3829   2.668   1.362   3.510
  977SOL    HW1 3830   2.655   1.333   3.605
  977SOL    HW2 3831   2.590   1.330   3.455
  978SOL     OW 3832   4.794   4.297   5.605
  978SOL    HW1 3833   4.882   4.342   5.590
  978SOL    HW2 3834   4.805   4.220   5.668
  979SOL     OW 3835   0.076   1.833   1.708
  979SOL    HW1 3836   0.007   1.773   1.667
  979SOL    HW2 3837   0.033   1.918   1.739
  980SOL     OW 3838   4.379   2.006   3.871
  980SOL    HW1 3839   4.422   2.045   3.953
  980SOL    HW2 3840   4.399   1.909   3.866
  981SOL     OW 3841   1.631   1.500   4.837
  981SOL    HW1 3842   1.555   1.551   4.877
  981SOL    HW2 3843   1.663   1.431   4.903
  982SOL     OW 3844   2.181   2.001   3.680
  982SOL    HW1 3845   2.143   2.093   3.685
  982SOL    HW2 3846   2.177   1.969   3.586
  983SOL     OW 3847   5.813   2.194   3.215
  983SOL    HW1 3848   5.838   2.261   3.285
  983SOL    HW2 3849   5.733   2.226   3.165
  984SOL     OW 3850   3.590   0.946   3.876
  984SOL    HW1 3851   3.514   0.951   3.812
  984SOL    HW2 3852   3.643   0.863   3.859
  985SOL     OW 3853   4.954   4.745   6.701
  985SOL    HW1 3854   4.905   4.661   6.677
  985SOL    HW2 3855   5.045   4.743   6.659
  986SOL     OW 3856   5.347   4.758   0.088
  986SOL    HW1 3857   5.303   4.843   0.116
  986SOL    HW2 3858   5.309   4.682   0.141
  987SOL     OW 3859   4.264   6.520   1.629
  987SOL    HW1 3860   4.189   6.473   1.582
  987SOL    HW2 3861   4.296   6.597   1.573
  988SOL     OW 3862   3.536   3.571   1.356
  988SOL    HW1 3863   3.509   3.515   1.277
  988SOL    HW2 3864   3.483   3.656   1.356
  989SOL     OW 3865   6.712   1.151   5.253
  989SOL    HW1 3866   6.794   1.095   5.263
  989SOL    HW2 3867   6.731   1.244   5.284
  990SOL     OW 3868   4.289   0.933   2.373
  990SOL    HW1 3869   4.277   0.923   2.472
  990SOL    HW2 3870   4.218   0.993   2.336
  991SOL     OW 3871   1.972   2.695   5.433
  991SOL    HW1 3872   2.032   2.641   5.492
  991SOL    HW2 3873   1.970   2.655   5.342
  992SOL     OW 3874   0.850   3.629   1.036
  992SOL    HW1 3875   0.767   3.616   0.981
  992SOL    HW2 3876   0.926   3.654   0.976
  993SOL     OW 3877   1.148   5.020   2.659
  993SOL    HW1 3878   1.170   4.924   2.676
  993SOL    HW2 3879   1.139   5.068   2.746
  994SOL     OW 3880   3.340   3.406   2.774
  994SOL    HW1 3881   3.412   3.397   2.843
  994SOL    HW2 3882   3.381   3.425   2.685
  995SOL     OW 3883   2.793   2.406   6.166
  995SOL    HW1 3884   2.865   2.397   6.235
  995SOL    HW2 3885   2.824   2.468   6.094
  996SOL     OW 3886   1.698   4.693   4.377
  996SOL    HW1 3887   1.709   4.594   4.373
  996SOL    HW2 3888   1.622   4.715   4.439
  997SOL     OW 3889   6.886   0.373   2.100
  997SOL    HW1 3890   6.920   0.400   2.010
  997SOL    HW2 3891   6.828   0.445   2.137
  998SOL     OW 3892   4.905   6.495   3.918
  998SOL    HW1 3893   4.997   6.475   3.883
  998SOL    HW2 3894   4.873   6.418   3.973
  999SOL     OW 3895   5.555   5.036   1.789
  999SOL    HW1 3896   5.513   4.964   1.843
  999SOL    HW2 3897   5.629   5.079   1.842
 1000SOL     OW 3898   1.581   0.826   2.362
 1000SOL    HW1 3899   1.670   0.868   2.380
 1000SOL    HW2 3900   1.513   0.898   2.345
 1001SOL     OW 3901   6.125   6.696   0.343
 1001SOL    HW1 3902   6.061   6.652   0.280
 1001SOL    HW2 3903   6.217   6.692   0.305
 1002SOL     OW 3904   6.128   2.285   6.840
 1002SOL    HW1 3905   6.033   2.254   6.844
 1002SOL    HW2 3906   6.147   2.344   6.919
 1003SOL     OW 3907   2.089   6.308   1.647
 1003SOL    HW1 3908   2.158   6.380   1.649
 1003SOL    HW2 3909   2.113   6.240   1.578
 1004SOL     OW 3910   0.069   0.566   1.199
 1004SOL    HW1 3911   0.082   0.614   1.113
 1004SOL    HW2 3912   7.019   0.612   1.253
 1005SOL     OW 3913   0.650   1.351   2.900
 1005SOL    HW1 3914   0.702   1.431   2.868
 1005SOL    HW2 3915   0.611   1.303   2.821
 1006SOL     OW 3916   1.022   5.509   1.320
 1006SOL    HW1 3917   1.113   5.511   1.278
 1006SOL    HW2 3918   0.972   5.591   1.295
 1007SOL     OW 3919   5.726   6.906   4.079
 1007SOL    HW1 3920   5.661   6.832   4.097
 1007SOL    HW2 3921   5.686   6.993   4.110
 1008SOL     OW 3922   2.159   3.151   4.971
 1008SOL    HW1 3923   2.222   3.155   4.893
 1008SOL    HW2 3924   2.085   3.087   4.951
 1009SOL     OW 3925   0.453   6.521   4.599
 1009SOL    HW1 3926   0.469   6.531   4.500
 1009SOL    HW2 3927   0.473   6.428   4.627
 1010SOL     OW 3928   3.552   2.355   6.333
 1010SOL    HW1 3929   3.618   2.398   6.271
 1010SOL    HW2 3930   3.487   2.423   6.365
 1011SOL     OW 3931   2.575   5.190   2.375
 1011SOL    HW1 3932   2.541   5.282   2.358
 1011SOL    HW2 3933   2.539   5.128   2.305
 1012SOL     OW 3934   6.998   6.722   0.457
 1012SOL    HW1 3935   0.058   6.675   0.496
 1012SOL    HW2 3936   6.973   6.798   0.517
 1013SOL     OW 3937   0.364   1.361   6.256
 1013SOL    HW1 3938   0.300   1.296   6.215
 1013SOL    HW2 3939   0.312   1.434   6.302
 1014SOL     OW 3940   5.077   5.499   6.832
 1014SOL    HW1 3941   5.039   5.430   6.894
 1014SOL    HW2 3942   5.057   5.473   6.737
 1015SOL     OW 3943   2.500   6.701   5.658
 1015SOL    HW1 3944   2.419   6.749   5.624
 1015SOL    HW2 3945   2.527   6.740   5.747
 1016SOL     OW 3946   3.030   3.547   0.270
 1016SOL    HW1 3947   2.943   3.541   0.221
 1016SOL    HW2 3948   3.103   3.509   0.214
 1017SOL     OW 3949   4.546   2.731   1.119
 1017SOL    HW1 3950   4.494   2.703   1.039
 1017SOL    HW2 3951   4.602   2.811   1.096
 1018SOL     OW 3952   1.566   3.483   4.322
 1018SOL    HW1 3953   1.662   3.474   4.295
 1018SOL    HW2 3954   1.513   3.517   4.244
 1019SOL     OW 3955   1.147   0.348   0.147
 1019SOL    HW1 3956   1.099   0.409   0.084
 1019SOL    HW2 3957   1.183   0.401   0.224
 1020SOL     OW 3958   1.135   6.535   1.250
 1020SOL    HW1 3959   1.170   6.619   1.209
 1020SOL    HW2 3960   1.197   6.506   1.323
 1021SOL     OW 3961   5.751   1.069   1.188
 1021SOL    HW1 3962   5.817   1.127   1.141
 1021SOL    HW2 3963   5.777   1.059   1.284
 1022SOL     OW 3964   4.467   4.420   6.199
 1022SOL    HW1 3965   4.457   4.325   6.169
 1022SOL    HW2 3966   4.420   4.432   6.287
 1023SOL     OW 3967   6.962   0.182   1.758
 1023SOL    HW1 3968   6.972   0.274   1.797
 1023SOL    HW2 3969   6.875   0.142   1.788
 1024SOL     OW 3970   5.730   3.576   4.271
 1024SOL    HW1 3971   5.729   3.560   4.370
 1024SOL    HW2 3972   5.682   3.661   4.251
 1025SOL     OW 3973   3.197   3.914   0.552
 1025SOL    HW1 3974   3.158   3.840   0.497
 1025SOL    HW2 3975   3.213   3.881   0.645
 1026SOL     OW 3976   2.085   2.067   1.605
 1026SOL    HW1 3977   2.143   2.146   1.584
 1026SOL    HW2 3978   2.081   2.006   1.526
 1027SOL     OW 3979   2.729   5.858   1.181
 1027SOL    HW1 3980   2.786   5.776   1.176
 1027SOL    HW2 3981   2.781   5.933   1.220
 1028SOL     OW 3982   4.132   6.085   0.367
 1028SOL    HW1 3983   4.091   6.005   0.411
 1028SOL    HW2 3984   4.156   6.062   0.272
 1029SOL     OW 3985   1.548   0.460   0.115
 1029SOL    HW1 3986   1.597   0.395   0.173
 1029SOL    HW2 3987   1.501   0.527   0.173
 1030SOL     OW 3988   3.581   3.897   1.666
 1030SOL    HW1 3989   3.566   3.925   1.571
 1030SOL    HW2 3990   3.494   3.901   1.716
 1031SOL     OW 3991   5.521   5.626   0.941
 1031SOL    HW1 3992   5.521   5.689   1.018
 1031SOL    HW2 3993   5.509   5.532   0.974
 1032SOL     OW 3994   2.044   1.686   4.309
 1032SOL    HW1 3995   2.143   1.682   4.315
 1032SOL    HW2 3996   2.014   1.781   4.314
 1033SOL     OW 3997   1.562   6.368   1.052
 1033SOL    HW1 3998   1.549   6.417   1.138
 1033SOL    HW2 3999   1.635   6.412   0.999
 1034SOL     OW 4000   1.175   6.114   5.566
 1034SOL    HW1 4001   1.226   6.095   5.483
 1034SOL    HW2 4002   1.219   6.188   5.617
 1035SOL     OW 4003   2.225   0.995   3.593
 1035SOL    HW1 4004   2.203   0.919   3.532
 1035SOL    HW2 4005   2.310   0.976   3.641
 1036SOL     OW 4006   3.080   0.632   1.582
 1036SOL    HW1 4007   3.153   0.608   1.646
 1036SOL    HW2 4008   3.115   0.630   1.488
 1037SOL     OW 4009   2.065   0.404   1.245
 1037SOL    HW1 4010   2.107   0.444   1.326
 1037SOL    HW2 4011   2.071   0.304   1.249
 1038SOL     OW 4012   1.278   0.997   5.834
 1038SOL    HW1 4013   1.204   1.007   5.768
 1038SOL    HW2 4014   1.347   0.934   5.797
 1039SOL     OW 4015   3.159   3.226   5.659
 1039SOL    HW1 4016   3.101   3.302   5.689
 1039SOL    HW2 4017   3.110   3.171   5.592
 1040SOL     OW 4018   5.071   2.905   2.636
 1040SOL    HW1 4019   4.978   2.912   2.600
 1040SOL    HW2 4020   5.137   2.934   2.567
 1041SOL     OW 4021   6.486   6.689   4.262
 1041SOL    HW1 4022   6.493   6.589   4.256
 1041SOL    HW2 4023   6.565   6.730   4.217
 1042SOL     OW 4024   3.579   4.981   2.168
 1042SOL    HW1 4025   3.557   4.912   2.099
 1042SOL    HW2 4026   3.494   5.018   2.207
 1043SOL     OW 4027   4.556   1.416   4.997
 1043SOL    HW1 4028   4.645   1.438   4.958
 1043SOL    HW2 4029   4.498   1.375   4.927
 1044SOL     OW 4030   4.803   4.159   1.993
 1044SOL    HW1 4031   4.806   4.062   1.972
 1044SOL    HW2 4032   4.709   4.187   2.008
 1045SOL     OW 4033   2.742   6.325   2.710
 1045SOL    HW1 4034   2.717   6.229   2.697
 1045SOL    HW2 4035   2.737   6.348   2.807
 1046SOL     OW 4036   1.976   6.572   0.189
 1046SOL    HW1 4037   1.916   6.594   0.266
 1046SOL    HW2 4038   1.931   6.596   0.103
 1047SOL     OW 4039   0.856   6.080   2.314
 1047SOL    HW1 4040   0.889   6.021   2.388
 1047SOL    HW2 4041   0.897   6.051   2.228
 1048SOL     OW 4042   5.028   5.877   5.593
 1048SOL    HW1 4043   5.051   5.888   5.690
 1048SOL    HW2 4044   4.960   5.804   5.584
 1049SOL     OW 4045   6.564   5.089   4.831
 1049SOL    HW1 4046   6.560   5.007   4.774
 1049SOL    HW2 4047   6.471   5.122   4.847
 1050SOL     OW 4048   2.899   5.466   0.774
 1050SOL    HW1 4049   2.843   5.534   0.726
 1050SOL    HW2 4050   2.942   5.508   0.854
 1051SOL     OW 4051   2.598   4.845   0.464
 1051SOL    HW1 4052   2.626   4.849   0.368
 1051SOL    HW2 4053   2.668   4.798   0.518
 1052SOL     OW 4054   4.339   0.100   4.315
 1052SOL    HW1 4055   4.427   0.100   4.265
 1052SOL    HW2 4056   4.330   0.015   4.366
 1053SOL     OW 4057   5.416   5.593   3.215
 1053SOL    HW1 4058   5.334   5.625   3.167
 1053SOL    HW2 4059   5.497   5.623   3.166
 1054SOL     OW 4060   3.191   4.524   6.308
 1054SOL    HW1 4061   3.158   4.471   6.230
 1054SOL    HW2 4062   3.275   4.484   6.343
 1055SOL     OW 4063   6.140   6.915   4.587
 1055SOL    HW1 4064   6.154   6.997   4.531
 1055SOL    HW2 4065   6.055   6.870   4.559
 1056SOL     OW 4066   1.601   5.584   5.613
 1056SOL    HW1 4067   1.503   5.595   5.597
 1056SOL    HW2 4068   1.623   5.607   5.708
 1057SOL     OW 4069   3.812   3.671   2.971
 1057SOL    HW1 4070   3.810   3.660   3.070
 1057SOL    HW2 4071   3.903   3.649   2.937
 1058SOL     OW 4072   5.061   1.296   2.053
 1058SOL    HW1 4073   5.096   1.270   2.143
 1058SOL    HW2 4074   5.069   1.219   1.990
 1059SOL     OW 4075   2.441   0.496   0.465
 1059SOL    HW1 4076   2.498   0.437   0.407
 1059SOL    HW2 4077   2.466   0.483   0.561
 1060SOL     OW 4078   0.312   3.689   4.499
 1060SOL    HW1 4079   0.341   3.716   4.407
 1060SOL    HW2 4080   0.393   3.671   4.555
 1061SOL     OW 4081   4.928   3.525   1.450
 1061SOL    HW1 4082   4.848   3.471   1.477
 1061SOL    HW2 4083   4.997   3.521   1.522
 1062SOL     OW 4084   6.450   4.899   5.243
 1062SOL    HW1 4085   6.454   4.878   5.341
 1062SOL    HW2 4086   6.528   4.858   5.197
 1063SOL     OW 4087   1.256   4.185   2.059
 1063SOL    HW1 4088   1.338   4.138   2.093
 1063SOL    HW2 4089   1.234   4.149   1.968
 1064SOL     OW 4090   1.493   4.094   2.146
 1064SOL    HW1 4091   1.516   4.001   2.116
 1064SOL    HW2 4092   1.571   4.154   2.128
 1065SOL     OW 4093   4.134   0.470   4.308
 1065SOL    HW1 4094   4.056   0.482   4.369
 1065SOL    HW2 4095   4.216   0.505   4.352
 1066SOL     OW 4096   5.022   0.602   4.408
 1066SOL    HW1 4097   5.011   0.615   4.309
 1066SOL    HW2 4098   4.942   0.555   4.445
 1067SOL     OW 4099   1.398   2.910   6.932
 1067SOL    HW1 4100   1.303   2.904   6.961
 1067SOL    HW2 4101   1.421   3.005   6.913
 1068SOL     OW 4102   4.923   4.524   2.300
 1068SOL    HW1 4103   4.943   4.460   2.374
 1068SOL    HW2 4104   5.007   4.571   2.272
 1069SOL     OW 4105   4.851   4.743   1.389
 1069SOL    HW1 4106   4.840   4.801   1.308
 1069SOL    HW2 4107   4.946   4.743   1.417
 1070SOL     OW 4108   1.499   0.750   1.255
 1070SOL    HW1 4109   1.592   0.782   1.237
 1070SOL    HW2 4110   1.451   0.818   1.310
 1071SOL     OW 4111   3.788   6.573   3.475
 1071SOL    HW1 4112   3.790   6.627   3.391
 1071SOL    HW2 4113   3.704   6.593   3.526
 1072SOL     OW 4114   1.589   6.114   1.051
 1072SOL    HW1 4115   1.650   6.063   0.991
 1072SOL    HW2 4116   1.588   6.210   1.024
 1073SOL     OW 4117   3.578   6.304   2.801
 1073SOL    HW1 4118   3.565   6.382   2.862
 1073SOL    HW2 4119   3.512   6.309   2.726
 1074SOL     OW 4120   2.394   5.438   0.857
 1074SOL    HW1 4121   2.479   5.476   0.891
 1074SOL    HW2 4122   2.388   5.453   0.758
 1075SOL     OW 4123   4.392   6.233   3.852
 1075SOL    HW1 4124   4.329   6.264   3.924
 1075SOL    HW2 4125   4.464   6.176   3.893
 1076SOL     OW 4126   0.707   4.605   5.197
 1076SOL    HW1 4127   0.765   4.535   5.238
 1076SOL    HW2 4128   0.629   4.561   5.152
 1077SOL     OW 4129   6.103   0.259   0.379
 1077SOL    HW1 4130   6.191   0.307   0.384
 1077SOL    HW2 4131   6.096   0.212   0.292
 1078SOL     OW 4132   2.109   0.823   2.493
 1078SOL    HW1 4133   2.200   0.804   2.529
 1078SOL    HW2 4134   2.046   0.751   2.520
 1079SOL     OW 4135   1.836   5.552   2.314
 1079SOL    HW1 4136   1.782   5.474   2.344
 1079SOL    HW2 4137   1.778   5.614   2.261
 1080SOL     OW 4138   2.170   4.625   3.348
 1080SOL    HW1 4139   2.270   4.618   3.358
 1080SOL    HW2 4140   2.127   4.547   3.393
 1081SOL     OW 4141   0.124   6.952   5.981
 1081SOL    HW1 4142   0.153   0.015   5.931
 1081SOL    HW2 4143   0.025   6.952   5.989
 1082SOL     OW 4144   2.727   1.086   5.265
 1082SOL    HW1 4145   2.691   0.994   5.279
 1082SOL    HW2 4146   2.751   1.126   5.354
 1083SOL     OW 4147   3.909   4.388   0.762
 1083SOL    HW1 4148   3.869   4.407   0.851
 1083SOL    HW2 4149   3.858   4.315   0.717
 1084SOL     OW 4150   6.401   6.239   0.963
 1084SOL    HW1 4151   6.426   6.289   1.046
 1084SOL    HW2 4152   6.448   6.280   0.885
 1085SOL     OW 4153   1.809   4.361   3.109
 1085SOL    HW1 4154   1.873   4.431   3.078
 1085SOL    HW2 4155   1.839   4.271   3.077
 1086SOL     OW 4156   6.635   5.663   2.599
 1086SOL    HW1 4157   6.544   5.700   2.583
 1086SOL    HW2 4158   6.667   5.616   2.516
 1087SOL     OW 4159   5.818   2.784   5.927
 1087SOL    HW1 4160   5.857   2.791   5.835
 1087SOL    HW2 4161   5.719   2.770   5.920
 1088SOL     OW 4162   5.978   4.640   3.492
 1088SOL    HW1 4163   5.994   4.651   3.394
 1088SOL    HW2 4164   5.888   4.600   3.507
 1089SOL     OW 4165   1.462   0.356   4.178
 1089SOL    HW1 4166   1.561   0.373   4.178
 1089SOL    HW2 4167   1.443   0.272   4.230
 1090SOL     OW 4168   2.279   1.610   3.546
 1090SOL    HW1 4169   2.357   1.609   3.608
 1090SOL    HW2 4170   2.263   1.703   3.513
 1091SOL     OW 4171   1.950   3.003   4.862
 1091SOL    HW1 4172   1.951   2.936   4.788
 1091SOL    HW2 4173   1.858   3.038   4.874
 1092SOL     OW 4174   2.553   3.211   0.769
 1092SOL    HW1 4175   2.623   3.239   0.834
 1092SOL    HW2 4176   2.532   3.114   0.781
 1093SOL     OW 4177   1.625   2.142   2.808
 1093SOL    HW1 4178   1.568   2.152   2.889
 1093SOL    HW2 4179   1.713   2.189   2.824
 1094SOL     OW 4180   1.274   6.446   2.841
 1094SOL    HW1 4181   1.349   6.437   2.906
 1094SOL    HW2 4182   1.187   6.430   2.888
 1095SOL     OW 4183   6.733   2.075   5.597
 1095SOL    HW1 4184   6.703   1.983   5.572
 1095SOL    HW2 4185   6.671   2.113   5.666
 1096SOL     OW 4186   3.567   4.356   1.731
 1096SOL    HW1 4187   3.584   4.449   1.763
 1096SOL    HW2 4188   3.584   4.351   1.632
 1097SOL     OW 4189   1.387   4.236   3.889
 1097SOL    HW1 4190   1.341   4.147   3.883
 1097SOL    HW2 4191   1.341   4.292   3.958
 1098SOL     OW 4192   5.302   3.117   0.439
 1098SOL    HW1 4193   5.203   3.109   0.451
 1098SOL    HW2 4194   5.323   3.121   0.342
 1099SOL     OW 4195   3.442   1.219   4.642
 1099SOL    HW1 4196   3.456   1.124   4.612
 1099SOL    HW2 4197   3.351   1.227   4.683
 1100SOL     OW 4198   2.789   2.034   6.709
 1100SOL    HW1 4199   2.779   1.937   6.685
 1100SOL    HW2 4200   2.759   2.091   6.633
 1101SOL     OW 4201   5.476   2.673   0.809
 1101SOL    HW1 4202   5.447   2.698   0.716
 1101SOL    HW2 4203   5.407   2.612   0.850
 1102SOL     OW 4204   0.971   5.366   3.232
 1102SOL    HW1 4205   1.054   5.415   3.257
 1102SOL    HW2 4206   0.973   5.274   3.271
 1103SOL     OW 4207   2.997   1.347   1.160
 1103SOL    HW1 4208   2.959   1.426   1.113
 1103SOL    HW2 4209   2.951   1.264   1.127
 1104SOL     OW 4210   2.314   3.797   6.058
 1104SOL    HW1 4211   2.327   3.726   5.989
 1104SOL    HW2 4212   2.360   3.770   6.143
 1105SOL     OW 4213   5.399   3.642   4.925
 1105SOL    HW1 4214   5.467   3.641   4.852
 1105SOL    HW2 4215   5.317   3.690   4.894
 1106SOL     OW 4216   0.918   1.898   0.766
 1106SOL    HW1 4217   0.946   1.931   0.856
 1106SOL    HW2 4218   0.838   1.949   0.735
 1107SOL     OW 4219   0.795   0.503   6.423
 1107SOL    HW1 4220   0.870   0.437   6.429
 1107SOL    HW2 4221   0.736   0.480   6.346
 1108SOL     OW 4222   2.654   0.406   5.856
 1108SOL    HW1 4223   2.569   0.367   5.891
 1108SOL    HW2 4224   2.657   0.398   5.757
 1109SOL     OW 4225   4.336   5.946   4.797
 1109SOL    HW1 4226   4.378   5.888   4.727
 1109SOL    HW2 4227   4.237   5.933   4.795
 1110SOL     OW 4228   2.740   1.513   2.336
 1110SOL    HW1 4229   2.778   1.422   2.351
 1110SOL    HW2 4230   2.731   1.561   2.423
 1111SOL     OW 4231   5.561   5.507   0.233
 1111SOL    HW1 4232   5.510   5.592   0.220
 1111SOL    HW2 4233   5.655   5.519   0.202
 1112SOL     OW 4234   6.304   1.151   2.685
 1112SOL    HW1 4235   6.230   1.206   2.647
 1112SOL    HW2 4236   6.266   1.081   2.745
 1113SOL     OW 4237   6.449   3.502   2.687
 1113SOL    HW1 4238   6.473   3.557   2.606
 1113SOL    HW2 4239   6.386   3.554   2.745
 1114SOL     OW 4240   4.313   1.314   6.351
 1114SOL    HW1 4241   4.347   1.243   6.412
 1114SOL    HW2 4242   4.267   1.385   6.404
 1115SOL     OW 4243   3.924   3.225   0.278
 1115SOL    HW1 4244   4.020   3.205   0.300
 1115SOL    HW2 4245   3.869   3.142   0.290
 1116SOL     OW 4246   5.642   5.302   4.605
 1116SOL    HW1 4247   5.588   5.334   4.527
 1116SOL    HW2 4248   5.583   5.253   4.669
 1117SOL     OW 4249   2.012   2.950   1.593
 1117SOL    HW1 4250   1.980   2.855   1.591
 1117SOL    HW2 4251   1.982   2.997   1.510
 1118SOL     OW 4252   1.718   4.496   1.534
 1118SOL    HW1 4253   1.763   4.550   1.463
 1118SOL    HW2 4254   1.619   4.504   1.523
 1119SOL     OW 4255   4.152   4.198   1.602
 1119SOL    HW1 4256   4.170   4.222   1.507
 1119SOL    HW2 4257   4.214   4.248   1.662
 1120SOL     OW 4258   5.195   6.348   5.109
 1120SOL    HW1 4259   5.159   6.438   5.087
 1120SOL    HW2 4260   5.211   6.297   5.025
 1121SOL     OW 4261   5.094   4.040   2.531
 1121SOL    HW1 4262   5.077   3.990   2.616
 1121SOL    HW2 4263   5.193   4.045   2.515
 1122SOL     OW 4264   4.979   3.365   5.759
 1122SOL    HW1 4265   4.885   3.344   5.787
 1122SOL    HW2 4266   5.003   3.457   5.789
 1123SOL     OW 4267   5.697   1.715   2.317
 1123SOL    HW1 4268   5.736   1.638   2.268
 1123SOL    HW2 4269   5.720   1.800   2.270
 1124SOL     OW 4270   6.142   4.339   5.514
 1124SOL    HW1 4271   6.137   4.241   5.496
 1124SOL    HW2 4272   6.071   4.365   5.581
 1125SOL     OW 4273   2.266   1.913   4.467
 1125SOL    HW1 4274   2.284   1.935   4.371
 1125SOL    HW2 4275   2.334   1.848   4.501
 1126SOL     OW 4276   5.922   6.584   0.881
 1126SOL    HW1 4277   5.905   6.669   0.930
 1126SOL    HW2 4278   5.896   6.507   0.938
 1127SOL     OW 4279   5.058   5.457   4.711
 1127SOL    HW1 4280   5.048   5.378   4.772
 1127SOL    HW2 4281   5.121   5.523   4.753
 1128SOL     OW 4282   4.670   2.324   5.668
 1128SOL    HW1 4283   4.589   2.370   5.632
 1128SOL    HW2 4284   4.735   2.392   5.701
 1129SOL     OW 4285   3.839   0.312   0.332
 1129SOL    HW1 4286   3.828   0.304   0.233
 1129SOL    HW2 4287   3.862   0.223   0.371
 1130SOL     OW 4288   1.720   3.929   0.991
 1130SOL    HW1 4289   1.798   3.988   1.014
 1130SOL    HW2 4290   1.690   3.880   1.073
 1131SOL     OW 4291   0.534   6.244   5.811
 1131SOL    HW1 4292   0.602   6.170   5.807
 1131SOL    HW2 4293   0.447   6.211   5.773
 1132SOL     OW 4294   5.064   0.174   6.853
 1132SOL    HW1 4295   5.135   0.230   6.897
 1132SOL    HW2 4296   4.974   0.210   6.877
 1133SOL     OW 4297   0.391   1.337   0.661
 1133SOL    HW1 4298   0.473   1.294   0.698
 1133SOL    HW2 4299   0.312   1.276   0.674
 1134SOL     OW 4300   4.807   2.146   0.600
 1134SOL    HW1 4301   4.757   2.231   0.583
 1134SOL    HW2 4302   4.816   2.131   0.699
 1135SOL     OW 4303   2.931   1.395   2.586
 1135SOL    HW1 4304   2.880   1.406   2.672
 1135SOL    HW2 4305   2.990   1.314   2.593
 1136SOL     OW 4306   3.567   5.198   5.299
 1136SOL    HW1 4307   3.645   5.135   5.305
 1136SOL    HW2 4308   3.575   5.267   5.371
 1137SOL     OW 4309   1.080   2.447   0.152
 1137SOL    HW1 4310   1.111   2.438   0.057
 1137SOL    HW2 4311   1.160   2.451   0.212
 1138SOL     OW 4312   0.939   1.138   6.687
 1138SOL    HW1 4313   0.887   1.215   6.723
 1138SOL    HW2 4314   1.037   1.157   6.697
 1139SOL     OW 4315   2.352   5.899   1.451
 1139SOL    HW1 4316   2.434   5.851   1.422
 1139SOL    HW2 4317   2.338   5.980   1.394
 1140SOL     OW 4318   3.275   1.048   2.167
 1140SOL    HW1 4319   3.267   1.147   2.181
 1140SOL    HW2 4320   3.207   1.001   2.223
 1141SOL     OW 4321   6.602   6.191   6.172
 1141SOL    HW1 4322   6.625   6.227   6.262
 1141SOL    HW2 4323   6.670   6.223   6.105
 1142SOL     OW 4324   3.794   0.727   4.457
 1142SOL    HW1 4325   3.863   0.656   4.468
 1142SOL    HW2 4326   3.836   0.809   4.419
 1143SOL     OW 4327   2.615   2.332   2.647
 1143SOL    HW1 4328   2.711   2.310   2.632
 1143SOL    HW2 4329   2.557   2.270   2.594
 1144SOL     OW 4330   6.658   4.765   5.077
 1144SOL    HW1 4331   6.722   4.707   5.127
 1144SOL    HW2 4332   6.678   4.758   4.979
 1145SOL     OW 4333   6.924   4.287   2.731
 1145SOL    HW1 4334   6.997   4.221   2.748
 1145SOL    HW2 4335   6.956   4.378   2.755
 1146SOL     OW 4336   5.214   0.578   1.172
 1146SOL    HW1 4337   5.189   0.562   1.076
 1146SOL    HW2 4338   5.166   0.512   1.230
 1147SOL     OW 4339   1.089   4.408   0.730
 1147SOL    HW1 4340   1.067   4.383   0.636
 1147SOL    HW2 4341   1.005   4.432   0.779
 1148SOL     OW 4342   3.707   6.778   0.078
 1148SOL    HW1 4343   3.712   6.695   0.023
 1148SOL    HW2 4344   3.692   6.753   0.174
 1149SOL     OW 4345   5.962   3.690   3.077
 1149SOL    HW1 4346   5.948   3.710   3.174
 1149SOL    HW2 4347   5.890   3.732   3.023
 1150SOL     OW 4348   1.202   4.193   1.044
 1150SOL    HW1 4349   1.259   4.261   0.998
 1150SOL    HW2 4350   1.162   4.132   0.975
 1151SOL     OW 4351   4.765   5.744   0.125
 1151SOL    HW1 4352   4.772   5.833   0.080
 1151SOL    HW2 4353   4.772   5.671   0.057
 1152SOL     OW 4354   0.714   5.998   5.863
 1152SOL    HW1 4355   0.708   5.913   5.915
 1152SOL    HW2 4356   0.806   6.007   5.824
 1153SOL     OW 4357   2.165   0.075   1.746
 1153SOL    HW1 4358   2.223   0.155   1.759
 1153SOL    HW2 4359   2.150   0.060   1.648
 1154SOL     OW 4360   0.996   3.920   1.896
 1154SOL    HW1 4361   0.939   3.938   1.976
 1154SOL    HW2 4362   0.993   3.822   1.875
 1155SOL     OW 4363   3.167   4.778   6.984
 1155SOL    HW1 4364   3.229   4.846   0.003
 1155SOL    HW2 4365   3.087   4.769   0.023
 1156SOL     OW 4366   1.817   0.767   4.411
 1156SOL    HW1 4367   1.730   0.720   4.397
 1156SOL    HW2 4368   1.813   0.858   4.370
 1157SOL     OW 4369   6.223   1.238   4.464
 1157SOL    HW1 4370   6.145   1.298   4.484
 1157SOL    HW2 4371   6.252   1.253   4.369
 1158SOL     OW 4372   0.164   5.192   5.825
 1158SOL    HW1 4373   0.247   5.201   5.879
 1158SOL    HW2 4374   0.155   5.098   5.792
 1159SOL     OW 4375   5.433   0.165   2.998
 1159SOL    HW1 4376   5.349   0.116   2.974
 1159SOL    HW2 4377   5.510   0.126   2.947
 1160SOL     OW 4378   4.203   3.937   1.709
 1160SOL    HW1 4379   4.127   4.002   1.697
 1160SOL    HW2 4380   4.279   3.963   1.650
 1161SOL     OW 4381   5.033   0.546   6.070
 1161SOL    HW1 4382   5.127   0.573   6.087
 1161SOL    HW2 4383   5.013   0.551   5.972
 1162SOL     OW 4384   3.940   2.632   0.486
 1162SOL    HW1 4385   3.890   2.632   0.573
 1162SOL    HW2 4386   3.957   2.538   0.457
 1163SOL     OW 4387   5.642   3.124   1.893
 1163SOL    HW1 4388   5.594   3.038   1.872
 1163SOL    HW2 4389   5.700   3.149   1.816
 1164SOL     OW 4390   5.101   2.375   3.982
 1164SOL    HW1 4391   5.200   2.377   3.975
 1164SOL    HW2 4392   5.074   2.342   4.072
 1165SOL     OW 4393   1.923   4.486   4.191
 1165SOL    HW1 4394   1.847   4.447   4.243
 1165SOL    HW2 4395   2.007   4.436   4.212
 1166SOL     OW 4396   3.577   0.812   0.125
 1166SOL    HW1 4397   3.555   0.755   0.204
 1166SOL    HW2 4398   3.590   0.754   0.044
 1167SOL     OW 4399   3.419   0.151   6.340
 1167SOL    HW1 4400   3.450   0.077   6.280
 1167SOL    HW2 4401   3.334   0.190   6.303
 1168SOL     OW 4402   0.145   0.498   2.396
 1168SOL    HW1 4403   0.126   0.432   2.323
 1168SOL    HW2 4404   0.099   0.584   2.375
 1169SOL     OW 4405   6.413   3.343   6.989
 1169SOL    HW1 4406   6.475   3.308   6.919
 1169SOL    HW2 4407   6.413   3.281   0.047
 1170SOL     OW 4408   4.759   0.799   2.220
 1170SOL    HW1 4409   4.679   0.851   2.249
 1170SOL    HW2 4410   4.756   0.787   2.120
 1171SOL     OW 4411   2.383   6.449   6.821
 1171SOL    HW1 4412   2.303   6.418   6.873
 1171SOL    HW2 4413   2.433   6.517   6.874
 1172SOL     OW 4414   3.618   4.071   2.829
 1172SOL    HW1 4415   3.532   4.064   2.880
 1172SOL    HW2 4416   3.694   4.044   2.889
 1173SOL     OW 4417   3.236   0.005   5.891
 1173SOL    HW1 4418   3.321   7.008   5.941
 1173SOL    HW2 4419   3.243   0.089   5.838
 1174SOL     OW 4420   3.136   4.456   0.742
 1174SOL    HW1 4421   3.177   4.365   0.744
 1174SOL    HW2 4422   3.053   4.454   0.686
 1175SOL     OW 4423   4.983   3.490   6.417
 1175SOL    HW1 4424   5.003   3.424   6.489
 1175SOL    HW2 4425   5.055   3.487   6.348
 1176SOL     OW 4426   5.665   4.325   0.867
 1176SOL    HW1 4427   5.687   4.231   0.840
 1176SOL    HW2 4428   5.749   4.373   0.891
 1177SOL     OW 4429   0.033   1.492   5.222
 1177SOL    HW1 4430   0.116   1.439   5.240
 1177SOL    HW2 4431   0.002   1.474   5.128
 1178SOL     OW 4432   4.036   3.077   1.142
 1178SOL    HW1 4433   3.973   3.155   1.142
 1178SOL    HW2 4434   4.122   3.104   1.099
 1179SOL     OW 4435   3.112   5.125   0.593
 1179SOL    HW1 4436   3.027   5.175   0.609
 1179SOL    HW2 4437   3.131   5.122   0.495
 1180SOL     OW 4438   2.979   6.889   3.686
 1180SOL    HW1 4439   3.002   6.850   3.775
 1180SOL    HW2 4440   2.924   6.823   3.634
 1181SOL     OW 4441   6.872   2.814   5.045
 1181SOL    HW1 4442   6.876   2.718   5.014
 1181SOL    HW2 4443   6.835   2.870   4.971
 1182SOL     OW 4444   1.691   5.650   3.292
 1182SOL    HW1 4445   1.752   5.586   3.245
 1182SOL    HW2 4446   1.739   5.736   3.308
 1183SOL     OW 4447   3.654   5.527   2.080
 1183SOL    HW1 4448   3.701   5.492   1.999
 1183SOL    HW2 4449   3.722   5.551   2.150
 1184SOL     OW 4450   3.898   1.385   5.049
 1184SOL    HW1 4451   3.879   1.362   5.144
 1184SOL    HW2 4452   3.901   1.302   4.994
 1185SOL     OW 4453   2.246   0.316   0.039
 1185SOL    HW1 4454   2.167   0.255   0.029
 1185SOL    HW2 4455   2.325   0.263   0.070
 1186SOL     OW 4456   6.081   6.441   6.350
 1186SOL    HW1 4457   6.136   6.478   6.425
 1186SOL    HW2 4458   6.013   6.508   6.322
 1187SOL     OW 4459   5.321   5.675   5.180
 1187SOL    HW1 4460   5.386   5.720   5.118
 1187SOL    HW2 4461   5.321   5.721   5.268
 1188SOL     OW 4462   3.324   6.474   6.821
 1188SOL    HW1 4463   3.294   6.569   6.818
 1188SOL    HW2 4464   3.258   6.416   6.774
 1189SOL     OW 4465   5.630   0.448   2.374
 1189SOL    HW1 4466   5.653   0.519   2.307
 1189SOL    HW2 4467   5.607   0.363   2.327
 1190SOL     OW 4468   4.135   4.787   4.766
 1190SOL    HW1 4469   4.092   4.841   4.838
 1190SOL    HW2 4470   4.070   4.720   4.731
 1191SOL     OW 4471   4.275   5.965   5.365
 1191SOL    HW1 4472   4.207   6.014   5.310
 1191SOL    HW2 4473   4.254   5.978   5.462
 1192SOL     OW 4474   5.268   5.323   2.566
 1192SOL    HW1 4475   5.169   5.334   2.571
 1192SOL    HW2 4476   5.290   5.228   2.546
 1193SOL     OW 4477   6.722   0.393   4.591
 1193SOL    HW1 4478   6.739   0.353   4.682
 1193SOL    HW2 4479   6.648   0.342   4.546
 1194SOL     OW 4480   0.269   1.650   1.134
 1194SOL    HW1 4481   0.304   1.559   1.110
 1194SOL    HW2 4482   0.244   1.651   1.231
 1195SOL     OW 4483   6.097   2.791   1.599
 1195SOL    HW1 4484   6.023   2.831   1.546
 1195SOL    HW2 4485   6.146   2.863   1.648
 1196SOL     OW 4486   0.255   4.282   1.928
 1196SOL    HW1 4487   0.216   4.373   1.936
 1196SOL    HW2 4488   0.322   4.281   1.854
 1197SOL     OW 4489   4.188   6.269   4.987
 1197SOL    HW1 4490   4.128   6.307   5.057
 1197SOL    HW2 4491   4.282   6.265   5.022
 1198SOL     OW 4492   1.969   3.182   2.702
 1198SOL    HW1 4493   2.021   3.211   2.622
 1198SOL    HW2 4494   1.963   3.258   2.768
 1199SOL     OW 4495   3.389   2.916   3.377
 1199SOL    HW1 4496   3.467   2.881   3.428
 1199SOL    HW2 4497   3.322   2.955   3.441
 1200SOL     OW 4498   3.583   4.179   4.697
 1200SOL    HW1 4499   3.656   4.242   4.672
 1200SOL    HW2 4500   3.617   4.113   4.764
 1201SOL     OW 4501   0.137   1.687   4.702
 1201SOL    HW1 4502   0.040   1.690   4.726
 1201SOL    HW2 4503   0.184   1.765   4.742
 1202SOL     OW 4504   5.932   0.787   5.786
 1202SOL    HW1 4505   5.886   0.845   5.719
 1202SOL    HW2 4506   5.989   0.720   5.739
 1203SOL     OW 4507   6.155   6.571   1.487
 1203SOL    HW1 4508   6.085   6.623   1.535
 1203SOL    HW2 4509   6.183   6.621   1.404
 1204SOL     OW 4510   4.408   1.541   0.807
 1204SOL    HW1 4511   4.443   1.448   0.793
 1204SOL    HW2 4512   4.313   1.537   0.839
 1205SOL     OW 4513   4.177   3.486   6.288
 1205SOL    HW1 4514   4.239   3.414   6.259
 1205SOL    HW2 4515   4.227   3.572   6.297
 1206SOL     OW 4516   0.938   1.916   5.087
 1206SOL    HW1 4517   0.878   1.905   5.166
 1206SOL    HW2 4518   0.885   1.908   5.003
 1207SOL     OW 4519   0.690   6.581   0.606
 1207SOL    HW1 4520   0.653   6.645   0.538
 1207SOL    HW2 4521   0.787   6.601   0.621
 1208SOL     OW 4522   3.353   4.139   2.608
 1208SOL    HW1 4523   3.338   4.238   2.610
 1208SOL    HW2 4524   3.436   4.120   2.556
 1209SOL     OW 4525   5.838   6.471   4.779
 1209SOL    HW1 4526   5.839   6.422   4.865
 1209SOL    HW2 4527   5.791   6.416   4.709
 1210SOL     OW 4528   4.517   6.452   3.396
 1210SOL    HW1 4529   4.583   6.405   3.337
 1210SOL    HW2 4530   4.559   6.469   3.485
 1211SOL     OW 4531   1.414   3.275   3.139
 1211SOL    HW1 4532   1.441   3.364   3.102
 1211SOL    HW2 4533   1.317   3.276   3.160
 1212SOL     OW 4534   0.301   1.628   5.116
 1212SOL    HW1 4535   0.208   1.665   5.124
 1212SOL    HW2 4536   0.300   1.546   5.059
 1213SOL     OW 4537   5.790   3.139   4.567
 1213SOL    HW1 4538   5.821   3.229   4.597
 1213SOL    HW2 4539   5.860   3.071   4.587
 1214SOL     OW 4540   1.098   2.823   4.993
 1214SOL    HW1 4541   1.146   2.889   5.051
 1214SOL    HW2 4542   1.075   2.742   5.046
 1215SOL     OW 4543   1.822   5.426   2.838
 1215SOL    HW1 4544   1.880   5.354   2.801
 1215SOL    HW2 4545   1.766   5.388   2.912
 1216SOL     OW 4546   6.981   0.359   0.780
 1216SOL    HW1 4547   6.941   0.313   0.859
 1216SOL    HW2 4548   6.911   0.415   0.735
 1217SOL     OW 4549   2.868   5.616   1.166
 1217SOL    HW1 4550   2.926   5.611   1.084
 1217SOL    HW2 4551   2.892   5.542   1.229
 1218SOL     OW 4552   0.528   3.648   4.661
 1218SOL    HW1 4553   0.524   3.548   4.666
 1218SOL    HW2 4554   0.611   3.676   4.612
 1219SOL     OW 4555   4.748   5.233   1.702
 1219SOL    HW1 4556   4.833   5.252   1.654
 1219SOL    HW2 4557   4.729   5.134   1.699
 1220SOL     OW 4558   5.675   4.189   3.177
 1220SOL    HW1 4559   5.653   4.287   3.185
 1220SOL    HW2 4560   5.773   4.178   3.161
 1221SOL     OW 4561   6.080   3.650   6.212
 1221SOL    HW1 4562   5.995   3.621   6.258
 1221SOL    HW2 4563   6.157   3.597   6.248
 1222SOL     OW 4564   6.889   0.325   0.240
 1222SOL    HW1 4565   6.847   0.262   0.305
 1222SOL    HW2 4566   6.817   0.370   0.187
 1223SOL     OW 4567   4.751   0.989   0.631
 1223SOL    HW1 4568   4.727   1.083   0.610
 1223SOL    HW2 4569   4.805   0.986   0.715
 1224SOL     OW 4570   3.041   6.012   0.265
 1224SOL    HW1 4571   2.945   5.995   0.241
 1224SOL    HW2 4572   3.085   5.925   0.286
 1225SOL     OW 4573   4.068   2.429   0.808
 1225SOL    HW1 4574   4.128   2.499   0.768
 1225SOL    HW2 4575   4.055   2.355   0.743
 1226SOL     OW 4576   5.157   6.046   0.540
 1226SOL    HW1 4577   5.111   6.044   0.629
 1226SOL    HW2 4578   5.206   6.132   0.529
 1227SOL     OW 4579   6.012   5.104   6.729
 1227SOL    HW1 4580   5.949   5.132   6.657
 1227SOL    HW2 4581   6.104   5.096   6.691
 1228SOL     OW 4582   4.221   3.019   0.668
 1228SOL    HW1 4583   4.127   3.045   0.648
 1228SOL    HW2 4584   4.222   2.954   0.744
 1229SOL     OW 4585   1.886   5.705   1.208
 1229SOL    HW1 4586   1.903   5.628   1.270
 1229SOL    HW2 4587   1.946   5.782   1.234
 1230SOL     OW 4588   5.544   5.675   2.345
 1230SOL    HW1 4589   5.636   5.642   2.328
 1230SOL    HW2 4590   5.487   5.600   2.379
 1231SOL     OW 4591   1.153   1.992   6.130
 1231SOL    HW1 4592   1.199   1.903   6.126
 1231SOL    HW2 4593   1.057   1.979   6.153
 1232SOL     OW 4594   4.917   0.702   5.134
 1232SOL    HW1 4595   5.000   0.701   5.079
 1232SOL    HW2 4596   4.905   0.793   5.174
 1233SOL     OW 4597   0.910   5.378   3.639
 1233SOL    HW1 4598   0.923   5.474   3.661
 1233SOL    HW2 4599   0.859   5.370   3.554
 1234SOL     OW 4600   6.692   2.801   5.834
 1234SOL    HW1 4601   6.595   2.821   5.821
 1234SOL    HW2 4602   6.706   2.766   5.927
 1235SOL     OW 4603   6.318   4.331   1.017
 1235SOL    HW1 4604   6.340   4.332   0.920
 1235SOL    HW2 4605   6.378   4.267   1.065
 1236SOL     OW 4606   4.210   1.397   1.894
 1236SOL    HW1 4607   4.134   1.460   1.908
 1236SOL    HW2 4608   4.243   1.364   1.983
 1237SOL     OW 4609   1.436   5.763   4.819
 1237SOL    HW1 4610   1.411   5.839   4.760
 1237SOL    HW2 4611   1.534   5.767   4.840
 1238SOL     OW 4612   0.812   0.113   4.496
 1238SOL    HW1 4613   0.802   0.212   4.495
 1238SOL    HW2 4614   0.803   0.079   4.590
 1239SOL     OW 4615   6.562   6.482   5.621
 1239SOL    HW1 4616   6.493   6.548   5.590
 1239SOL    HW2 4617   6.604   6.438   5.542
 1240SOL     OW 4618   6.015   4.569   2.640
 1240SOL    HW1 4619   5.939   4.631   2.659
 1240SOL    HW2 4620   5.979   4.479   2.617
 1241SOL     OW 4621   6.311   4.574   4.899
 1241SOL    HW1 4622   6.302   4.673   4.890
 1241SOL    HW2 4623   6.405   4.547   4.877
 1242SOL     OW 4624   2.012   3.196   0.536
 1242SOL    HW1 4625   2.108   3.190   0.563
 1242SOL    HW2 4626   1.980   3.290   0.548
 1243SOL     OW 4627   0.518   0.850   4.347
 1243SOL    HW1 4628   0.434   0.801   4.370
 1243SOL    HW2 4629   0.575   0.794   4.288
 1244SOL     OW 4630   5.085   6.431   5.547
 1244SOL    HW1 4631   5.091   6.522   5.588
 1244SOL    HW2 4632   5.132   6.431   5.459
 1245SOL     OW 4633   5.659   5.355   0.512
 1245SOL    HW1 4634   5.695   5.331   0.602
 1245SOL    HW2 4635   5.633   5.452   0.511
 1246SOL     OW 4636   3.386   1.420   2.477
 1246SOL    HW1 4637   3.292   1.395   2.453
 1246SOL    HW2 4638   3.407   1.510   2.440
 1247SOL     OW 4639   5.567   6.536   5.281
 1247SOL    HW1 4640   5.659   6.497   5.282
 1247SOL    HW2 4641   5.573   6.636   5.269
 1248SOL     OW 4642   1.556   6.819   3.700
 1248SOL    HW1 4643   1.593   6.884   3.633
 1248SOL    HW2 4644   1.553   6.728   3.658
 1249SOL     OW 4645   0.294   3.359   1.851
 1249SOL    HW1 4646   0.388   3.326   1.852
 1249SOL    HW2 4647   0.293   3.458   1.848
 1250SOL     OW 4648   6.121   3.863   4.147
 1250SOL    HW1 4649   6.062   3.938   4.117
 1250SOL    HW2 4650   6.176   3.830   4.071
 1251SOL     OW 4651   2.338   0.799   2.622
 1251SOL    HW1 4652   2.344   0.896   2.643
 1251SOL    HW2 4653   2.413   0.750   2.667
 1252SOL     OW 4654   3.699   4.970   0.051
 1252SOL    HW1 4655   3.783   4.922   0.025
 1252SOL    HW2 4656   3.624   4.941   7.011
 1253SOL     OW 4657   2.526   0.130   1.610
 1253SOL    HW1 4658   2.482   0.200   1.554
 1253SOL    HW2 4659   2.620   0.157   1.630
 1254SOL     OW 4660   6.785   3.051   3.065
 1254SOL    HW1 4661   6.707   3.088   3.117
 1254SOL    HW2 4662   6.853   3.123   3.052
 1255SOL     OW 4663   5.619   2.588   6.135
 1255SOL    HW1 4664   5.584   2.508   6.086
 1255SOL    HW2 4665   5.595   2.671   6.085
 1256SOL     OW 4666   0.593   6.462   3.907
 1256SOL    HW1 4667   0.561   6.448   4.000
 1256SOL    HW2 4668   0.577   6.557   3.880
 1257SOL     OW 4669   0.442   5.181   4.574
 1257SOL    HW1 4670   0.388   5.231   4.506
 1257SOL    HW2 4671   0.390   5.103   4.607
 1258SOL     OW 4672   1.961   5.747   2.662
 1258SOL    HW1 4673   1.877   5.696   2.644
 1258SOL    HW2 4674   1.996   5.722   2.752
 1259SOL     OW 4675   3.344   6.269   5.377
 1259SOL    HW1 4676   3.348   6.367   5.395
 1259SOL    HW2 4677   3.339   6.253   5.278
 1260SOL     OW 4678   3.077   1.199   1.389
 1260SOL    HW1 4679   3.037   1.259   1.320
 1260SOL    HW2 4680   3.109   1.115   1.345
 1261SOL     OW 4681   0.485   4.266   0.001
 1261SOL    HW1 4682   0.547   4.189   7.006
 1261SOL    HW2 4683   0.537   4.352   7.012
 1262SOL     OW 4684   5.166   6.035   1.515
 1262SOL    HW1 4685   5.157   5.982   1.431
 1262SOL    HW2 4686   5.109   6.117   1.509
 1263SOL     OW 4687   6.411   1.334   0.590
 1263SOL    HW1 4688   6.396   1.387   0.507
 1263SOL    HW2 4689   6.330   1.278   0.609
 1264SOL     OW 4690   0.685   3.779   1.681
 1264SOL    HW1 4691   0.775   3.800   1.643
 1264SOL    HW2 4692   0.694   3.711   1.753
 1265SOL     OW 4693   6.678   4.925   3.680
 1265SOL    HW1 4694   6.728   4.839   3.692
 1265SOL    HW2 4695   6.719   4.978   3.606
 1266SOL     OW 4696   2.094   1.089   3.872
 1266SOL    HW1 4697   2.112   1.063   3.777
 1266SOL    HW2 4698   2.001   1.125   3.879
 1267SOL     OW 4699   5.575   6.284   0.921
 1267SOL    HW1 4700   5.534   6.350   0.985
 1267SOL    HW2 4701   5.639   6.225   0.971
 1268SOL     OW 4702   4.561   2.482   6.823
 1268SOL    HW1 4703   4.620   2.459   6.747
 1268SOL    HW2 4704   4.465   2.483   6.792
 1269SOL     OW 4705   6.310   6.352   5.392
 1269SOL    HW1 4706   6.259   6.366   5.306
 1269SOL    HW2 4707   6.359   6.265   5.387
 1270SOL     OW 4708   2.136   3.418   4.750
 1270SOL    HW1 4709   2.220   3.451   4.793
 1270SOL    HW2 4710   2.130   3.454   4.657
 1271SOL     OW 4711   3.407   2.089   3.505
 1271SOL    HW1 4712   3.349   2.048   3.574
 1271SOL    HW2 4713   3.351   2.124   3.430
 1272SOL     OW 4714   6.387   5.888   0.709
 1272SOL    HW1 4715   6.477   5.893   0.753
 1272SOL    HW2 4716   6.381   5.805   0.655
 1273SOL     OW 4717   1.490   4.517   6.979
 1273SOL    HW1 4718   1.396   4.498   7.007
 1273SOL    HW2 4719   1.551   4.507   0.038
 1274SOL     OW 4720   6.203   3.215   1.664
 1274SOL    HW1 4721   6.219   3.269   1.582
 1274SOL    HW2 4722   6.165   3.273   1.736
 1275SOL     OW 4723   3.681   0.077   3.607
 1275SOL    HW1 4724   3.592   0.062   3.649
 1275SOL    HW2 4725   3.747   0.012   3.645
 1276SOL     OW 4726   0.192   1.136   4.072
 1276SOL    HW1 4727   0.158   1.085   3.993
 1276SOL    HW2 4728   0.148   1.103   4.155
 1277SOL     OW 4729   0.437   0.109   5.191
 1277SOL    HW1 4730   0.345   0.106   5.231
 1277SOL    HW2 4731   0.494   0.037   5.231
 1278SOL     OW 4732   1.255   0.996   5.119
 1278SOL    HW1 4733   1.348   0.962   5.116
 1278SOL    HW2 4734   1.198   0.935   5.174
 1279SOL     OW 4735   3.228   5.611   0.053
 1279SOL    HW1 4736   3.309   5.629   0.109
 1279SOL    HW2 4737   3.147   5.642   0.102
 1280SOL     OW 4738   3.302   6.332   3.933
 1280SOL    HW1 4739   3.270   6.257   3.990
 1280SOL    HW2 4740   3.241   6.344   3.855
 1281SOL     OW 4741   0.836   5.723   2.764
 1281SOL    HW1 4742   0.809   5.801   2.708
 1281SOL    HW2 4743   0.849   5.751   2.859
 1282SOL     OW 4744   0.219   0.811   6.733
 1282SOL    HW1 4745   0.131   0.778   6.699
 1282SOL    HW2 4746   0.293   0.775   6.677
 1283SOL     OW 4747   5.231   2.732   5.028
 1283SOL    HW1 4748   5.267   2.700   4.940
 1283SOL    HW2 4749   5.274   2.681   5.102
 1284SOL     OW 4750   4.208   2.789   1.590
 1284SOL    HW1 4751   4.170   2.832   1.508
 1284SOL    HW2 4752   4.207   2.689   1.578
 1285SOL     OW 4753   4.991   3.254   6.115
 1285SOL    HW1 4754   5.010   3.340   6.066
 1285SOL    HW2 4755   4.900   3.221   6.090
 1286SOL     OW 4756   4.987   4.368   3.157
 1286SOL    HW1 4757   4.890   4.369   3.131
 1286SOL    HW2 4758   4.997   4.322   3.246
 1287SOL     OW 4759   4.928   3.815   5.479
 1287SOL    HW1 4760   4.968   3.768   5.400
 1287SOL    HW2 4761   4.829   3.801   5.480
 1288SOL     OW 4762   6.017   3.703   0.898
 1288SOL    HW1 4763   6.068   3.789   0.885
 1288SOL    HW2 4764   6.022   3.649   0.814
 1289SOL     OW 4765   0.173   6.299   1.814
 1289SOL    HW1 4766   0.267   6.300   1.848
 1289SOL    HW2 4767   0.125   6.219   1.851
 1290SOL     OW 4768   1.162   6.977   0.375
 1290SOL    HW1 4769   1.105   0.011   0.313
 1290SOL    HW2 4770   1.241   0.013   0.403
 1291SOL     OW 4771   0.233   3.062   5.858
 1291SOL    HW1 4772   0.244   3.130   5.785
 1291SOL    HW2 4773   0.322   3.035   5.893
 1292SOL     OW 4774   5.983   5.653   2.906
 1292SOL    HW1 4775   6.041   5.709   2.966
 1292SOL    HW2 4776   6.035   5.625   2.825
 1293SOL     OW 4777   1.634   1.205   6.392
 1293SOL    HW1 4778   1.733   1.221   6.392
 1293SOL    HW2 4779   1.594   1.251   6.471
 1294SOL     OW 4780   1.262   3.248   0.257
 1294SOL    HW1 4781   1.248   3.346   0.265
 1294SOL    HW2 4782   1.281   3.209   0.347
 1295SOL     OW 4783   6.722   3.866   2.895
 1295SOL    HW1 4784   6.811   3.823   2.878
 1295SOL    HW2 4785   6.702   3.931   2.822
 1296SOL     OW 4786   3.660   0.439   5.820
 1296SOL    HW1 4787   3.624   0.453   5.912
 1296SOL    HW2 4788   3.603   0.373   5.771
 1297SOL     OW 4789   5.963   0.748   6.586
 1297SOL    HW1 4790   5.997   0.661   6.551
 1297SOL    HW2 4791   5.870   0.735   6.622
 1298SOL     OW 4792   6.488   4.406   3.685
 1298SOL    HW1 4793   6.484   4.503   3.710
 1298SOL    HW2 4794   6.501   4.397   3.587
 1299SOL     OW 4795   0.280   3.785   3.022
 1299SOL    HW1 4796   0.238   3.831   3.101
 1299SOL    HW2 4797   0.226   3.804   2.941
 1300SOL     OW 4798   3.331   3.978   1.756
 1300SOL    HW1 4799   3.319   3.899   1.816
 1300SOL    HW2 4800   3.387   4.047   1.803
 1301SOL     OW 4801   0.443   5.839   1.902
 1301SOL    HW1 4802   0.451   5.793   1.991
 1301SOL    HW2 4803   0.534   5.863   1.869
 1302SOL     OW 4804   3.087   0.019   5.277
 1302SOL    HW1 4805   3.078   0.095   5.341
 1302SOL    HW2 4806   3.182   0.015   5.243
 1303SOL     OW 4807   4.755   1.571   1.246
 1303SOL    HW1 4808   4.686   1.507   1.278
 1303SOL    HW2 4809   4.794   1.539   1.160
 1304SOL     OW 4810   1.189   1.271   6.746
 1304SOL    HW1 4811   1.172   1.369   6.729
 1304SOL    HW2 4812   1.246   1.234   6.673
 1305SOL     OW 4813   5.384   4.020   0.218
 1305SOL    HW1 4814   5.302   4.077   0.219
 1305SOL    HW2 4815   5.359   3.925   0.199
 1306SOL     OW 4816   0.872   4.381   5.675
 1306SOL    HW1 4817   0.816   4.399   5.594
 1306SOL    HW2 4818   0.967   4.370   5.647
 1307SOL     OW 4819   1.731   2.755   4.530
 1307SOL    HW1 4820   1.657   2.777   4.594
 1307SOL    HW2 4821   1.695   2.696   4.458
 1308SOL     OW 4822   4.382   5.315   4.468
 1308SOL    HW1 4823   4.363   5.368   4.551
 1308SOL    HW2 4824   4.445   5.241   4.490
 1309SOL     OW 4825   5.422   3.540   5.664
 1309SOL    HW1 4826   5.477   3.622   5.648
 1309SOL    HW2 4827   5.472   3.460   5.632
 1310SOL     OW 4828   0.284   3.995   4.916
 1310SOL    HW1 4829   0.341   3.912   4.917
 1310SOL    HW2 4830   0.293   4.040   4.827
 1311SOL     OW 4831   6.903   0.074   3.564
 1311SOL    HW1 4832   6.969   0.143   3.595
 1311SOL    HW2 4833   6.846   0.045   3.641
 1312SOL     OW 4834   0.989   0.309   6.410
 1312SOL    HW1 4835   1.065   0.320   6.474
 1312SOL    HW2 4836   0.976   0.212   6.391
 1313SOL     OW 4837   1.321   5.017   4.690
 1313SOL    HW1 4838   1.283   5.077   4.619
 1313SOL    HW2 4839   1.418   5.038   4.703
 1314SOL     OW 4840   3.054   1.808   5.872
 1314SOL    HW1 4841   3.132   1.768   5.919
 1314SOL    HW2 4842   3.078   1.824   5.776
 1315SOL     OW 4843   0.047   0.843   0.373
 1315SOL    HW1 4844   0.097   0.757   0.362
 1315SOL    HW2 4845   6.975   0.823   0.407
 1316SOL     OW 4846   2.481   6.329   4.195
 1316SOL    HW1 4847   2.509   6.246   4.147
 1316SOL    HW2 4848   2.384   6.324   4.216
 1317SOL     OW 4849   0.572   4.067   4.499
 1317SOL    HW1 4850   0.487   4.065   4.447
 1317SOL    HW2 4851   0.634   4.135   4.460
 1318SOL     OW 4852   6.967   0.639   0.650
 1318SOL    HW1 4853   0.023   0.642   0.584
 1318SOL    HW2 4854   6.894   0.582   0.614
 1319SOL     OW 4855   6.642   0.488   0.359
 1319SOL    HW1 4856   6.564   0.551   0.367
 1319SOL    HW2 4857   6.649   0.457   0.264
 1320SOL     OW 4858   5.898   3.747   0.300
 1320SOL    HW1 4859   5.974   3.761   0.236
 1320SOL    HW2 4860   5.811   3.762   0.253
 1321SOL     OW 4861   4.255   2.318   6.189
 1321SOL    HW1 4862   4.181   2.380   6.164
 1321SOL    HW2 4863   4.266   2.317   6.288
 1322SOL     OW 4864   4.785   0.486   3.771
 1322SOL    HW1 4865   4.806   0.474   3.674
 1322SOL    HW2 4866   4.709   0.551   3.781
 1323SOL     OW 4867   5.528   1.741   5.279
 1323SOL    HW1 4868   5.554   1.685   5.200
 1323SOL    HW2 4869   5.459   1.693   5.333
 1324SOL     OW 4870   0.821   2.543   1.088
 1324SOL    HW1 4871   0.748   2.560   1.021
 1324SOL    HW2 4872   0.815   2.449   1.120
 1325SOL     OW 4873   1.647   6.677   1.956
 1325SOL    HW1 4874   1.700   6.682   2.040
 1325SOL    HW2 4875   1.608   6.586   1.946
 1326SOL     OW 4876   5.076   2.799   4.636
 1326SOL    HW1 4877   5.084   2.839   4.544
 1326SOL    HW2 4878   5.077   2.871   4.704
 1327SOL     OW 4879   2.805   5.130   2.099
 1327SOL    HW1 4880   2.727   5.112   2.038
 1327SOL    HW2 4881   2.818   5.229   2.108
 1328SOL     OW 4882   1.589   2.559   0.662
 1328SOL    HW1 4883   1.625   2.517   0.578
 1328SOL    HW2 4884   1.578   2.489   0.732
 1329SOL     OW 4885   0.690   2.063   0.742
 1329SOL    HW1 4886   0.604   2.029   0.780
 1329SOL    HW2 4887   0.686   2.060   0.642
 1330SOL     OW 4888   6.660   1.053   1.370
 1330SOL    HW1 4889   6.604   1.124   1.414
 1330SOL    HW2 4890   6.660   1.066   1.271
 1331SOL     OW 4891   4.825   2.256   3.551
 1331SOL    HW1 4892   4.813   2.248   3.452
 1331SOL    HW2 4893   4.735   2.250   3.596
 1332SOL     OW 4894   3.590   7.017   0.265
 1332SOL    HW1 4895   3.592   6.919   0.247
 1332SOL    HW2 4896   3.624   0.047   0.185
 1333SOL     OW 4897   3.641   3.766   6.573
 1333SOL    HW1 4898   3.603   3.731   6.488
 1333SOL    HW2 4899   3.696   3.694   6.617
 1334SOL     OW 4900   6.853   2.548   4.934
 1334SOL    HW1 4901   6.929   2.569   4.872
 1334SOL    HW2 4902   6.879   2.474   4.995
 1335SOL     OW 4903   2.819   0.356   2.814
 1335SOL    HW1 4904   2.721   0.378   2.818
 1335SOL    HW2 4905   2.832   0.268   2.769
 1336SOL     OW 4906   1.910   1.341   6.394
 1336SOL    HW1 4907   1.919   1.303   6.486
 1336SOL    HW2 4908   1.850   1.421   6.396
 1337SOL     OW 4909   1.270   1.360   4.824
 1337SOL    HW1 4910   1.339   1.343   4.894
 1337SOL    HW2 4911   1.190   1.404   4.864
 1338SOL     OW 4912   4.462   2.865   6.272
 1338SOL    HW1 4913   4.426   2.933   6.208
 1338SOL    HW2 4914   4.549   2.830   6.237
 1339SOL     OW 4915   1.058   0.115   0.180
 1339SOL    HW1 4916   1.095   0.206   0.160
 1339SOL    HW2 4917   1.121   0.045   0.146
 1340SOL     OW 4918   1.011   1.380   1.670
 1340SOL    HW1 4919   0.962   1.342   1.592
 1340SOL    HW2 4920   1.023   1.309   1.739
 1341SOL     OW 4921   4.596   0.750   5.520
 1341SOL    HW1 4922   4.518   0.794   5.564
 1341SOL    HW2 4923   4.579   0.652   5.513
 1342SOL     OW 4924   1.617   4.805   6.195
 1342SOL    HW1 4925   1.617   4.719   6.143
 1342SOL    HW2 4926   1.656   4.877   6.138
 1343SOL     OW 4927   4.276   5.758   2.695
 1343SOL    HW1 4928   4.197   5.796   2.646
 1343SOL    HW2 4929   4.282   5.800   2.786
 1344SOL     OW 4930   6.522   4.274   3.925
 1344SOL    HW1 4931   6.548   4.313   3.837
 1344SOL    HW2 4932   6.523   4.346   3.995
 1345SOL     OW 4933   1.614   1.787   3.508
 1345SOL    HW1 4934   1.626   1.823   3.416
 1345SOL    HW2 4935   1.703   1.763   3.547
 1346SOL     OW 4936   1.385   0.110   3.203
 1346SOL    HW1 4937   1.475   0.125   3.243
 1346SOL    HW2 4938   1.349   0.021   3.231
 1347SOL     OW 4939   6.030   6.692   4.284
 1347SOL    HW1 4940   5.990   6.668   4.196
 1347SOL    HW2 4941   6.041   6.610   4.340
 1348SOL     OW 4942   5.253   5.320   3.062
 1348SOL    HW1 4943   5.347   5.344   3.035
 1348SOL    HW2 4944   5.252   5.294   3.158
 1349SOL     OW 4945   4.853   2.436   6.025
 1349SOL    HW1 4946   4.872   2.503   6.096
 1349SOL    HW2 4947   4.911   2.355   6.039
 1350SOL     OW 4948   4.355   4.483   6.451
 1350SOL    HW1 4949   4.413   4.469   6.531
 1350SOL    HW2 4950   4.294   4.560   6.468
 1351SOL     OW 4951   6.672   2.373   3.364
 1351SOL    HW1 4952   6.634   2.351   3.453
 1351SOL    HW2 4953   6.604   2.421   3.309
 1352SOL     OW 4954   0.181   0.832   3.570
 1352SOL    HW1 4955   0.170   0.764   3.498
 1352SOL    HW2 4956   0.157   0.922   3.534
 1353SOL     OW 4957   5.903   3.970   5.739
 1353SOL    HW1 4958   5.839   4.027   5.791
 1353SOL    HW2 4959   5.884   3.978   5.641
 1354SOL     OW 4960   0.239   1.686   0.276
 1354SOL    HW1 4961   0.159   1.628   0.292
 1354SOL    HW2 4962   0.219   1.750   0.202
 1355SOL     OW 4963   5.972   2.497   5.702
 1355SOL    HW1 4964   6.027   2.437   5.761
 1355SOL    HW2 4965   5.976   2.590   5.737
 1356SOL     OW 4966   3.092   3.212   3.722
 1356SOL    HW1 4967   3.175   3.259   3.751
 1356SOL    HW2 4968   3.031   3.277   3.677
 1357SOL     OW 4969   1.367   4.779   5.777
 1357SOL    HW1 4970   1.296   4.809   5.841
 1357SOL    HW2 4971   1.406   4.859   5.732
 1358SOL     OW 4972   3.650   1.416   5.633
 1358SOL    HW1 4973   3.729   1.363   5.664
 1358SOL    HW2 4974   3.630   1.394   5.538
 1359SOL     OW 4975   0.240   4.427   1.316
 1359SOL    HW1 4976   0.297   4.503   1.283
 1359SOL    HW2 4977   0.299   4.350   1.341
 1360SOL     OW 4978   4.050   3.779   1.917
 1360SOL    HW1 4979   4.040   3.812   2.011
 1360SOL    HW2 4980   4.114   3.838   1.867
 1361SOL     OW 4981   7.001   6.031   5.478
 1361SOL    HW1 4982   0.016   5.993   5.564
 1361SOL    HW2 4983   0.035   5.996   5.401
 1362SOL     OW 4984   3.149   4.002   3.825
 1362SOL    HW1 4985   3.237   4.008   3.873
 1362SOL    HW2 4986   3.092   3.933   3.870
 1363SOL     OW 4987   6.075   6.102   3.199
 1363SOL    HW1 4988   6.151   6.039   3.183
 1363SOL    HW2 4989   6.102   6.171   3.266
 1364SOL     OW 4990   0.331   2.221   0.231
 1364SOL    HW1 4991   0.324   2.216   0.330
 1364SOL    HW2 4992   0.420   2.260   0.206
 1365SOL     OW 4993   0.640   3.209   5.812
 1365SOL    HW1 4994   0.680   3.117   5.807
 1365SOL    HW2 4995   0.622   3.242   5.719
 1366SOL     OW 4996   0.563   3.726   0.498
 1366SOL    HW1 4997   0.542   3.823   0.499
 1366SOL    HW2 4998   0.630   3.705   0.570
 1367SOL     OW 4999   1.380   5.788   2.794
 1367SOL    HW1 5000   1.313   5.797   2.868
 1367SOL    HW2 5001   1.403   5.692   2.781
 1368SOL     OW 5002   6.719   0.302   3.756
 1368SOL    HW1 5003   6.805   0.353   3.752
 1368SOL    HW2 5004   6.736   0.211   3.795
 1369SOL     OW 5005   1.931   6.926   2.651
 1369SOL    HW1 5006   2.004   6.981   2.609
 1369SOL    HW2 5007   1.954   6.829   2.643
 1370SOL     OW 5008   5.483   1.737   4.179
 1370SOL    HW1 5009   5.410   1.805   4.172
 1370SOL    HW2 5010   5.501   1.717   4.275
 1371SOL     OW 5011   5.381   1.030   4.635
 1371SOL    HW1 5012   5.288   1.014   4.602
 1371SOL    HW2 5013   5.406   0.960   4.701
 1372SOL     OW 5014   1.217   1.880   0.765
 1372SOL    HW1 5015   1.208   1.898   0.863
 1372SOL    HW2 5016   1.128   1.852   0.728
 1373SOL     OW 5017   4.619   2.198   0.041
 1373SOL    HW1 5018   4.686   2.161   6.997
 1373SOL    HW2 5019   4.666   2.253   0.110
 1374SOL     OW 5020   4.233   2.744   0.454
 1374SOL    HW1 5021   4.174   2.776   0.528
 1374SOL    HW2 5022   4.233   2.811   0.379
 1375SOL     OW 5023   0.247   6.934   6.400
 1375SOL    HW1 5024   0.340   6.907   6.375
 1375SOL    HW2 5025   0.212   6.874   6.471
 1376SOL     OW 5026   4.023   4.917   5.012
 1376SOL    HW1 5027   4.088   4.851   5.050
 1376SOL    HW2 5028   4.028   5.002   5.063
 1377SOL     OW 5029   1.153   3.924   3.533
 1377SOL    HW1 5030   1.166   3.957   3.440
 1377SOL    HW2 5031   1.057   3.933   3.559
 1378SOL     OW 5032   5.620   2.647   5.520
 1378SOL    HW1 5033   5.684   2.587   5.568
 1378SOL    HW2 5034   5.613   2.618   5.424
 1379SOL     OW 5035   4.153   5.892   3.147
 1379SOL    HW1 5036   4.059   5.896   3.180
 1379SOL    HW2 5037   4.208   5.961   3.194
 1380SOL     OW 5038   0.572   6.420   3.294
 1380SOL    HW1 5039   0.562   6.456   3.386
 1380SOL    HW2 5040   0.488   6.373   3.267
 1381SOL     OW 5041   5.820   1.711   0.084
 1381SOL    HW1 5042   5.857   1.698   7.012
 1381SOL    HW2 5043   5.757   1.789   0.084
 1382SOL     OW 5044   5.413   3.264   1.514
 1382SOL    HW1 5045   5.345   3.200   1.477
 1382SOL    HW2 5046   5.409   3.261   1.614
 1383SOL     OW 5047   1.285   0.270   1.758
 1383SOL    HW1 5048   1.371   0.314   1.733
 1383SOL    HW2 5049   1.269   0.191   1.699
 1384SOL     OW 5050   4.473   0.681   1.797
 1384SOL    HW1 5051   4.456   0.612   1.727
 1384SOL    HW2 5052   4.513   0.639   1.877
 1385SOL     OW 5053   2.744   4.743   3.645
 1385SOL    HW1 5054   2.838   4.771   3.661
 1385SOL    HW2 5055   2.695   4.739   3.733
 1386SOL     OW 5056   2.845   1.576   3.807
 1386SOL    HW1 5057   2.774   1.573   3.877
 1386SOL    HW2 5058   2.906   1.497   3.818
 1387SOL     OW 5059   3.784   5.329   2.575
 1387SOL    HW1 5060   3.840   5.408   2.601
 1387SOL    HW2 5061   3.824   5.284   2.496
 1388SOL     OW 5062   6.686   0.162   3.046
 1388SOL    HW1 5063   6.620   0.224   3.002
 1388SOL    HW2 5064   6.738   0.115   2.975
 1389SOL     OW 5065   6.689   1.104   3.898
 1389SOL    HW1 5066   6.665   1.154   3.981
 1389SOL    HW2 5067   6.606   1.083   3.846
 1390SOL     OW 5068   0.109   3.211   6.688
 1390SOL    HW1 5069   0.119   3.197   6.590
 1390SOL    HW2 5070   0.067   3.130   6.729
 1391SOL     OW 5071   6.379   6.355   4.847
 1391SOL    HW1 5072   6.285   6.360   4.813
 1391SOL    HW2 5073   6.381   6.299   4.929
 1392SOL     OW 5074   5.322   6.061   5.773
 1392SOL    HW1 5075   5.416   6.064   5.808
 1392SOL    HW2 5076   5.308   6.134   5.707
 1393SOL     OW 5077   6.383   4.548   5.984
 1393SOL    HW1 5078   6.432   4.568   6.070
 1393SOL    HW2 5079   6.430   4.474   5.935
 1394SOL     OW 5080   3.304   5.459   5.453
 1394SOL    HW1 5081   3.281   5.543   5.502
 1394SOL    HW2 5082   3.403   5.448   5.452
 1395SOL     OW 5083   2.369   4.790   5.218
 1395SOL    HW1 5084   2.343   4.700   5.251
 1395SOL    HW2 5085   2.441   4.781   5.149
 1396SOL     OW 5086   0.841   1.375   5.220
 1396SOL    HW1 5087   0.930   1.418   5.234
 1396SOL    HW2 5088   0.854   1.280   5.193
 1397SOL     OW 5089   0.674   0.110   4.003
 1397SOL    HW1 5090   0.651   0.013   3.999
 1397SOL    HW2 5091   0.759   0.123   4.053
 1398SOL     OW 5092   3.280   0.580   6.631
 1398SOL    HW1 5093   3.214   0.536   6.692
 1398SOL    HW2 5094   3.326   0.510   6.576
 1399SOL     OW 5095   3.911   5.459   0.844
 1399SOL    HW1 5096   3.873   5.410   0.922
 1399SOL    HW2 5097   3.944   5.394   0.776
 1400SOL     OW 5098   6.802   1.754   4.155
 1400SOL    HW1 5099   6.732   1.824   4.136
 1400SOL    HW2 5100   6.843   1.771   4.244
 1401SOL     OW 5101   6.252   0.963   4.471
 1401SOL    HW1 5102   6.234   1.060   4.456
 1401SOL    HW2 5103   6.334   0.952   4.527
 1402SOL     OW 5104   6.292   3.512   6.426
 1402SOL    HW1 5105   6.285   3.611   6.434
 1402SOL    HW2 5106   6.353   3.489   6.350
 1403SOL     OW 5107   2.546   2.194   1.694
 1403SOL    HW1 5108   2.586   2.259   1.759
 1403SOL    HW2 5109   2.530   2.239   1.607
 1404SOL     OW 5110   6.588   6.621   0.417
 1404SOL    HW1 5111   6.570   6.716   0.440
 1404SOL    HW2 5112   6.556   6.562   0.492
 1405SOL     OW 5113   2.282   3.152   0.589
 1405SOL    HW1 5114   2.344   3.228   0.569
 1405SOL    HW2 5115   2.324   3.066   0.558
 1406SOL     OW 5116   0.632   4.951   0.657
 1406SOL    HW1 5117   0.706   4.943   0.591
 1406SOL    HW2 5118   0.581   4.865   0.661
 1407SOL     OW 5119   0.549   3.397   2.604
 1407SOL    HW1 5120   0.603   3.477   2.580
 1407SOL    HW2 5121   0.453   3.413   2.578
 1408SOL     OW 5122   5.548   0.825   5.436
 1408SOL    HW1 5123   5.599   0.743   5.462
 1408SOL    HW2 5124   5.601   0.876   5.368
 1409SOL     OW 5125   6.825   0.272   4.840
 1409SOL    HW1 5126   6.834   0.190   4.898
 1409SOL    HW2 5127   6.804   0.351   4.898
 1410SOL     OW 5128   1.508   4.112   6.181
 1410SOL    HW1 5129   1.605   4.126   6.161
 1410SOL    HW2 5130   1.459   4.199   6.171
 1411SOL     OW 5131   4.045   6.721   0.907
 1411SOL    HW1 5132   4.144   6.739   0.910
 1411SOL    HW2 5133   3.997   6.787   0.965
 1412SOL     OW 5134   1.491   2.071   0.568
 1412SOL    HW1 5135   1.545   1.990   0.593
 1412SOL    HW2 5136   1.460   2.117   0.651
 1413SOL     OW 5137   1.705   2.269   5.487
 1413SOL    HW1 5138   1.686   2.227   5.576
 1413SOL    HW2 5139   1.793   2.238   5.453
 1414SOL     OW 5140   2.973   0.793   1.810
 1414SOL    HW1 5141   2.979   0.756   1.718
 1414SOL    HW2 5142   3.006   0.888   1.810
 1415SOL     OW 5143   2.126   1.162   4.361
 1415SOL    HW1 5144   2.219   1.197   4.375
 1415SOL    HW2 5145   2.070   1.186   4.441
 1416SOL     OW 5146   5.001   5.134   4.354
 1416SOL    HW1 5147   4.989   5.092   4.264
 1416SOL    HW2 5148   4.959   5.076   4.424
 1417SOL     OW 5149   3.008   2.298   0.364
 1417SOL    HW1 5150   3.098   2.253   0.364
 1417SOL    HW2 5151   2.996   2.347   0.450
 1418SOL     OW 5152   3.297   4.093   2.893
 1418SOL    HW1 5153   3.323   4.126   2.803
 1418SOL    HW2 5154   3.257   4.001   2.885
 1419SOL     OW 5155   2.974   5.332   3.743
 1419SOL    HW1 5156   3.034   5.405   3.711
 1419SOL    HW2 5157   3.019   5.282   3.817
 1420SOL     OW 5158   2.225   6.844   1.834
 1420SOL    HW1 5159   2.192   6.935   1.809
 1420SOL    HW2 5160   2.149   6.779   1.834
 1421SOL     OW 5161   2.369   5.189   3.265
 1421SOL    HW1 5162   2.377   5.106   3.321
 1421SOL    HW2 5163   2.289   5.182   3.206
 1422SOL     OW 5164   1.171   3.717   0.101
 1422SOL    HW1 5165   1.075   3.732   0.126
 1422SOL    HW2 5166   1.184   3.741   0.005
 1423SOL     OW 5167   5.680   6.277   4.134
 1423SOL    HW1 5168   5.749   6.288   4.206
 1423SOL    HW2 5169   5.674   6.180   4.109
 1424SOL     OW 5170   6.812   4.897   6.125
 1424SOL    HW1 5171   6.891   4.928   6.071
 1424SOL    HW2 5172   6.796   4.961   6.200
 1425SOL     OW 5173   1.914   5.555   5.206
 1425SOL    HW1 5174   1.956   5.528   5.120
 1425SOL    HW2 5175   1.835   5.497   5.225
 1426SOL     OW 5176   2.274   3.952   6.369
 1426SOL    HW1 5177   2.373   3.959   6.384
 1426SOL    HW2 5178   2.235   4.043   6.356
 1427SOL     OW 5179   0.218   0.320   3.332
 1427SOL    HW1 5180   0.282   0.392   3.306
 1427SOL    HW2 5181   0.200   0.262   3.253
 1428SOL     OW 5182   0.457   2.301   6.870
 1428SOL    HW1 5183   0.358   2.308   6.870
 1428SOL    HW2 5184   0.496   2.386   6.835
 1429SOL     OW 5185   4.635   1.636   6.910
 1429SOL    HW1 5186   4.593   1.660   6.998
 1429SOL    HW2 5187   4.625   1.712   6.846
 1430SOL     OW 5188   1.512   4.855   3.878
 1430SOL    HW1 5189   1.444   4.861   3.805
 1430SOL    HW2 5190   1.528   4.946   3.916
 1431SOL     OW 5191   2.693   2.243   0.512
 1431SOL    HW1 5192   2.675   2.188   0.594
 1431SOL    HW2 5193   2.786   2.279   0.516
 1432SOL     OW 5194   2.862   1.500   1.549
 1432SOL    HW1 5195   2.915   1.575   1.588
 1432SOL    HW2 5196   2.782   1.483   1.606
 1433SOL     OW 5197   4.852   0.279   4.697
 1433SOL    HW1 5198   4.768   0.280   4.644
 1433SOL    HW2 5199   4.929   0.258   4.636
 1434SOL     OW 5200   0.775   0.140   5.879
 1434SOL    HW1 5201   0.693   0.093   5.912
 1434SOL    HW2 5202   0.830   0.168   5.957
 1435SOL     OW 5203   6.714   6.953   3.207
 1435SOL    HW1 5204   6.712   0.016   3.151
 1435SOL    HW2 5205   6.622   6.914   3.213
 1436SOL     OW 5206   5.180   3.946   6.641
 1436SOL    HW1 5207   5.221   3.867   6.596
 1436SOL    HW2 5208   5.213   3.952   6.735
 1437SOL     OW 5209   2.846   2.029   4.735
 1437SOL    HW1 5210   2.900   2.087   4.797
 1437SOL    HW2 5211   2.843   1.936   4.771
 1438SOL     OW 5212   2.454   6.416   1.690
 1438SOL    HW1 5213   2.445   6.322   1.723
 1438SOL    HW2 5214   2.377   6.471   1.723
 1439SOL     OW 5215   6.266   5.430   0.698
 1439SOL    HW1 5216   6.212   5.413   0.616
 1439SOL    HW2 5217   6.260   5.351   0.759
 1440SOL     OW 5218   3.276   3.299   6.971
 1440SOL    HW1 5219   3.365   3.285   6.927
 1440SOL    HW2 5220   3.246   3.393   6.957
 1441SOL     OW 5221   6.234   0.932   3.479
 1441SOL    HW1 5222   6.331   0.913   3.466
 1441SOL    HW2 5223   6.222   0.996   3.554
 1442SOL     OW 5224   0.142   6.054   0.014
 1442SOL    HW1 5225   0.121   6.135   0.068
 1442SOL    HW2 5226   0.236   6.060   6.999
 1443SOL     OW 5227   0.402   2.846   4.154
 1443SOL    HW1 5228   0.468   2.795   4.099
 1443SOL    HW2 5229   0.421   2.944   4.147
 1444SOL     OW 5230   5.182   5.626   0.871
 1444SOL    HW1 5231   5.105   5.566   0.848
 1444SOL    HW2 5232   5.157   5.721   0.853
 1445SOL     OW 5233   0.746   2.720   2.604
 1445SOL    HW1 5234   0.706   2.689   2.691
 1445SOL    HW2 5235   0.806   2.798   2.621
 1446SOL     OW 5236   5.785   2.121   0.268
 1446SOL    HW1 5237   5.801   2.096   0.363
 1446SOL    HW2 5238   5.823   2.212   0.251
 1447SOL     OW 5239   5.980   6.540   5.202
 1447SOL    HW1 5240   5.944   6.631   5.180
 1447SOL    HW2 5241   6.006   6.536   5.298
 1448SOL     OW 5242   6.845   2.149   5.354
 1448SOL    HW1 5243   6.792   2.129   5.272
 1448SOL    HW2 5244   6.784   2.160   5.433
 1449SOL     OW 5245   0.751   1.588   6.669
 1449SOL    HW1 5246   0.818   1.630   6.608
 1449SOL    HW2 5247   0.749   1.638   6.756
 1450SOL     OW 5248   0.887   2.629   1.345
 1450SOL    HW1 5249   0.879   2.728   1.357
 1450SOL    HW2 5250   0.902   2.608   1.248
 1451SOL     OW 5251   0.725   0.266   2.135
 1451SOL    HW1 5252   0.812   0.288   2.091
 1451SOL    HW2 5253   0.740   0.247   2.232
 1452SOL     OW 5254   4.330   1.492   4.761
 1452SOL    HW1 5255   4.299   1.463   4.852
 1452SOL    HW2 5256   4.256   1.541   4.716
 1453SOL     OW 5257   6.831   3.763   5.693
 1453SOL    HW1 5258   6.879   3.831   5.748
 1453SOL    HW2 5259   6.882   3.745   5.609
 1454SOL     OW 5260   0.433   2.927   2.444
 1454SOL    HW1 5261   0.477   2.847   2.404
 1454SOL    HW2 5262   0.409   2.992   2.372
 1455SOL     OW 5263   1.347   0.523   1.215
 1455SOL    HW1 5264   1.387   0.615   1.217
 1455SOL    HW2 5265   1.420   0.455   1.211
 1456SOL     OW 5266   0.172   5.865   5.357
 1456SOL    HW1 5267   0.128   5.868   5.267
 1456SOL    HW2 5268   0.243   5.795   5.357
 1457SOL     OW 5269   0.626   6.896   1.498
 1457SOL    HW1 5270   0.677   6.838   1.562
 1457SOL    HW2 5271   0.566   6.839   1.442
 1458SOL     OW 5272   5.507   5.819   3.978
 1458SOL    HW1 5273   5.477   5.729   4.010
 1458SOL    HW2 5274   5.585   5.808   3.917
 1459SOL     OW 5275   3.419   5.887   5.705
 1459SOL    HW1 5276   3.376   5.892   5.795
 1459SOL    HW2 5277   3.387   5.963   5.648
 1460SOL     OW 5278   0.522   6.615   5.336
 1460SOL    HW1 5279   0.568   6.648   5.254
 1460SOL    HW2 5280   0.589   6.601   5.409
 1461SOL     OW 5281   5.842   4.793   3.221
 1461SOL    HW1 5282   5.774   4.841   3.277
 1461SOL    HW2 5283   5.821   4.807   3.124
 1462SOL     OW 5284   1.269   0.430   0.366
 1462SOL    HW1 5285   1.320   0.345   0.379
 1462SOL    HW2 5286   1.284   0.491   0.444
 1463SOL     OW 5287   0.006   5.452   6.663
 1463SOL    HW1 5288   6.991   5.510   6.737
 1463SOL    HW2 5289   0.042   5.510   6.590
 1464SOL     OW 5290   0.455   6.321   1.910
 1464SOL    HW1 5291   0.549   6.287   1.912
 1464SOL    HW2 5292   0.408   6.295   1.995
 1465SOL     OW 5293   1.559   0.685   3.507
 1465SOL    HW1 5294   1.516   0.751   3.446
 1465SOL    HW2 5295   1.580   0.602   3.455
 1466SOL     OW 5296   2.109   2.218   2.428
 1466SOL    HW1 5297   2.145   2.144   2.372
 1466SOL    HW2 5298   2.020   2.247   2.392
 1467SOL     OW 5299   2.041   1.708   2.224
 1467SOL    HW1 5300   2.112   1.706   2.153
 1467SOL    HW2 5301   2.061   1.639   2.293
 1468SOL     OW 5302   3.477   6.193   2.237
 1468SOL    HW1 5303   3.493   6.168   2.142
 1468SOL    HW2 5304   3.563   6.187   2.287
 1469SOL     OW 5305   0.622   1.333   1.868
 1469SOL    HW1 5306   0.527   1.331   1.897
 1469SOL    HW2 5307   0.627   1.331   1.768
 1470SOL     OW 5308   1.237   2.056   2.313
 1470SOL    HW1 5309   1.308   2.107   2.361
 1470SOL    HW2 5310   1.233   1.963   2.348
 1471SOL     OW 5311   0.688   0.206   0.923
 1471SOL    HW1 5312   0.745   0.287   0.934
 1471SOL    HW2 5313   0.724   0.132   0.979
 1472SOL     OW 5314   3.166   5.372   5.236
 1472SOL    HW1 5315   3.189   5.458   5.191
 1472SOL    HW2 5316   3.211   5.367   5.325
 1473SOL     OW 5317   4.271   5.535   5.125
 1473SOL    HW1 5318   4.269   5.556   5.223
 1473SOL    HW2 5319   4.241   5.440   5.111
 1474SOL     OW 5320   5.734   5.412   2.200
 1474SOL    HW1 5321   5.762   5.450   2.288
 1474SOL    HW2 5322   5.814   5.382   2.149
 1475SOL     OW 5323   6.334   0.574   1.649
 1475SOL    HW1 5324   6.293   0.609   1.732
 1475SOL    HW2 5325   6.399   0.642   1.613
 1476SOL     OW 5326   3.398   0.825   0.588
 1476SOL    HW1 5327   3.489   0.814   0.628
 1476SOL    HW2 5328   3.329   0.793   0.653
 1477SOL     OW 5329   2.963   0.097   5.885
 1477SOL    HW1 5330   3.041   0.040   5.912
 1477SOL    HW2 5331   2.959   0.101   5.785
 1478SOL     OW 5332   6.126   5.084   5.949
 1478SOL    HW1 5333   6.199   5.100   6.014
 1478SOL    HW2 5334   6.103   5.169   5.902
 1479SOL     OW 5335   1.443   2.179   0.839
 1479SOL    HW1 5336   1.360   2.233   0.850
 1479SOL    HW2 5337   1.433   2.092   0.886
 1480SOL     OW 5338   3.211   0.633   5.004
 1480SOL    HW1 5339   3.229   0.607   4.909
 1480SOL    HW2 5340   3.148   0.710   5.007
 1481SOL     OW 5341   6.451   3.277   6.459
 1481SOL    HW1 5342   6.368   3.331   6.469
 1481SOL    HW2 5343   6.433   3.199   6.398
 1482SOL     OW 5344   4.430   1.485   1.757
 1482SOL    HW1 5345   4.398   1.565   1.706
 1482SOL    HW2 5346   4.355   1.447   1.811
 1483SOL     OW 5347   4.550   1.912   6.128
 1483SOL    HW1 5348   4.535   1.820   6.163
 1483SOL    HW2 5349   4.646   1.924   6.105
 1484SOL     OW 5350   5.671   4.376   4.562
 1484SOL    HW1 5351   5.691   4.279   4.576
 1484SOL    HW2 5352   5.577   4.395   4.590
 1485SOL     OW 5353   3.933   1.218   3.848
 1485SOL    HW1 5354   3.991   1.144   3.882
 1485SOL    HW2 5355   3.876   1.184   3.773
 1486SOL     OW 5356   5.207   1.018   2.663
 1486SOL    HW1 5357   5.280   1.077   2.630
 1486SOL    HW2 5358   5.237   0.969   2.744
 1487SOL     OW 5359   0.138   2.248   6.860
 1487SOL    HW1 5360   0.158   2.285   6.951
 1487SOL    HW2 5361   0.118   2.323   6.797
 1488SOL     OW 5362   5.031   0.836   3.553
 1488SOL    HW1 5363   5.096   0.822   3.628
 1488SOL    HW2 5364   5.075   0.887   3.480
 1489SOL     OW 5365   4.234   4.745   5.072
 1489SOL    HW1 5366   4.277   4.655   5.067
 1489SOL    HW2 5367   4.302   4.813   5.098
 1490SOL     OW 5368   1.140   3.099   1.476
 1490SOL    HW1 5369   1.129   3.020   1.537
 1490SOL    HW2 5370   1.183   3.070   1.391
 1491SOL     OW 5371   6.288   4.378   2.432
 1491SOL    HW1 5372   6.217   4.396   2.364
 1491SOL    HW2 5373   6.265   4.294   2.482
 1492SOL     OW 5374   6.518   1.017   2.551
 1492SOL    HW1 5375   6.476   1.083   2.614
 1492SOL    HW2 5376   6.610   0.995   2.583
 1493SOL     OW 5377   3.410   6.882   5.554
 1493SOL    HW1 5378   3.484   6.941   5.522
 1493SOL    HW2 5379   3.366   6.838   5.476
 1494SOL     OW 5380   4.967   1.584   6.603
 1494SOL    HW1 5381   5.027   1.536   6.666
 1494SOL    HW2 5382   4.922   1.659   6.651
 1495SOL     OW 5383   6.916   3.115   5.296
 1495SOL    HW1 5384   6.900   3.021   5.326
 1495SOL    HW2 5385   7.014   3.129   5.282
 1496SOL     OW 5386   0.306   1.690   1.674
 1496SOL    HW1 5387   0.336   1.633   1.751
 1496SOL    HW2 5388   0.243   1.760   1.708
 1497SOL     OW 5389   5.905   3.496   2.710
 1497SOL    HW1 5390   5.835   3.536   2.769
 1497SOL    HW2 5391   5.986   3.475   2.765
 1498SOL     OW 5392   2.494   5.046   6.929
 1498SOL    HW1 5393   2.434   5.046   6.850
 1498SOL    HW2 5394   2.517   5.140   6.954
 1499SOL     OW 5395   0.681   2.791   5.746
 1499SOL    HW1 5396   0.585   2.813   5.727
 1499SOL    HW2 5397   0.686   2.701   5.789
 1500SOL     OW 5398   0.065   6.715   6.851
 1500SOL    HW1 5399   0.049   6.798   6.904
 1500SOL    HW2 5400   0.100   6.643   6.911
 1501SOL     OW 5401   5.009   2.075   6.528
 1501SOL    HW1 5402   4.920   2.111   6.556
 1501SOL    HW2 5403   5.063   2.149   6.487
 1502SOL     OW 5404   4.033   6.945   0.220
 1502SOL    HW1 5405   4.114   7.001   0.201
 1502SOL    HW2 5406   3.985   6.982   0.299
 1503SOL     OW 5407   0.932   3.399   1.953
 1503SOL    HW1 5408   0.937   3.384   2.051
 1503SOL    HW2 5409   0.940   3.311   1.905
 1504SOL     OW 5410   0.520   6.873   4.408
 1504SOL    HW1 5411   0.543   6.893   4.503
 1504SOL    HW2 5412   0.460   6.945   4.372
 1505SOL     OW 5413   5.178   7.014   4.942
 1505SOL    HW1 5414   5.241   0.065   4.975
 1505SOL    HW2 5415   5.165   0.005   4.843
 1506SOL     OW 5416   0.475   6.080   0.433
 1506SOL    HW1 5417   0.475   6.060   0.531
 1506SOL    HW2 5418   0.384   6.064   0.395
 1507SOL     OW 5419   0.678   2.005   5.724
 1507SOL    HW1 5420   0.596   2.000   5.781
 1507SOL    HW2 5421   0.700   2.100   5.705
 1508SOL     OW 5422   6.496   1.615   1.965
 1508SOL    HW1 5423   6.511   1.522   1.998
 1508SOL    HW2 5424   6.419   1.615   1.901
 1509SOL     OW 5425   3.512   1.851   5.590
 1509SOL    HW1 5426   3.453   1.770   5.586
 1509SOL    HW2 5427   3.603   1.827   5.555
 1510SOL     OW 5428   5.114   1.625   4.958
 1510SOL    HW1 5429   5.060   1.673   5.027
 1510SOL    HW2 5430   5.133   1.686   4.882
 1511SOL     OW 5431   3.789   3.120   3.361
 1511SOL    HW1 5432   3.817   3.090   3.452
 1511SOL    HW2 5433   3.825   3.055   3.293
 1512SOL     OW 5434   0.265   4.797   0.899
 1512SOL    HW1 5435   0.274   4.836   0.807
 1512SOL    HW2 5436   0.178   4.826   0.939
 1513SOL     OW 5437   3.799   0.661   4.811
 1513SOL    HW1 5438   3.830   0.574   4.772
 1513SOL    HW2 5439   3.756   0.644   4.899
 1514SOL     OW 5440   3.871   2.026   5.505
 1514SOL    HW1 5441   3.783   2.067   5.531
 1514SOL    HW2 5442   3.943   2.066   5.561
 1515SOL     OW 5443   5.956   1.735   2.785
 1515SOL    HW1 5444   5.980   1.648   2.743
 1515SOL    HW2 5445   6.031   1.800   2.773
 1516SOL     OW 5446   0.085   6.374   6.708
 1516SOL    HW1 5447   0.098   6.439   6.633
 1516SOL    HW2 5448   0.154   6.392   6.779
 1517SOL     OW 5449   4.598   6.114   3.151
 1517SOL    HW1 5450   4.652   6.041   3.111
 1517SOL    HW2 5451   4.517   6.076   3.196
 1518SOL     OW 5452   0.930   2.445   0.442
 1518SOL    HW1 5453   0.919   2.355   0.486
 1518SOL    HW2 5454   0.999   2.440   0.371
 1519SOL     OW 5455   6.736   5.024   1.562
 1519SOL    HW1 5456   6.675   5.021   1.641
 1519SOL    HW2 5457   6.831   5.026   1.593
 1520SOL     OW 5458   0.135   4.027   1.901
 1520SOL    HW1 5459   0.176   4.118   1.909
 1520SOL    HW2 5460   0.193   3.968   1.845
 1521SOL     OW 5461   1.742   4.263   6.260
 1521SOL    HW1 5462   1.741   4.339   6.195
 1521SOL    HW2 5463   1.800   4.190   6.225
 1522SOL     OW 5464   5.492   6.388   5.068
 1522SOL    HW1 5465   5.476   6.290   5.078
 1522SOL    HW2 5466   5.518   6.426   5.157
 1523SOL     OW 5467   5.036   5.854   0.825
 1523SOL    HW1 5468   5.012   5.951   0.816
 1523SOL    HW2 5469   4.966   5.798   0.779
 1524SOL     OW 5470   2.761   2.006   2.170
 1524SOL    HW1 5471   2.813   1.997   2.255
 1524SOL    HW2 5472   2.791   2.088   2.121
 1525SOL     OW 5473   0.067   2.925   0.597
 1525SOL    HW1 5474   0.104   2.989   0.529
 1525SOL    HW2 5475   6.989   2.912   0.580
 1526SOL     OW 5476   0.265   0.069   0.281
 1526SOL    HW1 5477   0.322   0.096   0.359
 1526SOL    HW2 5478   0.250   6.990   0.283
 1527SOL     OW 5479   4.368   0.343   4.938
 1527SOL    HW1 5480   4.374   0.284   5.019
 1527SOL    HW2 5481   4.392   0.437   4.963
 1528SOL     OW 5482   4.553   5.112   2.755
 1528SOL    HW1 5483   4.597   5.174   2.820
 1528SOL    HW2 5484   4.618   5.083   2.686
 1529SOL     OW 5485   4.428   0.983   0.395
 1529SOL    HW1 5486   4.441   0.906   0.458
 1529SOL    HW2 5487   4.375   0.952   0.316
 1530SOL     OW 5488   3.410   2.035   2.003
 1530SOL    HW1 5489   3.494   2.083   2.029
 1530SOL    HW2 5490   3.356   2.015   2.085
 1531SOL     OW 5491   4.423   0.274   5.463
 1531SOL    HW1 5492   4.329   0.309   5.463
 1531SOL    HW2 5493   4.437   0.213   5.540
 1532SOL     OW 5494   3.151   3.226   6.646
 1532SOL    HW1 5495   3.182   3.258   6.556
 1532SOL    HW2 5496   3.108   3.301   6.695
 1533SOL     OW 5497   6.036   4.051   6.749
 1533SOL    HW1 5498   6.048   4.068   6.651
 1533SOL    HW2 5499   5.989   4.129   6.790
 1534SOL     OW 5500   2.168   4.804   0.069
 1534SOL    HW1 5501   2.174   4.772   0.163
 1534SOL    HW2 5502   2.254   4.786   0.021
 1535SOL     OW 5503   4.881   6.468   4.547
 1535SOL    HW1 5504   4.941   6.540   4.582
 1535SOL    HW2 5505   4.872   6.478   4.448
 1536SOL     OW 5506   3.743   4.861   5.909
 1536SOL    HW1 5507   3.746   4.768   5.947
 1536SOL    HW2 5508   3.724   4.856   5.811
 1537SOL     OW 5509   4.805   6.267   3.621
 1537SOL    HW1 5510   4.730   6.331   3.640
 1537SOL    HW2 5511   4.775   6.200   3.553
 1538SOL     OW 5512   3.765   5.769   6.907
 1538SOL    HW1 5513   3.681   5.726   6.940
 1538SOL    HW2 5514   3.750   5.803   6.814
 1539SOL     OW 5515   4.677   3.897   1.551
 1539SOL    HW1 5516   4.756   3.931   1.603
 1539SOL    HW2 5517   4.621   3.838   1.609
 1540SOL     OW 5518   1.171   6.167   5.880
 1540SOL    HW1 5519   1.101   6.182   5.811
 1540SOL    HW2 5520   1.159   6.077   5.922
 1541SOL     OW 5521   3.932   3.063   3.586
 1541SOL    HW1 5522   3.954   3.041   3.680
 1541SOL    HW2 5523   3.979   3.147   3.559
 1542SOL     OW 5524   5.792   6.800   2.721
 1542SOL    HW1 5525   5.782   6.711   2.676
 1542SOL    HW2 5526   5.879   6.804   2.769
 1543SOL     OW 5527   3.326   5.089   5.171
 1543SOL    HW1 5528   3.384   5.126   5.244
 1543SOL    HW2 5529   3.321   4.990   5.180
 1544SOL     OW 5530   3.063   3.371   2.676
 1544SOL    HW1 5531   3.156   3.394   2.705
 1544SOL    HW2 5532   3.043   3.275   2.697
 1545SOL     OW 5533   5.024   0.529   3.532
 1545SOL    HW1 5534   5.038   0.627   3.548
 1545SOL    HW2 5535   5.049   0.507   3.438
 1546SOL     OW 5536   3.644   6.486   5.912
 1546SOL    HW1 5537   3.743   6.483   5.929
 1546SOL    HW2 5538   3.599   6.533   5.987
 1547SOL     OW 5539   2.112   3.642   3.069
 1547SOL    HW1 5540   2.070   3.565   3.019
 1547SOL    HW2 5541   2.076   3.645   3.162
 1548SOL     OW 5542   5.094   3.901   5.691
 1548SOL    HW1 5543   5.052   3.850   5.616
 1548SOL    HW2 5544   5.144   3.980   5.654
 1549SOL     OW 5545   4.822   1.276   2.290
 1549SOL    HW1 5546   4.862   1.368   2.300
 1549SOL    HW2 5547   4.895   1.208   2.295
 1550SOL     OW 5548   2.931   3.612   6.965
 1550SOL    HW1 5549   2.953   3.518   6.992
 1550SOL    HW2 5550   2.831   3.621   6.958
 1551SOL     OW 5551   2.468   4.631   5.756
 1551SOL    HW1 5552   2.488   4.701   5.687
 1551SOL    HW2 5553   2.403   4.566   5.720
 1552SOL     OW 5554   0.500   5.618   0.075
 1552SOL    HW1 5555   0.462   5.711   0.072
 1552SOL    HW2 5556   0.599   5.622   0.062
 1553SOL     OW 5557   0.154   1.655   5.426
 1553SOL    HW1 5558   0.103   1.586   5.374
 1553SOL    HW2 5559   0.248   1.658   5.392
 1554SOL     OW 5560   4.524   2.123   3.272
 1554SOL    HW1 5561   4.465   2.048   3.244
 1554SOL    HW2 5562   4.470   2.205   3.287
 1555SOL     OW 5563   4.791   2.193   6.624
 1555SOL    HW1 5564   4.702   2.191   6.578
 1555SOL    HW2 5565   4.792   2.266   6.692
 1556SOL     OW 5566   3.805   1.254   0.568
 1556SOL    HW1 5567   3.846   1.247   0.659
 1556SOL    HW2 5568   3.819   1.345   0.531
 1557SOL     OW 5569   2.796   1.970   6.234
 1557SOL    HW1 5570   2.843   2.014   6.158
 1557SOL    HW2 5571   2.862   1.923   6.292
 1558SOL     OW 5572   5.382   0.543   4.756
 1558SOL    HW1 5573   5.337   0.568   4.670
 1558SOL    HW2 5574   5.456   0.478   4.737
 1559SOL     OW 5575   0.539   2.562   6.918
 1559SOL    HW1 5576   0.545   2.629   6.843
 1559SOL    HW2 5577   0.619   2.571   6.977
 1560SOL     OW 5578   1.018   1.110   5.778
 1560SOL    HW1 5579   0.934   1.074   5.739
 1560SOL    HW2 5580   1.030   1.074   5.871
 1561SOL     OW 5581   6.294   6.793   3.938
 1561SOL    HW1 5582   6.282   6.800   4.037
 1561SOL    HW2 5583   6.232   6.724   3.902
 1562SOL     OW 5584   3.712   5.854   2.800
 1562SOL    HW1 5585   3.801   5.818   2.828
 1562SOL    HW2 5586   3.701   5.947   2.835
 1563SOL     OW 5587   1.929   0.297   5.946
 1563SOL    HW1 5588   1.902   0.361   5.874
 1563SOL    HW2 5589   1.922   0.204   5.911
 1564SOL     OW 5590   1.075   2.668   3.297
 1564SOL    HW1 5591   1.089   2.586   3.352
 1564SOL    HW2 5592   1.102   2.749   3.349
 1565SOL     OW 5593   4.291   4.997   4.656
 1565SOL    HW1 5594   4.236   4.923   4.694
 1565SOL    HW2 5595   4.262   5.084   4.695
 1566SOL     OW 5596   5.375   5.211   3.592
 1566SOL    HW1 5597   5.427   5.291   3.623
 1566SOL    HW2 5598   5.299   5.194   3.654
 1567SOL     OW 5599   6.147   5.736   0.183
 1567SOL    HW1 5600   6.240   5.718   0.216
 1567SOL    HW2 5601   6.114   5.823   0.219
 1568SOL     OW 5602   1.857   6.108   0.844
 1568SOL    HW1 5603   1.923   6.032   0.842
 1568SOL    HW2 5604   1.905   6.195   0.836
 1569SOL     OW 5605   4.319   5.991   3.559
 1569SOL    HW1 5606   4.401   6.007   3.614
 1569SOL    HW2 5607   4.287   5.897   3.573
 1570SOL     OW 5608   1.948   0.155   0.451
 1570SOL    HW1 5609   1.885   0.209   0.508
 1570SOL    HW2 5610   2.035   0.144   0.500
 1571SOL     OW 5611   5.507   2.158   1.610
 1571SOL    HW1 5612   5.562   2.075   1.598
 1571SOL    HW2 5613   5.424   2.137   1.660
 1572SOL     OW 5614   0.598   6.779   0.828
 1572SOL    HW1 5615   0.666   6.725   0.780
 1572SOL    HW2 5616   0.596   6.752   0.925
 1573SOL     OW 5617   5.192   3.544   1.581
 1573SOL    HW1 5618   5.190   3.581   1.674
 1573SOL    HW2 5619   5.259   3.470   1.576
 1574SOL     OW 5620   6.948   0.888   2.088
 1574SOL    HW1 5621   6.945   0.917   1.993
 1574SOL    HW2 5622   6.855   0.883   2.125
 1575SOL     OW 5623   3.433   1.389   0.966
 1575SOL    HW1 5624   3.355   1.425   0.916
 1575SOL    HW2 5625   3.506   1.458   0.969
 1576SOL     OW 5626   1.780   0.086   3.143
 1576SOL    HW1 5627   1.844   0.021   3.183
 1576SOL    HW2 5628   1.725   0.128   3.215
 1577SOL     OW 5629   2.817   1.188   4.905
 1577SOL    HW1 5630   2.852   1.183   4.812
 1577SOL    HW2 5631   2.892   1.170   4.969
 1578SOL     OW 5632   6.229   2.857   5.513
 1578SOL    HW1 5633   6.203   2.763   5.492
 1578SOL    HW2 5634   6.181   2.920   5.452
 1579SOL     OW 5635   0.386   1.289   1.972
 1579SOL    HW1 5636   0.308   1.235   1.940
 1579SOL    HW2 5637   0.385   1.294   2.072
 1580SOL     OW 5638   3.217   3.713   4.603
 1580SOL    HW1 5639   3.260   3.646   4.664
 1580SOL    HW2 5640   3.144   3.760   4.653
 1581SOL     OW 5641   0.877   3.499   4.764
 1581SOL    HW1 5642   0.972   3.476   4.788
 1581SOL    HW2 5643   0.831   3.537   4.844
 1582SOL     OW 5644   1.817   0.155   3.809
 1582SOL    HW1 5645   1.828   0.058   3.788
 1582SOL    HW2 5646   1.720   0.176   3.821
 1583SOL     OW 5647   1.369   4.956   3.577
 1583SOL    HW1 5648   1.411   5.015   3.645
 1583SOL    HW2 5649   1.271   4.976   3.572
 1584SOL     OW 5650   1.218   6.692   5.107
 1584SOL    HW1 5651   1.209   6.596   5.136
 1584SOL    HW2 5652   1.151   6.711   5.036
 1585SOL     OW 5653   6.095   1.612   3.964
 1585SOL    HW1 5654   6.137   1.670   3.895
 1585SOL    HW2 5655   6.148   1.528   3.974
 1586SOL     OW 5656   3.701   4.973   1.842
 1586SOL    HW1 5657   3.704   4.888   1.895
 1586SOL    HW2 5658   3.775   4.974   1.775
 1587SOL     OW 5659   3.386   6.172   6.743
 1587SOL    HW1 5660   3.290   6.198   6.752
 1587SOL    HW2 5661   3.398   6.076   6.767
 1588SOL     OW 5662   4.770   1.489   3.370
 1588SOL    HW1 5663   4.692   1.510   3.312
 1588SOL    HW2 5664   4.805   1.574   3.410
 1589SOL     OW 5665   5.561   3.725   1.450
 1589SOL    HW1 5666   5.463   3.746   1.441
 1589SOL    HW2 5667   5.571   3.637   1.496
 1590SOL     OW 5668   3.432   6.212   6.472
 1590SOL    HW1 5669   3.399   6.203   6.566
 1590SOL    HW2 5670   3.425   6.307   6.442
 1591SOL     OW 5671   6.174   5.134   2.665
 1591SOL    HW1 5672   6.214   5.044   2.649
 1591SOL    HW2 5673   6.247   5.198   2.690
 1592SOL     OW 5674   1.903   4.531   0.072
 1592SOL    HW1 5675   1.805   4.512   0.068
 1592SOL    HW2 5676   1.941   4.529   6.999
 1593SOL     OW 5677   1.145   6.574   4.324
 1593SOL    HW1 5678   1.194   6.630   4.257
 1593SOL    HW2 5679   1.185   6.482   4.327
 1594SOL     OW 5680   0.408   6.047   2.263
 1594SOL    HW1 5681   0.449   5.969   2.309
 1594SOL    HW2 5682   0.472   6.124   2.265
 1595SOL     OW 5683   1.032   5.585   0.223
 1595SOL    HW1 5684   1.045   5.497   0.269
 1595SOL    HW2 5685   0.944   5.584   0.176
 1596SOL     OW 5686   0.591   2.480   3.813
 1596SOL    HW1 5687   0.562   2.536   3.890
 1596SOL    HW2 5688   0.598   2.537   3.731
 1597SOL     OW 5689   1.861   6.530   6.578
 1597SOL    HW1 5690   1.889   6.503   6.486
 1597SOL    HW2 5691   1.776   6.483   6.603
 1598SOL     OW 5692   0.788   3.940   6.286
 1598SOL    HW1 5693   0.858   3.953   6.216
 1598SOL    HW2 5694   0.697   3.946   6.244
 1599SOL     OW 5695   4.647   4.645   5.883
 1599SOL    HW1 5696   4.628   4.677   5.790
 1599SOL    HW2 5697   4.613   4.551   5.893
 1600SOL     OW 5698   5.216   1.548   4.439
 1600SOL    HW1 5699   5.290   1.495   4.479
 1600SOL    HW2 5700   5.238   1.646   4.444
 1601SOL     OW 5701   0.345   4.915   4.731
 1601SOL    HW1 5702   0.266   4.973   4.757
 1601SOL    HW2 5703   0.377   4.866   4.812
 1602SOL     OW 5704   2.448   5.594   3.728
 1602SOL    HW1 5705   2.529   5.541   3.752
 1602SOL    HW2 5706   2.369   5.533   3.718
 1603SOL     OW 5707   6.952   6.403   2.459
 1603SOL    HW1 5708   6.890   6.480   2.474
 1603SOL    HW2 5709   0.004   6.403   2.528
 1604SOL     OW 5710   5.938   4.633   1.277
 1604SOL    HW1 5711   5.871   4.692   1.321
 1604SOL    HW2 5712   5.952   4.662   1.182
 1605SOL     OW 5713   6.722   6.153   1.677
 1605SOL    HW1 5714   6.763   6.093   1.746
 1605SOL    HW2 5715   6.709   6.102   1.592
 1606SOL     OW 5716   3.609   0.816   5.029
 1606SOL    HW1 5717   3.635   0.720   5.026
 1606SOL    HW2 5718   3.612   0.855   4.937
 1607SOL     OW 5719   4.076   1.528   1.243
 1607SOL    HW1 5720   4.026   1.443   1.260
 1607SOL    HW2 5721   4.034   1.602   1.295
 1608SOL     OW 5722   1.402   0.372   3.752
 1608SOL    HW1 5723   1.469   0.440   3.781
 1608SOL    HW2 5724   1.310   0.403   3.775
 1609SOL     OW 5725   3.543   0.272   0.490
 1609SOL    HW1 5726   3.544   0.182   0.535
 1609SOL    HW2 5727   3.617   0.328   0.528
 1610SOL     OW 5728   5.455   4.467   6.761
 1610SOL    HW1 5729   5.379   4.442   6.821
 1610SOL    HW2 5730   5.507   4.542   6.803
 1611SOL     OW 5731   2.354   3.813   1.493
 1611SOL    HW1 5732   2.372   3.762   1.577
 1611SOL    HW2 5733   2.428   3.798   1.428
 1612SOL     OW 5734   2.610   0.787   5.151
 1612SOL    HW1 5735   2.611   0.874   5.102
 1612SOL    HW2 5736   2.591   0.713   5.087
 1613SOL     OW 5737   1.855   5.181   1.544
 1613SOL    HW1 5738   1.763   5.170   1.582
 1613SOL    HW2 5739   1.881   5.097   1.497
 1614SOL     OW 5740   6.265   3.534   0.124
 1614SOL    HW1 5741   6.166   3.518   0.120
 1614SOL    HW2 5742   6.313   3.456   0.083
 1615SOL     OW 5743   6.620   5.169   1.083
 1615SOL    HW1 5744   6.699   5.229   1.075
 1615SOL    HW2 5745   6.635   5.102   1.156
 1616SOL     OW 5746   3.289   1.845   5.178
 1616SOL    HW1 5747   3.299   1.764   5.235
 1616SOL    HW2 5748   3.310   1.927   5.232
 1617SOL     OW 5749   5.954   0.700   2.262
 1617SOL    HW1 5750   5.902   0.772   2.217
 1617SOL    HW2 5751   5.978   0.729   2.355
 1618SOL     OW 5752   1.803   4.192   1.941
 1618SOL    HW1 5753   1.745   4.250   1.997
 1618SOL    HW2 5754   1.890   4.238   1.924
 1619SOL     OW 5755   0.915   2.443   2.157
 1619SOL    HW1 5756   0.926   2.467   2.254
 1619SOL    HW2 5757   0.818   2.426   2.138
 1620SOL     OW 5758   2.750   5.037   1.574
 1620SOL    HW1 5759   2.772   5.032   1.671
 1620SOL    HW2 5760   2.826   5.000   1.521
 1621SOL     OW 5761   0.696   1.269   0.417
 1621SOL    HW1 5762   0.605   1.253   0.380
 1621SOL    HW2 5763   0.696   1.253   0.516
 1622SOL     OW 5764   0.437   2.456   4.616
 1622SOL    HW1 5765   0.409   2.535   4.670
 1622SOL    HW2 5766   0.529   2.470   4.581
 1623SOL     OW 5767   2.414   3.642   5.522
 1623SOL    HW1 5768   2.429   3.712   5.452
 1623SOL    HW2 5769   2.380   3.558   5.479
 1624SOL     OW 5770   2.646   1.288   5.119
 1624SOL    HW1 5771   2.718   1.356   5.104
 1624SOL    HW2 5772   2.685   1.208   5.164
 1625SOL     OW 5773   1.226   5.615   1.684
 1625SOL    HW1 5774   1.157   5.656   1.744
 1625SOL    HW2 5775   1.317   5.633   1.721
 1626SOL     OW 5776   3.620   2.591   6.071
 1626SOL    HW1 5777   3.634   2.627   5.979
 1626SOL    HW2 5778   3.531   2.544   6.076
 1627SOL     OW 5779   0.026   3.028   3.790
 1627SOL    HW1 5780   6.987   2.965   3.740
 1627SOL    HW2 5781   0.033   3.115   3.740
 1628SOL     OW 5782   4.623   4.777   0.587
 1628SOL    HW1 5783   4.557   4.847   0.561
 1628SOL    HW2 5784   4.601   4.743   0.678
 1629SOL     OW 5785   2.846   1.733   3.584
 1629SOL    HW1 5786   2.781   1.808   3.600
 1629SOL    HW2 5787   2.855   1.678   3.666
 1630SOL     OW 5788   1.300   5.898   5.767
 1630SOL    HW1 5789   1.266   5.810   5.800
 1630SOL    HW2 5790   1.329   5.889   5.671
 1631SOL     OW 5791   0.771   1.876   6.541
 1631SOL    HW1 5792   0.702   1.809   6.513
 1631SOL    HW2 5793   0.759   1.960   6.488
 1632SOL     OW 5794   0.161   1.854   6.352
 1632SOL    HW1 5795   0.209   1.940   6.365
 1632SOL    HW2 5796   0.068   1.872   6.320
 1633SOL     OW 5797   5.307   2.557   4.393
 1633SOL    HW1 5798   5.286   2.653   4.411
 1633SOL    HW2 5799   5.231   2.499   4.423
 1634SOL     OW 5800   4.734   5.166   0.038
 1634SOL    HW1 5801   4.651   5.141   7.007
 1634SOL    HW2 5802   4.708   5.198   0.130
 1635SOL     OW 5803   0.244   6.017   5.864
 1635SOL    HW1 5804   0.268   6.070   5.783
 1635SOL    HW2 5805   0.312   5.945   5.878
 1636SOL     OW 5806   2.635   4.116   1.705
 1636SOL    HW1 5807   2.677   4.204   1.684
 1636SOL    HW2 5808   2.681   4.044   1.653
 1637SOL     OW 5809   0.418   0.512   3.166
 1637SOL    HW1 5810   0.510   0.477   3.151
 1637SOL    HW2 5811   0.380   0.547   3.081
 1638SOL     OW 5812   0.121   4.506   3.691
 1638SOL    HW1 5813   0.189   4.437   3.667
 1638SOL    HW2 5814   0.162   4.597   3.684
 1639SOL     OW 5815   4.695   6.907   3.048
 1639SOL    HW1 5816   4.712   6.818   3.090
 1639SOL    HW2 5817   4.632   6.895   2.970
 1640SOL     OW 5818   5.823   1.537   0.691
 1640SOL    HW1 5819   5.730   1.527   0.657
 1640SOL    HW2 5820   5.832   1.624   0.738
 1641SOL     OW 5821   5.104   2.451   4.553
 1641SOL    HW1 5822   5.014   2.409   4.546
 1641SOL    HW2 5823   5.099   2.534   4.608
 1642SOL     OW 5824   6.371   3.785   6.424
 1642SOL    HW1 5825   6.404   3.822   6.337
 1642SOL    HW2 5826   6.449   3.763   6.483
 1643SOL     OW 5827   2.375   4.993   3.728
 1643SOL    HW1 5828   2.345   4.907   3.769
 1643SOL    HW2 5829   2.435   4.974   3.650
 1644SOL     OW 5830   0.516   2.946   1.286
 1644SOL    HW1 5831   0.607   2.907   1.269
 1644SOL    HW2 5832   0.454   2.874   1.318
 1645SOL     OW 5833   2.888   5.730   5.792
 1645SOL    HW1 5834   2.941   5.717   5.709
 1645SOL    HW2 5835   2.928   5.674   5.866
 1646SOL     OW 5836   2.723   5.665   0.670
 1646SOL    HW1 5837   2.718   5.599   0.595
 1646SOL    HW2 5838   2.631   5.693   0.695
 1647SOL     OW 5839   6.243   2.684   4.894
 1647SOL    HW1 5840   6.161   2.722   4.937
 1647SOL    HW2 5841   6.315   2.753   4.894
 1648SOL     OW 5842   6.027   5.856   0.784
 1648SOL    HW1 5843   6.120   5.854   0.821
 1648SOL    HW2 5844   5.995   5.951   0.777
 1649SOL     OW 5845   3.790   0.117   4.578
 1649SOL    HW1 5846   3.725   0.042   4.566
 1649SOL    HW2 5847   3.815   0.153   4.488
 1650SOL     OW 5848   2.037   6.424   5.541
 1650SOL    HW1 5849   2.000   6.462   5.456
 1650SOL    HW2 5850   2.009   6.482   5.618
 1651SOL     OW 5851   0.632   1.376   1.580
 1651SOL    HW1 5852   0.648   1.473   1.599
 1651SOL    HW2 5853   0.718   1.335   1.548
 1652SOL     OW 5854   1.553   3.163   2.046
 1652SOL    HW1 5855   1.492   3.088   2.073
 1652SOL    HW2 5856   1.518   3.249   2.084
 1653SOL     OW 5857   0.980   6.820   1.213
 1653SOL    HW1 5858   0.956   6.884   1.286
 1653SOL    HW2 5859   0.912   6.747   1.210
 1654SOL     OW 5860   6.730   3.104   2.181
 1654SOL    HW1 5861   6.682   3.181   2.221
 1654SOL    HW2 5862   6.829   3.122   2.180
 1655SOL     OW 5863   6.581   2.347   5.250
 1655SOL    HW1 5864   6.528   2.428   5.226
 1655SOL    HW2 5865   6.527   2.288   5.309
 1656SOL     OW 5866   2.797   4.967   2.353
 1656SOL    HW1 5867   2.820   4.983   2.449
 1656SOL    HW2 5868   2.796   5.055   2.305
 1657SOL     OW 5869   6.986   0.472   4.126
 1657SOL    HW1 5870   6.992   0.567   4.156
 1657SOL    HW2 5871   6.973   0.469   4.027
 1658SOL     OW 5872   0.949   0.037   1.374
 1658SOL    HW1 5873   0.991   0.080   1.294
 1658SOL    HW2 5874   0.869   0.089   1.402
 1659SOL     OW 5875   3.647   1.058   5.729
 1659SOL    HW1 5876   3.603   1.073   5.818
 1659SOL    HW2 5877   3.590   1.094   5.656
 1660SOL     OW 5878   0.912   5.133   3.794
 1660SOL    HW1 5879   0.919   5.208   3.728
 1660SOL    HW2 5880   0.818   5.100   3.797
 1661SOL     OW 5881   3.211   1.315   2.152
 1661SOL    HW1 5882   3.150   1.356   2.220
 1661SOL    HW2 5883   3.254   1.388   2.099
 1662SOL     OW 5884   6.949   0.514   3.839
 1662SOL    HW1 5885   6.865   0.532   3.890
 1662SOL    HW2 5886   6.934   0.534   3.742
 1663SOL     OW 5887   4.189   6.969   3.260
 1663SOL    HW1 5888   4.231   6.931   3.178
 1663SOL    HW2 5889   4.221   0.043   3.273
 1664SOL     OW 5890   2.594   6.533   4.039
 1664SOL    HW1 5891   2.536   6.481   4.102
 1664SOL    HW2 5892   2.540   6.565   3.962
 1665SOL     OW 5893   0.423   1.295   3.322
 1665SOL    HW1 5894   0.461   1.206   3.297
 1665SOL    HW2 5895   0.324   1.294   3.307
 1666SOL     OW 5896   5.396   3.367   0.539
 1666SOL    HW1 5897   5.353   3.285   0.501
 1666SOL    HW2 5898   5.399   3.359   0.639
 1667SOL     OW 5899   6.961   0.005   1.316
 1667SOL    HW1 5900   6.868   0.038   1.334
 1667SOL    HW2 5901   6.959   6.960   1.240
 1668SOL     OW 5902   5.353   5.867   5.391
 1668SOL    HW1 5903   5.348   5.815   5.476
 1668SOL    HW2 5904   5.383   5.960   5.410
 1669SOL     OW 5905   0.075   5.916   6.251
 1669SOL    HW1 5906   0.088   5.963   6.163
 1669SOL    HW2 5907   0.081   5.983   6.325
 1670SOL     OW 5908   6.903   4.323   6.469
 1670SOL    HW1 5909   6.959   4.382   6.411
 1670SOL    HW2 5910   6.822   4.294   6.419
 1671SOL     OW 5911   4.822   3.030   0.702
 1671SOL    HW1 5912   4.732   3.075   0.706
 1671SOL    HW2 5913   4.845   3.012   0.606
 1672SOL     OW 5914   1.953   3.284   1.442
 1672SOL    HW1 5915   2.047   3.299   1.470
 1672SOL    HW2 5916   1.947   3.202   1.386
 1673SOL     OW 5917   6.828   2.333   3.757
 1673SOL    HW1 5918   6.766   2.338   3.678
 1673SOL    HW2 5919   6.819   2.243   3.800
 1674SOL     OW 5920   0.862   3.999   2.657
 1674SOL    HW1 5921   0.887   3.909   2.622
 1674SOL    HW2 5922   0.784   4.035   2.606
 1675SOL     OW 5923   4.336   0.888   5.655
 1675SOL    HW1 5924   4.388   0.971   5.633
 1675SOL    HW2 5925   4.245   0.913   5.688
 1676SOL     OW 5926   2.067   1.266   1.918
 1676SOL    HW1 5927   2.113   1.340   1.967
 1676SOL    HW2 5928   2.047   1.191   1.982
 1677SOL     OW 5929   3.868   3.515   5.482
 1677SOL    HW1 5930   3.791   3.564   5.524
 1677SOL    HW2 5931   3.953   3.538   5.530
 1678SOL     OW 5932   4.429   4.939   5.107
 1678SOL    HW1 5933   4.451   4.952   5.011
 1678SOL    HW2 5934   4.476   5.009   5.161
 1679SOL     OW 5935   2.193   2.781   5.111
 1679SOL    HW1 5936   2.149   2.839   5.180
 1679SOL    HW2 5937   2.280   2.821   5.085
 1680SOL     OW 5938   0.497   2.908   4.621
 1680SOL    HW1 5939   0.465   2.967   4.548
 1680SOL    HW2 5940   0.580   2.947   4.661
 1681SOL     OW 5941   6.375   5.516   0.179
 1681SOL    HW1 5942   6.417   5.569   0.252
 1681SOL    HW2 5943   6.298   5.463   0.216
 1682SOL     OW 5944   0.289   2.177   4.957
 1682SOL    HW1 5945   0.293   2.144   4.863
 1682SOL    HW2 5946   0.350   2.122   5.014
 1683SOL     OW 5947   4.138   5.556   1.240
 1683SOL    HW1 5948   4.091   5.534   1.155
 1683SOL    HW2 5949   4.237   5.551   1.226
 1684SOL     OW 5950   1.439   6.137   2.696
 1684SOL    HW1 5951   1.495   6.138   2.779
 1684SOL    HW2 5952   1.445   6.226   2.651
 1685SOL     OW 5953   2.537   1.185   5.919
 1685SOL    HW1 5954   2.500   1.103   5.964
 1685SOL    HW2 5955   2.465   1.231   5.869
 1686SOL     OW 5956   2.659   5.017   5.149
 1686SOL    HW1 5957   2.735   5.035   5.211
 1686SOL    HW2 5958   2.653   5.089   5.080
 1687SOL     OW 5959   2.485   3.259   1.314
 1687SOL    HW1 5960   2.408   3.321   1.331
 1687SOL    HW2 5961   2.503   3.254   1.216
 1688SOL     OW 5962   1.426   2.640   3.723
 1688SOL    HW1 5963   1.520   2.672   3.732
 1688SOL    HW2 5964   1.418   2.585   3.639
 1689SOL     OW 5965   4.834   0.784   2.497
 1689SOL    HW1 5966   4.765   0.740   2.555
 1689SOL    HW2 5967   4.796   0.801   2.406
 1690SOL     OW 5968   1.844   3.039   3.330
 1690SOL    HW1 5969   1.873   2.967   3.393
 1690SOL    HW2 5970   1.805   2.997   3.248
 1691SOL     OW 5971   5.731   4.516   3.521
 1691SOL    HW1 5972   5.723   4.418   3.506
 1691SOL    HW2 5973   5.655   4.563   3.477
 1692SOL     OW 5974   5.419   0.648   1.620
 1692SOL    HW1 5975   5.448   0.555   1.598
 1692SOL    HW2 5976   5.321   0.656   1.602
 1693SOL     OW 5977   0.196   2.290   2.457
 1693SOL    HW1 5978   0.168   2.378   2.493
 1693SOL    HW2 5979   0.229   2.232   2.531
 1694SOL     OW 5980   5.304   0.566   3.825
 1694SOL    HW1 5981   5.304   0.470   3.796
 1694SOL    HW2 5982   5.367   0.618   3.767
 1695SOL     OW 5983   2.814   1.639   5.925
 1695SOL    HW1 5984   2.813   1.592   6.013
 1695SOL    HW2 5985   2.896   1.696   5.919
 1696SOL     OW 5986   5.136   4.852   0.431
 1696SOL    HW1 5987   5.117   4.800   0.348
 1696SOL    HW2 5988   5.056   4.849   0.491
 1697SOL     OW 5989   5.379   6.640   1.910
 1697SOL    HW1 5990   5.431   6.726   1.913
 1697SOL    HW2 5991   5.374   6.601   2.002
 1698SOL     OW 5992   5.177   0.872   0.067
 1698SOL    HW1 5993   5.141   0.965   0.063
 1698SOL    HW2 5994   5.229   0.860   0.152
 1699SOL     OW 5995   2.817   1.186   1.028
 1699SOL    HW1 5996   2.746   1.116   1.032
 1699SOL    HW2 5997   2.854   1.190   0.935
 1700SOL     OW 5998   5.879   2.669   3.217
 1700SOL    HW1 5999   5.858   2.683   3.120
 1700SOL    HW2 6000   5.858   2.753   3.268
 1701SOL     OW 6001   5.421   4.173   5.876
 1701SOL    HW1 6002   5.433   4.227   5.792
 1701SOL    HW2 6003   5.505   4.123   5.895
 1702SOL     OW 6004   6.607   3.142   0.437
 1702SOL    HW1 6005   6.533   3.078   0.416
 1702SOL    HW2 6006   6.665   3.104   0.508
 1703SOL     OW 6007   4.036   3.138   2.515
 1703SOL    HW1 6008   3.964   3.068   2.511
 1703SOL    HW2 6009   4.057   3.160   2.610
 1704SOL     OW 6010   0.857   1.303   1.995
 1704SOL    HW1 6011   0.779   1.331   1.940
 1704SOL    HW2 6012   0.902   1.384   2.033
 1705SOL     OW 6013   3.660   2.382   1.412
 1705SOL    HW1 6014   3.575   2.330   1.407
 1705SOL    HW2 6015   3.713   2.369   1.328
 1706SOL     OW 6016   4.647   0.139   1.340
 1706SOL    HW1 6017   4.659   0.128   1.439
 1706SOL    HW2 6018   4.551   0.127   1.317
 1707SOL     OW 6019   4.784   1.618   2.695
 1707SOL    HW1 6020   4.848   1.693   2.715
 1707SOL    HW2 6021   4.701   1.630   2.750
 1708SOL     OW 6022   4.844   4.960   2.343
 1708SOL    HW1 6023   4.831   4.869   2.380
 1708SOL    HW2 6024   4.941   4.979   2.332
 1709SOL     OW 6025   2.271   5.671   1.588
 1709SOL    HW1 6026   2.175   5.644   1.597
 1709SOL    HW2 6027   2.278   5.751   1.529
 1710SOL     OW 6028   5.915   4.943   3.731
 1710SOL    HW1 6029   5.983   4.907   3.668
 1710SOL    HW2 6030   5.828   4.894   3.719
 1711SOL     OW 6031   1.102   5.208   4.772
 1711SOL    HW1 6032   1.118   5.244   4.680
 1711SOL    HW2 6033   1.067   5.115   4.767
 1712SOL     OW 6034   0.298   2.897   6.230
 1712SOL    HW1 6035   0.357   2.909   6.150
 1712SOL    HW2 6036   0.202   2.898   6.201
 1713SOL     OW 6037   3.945   2.210   1.550
 1713SOL    HW1 6038   3.980   2.151   1.477
 1713SOL    HW2 6039   3.862   2.169   1.588
 1714SOL     OW 6040   4.107   1.621   5.647
 1714SOL    HW1 6041   4.030   1.672   5.684
 1714SOL    HW2 6042   4.121   1.644   5.551
 1715SOL     OW 6043   0.043   4.038   2.352
 1715SOL    HW1 6044   6.993   4.028   2.281
 1715SOL    HW2 6045   0.049   4.133   2.380
 1716SOL     OW 6046   4.509   0.322   2.901
 1716SOL    HW1 6047   4.591   0.375   2.921
 1716SOL    HW2 6048   4.428   0.379   2.917
 1717SOL     OW 6049   2.376   6.197   6.400
 1717SOL    HW1 6050   2.400   6.118   6.455
 1717SOL    HW2 6051   2.441   6.205   6.324
 1718SOL     OW 6052   2.049   2.249   2.022
 1718SOL    HW1 6053   2.144   2.271   2.047
 1718SOL    HW2 6054   1.990   2.327   2.043
 1719SOL     OW 6055   2.087   4.162   0.910
 1719SOL    HW1 6056   2.032   4.131   0.987
 1719SOL    HW2 6057   2.173   4.200   0.943
 1720SOL     OW 6058   0.669   2.021   0.480
 1720SOL    HW1 6059   0.717   2.034   0.393
 1720SOL    HW2 6060   0.573   2.000   0.462
 1721SOL     OW 6061   1.291   6.220   2.238
 1721SOL    HW1 6062   1.204   6.244   2.281
 1721SOL    HW2 6063   1.317   6.127   2.262
 1722SOL     OW 6064   4.658   2.146   4.512
 1722SOL    HW1 6065   4.673   2.083   4.587
 1722SOL    HW2 6066   4.560   2.163   4.501
 1723SOL     OW 6067   6.925   2.638   2.538
 1723SOL    HW1 6068   7.007   2.584   2.518
 1723SOL    HW2 6069   6.853   2.614   2.473
 1724SOL     OW 6070   6.057   1.876   1.234
 1724SOL    HW1 6071   5.977   1.929   1.207
 1724SOL    HW2 6072   6.039   1.830   1.321
 1725SOL     OW 6073   2.191   4.630   6.396
 1725SOL    HW1 6074   2.186   4.548   6.454
 1725SOL    HW2 6075   2.245   4.611   6.315
 1726SOL     OW 6076   5.374   5.046   5.531
 1726SOL    HW1 6077   5.329   4.957   5.522
 1726SOL    HW2 6078   5.464   5.042   5.488
 1727SOL     OW 6079   3.853   3.413   4.489
 1727SOL    HW1 6080   3.825   3.467   4.410
 1727SOL    HW2 6081   3.777   3.355   4.519
 1728SOL     OW 6082   5.131   5.115   5.712
 1728SOL    HW1 6083   5.183   5.054   5.653
 1728SOL    HW2 6084   5.191   5.148   5.786
 1729SOL     OW 6085   1.752   3.407   3.987
 1729SOL    HW1 6086   1.765   3.410   4.086
 1729SOL    HW2 6087   1.756   3.500   3.950
 1730SOL     OW 6088   6.797   0.196   5.465
 1730SOL    HW1 6089   6.812   0.285   5.421
 1730SOL    HW2 6090   6.753   0.210   5.553
 1731SOL     OW 6091   6.791   4.857   2.064
 1731SOL    HW1 6092   6.868   4.904   2.106
 1731SOL    HW2 6093   6.774   4.771   2.113
 1732SOL     OW 6094   2.595   4.578   5.491
 1732SOL    HW1 6095   2.628   4.499   5.544
 1732SOL    HW2 6096   2.668   4.610   5.431
 1733SOL     OW 6097   1.303   4.330   2.568
 1733SOL    HW1 6098   1.245   4.248   2.562
 1733SOL    HW2 6099   1.343   4.335   2.659
 1734SOL     OW 6100   4.700   3.149   1.676
 1734SOL    HW1 6101   4.734   3.085   1.608
 1734SOL    HW2 6102   4.663   3.099   1.754
 1735SOL     OW 6103   5.476   5.966   1.352
 1735SOL    HW1 6104   5.466   6.010   1.441
 1735SOL    HW2 6105   5.539   5.888   1.360
 1736SOL     OW 6106   4.164   2.650   1.176
 1736SOL    HW1 6107   4.226   2.587   1.129
 1736SOL    HW2 6108   4.078   2.605   1.196
 1737SOL     OW 6109   2.631   1.251   4.006
 1737SOL    HW1 6110   2.559   1.215   4.066
 1737SOL    HW2 6111   2.720   1.219   4.038
 1738SOL     OW 6112   1.844   1.903   4.331
 1738SOL    HW1 6113   1.892   1.894   4.244
 1738SOL    HW2 6114   1.747   1.920   4.314
 1739SOL     OW 6115   5.692   2.138   5.599
 1739SOL    HW1 6116   5.626   2.173   5.665
 1739SOL    HW2 6117   5.664   2.047   5.568
 1740SOL     OW 6118   0.497   1.717   6.010
 1740SOL    HW1 6119   0.557   1.641   6.037
 1740SOL    HW2 6120   0.406   1.681   5.988
 1741SOL     OW 6121   2.189   0.775   3.883
 1741SOL    HW1 6122   2.224   0.864   3.855
 1741SOL    HW2 6123   2.093   0.782   3.909
 1742SOL     OW 6124   5.031   0.020   6.193
 1742SOL    HW1 6125   5.018   0.117   6.173
 1742SOL    HW2 6126   4.942   6.994   6.193
 1743SOL     OW 6127   1.860   2.123   2.269
 1743SOL    HW1 6128   1.834   2.045   2.326
 1743SOL    HW2 6129   1.929   2.095   2.202
 1744SOL     OW 6130   0.777   0.453   1.867
 1744SOL    HW1 6131   0.851   0.474   1.930
 1744SOL    HW2 6132   0.716   0.532   1.860
 1745SOL     OW 6133   6.030   0.855   3.319
 1745SOL    HW1 6134   6.102   0.879   3.384
 1745SOL    HW2 6135   6.046   0.762   3.285
 1746SOL     OW 6136   2.323   4.555   5.387
 1746SOL    HW1 6137   2.417   4.565   5.419
 1746SOL    HW2 6138   2.286   4.468   5.419
 1747SOL     OW 6139   6.014   1.386   2.999
 1747SOL    HW1 6140   5.983   1.328   2.924
 1747SOL    HW2 6141   5.950   1.462   3.012
 1748SOL     OW 6142   0.526   0.605   4.131
 1748SOL    HW1 6143   0.558   0.563   4.046
 1748SOL    HW2 6144   0.604   0.649   4.177
 1749SOL     OW 6145   2.449   0.019   4.959
 1749SOL    HW1 6146   2.485   6.946   4.970
 1749SOL    HW2 6147   2.524   0.085   4.966
 1750SOL     OW 6148   6.676   6.817   3.493
 1750SOL    HW1 6149   6.698   6.889   3.427
 1750SOL    HW2 6150   6.709   6.845   3.584
 1751SOL     OW 6151   4.098   5.610   4.909
 1751SOL    HW1 6152   4.058   5.699   4.932
 1751SOL    HW2 6153   4.174   5.590   4.971
 1752SOL     OW 6154   0.494   1.970   2.039
 1752SOL    HW1 6155   0.551   2.052   2.040
 1752SOL    HW2 6156   0.412   1.986   2.094
 1753SOL     OW 6157   0.353   2.166   0.506
 1753SOL    HW1 6158   0.339   2.192   0.601
 1753SOL    HW2 6159   0.362   2.066   0.499
 1754SOL     OW 6160   2.780   3.480   0.679
 1754SOL    HW1 6161   2.860   3.524   0.721
 1754SOL    HW2 6162   2.706   3.474   0.747
 1755SOL     OW 6163   6.239   6.170   1.924
 1755SOL    HW1 6164   6.151   6.203   1.959
 1755SOL    HW2 6165   6.232   6.073   1.904
 1756SOL     OW 6166   4.253   4.428   5.677
 1756SOL    HW1 6167   4.185   4.400   5.744
 1756SOL    HW2 6168   4.345   4.405   5.711
 1757SOL     OW 6169   2.579   4.921   4.806
 1757SOL    HW1 6170   2.612   4.830   4.783
 1757SOL    HW2 6171   2.650   4.972   4.854
 1758SOL     OW 6172   2.626   0.320   3.949
 1758SOL    HW1 6173   2.679   0.235   3.954
 1758SOL    HW2 6174   2.672   0.385   3.889
 1759SOL     OW 6175   1.891   5.199   6.400
 1759SOL    HW1 6176   1.793   5.197   6.378
 1759SOL    HW2 6177   1.903   5.217   6.497
 1760SOL     OW 6178   5.689   2.350   2.322
 1760SOL    HW1 6179   5.712   2.414   2.395
 1760SOL    HW2 6180   5.641   2.397   2.249
 1761SOL     OW 6181   0.801   0.096   0.588
 1761SOL    HW1 6182   0.734   0.093   0.662
 1761SOL    HW2 6183   0.763   0.052   0.506
 1762SOL     OW 6184   6.975   1.868   4.853
 1762SOL    HW1 6185   0.009   1.925   4.791
 1762SOL    HW2 6186   6.878   1.873   4.828
 1763SOL     OW 6187   1.744   3.873   3.853
 1763SOL    HW1 6188   1.722   3.906   3.945
 1763SOL    HW2 6189   1.686   3.920   3.786
 1764SOL     OW 6190   2.078   3.694   2.013
 1764SOL    HW1 6191   2.131   3.771   1.976
 1764SOL    HW2 6192   2.134   3.611   2.013
 1765SOL     OW 6193   4.086   1.722   0.123
 1765SOL    HW1 6194   4.116   1.766   0.038
 1765SOL    HW2 6195   4.122   1.629   0.126
 1766SOL     OW 6196   4.854   3.475   2.996
 1766SOL    HW1 6197   4.837   3.396   2.937
 1766SOL    HW2 6198   4.887   3.444   3.085
 1767SOL     OW 6199   6.307   4.258   3.037
 1767SOL    HW1 6200   6.250   4.178   3.055
 1767SOL    HW2 6201   6.400   4.229   3.015
 1768SOL     OW 6202   3.644   1.499   4.926
 1768SOL    HW1 6203   3.733   1.542   4.938
 1768SOL    HW2 6204   3.646   1.438   4.847
 1769SOL     OW 6205   4.679   2.588   5.297
 1769SOL    HW1 6206   4.738   2.602   5.376
 1769SOL    HW2 6207   4.586   2.615   5.320
 1770SOL     OW 6208   0.166   5.296   4.634
 1770SOL    HW1 6209   0.122   5.301   4.545
 1770SOL    HW2 6210   0.208   5.384   4.656
 1771SOL     OW 6211   1.981   5.490   0.287
 1771SOL    HW1 6212   1.990   5.581   0.247
 1771SOL    HW2 6213   2.018   5.422   0.223
 1772SOL     OW 6214   3.578   6.180   3.055
 1772SOL    HW1 6215   3.563   6.249   3.126
 1772SOL    HW2 6216   3.551   6.216   2.966
 1773SOL     OW 6217   2.900   4.712   6.716
 1773SOL    HW1 6218   2.919   4.629   6.769
 1773SOL    HW2 6219   2.945   4.705   6.627
 1774SOL     OW 6220   4.501   6.656   1.993
 1774SOL    HW1 6221   4.577   6.696   1.942
 1774SOL    HW2 6222   4.507   6.684   2.089
 1775SOL     OW 6223   1.190   4.875   3.809
 1775SOL    HW1 6224   1.135   4.884   3.726
 1775SOL    HW2 6225   1.217   4.966   3.842
 1776SOL     OW 6226   3.251   0.820   5.402
 1776SOL    HW1 6227   3.351   0.814   5.405
 1776SOL    HW2 6228   3.219   0.887   5.470
 1777SOL     OW 6229   3.319   5.632   5.709
 1777SOL    HW1 6230   3.351   5.725   5.690
 1777SOL    HW2 6231   3.389   5.583   5.762
 1778SOL     OW 6232   4.716   2.203   4.946
 1778SOL    HW1 6233   4.746   2.244   5.033
 1778SOL    HW2 6234   4.768   2.244   4.871
 1779SOL     OW 6235   4.783   1.390   4.796
 1779SOL    HW1 6236   4.699   1.417   4.749
 1779SOL    HW2 6237   4.862   1.411   4.739
 1780SOL     OW 6238   2.764   4.357   5.908
 1780SOL    HW1 6239   2.681   4.341   5.960
 1780SOL    HW2 6240   2.742   4.364   5.810
 1781SOL     OW 6241   4.438   5.206   3.563
 1781SOL    HW1 6242   4.361   5.220   3.500
 1781SOL    HW2 6243   4.520   5.247   3.525
 1782SOL     OW 6244   2.697   2.083   3.343
 1782SOL    HW1 6245   2.613   2.074   3.398
 1782SOL    HW2 6246   2.759   2.147   3.388
 1783SOL     OW 6247   1.659   4.148   6.499
 1783SOL    HW1 6248   1.675   4.204   6.418
 1783SOL    HW2 6249   1.711   4.062   6.490
 1784SOL     OW 6250   3.151   0.832   4.640
 1784SOL    HW1 6251   3.110   0.752   4.596
 1784SOL    HW2 6252   3.081   0.880   4.692
 1785SOL     OW 6253   5.045   6.134   3.749
 1785SOL    HW1 6254   5.020   6.118   3.844
 1785SOL    HW2 6255   4.969   6.178   3.701
 1786SOL     OW 6256   1.426   2.848   1.395
 1786SOL    HW1 6257   1.514   2.842   1.347
 1786SOL    HW2 6258   1.365   2.776   1.362
 1787SOL     OW 6259   2.205   0.835   4.343
 1787SOL    HW1 6260   2.258   0.884   4.413
 1787SOL    HW2 6261   2.204   0.888   4.259
 1788SOL     OW 6262   3.066   3.011   0.563
 1788SOL    HW1 6263   3.128   2.947   0.608
 1788SOL    HW2 6264   3.119   3.090   0.530
 1789SOL     OW 6265   6.620   2.272   2.350
 1789SOL    HW1 6266   6.578   2.239   2.435
 1789SOL    HW2 6267   6.558   2.256   2.273
 1790SOL     OW 6268   3.979   6.521   4.218
 1790SOL    HW1 6269   4.030   6.541   4.301
 1790SOL    HW2 6270   3.973   6.422   4.205
 1791SOL     OW 6271   0.439   1.878   4.456
 1791SOL    HW1 6272   0.380   1.802   4.428
 1791SOL    HW2 6273   0.474   1.860   4.548
 1792SOL     OW 6274   0.123   2.809   4.169
 1792SOL    HW1 6275   0.216   2.843   4.182
 1792SOL    HW2 6276   0.123   2.734   4.103
 1793SOL     OW 6277   6.487   0.400   3.639
 1793SOL    HW1 6278   6.469   0.483   3.693
 1793SOL    HW2 6279   6.573   0.360   3.668
 1794SOL     OW 6280   5.241   5.781   6.507
 1794SOL    HW1 6281   5.236   5.837   6.590
 1794SOL    HW2 6282   5.150   5.771   6.469
 1795SOL     OW 6283   0.777   3.605   2.545
 1795SOL    HW1 6284   0.718   3.589   2.466
 1795SOL    HW2 6285   0.726   3.656   2.615
 1796SOL     OW 6286   2.149   1.003   4.141
 1796SOL    HW1 6287   2.115   1.053   4.221
 1796SOL    HW2 6288   2.113   1.045   4.058
 1797SOL     OW 6289   0.989   0.985   6.387
 1797SOL    HW1 6290   1.004   0.898   6.341
 1797SOL    HW2 6291   1.035   0.985   6.476
 1798SOL     OW 6292   5.138   2.425   4.888
 1798SOL    HW1 6293   5.217   2.485   4.876
 1798SOL    HW2 6294   5.133   2.394   4.983
 1799SOL     OW 6295   6.875   1.534   6.346
 1799SOL    HW1 6296   6.897   1.620   6.300
 1799SOL    HW2 6297   6.957   1.478   6.354
 1800SOL     OW 6298   4.643   5.556   2.961
 1800SOL    HW1 6299   4.567   5.550   2.896
 1800SOL    HW2 6300   4.609   5.584   3.050
 1801SOL     OW 6301   0.820   0.927   2.123
 1801SOL    HW1 6302   0.888   0.993   2.156
 1801SOL    HW2 6303   0.745   0.975   2.078
 1802SOL     OW 6304   5.228   5.016   2.012
 1802SOL    HW1 6305   5.271   4.945   1.958
 1802SOL    HW2 6306   5.299   5.072   2.056
 1803SOL     OW 6307   6.698   6.285   0.496
 1803SOL    HW1 6308   6.783   6.234   0.486
 1803SOL    HW2 6309   6.675   6.328   0.409
 1804SOL     OW 6310   2.112   3.984   5.988
 1804SOL    HW1 6311   2.186   3.933   6.031
 1804SOL    HW2 6312   2.118   3.974   5.888
 1805SOL     OW 6313   6.855   4.086   5.630
 1805SOL    HW1 6314   6.763   4.058   5.659
 1805SOL    HW2 6315   6.871   4.056   5.535
 1806SOL     OW 6316   1.227   1.298   0.858
 1806SOL    HW1 6317   1.232   1.240   0.777
 1806SOL    HW2 6318   1.316   1.297   0.904
 1807SOL     OW 6319   5.232   2.399   5.946
 1807SOL    HW1 6320   5.274   2.440   6.027
 1807SOL    HW2 6321   5.260   2.449   5.864
 1808SOL     OW 6322   6.585   3.247   5.714
 1808SOL    HW1 6323   6.619   3.336   5.744
 1808SOL    HW2 6324   6.609   3.233   5.618
 1809SOL     OW 6325   2.210   3.142   4.458
 1809SOL    HW1 6326   2.243   3.230   4.493
 1809SOL    HW2 6327   2.205   3.076   4.533
 1810SOL     OW 6328   2.574   0.624   5.550
 1810SOL    HW1 6329   2.650   0.637   5.485
 1810SOL    HW2 6330   2.526   0.710   5.564
 1811SOL     OW 6331   4.537   4.635   3.504
 1811SOL    HW1 6332   4.527   4.735   3.507
 1811SOL    HW2 6333   4.557   4.607   3.410
 1812SOL     OW 6334   4.257   6.796   6.568
 1812SOL    HW1 6335   4.250   6.864   6.495
 1812SOL    HW2 6336   4.344   6.807   6.616
 1813SOL     OW 6337   4.582   4.795   0.869
 1813SOL    HW1 6338   4.489   4.801   0.904
 1813SOL    HW2 6339   4.633   4.877   0.897
 1814SOL     OW 6340   6.854   0.653   0.359
 1814SOL    HW1 6341   6.771   0.598   0.372
 1814SOL    HW2 6342   6.905   0.618   0.281
 1815SOL     OW 6343   6.537   2.478   1.566
 1815SOL    HW1 6344   6.481   2.548   1.609
 1815SOL    HW2 6345   6.627   2.476   1.610
 1816SOL     OW 6346   1.949   4.086   1.116
 1816SOL    HW1 6347   1.935   3.990   1.142
 1816SOL    HW2 6348   1.961   4.141   1.199
 1817SOL     OW 6349   2.814   6.362   3.493
 1817SOL    HW1 6350   2.863   6.404   3.569
 1817SOL    HW2 6351   2.835   6.410   3.408
 1818SOL     OW 6352   1.856   6.264   2.485
 1818SOL    HW1 6353   1.778   6.323   2.463
 1818SOL    HW2 6354   1.824   6.186   2.539
 1819SOL     OW 6355   0.647   5.276   1.768
 1819SOL    HW1 6356   0.597   5.196   1.736
 1819SOL    HW2 6357   0.739   5.277   1.727
 1820SOL     OW 6358   3.778   1.069   2.745
 1820SOL    HW1 6359   3.780   1.003   2.670
 1820SOL    HW2 6360   3.733   1.153   2.715
 1821SOL     OW 6361   2.603   0.550   1.747
 1821SOL    HW1 6362   2.564   0.490   1.817
 1821SOL    HW2 6363   2.542   0.628   1.731
 1822SOL     OW 6364   2.304   2.992   1.073
 1822SOL    HW1 6365   2.253   2.986   1.159
 1822SOL    HW2 6366   2.274   3.072   1.021
 1823SOL     OW 6367   2.567   5.892   3.258
 1823SOL    HW1 6368   2.547   5.814   3.198
 1823SOL    HW2 6369   2.661   5.923   3.241
 1824SOL     OW 6370   3.540   4.032   1.421
 1824SOL    HW1 6371   3.441   4.030   1.439
 1824SOL    HW2 6372   3.558   3.985   1.335
 1825SOL     OW 6373   1.310   2.217   3.554
 1825SOL    HW1 6374   1.353   2.138   3.511
 1825SOL    HW2 6375   1.294   2.198   3.650
 1826SOL     OW 6376   2.996   0.393   0.685
 1826SOL    HW1 6377   2.912   0.443   0.709
 1826SOL    HW2 6378   2.990   0.300   0.719
 1827SOL     OW 6379   0.559   5.529   1.698
 1827SOL    HW1 6380   0.472   5.539   1.746
 1827SOL    HW2 6381   0.589   5.434   1.702
 1828SOL     OW 6382   1.227   2.328   0.876
 1828SOL    HW1 6383   1.137   2.287   0.889
 1828SOL    HW2 6384   1.220   2.405   0.813
 1829SOL     OW 6385   2.922   0.781   3.070
 1829SOL    HW1 6386   2.975   0.791   2.985
 1829SOL    HW2 6387   2.939   0.690   3.108
 1830SOL     OW 6388   6.321   6.443   4.028
 1830SOL    HW1 6389   6.244   6.499   3.996
 1830SOL    HW2 6390   6.406   6.493   4.014
 1831SOL     OW 6391   6.162   0.504   2.600
 1831SOL    HW1 6392   6.066   0.510   2.628
 1831SOL    HW2 6393   6.167   0.498   2.500
 1832SOL     OW 6394   4.575   1.170   1.636
 1832SOL    HW1 6395   4.642   1.096   1.649
 1832SOL    HW2 6396   4.588   1.211   1.546
 1833SOL     OW 6397   5.260   0.302   6.949
 1833SOL    HW1 6398   5.332   0.317   6.881
 1833SOL    HW2 6399   5.255   0.381   7.010
 1834SOL     OW 6400   3.030   3.798   0.376
 1834SOL    HW1 6401   3.036   3.704   0.341
 1834SOL    HW2 6402   2.944   3.839   0.346
 1835SOL     OW 6403   6.784   4.270   2.130
 1835SOL    HW1 6404   6.798   4.328   2.210
 1835SOL    HW2 6405   6.686   4.248   2.122
 1836SOL     OW 6406   5.195   2.386   1.323
 1836SOL    HW1 6407   5.126   2.452   1.291
 1836SOL    HW2 6408   5.150   2.317   1.379
 1837SOL     OW 6409   0.913   0.740   4.986
 1837SOL    HW1 6410   0.882   0.780   4.899
 1837SOL    HW2 6411   0.858   0.660   5.007
 1838SOL     OW 6412   0.066   1.767   5.104
 1838SOL    HW1 6413   7.019   1.722   5.162
 1838SOL    HW2 6414   0.025   1.788   5.015
 1839SOL     OW 6415   5.919   2.118   5.390
 1839SOL    HW1 6416   5.835   2.162   5.356
 1839SOL    HW2 6417   5.929   2.136   5.487
 1840SOL     OW 6418   3.235   6.736   1.352
 1840SOL    HW1 6419   3.196   6.797   1.421
 1840SOL    HW2 6420   3.162   6.690   1.302
 1841SOL     OW 6421   2.463   0.718   3.350
 1841SOL    HW1 6422   2.389   0.700   3.415
 1841SOL    HW2 6423   2.450   0.808   3.308
 1842SOL     OW 6424   1.690   5.892   0.389
 1842SOL    HW1 6425   1.671   5.925   0.482
 1842SOL    HW2 6426   1.761   5.821   0.393
 1843SOL     OW 6427   6.134   2.362   3.374
 1843SOL    HW1 6428   6.086   2.409   3.448
 1843SOL    HW2 6429   6.133   2.418   3.292
 1844SOL     OW 6430   3.120   7.010   5.600
 1844SOL    HW1 6431   3.114   0.061   5.530
 1844SOL    HW2 6432   3.215   6.996   5.627
 1845SOL     OW 6433   2.081   0.137   5.005
 1845SOL    HW1 6434   2.129   0.087   4.933
 1845SOL    HW2 6435   2.017   0.201   4.964
 1846SOL     OW 6436   4.053   2.145   1.276
 1846SOL    HW1 6437   4.110   2.081   1.222
 1846SOL    HW2 6438   3.967   2.100   1.300
 1847SOL     OW 6439   1.540   1.116   6.752
 1847SOL    HW1 6440   1.489   1.109   6.837
 1847SOL    HW2 6441   1.546   1.026   6.709
 1848SOL     OW 6442   1.150   6.163   3.104
 1848SOL    HW1 6443   1.144   6.256   3.069
 1848SOL    HW2 6444   1.101   6.101   3.042
 1849SOL     OW 6445   4.384   2.666   0.794
 1849SOL    HW1 6446   4.467   2.709   0.759
 1849SOL    HW2 6447   4.340   2.613   0.720
 1850SOL     OW 6448   0.851   2.786   1.829
 1850SOL    HW1 6449   0.892   2.763   1.917
 1850SOL    HW2 6450   0.919   2.830   1.771
 1851SOL     OW 6451   6.801   2.645   0.383
 1851SOL    HW1 6452   6.716   2.681   0.421
 1851SOL    HW2 6453   6.864   2.721   0.364
 1852SOL     OW 6454   6.291   4.601   2.552
 1852SOL    HW1 6455   6.202   4.608   2.597
 1852SOL    HW2 6456   6.296   4.515   2.500
 1853SOL     OW 6457   0.103   2.107   2.675
 1853SOL    HW1 6458   0.062   2.066   2.593
 1853SOL    HW2 6459   0.062   2.067   2.757
 1854SOL     OW 6460   2.493   5.699   3.016
 1854SOL    HW1 6461   2.496   5.618   2.957
 1854SOL    HW2 6462   2.403   5.707   3.059
 1855SOL     OW 6463   5.150   2.885   5.417
 1855SOL    HW1 6464   5.217   2.897   5.490
 1855SOL    HW2 6465   5.060   2.912   5.449
 1856SOL     OW 6466   6.298   3.779   5.926
 1856SOL    HW1 6467   6.293   3.838   6.008
 1856SOL    HW2 6468   6.252   3.824   5.850
 1857SOL     OW 6469   4.606   1.615   5.931
 1857SOL    HW1 6470   4.611   1.713   5.915
 1857SOL    HW2 6471   4.649   1.593   6.019
 1858SOL     OW 6472   5.747   3.785   4.002
 1858SOL    HW1 6473   5.677   3.782   4.073
 1858SOL    HW2 6474   5.741   3.702   3.946
 1859SOL     OW 6475   5.120   2.381   3.282
 1859SOL    HW1 6476   5.135   2.314   3.210
 1859SOL    HW2 6477   5.172   2.355   3.364
 1860SOL     OW 6478   6.377   0.430   4.988
 1860SOL    HW1 6479   6.408   0.367   5.059
 1860SOL    HW2 6480   6.435   0.512   4.989
 1861SOL     OW 6481   6.244   6.795   2.147
 1861SOL    HW1 6482   6.334   6.765   2.180
 1861SOL    HW2 6483   6.173   6.743   2.194
 1862SOL     OW 6484   2.221   0.502   6.316
 1862SOL    HW1 6485   2.298   0.557   6.285
 1862SOL    HW2 6486   2.253   0.410   6.340
 1863SOL     OW 6487   0.777   2.618   3.041
 1863SOL    HW1 6488   0.763   2.527   3.001
 1863SOL    HW2 6489   0.866   2.621   3.086
 1864SOL     OW 6490   1.538   0.144   5.417
 1864SOL    HW1 6491   1.582   0.217   5.469
 1864SOL    HW2 6492   1.465   0.182   5.360
 1865SOL     OW 6493   3.082   6.603   6.609
 1865SOL    HW1 6494   3.128   6.686   6.639
 1865SOL    HW2 6495   3.041   6.618   6.519
 1866SOL     OW 6496   4.584   4.891   2.946
 1866SOL    HW1 6497   4.566   4.988   2.961
 1866SOL    HW2 6498   4.558   4.866   2.852
 1867SOL     OW 6499   0.240   3.821   0.017
 1867SOL    HW1 6500   0.203   3.853   6.950
 1867SOL    HW2 6501   0.222   3.723   0.026
 1868SOL     OW 6502   4.867   3.167   6.356
 1868SOL    HW1 6503   4.918   3.210   6.281
 1868SOL    HW2 6504   4.928   3.159   6.436
 1869SOL     OW 6505   5.867   3.121   5.629
 1869SOL    HW1 6506   5.889   3.209   5.586
 1869SOL    HW2 6507   5.945   3.091   5.684
 1870SOL     OW 6508   0.888   3.404   5.342
 1870SOL    HW1 6509   0.979   3.373   5.317
 1870SOL    HW2 6510   0.865   3.372   5.434
 1871SOL     OW 6511   0.803   0.621   6.914
 1871SOL    HW1 6512   0.729   0.660   6.970
 1871SOL    HW2 6513   0.855   0.694   6.871
 1872SOL     OW 6514   3.874   1.762   6.542
 1872SOL    HW1 6515   3.891   1.692   6.611
 1872SOL    HW2 6516   3.927   1.741   6.460
 1873SOL     OW 6517   5.074   0.844   6.038
 1873SOL    HW1 6518   4.974   0.855   6.038
 1873SOL    HW2 6519   5.114   0.900   6.111
 1874SOL     OW 6520   3.065   1.493   0.569
 1874SOL    HW1 6521   3.116   1.522   0.650
 1874SOL    HW2 6522   3.121   1.508   0.488
 1875SOL     OW 6523   6.878   0.655   6.850
 1875SOL    HW1 6524   6.893   0.747   6.812
 1875SOL    HW2 6525   6.958   0.627   6.902
 1876SOL     OW 6526   3.288   6.288   6.122
 1876SOL    HW1 6527   3.298   6.279   6.023
 1876SOL    HW2 6528   3.289   6.198   6.165
 1877SOL     OW 6529   0.843   1.197   3.018
 1877SOL    HW1 6530   0.772   1.265   2.998
 1877SOL    HW2 6531   0.803   1.124   3.074
 1878SOL     OW 6532   6.744   2.937   4.038
 1878SOL    HW1 6533   6.840   2.949   4.016
 1878SOL    HW2 6534   6.735   2.880   4.120
 1879SOL     OW 6535   1.474   5.171   3.746
 1879SOL    HW1 6536   1.424   5.257   3.742
 1879SOL    HW2 6537   1.508   5.156   3.838
 1880SOL     OW 6538   0.065   0.583   4.525
 1880SOL    HW1 6539   0.029   0.598   4.618
 1880SOL    HW2 6540   0.021   0.646   4.462
 1881SOL     OW 6541   6.581   3.121   2.852
 1881SOL    HW1 6542   6.617   3.031   2.826
 1881SOL    HW2 6543   6.656   3.181   2.879
 1882SOL     OW 6544   1.293   3.614   6.599
 1882SOL    HW1 6545   1.388   3.596   6.570
 1882SOL    HW2 6546   1.249   3.674   6.532
 1883SOL     OW 6547   0.966   2.132   3.454
 1883SOL    HW1 6548   0.992   2.041   3.487
 1883SOL    HW2 6549   0.944   2.128   3.357
 1884SOL     OW 6550   6.435   2.939   0.365
 1884SOL    HW1 6551   6.486   2.871   0.313
 1884SOL    HW2 6552   6.349   2.898   0.396
 1885SOL     OW 6553   1.244   2.203   5.959
 1885SOL    HW1 6554   1.341   2.217   5.980
 1885SOL    HW2 6555   1.208   2.129   6.017
 1886SOL     OW 6556   2.459   0.451   1.109
 1886SOL    HW1 6557   2.432   0.390   1.183
 1886SOL    HW2 6558   2.517   0.524   1.145
 1887SOL     OW 6559   1.370   6.123   5.355
 1887SOL    HW1 6560   1.339   6.083   5.269
 1887SOL    HW2 6561   1.431   6.059   5.402
 1888SOL     OW 6562   2.896   2.395   6.798
 1888SOL    HW1 6563   2.831   2.378   6.872
 1888SOL    HW2 6564   2.985   2.421   6.836
 1889SOL     OW 6565   0.464   2.878   6.012
 1889SOL    HW1 6566   0.423   2.797   5.970
 1889SOL    HW2 6567   0.549   2.852   6.057
 1890SOL     OW 6568   1.574   6.902   4.369
 1890SOL    HW1 6569   1.668   6.903   4.337
 1890SOL    HW2 6570   1.570   6.865   4.462
 1891SOL     OW 6571   5.255   1.768   2.563
 1891SOL    HW1 6572   5.326   1.822   2.608
 1891SOL    HW2 6573   5.289   1.676   2.545
 1892SOL     OW 6574   2.594   1.176   1.655
 1892SOL    HW1 6575   2.593   1.254   1.593
 1892SOL    HW2 6576   2.504   1.132   1.655
 1893SOL     OW 6577   3.656   2.706   6.848
 1893SOL    HW1 6578   3.672   2.785   6.789
 1893SOL    HW2 6579   3.713   2.714   6.930
 1894SOL     OW 6580   4.020   3.662   3.800
 1894SOL    HW1 6581   3.943   3.721   3.774
 1894SOL    HW2 6582   4.007   3.571   3.762
 1895SOL     OW 6583   4.548   0.653   1.356
 1895SOL    HW1 6584   4.610   0.729   1.375
 1895SOL    HW2 6585   4.545   0.637   1.257
 1896SOL     OW 6586   5.993   0.298   1.489
 1896SOL    HW1 6587   5.901   0.294   1.449
 1896SOL    HW2 6588   6.053   0.234   1.441
 1897SOL     OW 6589   1.442   4.143   1.753
 1897SOL    HW1 6590   1.528   4.192   1.736
 1897SOL    HW2 6591   1.461   4.062   1.809
 1898SOL     OW 6592   2.242   5.726   3.093
 1898SOL    HW1 6593   2.185   5.764   3.020
 1898SOL    HW2 6594   2.185   5.701   3.171
 1899SOL     OW 6595   1.276   0.823   2.688
 1899SOL    HW1 6596   1.278   0.725   2.708
 1899SOL    HW2 6597   1.193   0.863   2.726
 1900SOL     OW 6598   1.081   0.430   6.184
 1900SOL    HW1 6599   1.180   0.442   6.192
 1900SOL    HW2 6600   1.046   0.380   6.264
 1901SOL     OW 6601   2.010   2.085   0.605
 1901SOL    HW1 6602   2.092   2.070   0.660
 1901SOL    HW2 6603   2.029   2.154   0.535
 1902SOL     OW 6604   2.150   2.302   4.822
 1902SOL    HW1 6605   2.145   2.202   4.827
 1902SOL    HW2 6606   2.057   2.340   4.818
 1903SOL     OW 6607   6.921   3.235   2.673
 1903SOL    HW1 6608   6.835   3.278   2.647
 1903SOL    HW2 6609   6.925   3.142   2.635
 1904SOL     OW 6610   5.920   6.007   3.561
 1904SOL    HW1 6611   5.857   5.992   3.485
 1904SOL    HW2 6612   5.996   5.942   3.555
 1905SOL     OW 6613   2.083   0.381   4.067
 1905SOL    HW1 6614   2.158   0.423   4.017
 1905SOL    HW2 6615   1.999   0.432   4.050
 1906SOL     OW 6616   2.124   0.348   5.173
 1906SOL    HW1 6617   2.222   0.363   5.186
 1906SOL    HW2 6618   2.109   0.287   5.095
 1907SOL     OW 6619   3.448   0.494   2.410
 1907SOL    HW1 6620   3.444   0.397   2.390
 1907SOL    HW2 6621   3.504   0.541   2.342
 1908SOL     OW 6622   3.761   6.725   5.489
 1908SOL    HW1 6623   3.695   6.688   5.424
 1908SOL    HW2 6624   3.795   6.813   5.456
 1909SOL     OW 6625   0.611   3.733   2.698
 1909SOL    HW1 6626   0.568   3.693   2.779
 1909SOL    HW2 6627   0.578   3.826   2.685
 1910SOL     OW 6628   0.422   2.990   6.595
 1910SOL    HW1 6629   0.328   2.958   6.583
 1910SOL    HW2 6630   0.428   3.047   6.677
 1911SOL     OW 6631   6.240   3.752   5.295
 1911SOL    HW1 6632   6.298   3.709   5.363
 1911SOL    HW2 6633   6.177   3.685   5.256
 1912SOL     OW 6634   3.949   5.736   0.883
 1912SOL    HW1 6635   3.939   5.638   0.865
 1912SOL    HW2 6636   3.924   5.788   0.801
 1913SOL     OW 6637   2.399   6.596   4.396
 1913SOL    HW1 6638   2.342   6.514   4.405
 1913SOL    HW2 6639   2.495   6.569   4.383
 1914SOL     OW 6640   3.421   2.884   6.134
 1914SOL    HW1 6641   3.477   2.904   6.215
 1914SOL    HW2 6642   3.397   2.787   6.135
 1915SOL     OW 6643   4.010   2.073   5.243
 1915SOL    HW1 6644   3.979   2.081   5.338
 1915SOL    HW2 6645   3.935   2.098   5.181
 1916SOL     OW 6646   3.888   5.857   1.429
 1916SOL    HW1 6647   3.939   5.820   1.352
 1916SOL    HW2 6648   3.820   5.790   1.460
 1917SOL     OW 6649   2.764   3.227   5.747
 1917SOL    HW1 6650   2.775   3.280   5.663
 1917SOL    HW2 6651   2.681   3.172   5.742
 1918SOL     OW 6652   1.173   1.257   5.342
 1918SOL    HW1 6653   1.161   1.356   5.337
 1918SOL    HW2 6654   1.260   1.236   5.386
 1919SOL     OW 6655   1.733   0.460   1.916
 1919SOL    HW1 6656   1.771   0.438   2.006
 1919SOL    HW2 6657   1.684   0.547   1.921
 1920SOL     OW 6658   0.570   3.777   2.961
 1920SOL    HW1 6659   0.605   3.868   2.983
 1920SOL    HW2 6660   0.475   3.769   2.992
 1921SOL     OW 6661   1.354   4.379   6.180
 1921SOL    HW1 6662   1.256   4.386   6.202
 1921SOL    HW2 6663   1.407   4.417   6.255
 1922SOL     OW 6664   2.099   3.922   0.731
 1922SOL    HW1 6665   2.164   3.977   0.784
 1922SOL    HW2 6666   2.114   3.825   0.753
 1923SOL     OW 6667   3.511   0.690   5.514
 1923SOL    HW1 6668   3.555   0.602   5.494
 1923SOL    HW2 6669   3.514   0.748   5.433
 1924SOL     OW 6670   4.933   5.840   1.086
 1924SOL    HW1 6671   4.961   5.825   0.991
 1924SOL    HW2 6672   4.888   5.757   1.121
 1925SOL     OW 6673   1.747   4.971   0.536
 1925SOL    HW1 6674   1.840   4.950   0.565
 1925SOL    HW2 6675   1.682   4.948   0.609
 1926SOL     OW 6676   2.503   6.753   3.190
 1926SOL    HW1 6677   2.504   6.672   3.249
 1926SOL    HW2 6678   2.517   6.726   3.095
 1927SOL     OW 6679   2.392   4.373   0.006
 1927SOL    HW1 6680   2.300   4.339   7.003
 1927SOL    HW2 6681   2.386   4.431   0.087
 1928SOL     OW 6682   6.761   4.363   5.580
 1928SOL    HW1 6683   6.687   4.349   5.515
 1928SOL    HW2 6684   6.799   4.275   5.609
 1929SOL     OW 6685   1.824   6.039   1.615
 1929SOL    HW1 6686   1.909   5.990   1.635
 1929SOL    HW2 6687   1.826   6.070   1.520
 1930SOL     OW 6688   3.597   4.216   6.460
 1930SOL    HW1 6689   3.663   4.282   6.425
 1930SOL    HW2 6690   3.639   4.162   6.533
 1931SOL     OW 6691   1.207   2.547   1.732
 1931SOL    HW1 6692   1.168   2.483   1.798
 1931SOL    HW2 6693   1.136   2.574   1.667
 1932SOL     OW 6694   4.627   2.513   3.181
 1932SOL    HW1 6695   4.689   2.484   3.108
 1932SOL    HW2 6696   4.536   2.527   3.143
 1933SOL     OW 6697   2.263   3.177   0.866
 1933SOL    HW1 6698   2.285   3.145   0.774
 1933SOL    HW2 6699   2.276   3.276   0.871
 1934SOL     OW 6700   0.328   6.807   5.173
 1934SOL    HW1 6701   0.339   6.711   5.197
 1934SOL    HW2 6702   0.234   6.835   5.192
 1935SOL     OW 6703   4.412   5.895   4.029
 1935SOL    HW1 6704   4.357   5.815   4.004
 1935SOL    HW2 6705   4.440   5.887   4.125
 1936SOL     OW 6706   5.720   3.968   3.782
 1936SOL    HW1 6707   5.727   3.897   3.851
 1936SOL    HW2 6708   5.635   4.019   3.795
 1937SOL     OW 6709   4.105   6.201   1.210
 1937SOL    HW1 6710   4.177   6.135   1.185
 1937SOL    HW2 6711   4.085   6.192   1.307
 1938SOL     OW 6712   1.976   1.551   1.540
 1938SOL    HW1 6713   1.901   1.618   1.540
 1938SOL    HW2 6714   2.036   1.569   1.618
 1939SOL     OW 6715   6.583   6.788   4.499
 1939SOL    HW1 6716   6.604   6.749   4.409
 1939SOL    HW2 6717   6.491   6.761   4.527
 1940SOL     OW 6718   5.758   5.264   0.776
 1940SOL    HW1 6719   5.832   5.315   0.820
 1940SOL    HW2 6720   5.707   5.213   0.844
 1941SOL     OW 6721   1.002   3.428   4.257
 1941SOL    HW1 6722   0.949   3.476   4.187
 1941SOL    HW2 6723   1.019   3.334   4.227
 1942SOL     OW 6724   5.417   2.434   1.178
 1942SOL    HW1 6725   5.484   2.484   1.233
 1942SOL    HW2 6726   5.338   2.409   1.235
 1943SOL     OW 6727   2.326   6.834   3.471
 1943SOL    HW1 6728   2.353   6.884   3.388
 1943SOL    HW2 6729   2.390   6.759   3.486
 1944SOL     OW 6730   6.356   3.173   0.170
 1944SOL    HW1 6731   6.267   3.208   0.199
 1944SOL    HW2 6732   6.383   3.097   0.229
 1945SOL     OW 6733   4.478   5.000   0.528
 1945SOL    HW1 6734   4.379   4.986   0.532
 1945SOL    HW2 6735   4.508   5.050   0.610
 1946SOL     OW 6736   6.053   6.322   0.606
 1946SOL    HW1 6737   6.130   6.284   0.556
 1946SOL    HW2 6738   6.085   6.388   0.674
 1947SOL     OW 6739   5.349   6.044   4.341
 1947SOL    HW1 6740   5.375   5.962   4.392
 1947SOL    HW2 6741   5.420   6.114   4.353
 1948SOL     OW 6742   6.329   5.263   3.581
 1948SOL    HW1 6743   6.300   5.343   3.634
 1948SOL    HW2 6744   6.253   5.233   3.523
 1949SOL     OW 6745   3.234   3.541   5.844
 1949SOL    HW1 6746   3.293   3.485   5.902
 1949SOL    HW2 6747   3.146   3.495   5.833
 1950SOL     OW 6748   3.640   3.273   0.866
 1950SOL    HW1 6749   3.572   3.209   0.829
 1950SOL    HW2 6750   3.717   3.279   0.803
 1951SOL     OW 6751   6.401   4.841   0.213
 1951SOL    HW1 6752   6.310   4.804   0.198
 1951SOL    HW2 6753   6.464   4.765   0.234
 1952SOL     OW 6754   4.591   3.795   1.181
 1952SOL    HW1 6755   4.508   3.766   1.229
 1952SOL    HW2 6756   4.671   3.778   1.239
 1953SOL     OW 6757   6.243   1.674   5.824
 1953SOL    HW1 6758   6.315   1.735   5.791
 1953SOL    HW2 6759   6.226   1.692   5.921
 1954SOL     OW 6760   6.954   0.516   1.602
 1954SOL    HW1 6761   0.025   0.492   1.568
 1954SOL    HW2 6762   6.946   0.615   1.609
 1955SOL     OW 6763   0.746   0.709   3.161
 1955SOL    HW1 6764   0.677   0.676   3.097
 1955SOL    HW2 6765   0.750   0.649   3.240
 1956SOL     OW 6766   4.645   6.720   1.751
 1956SOL    HW1 6767   4.606   6.810   1.736
 1956SOL    HW2 6768   4.637   6.665   1.668
 1957SOL     OW 6769   5.471   4.401   3.889
 1957SOL    HW1 6770   5.504   4.489   3.856
 1957SOL    HW2 6771   5.538   4.330   3.869
 1958SOL     OW 6772   4.668   1.871   1.974
 1958SOL    HW1 6773   4.615   1.821   2.042
 1958SOL    HW2 6774   4.719   1.806   1.917
 1959SOL     OW 6775   1.831   0.437   3.745
 1959SOL    HW1 6776   1.891   0.458   3.668
 1959SOL    HW2 6777   1.836   0.339   3.765
 1960SOL     OW 6778   0.408   4.503   2.594
 1960SOL    HW1 6779   0.482   4.487   2.658
 1960SOL    HW2 6780   0.410   4.598   2.563
 1961SOL     OW 6781   6.297   5.008   5.049
 1961SOL    HW1 6782   6.354   4.960   5.116
 1961SOL    HW2 6783   6.242   5.078   5.096
 1962SOL     OW 6784   1.695   5.798   2.230
 1962SOL    HW1 6785   1.751   5.880   2.243
 1962SOL    HW2 6786   1.599   5.820   2.251
 1963SOL     OW 6787   0.998   1.630   1.138
 1963SOL    HW1 6788   0.923   1.646   1.073
 1963SOL    HW2 6789   1.015   1.713   1.190
 1964SOL     OW 6790   4.469   4.515   2.144
 1964SOL    HW1 6791   4.506   4.427   2.114
 1964SOL    HW2 6792   4.413   4.554   2.070
 1965SOL     OW 6793   1.023   3.182   4.193
 1965SOL    HW1 6794   0.977   3.116   4.252
 1965SOL    HW2 6795   0.980   3.182   4.103
 1966SOL     OW 6796   0.570   6.342   0.981
 1966SOL    HW1 6797   0.598   6.376   0.892
 1966SOL    HW2 6798   0.651   6.312   1.033
 1967SOL     OW 6799   5.515   2.805   4.274
 1967SOL    HW1 6800   5.513   2.705   4.284
 1967SOL    HW2 6801   5.558   2.846   4.354
 1968SOL     OW 6802   1.269   7.015   5.450
 1968SOL    HW1 6803   1.325   0.078   5.449
 1968SOL    HW2 6804   1.248   6.988   5.356
 1969SOL     OW 6805   2.282   1.689   0.758
 1969SOL    HW1 6806   2.297   1.613   0.821
 1969SOL    HW2 6807   2.261   1.652   0.667
 1970SOL     OW 6808   2.532   6.764   5.931
 1970SOL    HW1 6809   2.544   6.710   6.014
 1970SOL    HW2 6810   2.444   6.811   5.933
 1971SOL     OW 6811   0.516   0.423   5.211
 1971SOL    HW1 6812   0.569   0.458   5.288
 1971SOL    HW2 6813   0.517   0.323   5.212
 1972SOL     OW 6814   5.088   2.189   1.526
 1972SOL    HW1 6815   5.072   2.262   1.592
 1972SOL    HW2 6816   5.149   2.121   1.566
 1973SOL     OW 6817   3.017   3.440   0.517
 1973SOL    HW1 6818   2.924   3.455   0.549
 1973SOL    HW2 6819   3.023   3.464   0.420
 1974SOL     OW 6820   5.487   0.206   4.592
 1974SOL    HW1 6821   5.537   0.146   4.654
 1974SOL    HW2 6822   5.435   0.151   4.526
 1975SOL     OW 6823   1.812   1.742   4.577
 1975SOL    HW1 6824   1.857   1.785   4.498
 1975SOL    HW2 6825   1.723   1.786   4.591
 1976SOL     OW 6826   6.619   6.842   0.568
 1976SOL    HW1 6827   6.693   6.906   0.547
 1976SOL    HW2 6828   6.647   6.781   0.642
 1977SOL     OW 6829   1.890   3.332   4.912
 1977SOL    HW1 6830   1.862   3.354   4.819
 1977SOL    HW2 6831   1.990   3.324   4.916
 1978SOL     OW 6832   1.875   5.797   3.456
 1978SOL    HW1 6833   1.811   5.865   3.491
 1978SOL    HW2 6834   1.945   5.778   3.524
 1979SOL     OW 6835   5.217   4.676   6.668
 1979SOL    HW1 6836   5.262   4.588   6.684
 1979SOL    HW2 6837   5.239   4.709   6.576
 1980SOL     OW 6838   3.267   0.546   4.074
 1980SOL    HW1 6839   3.193   0.499   4.121
 1980SOL    HW2 6840   3.321   0.599   4.140
 1981SOL     OW 6841   6.487   3.418   2.010
 1981SOL    HW1 6842   6.525   3.406   1.918
 1981SOL    HW2 6843   6.440   3.334   2.037
 1982SOL     OW 6844   0.268   4.289   4.333
 1982SOL    HW1 6845   0.176   4.326   4.342
 1982SOL    HW2 6846   0.331   4.343   4.390
 1983SOL     OW 6847   1.536   0.074   1.754
 1983SOL    HW1 6848   1.462   0.023   1.712
 1983SOL    HW2 6849   1.565   0.148   1.693
 1984SOL     OW 6850   4.951   2.594   4.790
 1984SOL    HW1 6851   5.033   2.551   4.828
 1984SOL    HW2 6852   4.977   2.673   4.734
 1985SOL     OW 6853   0.423   6.405   2.523
 1985SOL    HW1 6854   0.490   6.361   2.582
 1985SOL    HW2 6855   0.452   6.499   2.503
 1986SOL     OW 6856   2.752   0.947   6.451
 1986SOL    HW1 6857   2.799   0.865   6.416
 1986SOL    HW2 6858   2.720   1.002   6.373
 1987SOL     OW 6859   2.012   1.555   2.930
 1987SOL    HW1 6860   2.059   1.641   2.909
 1987SOL    HW2 6861   1.970   1.562   3.021
 1988SOL     OW 6862   6.561   3.464   0.471
 1988SOL    HW1 6863   6.544   3.499   0.563
 1988SOL    HW2 6864   6.583   3.366   0.476
 1989SOL     OW 6865   2.015   5.675   4.944
 1989SOL    HW1 6866   2.115   5.667   4.940
 1989SOL    HW2 6867   1.989   5.725   5.026
 1990SOL     OW 6868   4.195   5.860   0.926
 1990SOL    HW1 6869   4.246   5.795   0.869
 1990SOL    HW2 6870   4.100   5.830   0.935
 1991SOL     OW 6871   3.130   5.159   6.647
 1991SOL    HW1 6872   3.070   5.093   6.693
 1991SOL    HW2 6873   3.129   5.245   6.697
 1992SOL     OW 6874   6.972   0.566   0.120
 1992SOL    HW1 6875   0.030   0.601   0.068
 1992SOL    HW2 6876   6.987   0.469   0.139
 1993SOL     OW 6877   3.784   2.204   5.883
 1993SOL    HW1 6878   3.880   2.202   5.857
 1993SOL    HW2 6879   3.730   2.246   5.809
 1994SOL     OW 6880   7.019   1.504   0.336
 1994SOL    HW1 6881   7.007   1.429   0.271
 1994SOL    HW2 6882   6.947   1.500   0.405
 1995SOL     OW 6883   4.810   3.077   3.694
 1995SOL    HW1 6884   4.803   2.988   3.648
 1995SOL    HW2 6885   4.806   3.150   3.625
 1996SOL     OW 6886   2.410   2.241   1.025
 1996SOL    HW1 6887   2.430   2.282   0.936
 1996SOL    HW2 6888   2.324   2.279   1.061
 1997SOL     OW 6889   3.609   2.099   4.930
 1997SOL    HW1 6890   3.616   2.005   4.961
 1997SOL    HW2 6891   3.651   2.108   4.840
 1998SOL     OW 6892   2.060   3.732   0.511
 1998SOL    HW1 6893   2.008   3.766   0.433
 1998SOL    HW2 6894   2.120   3.804   0.545
 1999SOL     OW 6895   1.900   6.871   6.569
 1999SOL    HW1 6896   1.959   6.821   6.506
 1999SOL    HW2 6897   1.922   6.969   6.565
 2000SOL     OW 6898   4.139   2.712   5.366
 2000SOL    HW1 6899   4.136   2.661   5.280
 2000SOL    HW2 6900   4.074   2.788   5.362
 2001SOL     OW 6901   2.163   0.695   1.324
 2001SOL    HW1 6902   2.119   0.777   1.361
 2001SOL    HW2 6903   2.252   0.683   1.368
 2002SOL     OW 6904   0.501   4.260   0.554
 2002SOL    HW1 6905   0.466   4.276   0.462
 2002SOL    HW2 6906   0.424   4.248   0.617
 2003SOL     OW 6907   6.147   4.867   2.298
 2003SOL    HW1 6908   6.101   4.846   2.211
 2003SOL    HW2 6909   6.099   4.941   2.345
 2004SOL     OW 6910   5.545   0.685   4.088
 2004SOL    HW1 6911   5.542   0.635   4.174
 2004SOL    HW2 6912   5.473   0.754   4.086
 2005SOL     OW 6913   0.412   4.294   0.292
 2005SOL    HW1 6914   0.326   4.343   0.274
 2005SOL    HW2 6915   0.458   4.274   0.205
 2006SOL     OW 6916   5.652   0.587   3.037
 2006SOL    HW1 6917   5.618   0.645   3.112
 2006SOL    HW2 6918   5.716   0.640   2.982
 2007SOL     OW 6919   4.967   4.116   1.151
 2007SOL    HW1 6920   4.959   4.185   1.079
 2007SOL    HW2 6921   4.912   4.145   1.230
 2008SOL     OW 6922   2.240   4.130   3.728
 2008SOL    HW1 6923   2.246   4.126   3.827
 2008SOL    HW2 6924   2.203   4.044   3.693
 2009SOL     OW 6925   5.002   0.405   2.938
 2009SOL    HW1 6926   5.016   0.364   2.847
 2009SOL    HW2 6927   5.062   0.484   2.949
 2010SOL     OW 6928   3.384   1.791   1.385
 2010SOL    HW1 6929   3.343   1.793   1.294
 2010SOL    HW2 6930   3.440   1.708   1.395
 2011SOL     OW 6931   0.570   0.812   4.614
 2011SOL    HW1 6932   0.596   0.880   4.545
 2011SOL    HW2 6933   0.471   0.798   4.611
 2012SOL     OW 6934   1.115   4.126   2.594
 2012SOL    HW1 6935   1.016   4.114   2.599
 2012SOL    HW2 6936   1.152   4.135   2.687
 2013SOL     OW 6937   6.110   2.766   3.585
 2013SOL    HW1 6938   6.195   2.788   3.634
 2013SOL    HW2 6939   6.075   2.849   3.542
 2014SOL     OW 6940   2.477   6.584   3.427
 2014SOL    HW1 6941   2.539   6.577   3.506
 2014SOL    HW2 6942   2.442   6.493   3.405
 2015SOL     OW 6943   2.408   0.469   0.845
 2015SOL    HW1 6944   2.430   0.427   0.933
 2015SOL    HW2 6945   2.466   0.430   0.773
 2016SOL     OW 6946   1.901   5.987   6.100
 2016SOL    HW1 6947   1.927   6.008   6.195
 2016SOL    HW2 6948   1.807   6.016   6.085
 2017SOL     OW 6949   3.744   0.081   3.311
 2017SOL    HW1 6950   3.814   0.020   3.348
 2017SOL    HW2 6951   3.762   0.175   3.340
 2018SOL     OW 6952   5.855   2.587   4.211
 2018SOL    HW1 6953   5.878   2.682   4.229
 2018SOL    HW2 6954   5.762   2.568   4.242
 2019SOL     OW 6955   5.272   3.755   6.426
 2019SOL    HW1 6956   5.320   3.674   6.394
 2019SOL    HW2 6957   5.243   3.811   6.348
 2020SOL     OW 6958   2.231   0.210   6.068
 2020SOL    HW1 6959   2.165   0.264   6.016
 2020SOL    HW2 6960   2.194   0.190   6.159
 2021SOL     OW 6961   6.471   6.634   4.867
 2021SOL    HW1 6962   6.401   6.652   4.935
 2021SOL    HW2 6963   6.480   6.535   4.854
 2022SOL     OW 6964   1.749   4.619   3.597
 2022SOL    HW1 6965   1.844   4.601   3.574
 2022SOL    HW2 6966   1.734   4.718   3.599
 2023SOL     OW 6967   0.122   0.236   6.728
 2023SOL    HW1 6968   0.214   0.200   6.721
 2023SOL    HW2 6969   0.122   0.333   6.705
 2024SOL     OW 6970   6.899   5.961   3.362
 2024SOL    HW1 6971   6.914   5.871   3.323
 2024SOL    HW2 6972   6.930   6.031   3.298
 2025SOL     OW 6973   4.287   0.966   3.832
 2025SOL    HW1 6974   4.268   0.940   3.738
 2025SOL    HW2 6975   4.284   0.884   3.890
 2026SOL     OW 6976   6.432   2.891   5.713
 2026SOL    HW1 6977   6.431   2.988   5.738
 2026SOL    HW2 6978   6.363   2.874   5.643
 2027SOL     OW 6979   1.322   0.067   1.106
 2027SOL    HW1 6980   1.226   0.093   1.100
 2027SOL    HW2 6981   1.364   0.112   1.185
 2028SOL     OW 6982   3.220   5.256   4.694
 2028SOL    HW1 6983   3.254   5.327   4.632
 2028SOL    HW2 6984   3.284   5.243   4.769
 2029SOL     OW 6985   6.102   2.015   0.527
 2029SOL    HW1 6986   6.116   1.917   0.540
 2029SOL    HW2 6987   6.006   2.037   0.542
 2030SOL     OW 6988   3.033   0.995   3.480
 2030SOL    HW1 6989   3.066   0.901   3.474
 2030SOL    HW2 6990   3.099   1.057   3.439
 2031SOL     OW 6991   0.073   5.835   1.863
 2031SOL    HW1 6992   0.054   5.932   1.878
 2031SOL    HW2 6993   0.159   5.826   1.812
 2032SOL     OW 6994   3.897   1.067   1.967
 2032SOL    HW1 6995   3.944   1.139   1.915
 2032SOL    HW2 6996   3.961   0.994   1.988
 2033SOL     OW 6997   2.444   2.617   6.815
 2033SOL    HW1 6998   2.498   2.649   6.737
 2033SOL    HW2 6999   2.347   2.628   6.796
 2034SOL     OW 7000   2.927   4.541   5.631
 2034SOL    HW1 7001   2.846   4.590   5.663
 2034SOL    HW2 7002   2.981   4.513   5.710
 2035SOL     OW 7003   6.158   6.575   3.197
 2035SOL    HW1 7004   6.144   6.658   3.143
 2035SOL    HW2 7005   6.168   6.598   3.293
 2036SOL     OW 7006   1.154   3.240   2.827
 2036SOL    HW1 7007   1.126   3.179   2.900
 2036SOL    HW2 7008   1.081   3.307   2.810
 2037SOL     OW 7009   6.095   3.089   5.803
 2037SOL    HW1 7010   6.194   3.091   5.819
 2037SOL    HW2 7011   6.051   3.029   5.870
 2038SOL     OW 7012   1.968   1.437   0.053
 2038SOL    HW1 7013   1.983   1.346   0.014
 2038SOL    HW2 7014   2.048   1.494   0.036
 2039SOL     OW 7015   6.800   6.089   3.008
 2039SOL    HW1 7016   6.872   6.105   3.076
 2039SOL    HW2 7017   6.728   6.034   3.048
 2040SOL     OW 7018   1.739   2.983   6.799
 2040SOL    HW1 7019   1.708   2.971   6.705
 2040SOL    HW2 7020   1.684   3.054   6.843
 2041SOL     OW 7021   1.079   6.745   4.870
 2041SOL    HW1 7022   1.008   6.816   4.867
 2041SOL    HW2 7023   1.160   6.776   4.820
 2042SOL     OW 7024   5.021   6.278   6.777
 2042SOL    HW1 7025   4.989   6.294   6.870
 2042SOL    HW2 7026   5.112   6.238   6.779
 2043SOL     OW 7027   6.426   3.383   3.230
 2043SOL    HW1 7028   6.341   3.352   3.186
 2043SOL    HW2 7029   6.420   3.368   3.328
 2044SOL     OW 7030   6.538   0.585   1.367
 2044SOL    HW1 7031   6.629   0.621   1.343
 2044SOL    HW2 7032   6.505   0.528   1.292
 2045SOL     OW 7033   1.939   5.224   4.530
 2045SOL    HW1 7034   1.903   5.294   4.468
 2045SOL    HW2 7035   2.038   5.218   4.519
 2046SOL     OW 7036   6.415   1.855   4.642
 2046SOL    HW1 7037   6.396   1.953   4.637
 2046SOL    HW2 7038   6.472   1.837   4.722
 2047SOL     OW 7039   6.793   2.484   0.173
 2047SOL    HW1 7040   6.784   2.530   0.262
 2047SOL    HW2 7041   6.809   2.552   0.102
 2048SOL     OW 7042   0.464   6.982   5.698
 2048SOL    HW1 7043   0.509   6.914   5.757
 2048SOL    HW2 7044   0.383   6.941   5.656
 2049SOL     OW 7045   5.632   1.369   4.413
 2049SOL    HW1 7046   5.710   1.431   4.415
 2049SOL    HW2 7047   5.630   1.320   4.325
 2050SOL     OW 7048   6.231   2.840   4.094
 2050SOL    HW1 7049   6.290   2.768   4.130
 2050SOL    HW2 7050   6.136   2.813   4.103
 2051SOL     OW 7051   1.684   5.956   6.495
 2051SOL    HW1 7052   1.685   5.885   6.425
 2051SOL    HW2 7053   1.776   5.971   6.530
 2052SOL     OW 7054   1.785   2.661   0.845
 2052SOL    HW1 7055   1.718   2.678   0.773
 2052SOL    HW2 7056   1.775   2.567   0.878
 2053SOL     OW 7057   7.008   5.598   4.561
 2053SOL    HW1 7058   7.002   5.647   4.475
 2053SOL    HW2 7059   0.078   5.615   4.603
 2054SOL     OW 7060   3.760   4.028   3.075
 2054SOL    HW1 7061   3.711   4.015   3.161
 2054SOL    HW2 7062   3.831   4.098   3.088
 2055SOL     OW 7063   6.142   3.228   4.610
 2055SOL    HW1 7064   6.241   3.238   4.618
 2055SOL    HW2 7065   6.115   3.235   4.514
 2056SOL     OW 7066   4.263   4.990   1.241
 2056SOL    HW1 7067   4.233   4.994   1.336
 2056SOL    HW2 7068   4.209   5.054   1.187
 2057SOL     OW 7069   4.722   3.866   5.828
 2057SOL    HW1 7070   4.800   3.811   5.858
 2057SOL    HW2 7071   4.676   3.904   5.908
 2058SOL     OW 7072   0.147   6.468   2.605
 2058SOL    HW1 7073   0.215   6.425   2.545
 2058SOL    HW2 7074   0.194   6.507   2.685
 2059SOL     OW 7075   1.997   5.941   6.363
 2059SOL    HW1 7076   1.980   5.938   6.461
 2059SOL    HW2 7077   2.057   6.019   6.342
 2060SOL     OW 7078   0.333   3.642   1.860
 2060SOL    HW1 7079   0.283   3.714   1.811
 2060SOL    HW2 7080   0.428   3.641   1.829
 2061SOL     OW 7081   1.493   1.804   2.222
 2061SOL    HW1 7082   1.583   1.766   2.201
 2061SOL    HW2 7083   1.458   1.851   2.141
 2062SOL     OW 7084   6.992   5.752   5.164
 2062SOL    HW1 7085   0.053   5.702   5.133
 2062SOL    HW2 7086   6.991   5.842   5.121
 2063SOL     OW 7087   1.305   6.831   4.685
 2063SOL    HW1 7088   1.263   6.771   4.617
 2063SOL    HW2 7089   1.337   6.915   4.640
 2064SOL     OW 7090   6.929   2.357   5.140
 2064SOL    HW1 7091   7.011   2.301   5.141
 2064SOL    HW2 7092   6.874   2.336   5.221
 2065SOL     OW 7093   5.892   3.057   6.215
 2065SOL    HW1 7094   5.954   3.003   6.158
 2065SOL    HW2 7095   5.893   3.152   6.185
 2066SOL     OW 7096   6.839   4.015   5.353
 2066SOL    HW1 7097   6.860   4.074   5.275
 2066SOL    HW2 7098   6.743   3.987   5.348
 2067SOL     OW 7099   0.097   4.658   0.528
 2067SOL    HW1 7100   0.086   4.748   0.571
 2067SOL    HW2 7101   0.171   4.663   0.461
 2068SOL     OW 7102   3.430   0.542   3.728
 2068SOL    HW1 7103   3.410   0.472   3.659
 2068SOL    HW2 7104   3.366   0.530   3.805
 2069SOL     OW 7105   6.715   2.468   4.142
 2069SOL    HW1 7106   6.663   2.510   4.216
 2069SOL    HW2 7107   6.660   2.398   4.097
 2070SOL     OW 7108   1.117   1.551   0.849
 2070SOL    HW1 7109   1.125   1.451   0.852
 2070SOL    HW2 7110   1.172   1.591   0.922
 2071SOL     OW 7111   6.096   0.607   5.590
 2071SOL    HW1 7112   6.076   0.578   5.496
 2071SOL    HW2 7113   6.168   0.676   5.588
 2072SOL     OW 7114   4.729   5.452   4.624
 2072SOL    HW1 7115   4.804   5.498   4.577
 2072SOL    HW2 7116   4.668   5.520   4.664
 2073SOL     OW 7117   4.382   6.269   5.374
 2073SOL    HW1 7118   4.309   6.213   5.414
 2073SOL    HW2 7119   4.351   6.363   5.365
 2074SOL     OW 7120   1.981   2.595   6.366
 2074SOL    HW1 7121   2.013   2.513   6.413
 2074SOL    HW2 7122   1.882   2.591   6.354
 2075SOL     OW 7123   6.873   2.540   2.992
 2075SOL    HW1 7124   6.932   2.546   3.072
 2075SOL    HW2 7125   6.874   2.447   2.957
 2076SOL     OW 7126   5.274   6.392   6.526
 2076SOL    HW1 7127   5.253   6.294   6.533
 2076SOL    HW2 7128   5.199   6.444   6.567
 2077SOL     OW 7129   6.865   2.179   1.981
 2077SOL    HW1 7130   6.808   2.260   1.963
 2077SOL    HW2 7131   6.962   2.204   1.973
 2078SOL     OW 7132   2.273   5.101   6.200
 2078SOL    HW1 7133   2.313   5.186   6.234
 2078SOL    HW2 7134   2.203   5.122   6.131
 2079SOL     OW 7135   6.850   1.192   2.923
 2079SOL    HW1 7136   6.866   1.150   2.834
 2079SOL    HW2 7137   6.928   1.251   2.946
 2080SOL     OW 7138   2.598   0.999   4.963
 2080SOL    HW1 7139   2.545   1.028   4.883
 2080SOL    HW2 7140   2.686   1.046   4.963
 2081SOL     OW 7141   1.111   6.713   4.534
 2081SOL    HW1 7142   1.129   6.664   4.449
 2081SOL    HW2 7143   1.015   6.700   4.560
 2082SOL     OW 7144   0.792   6.235   3.267
 2082SOL    HW1 7145   0.723   6.305   3.286
 2082SOL    HW2 7146   0.799   6.221   3.168
 2083SOL     OW 7147   1.174   6.328   4.930
 2083SOL    HW1 7148   1.229   6.245   4.918
 2083SOL    HW2 7149   1.173   6.353   5.027
 2084SOL     OW 7150   0.964   3.100   2.229
 2084SOL    HW1 7151   0.966   3.198   2.249
 2084SOL    HW2 7152   1.031   3.080   2.158
 2085SOL     OW 7153   4.968   0.276   1.064
 2085SOL    HW1 7154   4.919   0.256   0.980
 2085SOL    HW2 7155   4.908   0.324   1.128
 2086SOL     OW 7156   3.860   5.870   0.147
 2086SOL    HW1 7157   3.763   5.859   0.169
 2086SOL    HW2 7158   3.874   5.852   0.050
 2087SOL     OW 7159   4.712   1.974   1.409
 2087SOL    HW1 7160   4.613   1.967   1.426
 2087SOL    HW2 7161   4.761   1.923   1.479
 2088SOL     OW 7162   1.305   5.745   6.584
 2088SOL    HW1 7163   1.218   5.729   6.631
 2088SOL    HW2 7164   1.379   5.700   6.635
 2089SOL     OW 7165   4.407   2.398   5.360
 2089SOL    HW1 7166   4.451   2.310   5.373
 2089SOL    HW2 7167   4.410   2.450   5.446
 2090SOL     OW 7168   4.850   2.909   5.650
 2090SOL    HW1 7169   4.781   2.838   5.660
 2090SOL    HW2 7170   4.872   2.948   5.739
 2091SOL     OW 7171   0.034   5.268   1.164
 2091SOL    HW1 7172   7.013   5.242   1.252
 2091SOL    HW2 7173   6.990   5.327   1.114
 2092SOL     OW 7174   5.525   3.042   0.558
 2092SOL    HW1 7175   5.603   3.086   0.512
 2092SOL    HW2 7176   5.440   3.081   0.524
 2093SOL     OW 7177   3.290   2.128   1.781
 2093SOL    HW1 7178   3.345   2.099   1.860
 2093SOL    HW2 7179   3.319   2.219   1.752
 2094SOL     OW 7180   5.534   1.616   1.355
 2094SOL    HW1 7181   5.606   1.585   1.293
 2094SOL    HW2 7182   5.486   1.694   1.315
 2095SOL     OW 7183   6.112   6.547   4.481
 2095SOL    HW1 7184   6.186   6.614   4.481
 2095SOL    HW2 7185   6.092   6.519   4.575
 2096SOL     OW 7186   4.854   5.889   3.499
 2096SOL    HW1 7187   4.814   5.828   3.567
 2096SOL    HW2 7188   4.882   5.836   3.419
 2097SOL     OW 7189   2.670   3.299   6.910
 2097SOL    HW1 7190   2.580   3.266   6.883
 2097SOL    HW2 7191   2.692   3.267   7.002
 2098SOL     OW 7192   4.316   6.320   2.697
 2098SOL    HW1 7193   4.381   6.327   2.773
 2098SOL    HW2 7194   4.347   6.251   2.633
 2099SOL     OW 7195   3.962   1.581   6.761
 2099SOL    HW1 7196   4.022   1.621   6.830
 2099SOL    HW2 7197   3.868   1.581   6.794
 2100SOL     OW 7198   5.289   1.370   0.799
 2100SOL    HW1 7199   5.351   1.443   0.771
 2100SOL    HW2 7200   5.294   1.358   0.898
 2101SOL     OW 7201   6.796   6.284   1.330
 2101SOL    HW1 7202   6.779   6.371   1.376
 2101SOL    HW2 7203   6.894   6.273   1.314
 2102SOL     OW 7204   4.800   3.615   1.849
 2102SOL    HW1 7205   4.724   3.637   1.788
 2102SOL    HW2 7206   4.823   3.518   1.839
 2103SOL     OW 7207   3.942   4.101   0.001
 2103SOL    HW1 7208   3.997   4.172   0.046
 2103SOL    HW2 7209   3.852   4.098   0.043
 2104SOL     OW 7210   1.313   4.433   2.156
 2104SOL    HW1 7211   1.375   4.396   2.225
 2104SOL    HW2 7212   1.276   4.358   2.101
 2105SOL     OW 7213   5.003   5.026   6.912
 2105SOL    HW1 7214   4.948   5.013   6.829
 2105SOL    HW2 7215   4.954   4.990   6.991
 2106SOL     OW 7216   4.319   3.819   1.345
 2106SOL    HW1 7217   4.339   3.904   1.394
 2106SOL    HW2 7218   4.223   3.818   1.316
 2107SOL     OW 7219   5.985   2.804   5.705
 2107SOL    HW1 7220   6.071   2.853   5.697
 2107SOL    HW2 7221   5.934   2.811   5.619
 2108SOL     OW 7222   6.301   5.930   5.093
 2108SOL    HW1 7223   6.322   5.869   5.016
 2108SOL    HW2 7224   6.253   5.878   5.164
 2109SOL     OW 7225   3.002   5.855   2.548
 2109SOL    HW1 7226   3.099   5.844   2.572
 2109SOL    HW2 7227   2.992   5.928   2.481
 2110SOL     OW 7228   3.491   0.717   6.517
 2110SOL    HW1 7229   3.480   0.715   6.417
 2110SOL    HW2 7230   3.406   0.689   6.561
 2111SOL     OW 7231   2.071   3.618   5.572
 2111SOL    HW1 7232   2.108   3.709   5.592
 2111SOL    HW2 7233   2.119   3.578   5.495
 2112SOL     OW 7234   5.130   2.347   0.319
 2112SOL    HW1 7235   5.097   2.386   0.405
 2112SOL    HW2 7236   5.057   2.346   0.252
 2113SOL     OW 7237   2.264   0.440   4.871
 2113SOL    HW1 7238   2.333   0.484   4.813
 2113SOL    HW2 7239   2.249   0.495   4.952
 2114SOL     OW 7240   2.772   2.243   6.541
 2114SOL    HW1 7241   2.725   2.319   6.496
 2114SOL    HW2 7242   2.828   2.278   6.616
 2115SOL     OW 7243   0.696   4.335   2.576
 2115SOL    HW1 7244   0.642   4.258   2.608
 2115SOL    HW2 7245   0.733   4.315   2.486
 2116SOL     OW 7246   1.407   2.830   1.893
 2116SOL    HW1 7247   1.417   2.736   1.861
 2116SOL    HW2 7248   1.485   2.884   1.864
 2117SOL     OW 7249   5.287   3.751   1.442
 2117SOL    HW1 7250   5.253   3.844   1.426
 2117SOL    HW2 7251   5.214   3.695   1.480
 2118SOL     OW 7252   6.724   3.362   3.057
 2118SOL    HW1 7253   6.627   3.354   3.036
 2118SOL    HW2 7254   6.735   3.392   3.152
 2119SOL     OW 7255   2.092   1.176   0.879
 2119SOL    HW1 7256   2.022   1.233   0.921
 2119SOL    HW2 7257   2.174   1.176   0.937
 2120SOL     OW 7258   0.425   3.168   2.343
 2120SOL    HW1 7259   0.364   3.228   2.292
 2120SOL    HW2 7260   0.408   3.177   2.441
 2121SOL     OW 7261   1.520   3.070   6.097
 2121SOL    HW1 7262   1.620   3.078   6.101
 2121SOL    HW2 7263   1.479   3.145   6.148
 2122SOL     OW 7264   5.209   6.123   6.536
 2122SOL    HW1 7265   5.306   6.099   6.527
 2122SOL    HW2 7266   5.155   6.039   6.550
 2123SOL     OW 7267   6.426   6.284   1.660
 2123SOL    HW1 7268   6.386   6.336   1.735
 2123SOL    HW2 7269   6.490   6.217   1.697
 2124SOL     OW 7270   3.076   1.659   0.244
 2124SOL    HW1 7271   3.021   1.721   0.299
 2124SOL    HW2 7272   3.016   1.605   0.185
 2125SOL     OW 7273   0.658   5.430   2.026
 2125SOL    HW1 7274   0.624   5.385   1.944
 2125SOL    HW2 7275   0.715   5.507   2.000
 2126SOL     OW 7276   3.209   2.776   6.427
 2126SOL    HW1 7277   3.194   2.731   6.338
 2126SOL    HW2 7278   3.125   2.823   6.454
 2127SOL     OW 7279   0.960   1.904   5.495
 2127SOL    HW1 7280   1.023   1.981   5.501
 2127SOL    HW2 7281   0.897   1.905   5.573
 2128SOL     OW 7282   6.087   2.543   2.332
 2128SOL    HW1 7283   6.078   2.488   2.249
 2128SOL    HW2 7284   6.033   2.626   2.322
 2129SOL     OW 7285   4.418   4.632   4.779
 2129SOL    HW1 7286   4.428   4.572   4.859
 2129SOL    HW2 7287   4.329   4.677   4.782
 2130SOL     OW 7288   2.796   0.627   1.946
 2130SOL    HW1 7289   2.704   0.613   1.908
 2130SOL    HW2 7290   2.837   0.708   1.904
 2131SOL     OW 7291   5.023   1.382   0.760
 2131SOL    HW1 7292   5.013   1.320   0.838
 2131SOL    HW2 7293   5.118   1.383   0.731
 2132SOL     OW 7294   2.986   1.476   0.037
 2132SOL    HW1 7295   2.914   1.464   6.989
 2132SOL    HW2 7296   3.035   1.390   0.050
 2133SOL     OW 7297   3.473   2.134   0.974
 2133SOL    HW1 7298   3.406   2.174   1.036
 2133SOL    HW2 7299   3.564   2.169   0.997
 2134SOL     OW 7300   0.947   1.066   4.736
 2134SOL    HW1 7301   0.904   0.981   4.766
 2134SOL    HW2 7302   1.027   1.085   4.793
 2135SOL     OW 7303   0.352   2.078   4.708
 2135SOL    HW1 7304   0.427   2.016   4.732
 2135SOL    HW2 7305   0.367   2.114   4.616
 2136SOL     OW 7306   1.378   3.560   4.851
 2136SOL    HW1 7307   1.314   3.637   4.851
 2136SOL    HW2 7308   1.464   3.587   4.895
 2137SOL     OW 7309   0.203   6.743   4.338
 2137SOL    HW1 7310   0.219   6.745   4.436
 2137SOL    HW2 7311   0.281   6.782   4.290
 2138SOL     OW 7312   6.112   2.378   2.089
 2138SOL    HW1 7313   6.205   2.413   2.074
 2138SOL    HW2 7314   6.114   2.278   2.089
 2139SOL     OW 7315   4.072   1.135   2.799
 2139SOL    HW1 7316   4.058   1.228   2.767
 2139SOL    HW2 7317   3.998   1.076   2.764
 2140SOL     OW 7318   3.238   6.133   3.234
 2140SOL    HW1 7319   3.164   6.187   3.192
 2140SOL    HW2 7320   3.325   6.159   3.194
 2141SOL     OW 7321   6.891   2.980   1.303
 2141SOL    HW1 7322   6.892   3.001   1.205
 2141SOL    HW2 7323   6.801   2.946   1.329
 2142SOL     OW 7324   1.469   2.090   3.160
 2142SOL    HW1 7325   1.424   2.134   3.083
 2142SOL    HW2 7326   1.405   2.027   3.204
 2143SOL     OW 7327   3.239   4.607   0.526
 2143SOL    HW1 7328   3.321   4.556   0.501
 2143SOL    HW2 7329   3.197   4.564   0.606
 2144SOL     OW 7330   1.433   0.302   2.807
 2144SOL    HW1 7331   1.403   0.269   2.718
 2144SOL    HW2 7332   1.480   0.229   2.856
 2145SOL     OW 7333   3.576   5.569   4.087
 2145SOL    HW1 7334   3.585   5.470   4.087
 2145SOL    HW2 7335   3.667   5.611   4.077
 2146SOL     OW 7336   2.946   3.716   2.171
 2146SOL    HW1 7337   2.973   3.813   2.168
 2146SOL    HW2 7338   2.923   3.691   2.265
 2147SOL     OW 7339   6.584   0.651   6.815
 2147SOL    HW1 7340   6.659   0.587   6.798
 2147SOL    HW2 7341   6.604   0.737   6.767
 2148SOL     OW 7342   4.756   2.841   4.617
 2148SOL    HW1 7343   4.770   2.911   4.547
 2148SOL    HW2 7344   4.742   2.752   4.574
 2149SOL     OW 7345   3.489   0.746   1.083
 2149SOL    HW1 7346   3.552   0.735   1.159
 2149SOL    HW2 7347   3.494   0.840   1.048
 2150SOL     OW 7348   2.873   2.249   2.556
 2150SOL    HW1 7349   2.909   2.224   2.466
 2150SOL    HW2 7350   2.943   2.235   2.625
 2151SOL     OW 7351   2.205   1.640   4.038
 2151SOL    HW1 7352   2.254   1.589   4.108
 2151SOL    HW2 7353   2.175   1.577   3.966
 2152SOL     OW 7354   3.991   5.949   1.734
 2152SOL    HW1 7355   3.966   5.993   1.648
 2152SOL    HW2 7356   4.074   5.992   1.770
 2153SOL     OW 7357   4.041   0.249   3.337
 2153SOL    HW1 7358   3.996   0.274   3.424
 2153SOL    HW2 7359   4.140   0.243   3.352
 2154SOL     OW 7360   3.814   6.494   4.965
 2154SOL    HW1 7361   3.739   6.427   4.963
 2154SOL    HW2 7362   3.824   6.531   5.057
 2155SOL     OW 7363   1.607   5.380   0.005
 2155SOL    HW1 7364   1.646   5.308   0.062
 2155SOL    HW2 7365   1.562   5.447   0.064
 2156SOL     OW 7366   2.747   0.265   2.098
 2156SOL    HW1 7367   2.758   0.213   2.014
 2156SOL    HW2 7368   2.809   0.231   2.168
 2157SOL     OW 7369   6.593   1.225   2.992
 2157SOL    HW1 7370   6.692   1.209   2.994
 2157SOL    HW2 7371   6.545   1.138   2.989
 2158SOL     OW 7372   3.937   6.162   0.654
 2158SOL    HW1 7373   3.852   6.193   0.696
 2158SOL    HW2 7374   3.961   6.222   0.578
 2159SOL     OW 7375   1.531   6.222   5.694
 2159SOL    HW1 7376   1.526   6.163   5.614
 2159SOL    HW2 7377   1.627   6.239   5.717
 2160SOL     OW 7378   4.427   3.245   1.613
 2160SOL    HW1 7379   4.404   3.168   1.554
 2160SOL    HW2 7380   4.518   3.231   1.653
 2161SOL     OW 7381   5.210   2.649   3.434
 2161SOL    HW1 7382   5.258   2.627   3.519
 2161SOL    HW2 7383   5.126   2.594   3.429
 2162SOL     OW 7384   2.793   0.582   0.152
 2162SOL    HW1 7385   2.821   0.678   0.152
 2162SOL    HW2 7386   2.873   0.523   0.137
 2163SOL     OW 7387   6.931   5.701   6.289
 2163SOL    HW1 7388   6.842   5.713   6.244
 2163SOL    HW2 7389   6.984   5.785   6.282
 2164SOL     OW 7390   1.849   1.995   0.039
 2164SOL    HW1 7391   1.896   1.986   6.971
 2164SOL    HW2 7392   1.757   1.957   0.031
 2165SOL     OW 7393   1.052   1.527   2.584
 2165SOL    HW1 7394   1.109   1.559   2.659
 2165SOL    HW2 7395   1.109   1.476   2.519
 2166SOL     OW 7396   2.241   2.483   5.330
 2166SOL    HW1 7397   2.169   2.494   5.262
 2166SOL    HW2 7398   2.317   2.433   5.289
 2167SOL     OW 7399   2.474   0.212   2.673
 2167SOL    HW1 7400   2.481   0.133   2.734
 2167SOL    HW2 7401   2.517   0.291   2.715
 2168SOL     OW 7402   6.556   2.282   4.002
 2168SOL    HW1 7403   6.506   2.223   3.938
 2168SOL    HW2 7404   6.527   2.260   4.096
 2169SOL     OW 7405   5.805   2.359   5.925
 2169SOL    HW1 7406   5.741   2.414   5.871
 2169SOL    HW2 7407   5.874   2.418   5.966
 2170SOL     OW 7408   6.010   5.019   5.378
 2170SOL    HW1 7409   6.016   4.932   5.428
 2170SOL    HW2 7410   5.977   5.091   5.438
 2171SOL     OW 7411   6.286   3.236   0.756
 2171SOL    HW1 7412   6.371   3.183   0.758
 2171SOL    HW2 7413   6.215   3.189   0.808
 2172SOL     OW 7414   2.547   1.871   0.836
 2172SOL    HW1 7415   2.502   1.891   0.923
 2172SOL    HW2 7416   2.543   1.773   0.818
 2173SOL     OW 7417   3.892   6.987   5.464
 2173SOL    HW1 7418   3.826   0.000   5.530
 2173SOL    HW2 7419   3.958   0.040   5.443
 2174SOL     OW 7420   6.312   5.236   6.124
 2174SOL    HW1 7421   6.356   5.326   6.121
 2174SOL    HW2 7422   6.377   5.169   6.158
 2175SOL     OW 7423   2.813   2.273   3.511
 2175SOL    HW1 7424   2.765   2.266   3.598
 2175SOL    HW2 7425   2.909   2.248   3.524
 2176SOL     OW 7426   1.049   2.195   1.256
 2176SOL    HW1 7427   1.041   2.181   1.355
 2176SOL    HW2 7428   0.959   2.216   1.219
 2177SOL     OW 7429   6.687   0.839   2.188
 2177SOL    HW1 7430   6.612   0.893   2.150
 2177SOL    HW2 7431   6.651   0.764   2.243
 2178SOL     OW 7432   1.270   4.086   0.618
 2178SOL    HW1 7433   1.351   4.063   0.564
 2178SOL    HW2 7434   1.223   4.165   0.578
 2179SOL     OW 7435   2.499   5.175   4.332
 2179SOL    HW1 7436   2.405   5.142   4.320
 2179SOL    HW2 7437   2.502   5.236   4.411
 2180SOL     OW 7438   3.245   3.208   1.575
 2180SOL    HW1 7439   3.190   3.134   1.535
 2180SOL    HW2 7440   3.254   3.193   1.674
 2181SOL     OW 7441   4.902   4.365   6.000
 2181SOL    HW1 7442   4.933   4.439   6.060
 2181SOL    HW2 7443   4.981   4.315   5.965
 2182SOL     OW 7444   6.255   3.242   5.583
 2182SOL    HW1 7445   6.324   3.197   5.640
 2182SOL    HW2 7446   6.230   3.329   5.624
 2183SOL     OW 7447   3.643   3.554   0.421
 2183SOL    HW1 7448   3.623   3.651   0.436
 2183SOL    HW2 7449   3.594   3.499   0.488
 2184SOL     OW 7450   3.110   1.271   5.063
 2184SOL    HW1 7451   3.198   1.276   5.111
 2184SOL    HW2 7452   3.121   1.305   4.970
 2185SOL     OW 7453   2.044   1.852   0.931
 2185SOL    HW1 7454   2.107   1.908   0.877
 2185SOL    HW2 7455   1.950   1.877   0.908
 2186SOL     OW 7456   0.132   4.680   2.509
 2186SOL    HW1 7457   0.079   4.764   2.494
 2186SOL    HW2 7458   0.229   4.700   2.496
 2187SOL     OW 7459   0.636   1.059   1.980
 2187SOL    HW1 7460   0.645   1.155   1.951
 2187SOL    HW2 7461   0.654   0.999   1.903
 2188SOL     OW 7462   4.873   5.788   3.859
 2188SOL    HW1 7463   4.827   5.727   3.795
 2188SOL    HW2 7464   4.959   5.820   3.820
 2189SOL     OW 7465   1.643   6.374   6.334
 2189SOL    HW1 7466   1.613   6.470   6.331
 2189SOL    HW2 7467   1.743   6.371   6.333
 2190SOL     OW 7468   6.629   2.147   1.747
 2190SOL    HW1 7469   6.621   2.236   1.793
 2190SOL    HW2 7470   6.724   2.116   1.753
 2191SOL     OW 7471   3.226   1.866   6.448
 2191SOL    HW1 7472   3.313   1.834   6.411
 2191SOL    HW2 7473   3.243   1.915   6.533
 2192SOL     OW 7474   4.115   0.028   4.657
 2192SOL    HW1 7475   4.166   0.114   4.664
 2192SOL    HW2 7476   4.056   0.031   4.576
 2193SOL     OW 7477   6.468   5.448   6.134
 2193SOL    HW1 7478   6.466   5.469   6.232
 2193SOL    HW2 7479   6.563   5.452   6.102
 2194SOL     OW 7480   2.390   4.737   6.942
 2194SOL    HW1 7481   2.378   4.695   6.852
 2194SOL    HW2 7482   2.406   4.835   6.930
 2195SOL     OW 7483   0.249   6.677   2.025
 2195SOL    HW1 7484   0.260   6.703   2.121
 2195SOL    HW2 7485   0.194   6.594   2.019
 2196SOL     OW 7486   2.249   0.521   5.748
 2196SOL    HW1 7487   2.324   0.502   5.684
 2196SOL    HW2 7488   2.170   0.465   5.724
 2197SOL     OW 7489   4.815   3.756   1.353
 2197SOL    HW1 7490   4.758   3.800   1.422
 2197SOL    HW2 7491   4.853   3.671   1.390
 2198SOL     OW 7492   6.750   2.448   6.756
 2198SOL    HW1 7493   6.763   2.371   6.819
 2198SOL    HW2 7494   6.792   2.427   6.668
 2199SOL     OW 7495   5.411   0.177   1.396
 2199SOL    HW1 7496   5.336   0.173   1.330
 2199SOL    HW2 7497   5.424   0.086   1.437
 2200SOL     OW 7498   4.133   0.493   4.911
 2200SOL    HW1 7499   4.211   0.431   4.921
 2200SOL    HW2 7500   4.164   0.588   4.915
 2201SOL     OW 7501   6.332   3.746   2.461
 2201SOL    HW1 7502   6.233   3.732   2.471
 2201SOL    HW2 7503   6.364   3.697   2.380
 2202SOL     OW 7504   3.658   5.036   4.607
 2202SOL    HW1 7505   3.567   5.007   4.636
 2202SOL    HW2 7506   3.719   4.957   4.607
 2203SOL     OW 7507   2.460   2.163   2.499
 2203SOL    HW1 7508   2.363   2.170   2.523
 2203SOL    HW2 7509   2.469   2.111   2.414
 2204SOL     OW 7510   3.185   1.246   6.819
 2204SOL    HW1 7511   3.248   1.171   6.840
 2204SOL    HW2 7512   3.136   1.226   6.734
 2205SOL     OW 7513   1.476   0.314   6.733
 2205SOL    HW1 7514   1.563   0.267   6.750
 2205SOL    HW2 7515   1.429   0.329   6.820
 2206SOL     OW 7516   3.242   4.116   5.470
 2206SOL    HW1 7517   3.211   4.190   5.529
 2206SOL    HW2 7518   3.168   4.089   5.409
 2207SOL     OW 7519   2.042   4.154   6.563
 2207SOL    HW1 7520   2.116   4.190   6.506
 2207SOL    HW2 7521   1.964   4.216   6.557
 2208SOL     OW 7522   1.737   4.611   2.376
 2208SOL    HW1 7523   1.718   4.688   2.315
 2208SOL    HW2 7524   1.651   4.568   2.402
 2209SOL     OW 7525   1.412   6.405   5.452
 2209SOL    HW1 7526   1.412   6.430   5.549
 2209SOL    HW2 7527   1.435   6.308   5.443
 2210SOL     OW 7528   0.213   4.797   3.692
 2210SOL    HW1 7529   0.307   4.769   3.709
 2210SOL    HW2 7530   0.193   4.880   3.745
 2211SOL     OW 7531   5.553   1.496   6.049
 2211SOL    HW1 7532   5.644   1.536   6.051
 2211SOL    HW2 7533   5.492   1.555   5.996
 2212SOL     OW 7534   0.860   6.301   0.045
 2212SOL    HW1 7535   0.856   6.367   0.121
 2212SOL    HW2 7536   0.913   6.221   0.073
 2213SOL     OW 7537   4.531   2.605   4.986
 2213SOL    HW1 7538   4.492   2.696   4.973
 2213SOL    HW2 7539   4.622   2.613   5.027
 2214SOL     OW 7540   4.780   0.942   5.571
 2214SOL    HW1 7541   4.728   0.860   5.548
 2214SOL    HW2 7542   4.736   0.990   5.647
 2215SOL     OW 7543   6.910   1.362   5.543
 2215SOL    HW1 7544   6.849   1.366   5.464
 2215SOL    HW2 7545   6.875   1.295   5.609
 2216SOL     OW 7546   1.748   0.600   6.735
 2216SOL    HW1 7547   1.843   0.629   6.746
 2216SOL    HW2 7548   1.740   0.539   6.656
 2217SOL     OW 7549   2.858   0.140   1.088
 2217SOL    HW1 7550   2.772   0.187   1.070
 2217SOL    HW2 7551   2.933   0.206   1.089
 2218SOL     OW 7552   1.203   6.435   0.361
 2218SOL    HW1 7553   1.235   6.528   0.339
 2218SOL    HW2 7554   1.146   6.438   0.443
 2219SOL     OW 7555   1.168   3.994   3.272
 2219SOL    HW1 7556   1.208   4.081   3.241
 2219SOL    HW2 7557   1.086   3.974   3.219
 2220SOL     OW 7558   0.645   1.558   4.316
 2220SOL    HW1 7559   0.628   1.633   4.253
 2220SOL    HW2 7560   0.634   1.471   4.267
 2221SOL     OW 7561   6.820   0.980   6.944
 2221SOL    HW1 7562   6.761   1.053   6.977
 2221SOL    HW2 7563   6.860   0.931   0.002
 2222SOL     OW 7564   3.922   1.247   0.815
 2222SOL    HW1 7565   3.879   1.316   0.874
 2222SOL    HW2 7566   4.015   1.276   0.793
 2223SOL     OW 7567   5.827   6.083   3.820
 2223SOL    HW1 7568   5.791   6.175   3.810
 2223SOL    HW2 7569   5.851   6.046   3.730
 2224SOL     OW 7570   1.684   4.266   1.674
 2224SOL    HW1 7571   1.760   4.235   1.731
 2224SOL    HW2 7572   1.713   4.346   1.621
 2225SOL     OW 7573   6.197   5.641   3.105
 2225SOL    HW1 7574   6.166   5.633   3.200
 2225SOL    HW2 7575   6.163   5.563   3.052
 2226SOL     OW 7576   3.481   3.428   0.567
 2226SOL    HW1 7577   3.410   3.486   0.606
 2226SOL    HW2 7578   3.443   3.338   0.545
 2227SOL     OW 7579   6.061   4.175   0.218
 2227SOL    HW1 7580   5.964   4.183   0.194
 2227SOL    HW2 7581   6.074   4.097   0.280
 2228SOL     OW 7582   3.368   5.899   0.894
 2228SOL    HW1 7583   3.372   5.820   0.955
 2228SOL    HW2 7584   3.281   5.946   0.907
 2229SOL     OW 7585   4.144   1.968   4.055
 2229SOL    HW1 7586   4.090   2.052   4.058
 2229SOL    HW2 7587   4.210   1.973   3.980
 2230SOL     OW 7588   1.087   6.413   4.003
 2230SOL    HW1 7589   1.058   6.373   4.090
 2230SOL    HW2 7590   1.177   6.377   3.978
 2231SOL     OW 7591   1.762   1.747   1.791
 2231SOL    HW1 7592   1.713   1.694   1.721
 2231SOL    HW2 7593   1.700   1.815   1.829
 2232SOL     OW 7594   0.782   2.758   4.087
 2232SOL    HW1 7595   0.801   2.814   4.007
 2232SOL    HW2 7596   0.796   2.662   4.065
 2233SOL     OW 7597   3.244   5.054   0.341
 2233SOL    HW1 7598   3.183   4.976   0.332
 2233SOL    HW2 7599   3.339   5.023   0.335
 2234SOL     OW 7600   4.658   2.154   0.951
 2234SOL    HW1 7601   4.698   2.062   0.957
 2234SOL    HW2 7602   4.642   2.189   1.043
 2235SOL     OW 7603   1.652   0.304   0.305
 2235SOL    HW1 7604   1.671   0.275   0.398
 2235SOL    HW2 7605   1.708   0.251   0.241
 2236SOL     OW 7606   1.131   4.678   0.841
 2236SOL    HW1 7607   1.036   4.702   0.823
 2236SOL    HW2 7608   1.154   4.592   0.796
 2237SOL     OW 7609   5.863   3.704   4.962
 2237SOL    HW1 7610   5.942   3.730   4.906
 2237SOL    HW2 7611   5.808   3.636   4.914
 2238SOL     OW 7612   6.473   5.082   2.706
 2238SOL    HW1 7613   6.421   5.053   2.625
 2238SOL    HW2 7614   6.568   5.096   2.680
 2239SOL     OW 7615   4.227   4.917   3.700
 2239SOL    HW1 7616   4.211   4.850   3.773
 2239SOL    HW2 7617   4.267   5.000   3.740
 2240SOL     OW 7618   5.982   5.378   3.538
 2240SOL    HW1 7619   5.941   5.345   3.624
 2240SOL    HW2 7620   5.965   5.311   3.466
 2241SOL     OW 7621   0.235   6.246   2.399
 2241SOL    HW1 7622   0.277   6.159   2.374
 2241SOL    HW2 7623   0.303   6.305   2.442
 2242SOL     OW 7624   5.518   1.713   3.312
 2242SOL    HW1 7625   5.605   1.761   3.326
 2242SOL    HW2 7626   5.522   1.662   3.226
 2243SOL     OW 7627   2.346   6.284   5.333
 2243SOL    HW1 7628   2.415   6.315   5.398
 2243SOL    HW2 7629   2.255   6.315   5.362
 2244SOL     OW 7630   3.755   0.211   2.952
 2244SOL    HW1 7631   3.814   0.133   2.968
 2244SOL    HW2 7632   3.794   0.292   2.997
 2245SOL     OW 7633   0.622   1.903   2.294
 2245SOL    HW1 7634   0.532   1.926   2.332
 2245SOL    HW2 7635   0.617   1.901   2.194
 2246SOL     OW 7636   1.558   2.003   5.339
 2246SOL    HW1 7637   1.517   1.926   5.388
 2246SOL    HW2 7638   1.601   2.065   5.404
 2247SOL     OW 7639   2.378   2.194   6.363
 2247SOL    HW1 7640   2.449   2.131   6.393
 2247SOL    HW2 7641   2.420   2.271   6.314
 2248SOL     OW 7642   5.138   4.228   5.883
 2248SOL    HW1 7643   5.096   4.138   5.875
 2248SOL    HW2 7644   5.221   4.221   5.938
 2249SOL     OW 7645   6.071   6.593   2.834
 2249SOL    HW1 7646   6.136   6.641   2.894
 2249SOL    HW2 7647   5.984   6.584   2.881
 2250SOL     OW 7648   5.047   3.897   1.313
 2250SOL    HW1 7649   5.024   3.964   1.242
 2250SOL    HW2 7650   4.973   3.830   1.320
 2251SOL     OW 7651   5.604   1.563   0.484
 2251SOL    HW1 7652   5.653   1.545   0.399
 2251SOL    HW2 7653   5.530   1.496   0.495
 2252SOL     OW 7654   6.341   2.442   5.047
 2252SOL    HW1 7655   6.319   2.513   4.981
 2252SOL    HW2 7656   6.269   2.373   5.048
 2253SOL     OW 7657   0.689   2.942   6.466
 2253SOL    HW1 7658   0.599   2.964   6.503
 2253SOL    HW2 7659   0.743   3.026   6.458
 2254SOL     OW 7660   2.217   2.924   5.855
 2254SOL    HW1 7661   2.305   2.953   5.818
 2254SOL    HW2 7662   2.210   2.824   5.852
 2255SOL     OW 7663   6.424   2.291   0.973
 2255SOL    HW1 7664   6.374   2.268   0.889
 2255SOL    HW2 7665   6.484   2.215   0.998
 2256SOL     OW 7666   4.086   5.711   1.876
 2256SOL    HW1 7667   4.048   5.779   1.813
 2256SOL    HW2 7668   4.039   5.716   1.964
 2257SOL     OW 7669   0.677   2.507   4.537
 2257SOL    HW1 7670   0.697   2.582   4.474
 2257SOL    HW2 7671   0.742   2.508   4.613
 2258SOL     OW 7672   1.430   6.127   4.436
 2258SOL    HW1 7673   1.334   6.132   4.464
 2258SOL    HW2 7674   1.486   6.177   4.502
 2259SOL     OW 7675   4.832   3.678   6.517
 2259SOL    HW1 7676   4.899   3.607   6.495
 2259SOL    HW2 7677   4.859   3.763   6.474
 2260SOL     OW 7678   4.712   4.200   3.159
 2260SOL    HW1 7679   4.702   4.214   3.060
 2260SOL    HW2 7680   4.745   4.108   3.177
 2261SOL     OW 7681   5.869   6.416   0.436
 2261SOL    HW1 7682   5.931   6.370   0.500
 2261SOL    HW2 7683   5.781   6.368   0.434
 2262SOL     OW 7684   5.852   2.438   2.891
 2262SOL    HW1 7685   5.772   2.411   2.945
 2262SOL    HW2 7686   5.875   2.364   2.827
 2263SOL     OW 7687   2.567   5.608   6.166
 2263SOL    HW1 7688   2.476   5.595   6.205
 2263SOL    HW2 7689   2.561   5.610   6.066
 2264SOL     OW 7690   3.095   4.057   2.567
 2264SOL    HW1 7691   3.185   4.098   2.586
 2264SOL    HW2 7692   3.074   3.989   2.638
 2265SOL     OW 7693   0.480   1.084   3.563
 2265SOL    HW1 7694   0.387   1.121   3.558
 2265SOL    HW2 7695   0.501   1.059   3.658
 2266SOL     OW 7696   6.793   1.564   0.940
 2266SOL    HW1 7697   6.824   1.583   0.847
 2266SOL    HW2 7698   6.852   1.613   1.005
 2267SOL     OW 7699   5.541   2.570   4.692
 2267SOL    HW1 7700   5.471   2.504   4.663
 2267SOL    HW2 7701   5.630   2.540   4.658
 2268SOL     OW 7702   6.765   5.160   0.372
 2268SOL    HW1 7703   6.768   5.192   0.466
 2268SOL    HW2 7704   6.682   5.193   0.328
 2269SOL     OW 7705   6.128   5.849   5.316
 2269SOL    HW1 7706   6.195   5.793   5.364
 2269SOL    HW2 7707   6.068   5.893   5.383
 2270SOL     OW 7708   3.562   4.050   0.855
 2270SOL    HW1 7709   3.478   4.055   0.909
 2270SOL    HW2 7710   3.574   3.957   0.820
 2271SOL     OW 7711   6.538   3.803   1.317
 2271SOL    HW1 7712   6.449   3.794   1.362
 2271SOL    HW2 7713   6.542   3.739   1.239
 2272SOL     OW 7714   6.261   2.216   4.891
 2272SOL    HW1 7715   6.204   2.220   4.809
 2272SOL    HW2 7716   6.233   2.137   4.946
 2273SOL     OW 7717   1.739   1.953   2.431
 2273SOL    HW1 7718   1.788   1.965   2.518
 2273SOL    HW2 7719   1.643   1.976   2.443
 2274SOL     OW 7720   1.185   3.648   5.411
 2274SOL    HW1 7721   1.196   3.706   5.492
 2274SOL    HW2 7722   1.114   3.580   5.429
 2275SOL     OW 7723   4.888   6.945   4.672
 2275SOL    HW1 7724   4.790   6.958   4.686
 2275SOL    HW2 7725   4.908   6.944   4.574
 2276SOL     OW 7726   3.469   4.916   1.243
 2276SOL    HW1 7727   3.436   4.911   1.337
 2276SOL    HW2 7728   3.563   4.880   1.239
 2277SOL     OW 7729   3.272   3.526   4.825
 2277SOL    HW1 7730   3.340   3.492   4.889
 2277SOL    HW2 7731   3.206   3.454   4.804
 2278SOL     OW 7732   4.651   6.667   3.585
 2278SOL    HW1 7733   4.637   6.629   3.677
 2278SOL    HW2 7734   4.727   6.618   3.541
 2279SOL     OW 7735   5.680   4.669   4.035
 2279SOL    HW1 7736   5.763   4.721   4.059
 2279SOL    HW2 7737   5.657   4.607   4.110
 2280SOL     OW 7738   6.133   6.483   4.780
 2280SOL    HW1 7739   6.154   6.569   4.825
 2280SOL    HW2 7740   6.034   6.468   4.780
 2281SOL     OW 7741   3.457   1.437   1.742
 2281SOL    HW1 7742   3.483   1.355   1.691
 2281SOL    HW2 7743   3.531   1.462   1.805
 2282SOL     OW 7744   5.231   6.013   5.180
 2282SOL    HW1 7745   5.185   6.089   5.226
 2282SOL    HW2 7746   5.272   5.952   5.248
 2283SOL     OW 7747   0.197   3.671   2.103
 2283SOL    HW1 7748   0.240   3.675   2.013
 2283SOL    HW2 7749   0.124   3.603   2.103
 2284SOL     OW 7750   2.467   1.784   1.777
 2284SOL    HW1 7751   2.391   1.813   1.835
 2284SOL    HW2 7752   2.444   1.802   1.682
 2285SOL     OW 7753   1.762   3.476   6.747
 2285SOL    HW1 7754   1.796   3.565   6.778
 2285SOL    HW2 7755   1.825   3.438   6.680
 2286SOL     OW 7756   6.574   6.118   5.035
 2286SOL    HW1 7757   6.567   6.019   5.020
 2286SOL    HW2 7758   6.606   6.162   4.952
 2287SOL     OW 7759   2.443   2.725   1.526
 2287SOL    HW1 7760   2.442   2.821   1.499
 2287SOL    HW2 7761   2.425   2.718   1.624
 2288SOL     OW 7762   0.299   6.216   4.174
 2288SOL    HW1 7763   0.220   6.165   4.207
 2288SOL    HW2 7764   0.292   6.227   4.075
 2289SOL     OW 7765   5.877   3.140   2.045
 2289SOL    HW1 7766   5.901   3.046   2.020
 2289SOL    HW2 7767   5.780   3.155   2.024
 2290SOL     OW 7768   2.894   3.619   1.885
 2290SOL    HW1 7769   2.970   3.587   1.829
 2290SOL    HW2 7770   2.928   3.648   1.975
 2291SOL     OW 7771   2.420   1.918   1.080
 2291SOL    HW1 7772   2.349   1.853   1.108
 2291SOL    HW2 7773   2.390   2.011   1.102
 2292SOL     OW 7774   5.327   3.596   3.980
 2292SOL    HW1 7775   5.286   3.670   4.033
 2292SOL    HW2 7776   5.257   3.527   3.958
 2293SOL     OW 7777   5.828   1.075   0.623
 2293SOL    HW1 7778   5.731   1.098   0.625
 2293SOL    HW2 7779   5.875   1.120   0.700
 2294SOL     OW 7780   3.108   2.095   6.320
 2294SOL    HW1 7781   3.143   2.013   6.365
 2294SOL    HW2 7782   3.037   2.136   6.376
 2295SOL     OW 7783   6.892   1.128   2.397
 2295SOL    HW1 7784   6.846   1.130   2.309
 2295SOL    HW2 7785   6.987   1.098   2.385
 2296SOL     OW 7786   2.572   5.190   2.804
 2296SOL    HW1 7787   2.523   5.119   2.753
 2296SOL    HW2 7788   2.587   5.159   2.898
 2297SOL     OW 7789   4.585   4.916   5.909
 2297SOL    HW1 7790   4.628   4.832   5.941
 2297SOL    HW2 7791   4.503   4.893   5.856
 2298SOL     OW 7792   3.489   3.593   3.105
 2298SOL    HW1 7793   3.581   3.629   3.094
 2298SOL    HW2 7794   3.488   3.495   3.088
 2299SOL     OW 7795   4.762   4.041   5.133
 2299SOL    HW1 7796   4.810   4.083   5.210
 2299SOL    HW2 7797   4.674   4.005   5.164
 2300SOL     OW 7798   3.593   6.771   3.531
 2300SOL    HW1 7799   3.649   6.823   3.596
 2300SOL    HW2 7800   3.565   6.831   3.455
 2301SOL     OW 7801   3.551   2.972   3.894
 2301SOL    HW1 7802   3.455   2.949   3.910
 2301SOL    HW2 7803   3.604   2.951   3.976
 2302SOL     OW 7804   3.502   0.252   1.419
 2302SOL    HW1 7805   3.537   0.241   1.326
 2302SOL    HW2 7806   3.458   0.342   1.427
 2303SOL     OW 7807   2.432   3.014   1.442
 2303SOL    HW1 7808   2.460   3.099   1.398
 2303SOL    HW2 7809   2.356   2.973   1.390
 2304SOL     OW 7810   5.860   5.494   3.911
 2304SOL    HW1 7811   5.885   5.564   3.978
 2304SOL    HW2 7812   5.935   5.427   3.904
 2305SOL     OW 7813   2.274   0.468   3.899
 2305SOL    HW1 7814   2.288   0.565   3.879
 2305SOL    HW2 7815   2.322   0.413   3.831
 2306SOL     OW 7816   1.718   4.926   2.630
 2306SOL    HW1 7817   1.761   4.839   2.607
 2306SOL    HW2 7818   1.716   4.985   2.549
 2307SOL     OW 7819   0.692   3.563   5.276
 2307SOL    HW1 7820   0.715   3.659   5.290
 2307SOL    HW2 7821   0.766   3.506   5.312
 2308SOL     OW 7822   2.654   4.376   1.220
 2308SOL    HW1 7823   2.737   4.430   1.238
 2308SOL    HW2 7824   2.575   4.423   1.260
 2309SOL     OW 7825   1.670   0.877   4.053
 2309SOL    HW1 7826   1.631   0.943   3.990
 2309SOL    HW2 7827   1.611   0.796   4.057
 2310SOL     OW 7828   6.272   6.500   1.805
 2310SOL    HW1 7829   6.192   6.561   1.810
 2310SOL    HW2 7830   6.319   6.498   1.893
 2311SOL     OW 7831   2.335   5.850   7.000
 2311SOL    HW1 7832   2.300   5.762   6.969
 2311SOL    HW2 7833   2.320   5.919   6.929
 2312SOL     OW 7834   4.288   5.336   3.353
 2312SOL    HW1 7835   4.231   5.255   3.337
 2312SOL    HW2 7836   4.232   5.418   3.350
 2313SOL     OW 7837   4.937   4.960   1.951
 2313SOL    HW1 7838   5.026   4.950   1.996
 2313SOL    HW2 7839   4.943   4.925   1.857
 2314SOL     OW 7840   3.854   6.561   3.001
 2314SOL    HW1 7841   3.840   6.571   3.100
 2314SOL    HW2 7842   3.767   6.568   2.954
 2315SOL     OW 7843   5.178   3.656   5.773
 2315SOL    HW1 7844   5.183   3.752   5.747
 2315SOL    HW2 7845   5.261   3.609   5.745
 2316SOL     OW 7846   5.196   2.262   3.558
 2316SOL    HW1 7847   5.266   2.222   3.617
 2316SOL    HW2 7848   5.120   2.296   3.613
 2317SOL     OW 7849   0.289   4.939   3.470
 2317SOL    HW1 7850   0.218   4.996   3.428
 2317SOL    HW2 7851   0.248   4.883   3.542
 2318SOL     OW 7852   0.191   2.677   3.923
 2318SOL    HW1 7853   0.145   2.606   3.870
 2318SOL    HW2 7854   0.211   2.755   3.864
 2319SOL     OW 7855   1.400   4.529   4.997
 2319SOL    HW1 7856   1.409   4.628   4.998
 2319SOL    HW2 7857   1.422   4.494   4.906
 2320SOL     OW 7858   6.876   2.988   4.496
 2320SOL    HW1 7859   6.820   2.967   4.416
 2320SOL    HW2 7860   6.970   2.958   4.480
 2321SOL     OW 7861   3.669   0.510   5.391
 2321SOL    HW1 7862   3.712   0.429   5.429
 2321SOL    HW2 7863   3.663   0.502   5.292
 2322SOL     OW 7864   2.150   1.896   5.470
 2322SOL    HW1 7865   2.054   1.884   5.446
 2322SOL    HW2 7866   2.173   1.993   5.470
 2323SOL     OW 7867   3.214   5.306   3.080
 2323SOL    HW1 7868   3.290   5.273   3.135
 2323SOL    HW2 7869   3.203   5.247   3.000
 2324SOL     OW 7870   0.182   6.082   2.726
 2324SOL    HW1 7871   0.117   6.155   2.752
 2324SOL    HW2 7872   0.269   6.099   2.771
 2325SOL     OW 7873   1.271   3.732   1.964
 2325SOL    HW1 7874   1.178   3.713   1.932
 2325SOL    HW2 7875   1.269   3.751   2.062
 2326SOL     OW 7876   2.550   3.959   5.999
 2326SOL    HW1 7877   2.470   3.900   6.012
 2326SOL    HW2 7878   2.521   4.055   5.999
 2327SOL     OW 7879   4.856   2.332   4.720
 2327SOL    HW1 7880   4.901   2.398   4.780
 2327SOL    HW2 7881   4.772   2.373   4.683
 2328SOL     OW 7882   4.919   0.868   3.811
 2328SOL    HW1 7883   4.938   0.864   3.713
 2328SOL    HW2 7884   4.944   0.780   3.853
 2329SOL     OW 7885   1.364   5.295   4.150
 2329SOL    HW1 7886   1.284   5.335   4.105
 2329SOL    HW2 7887   1.335   5.217   4.206
 2330SOL     OW 7888   0.019   4.715   2.218
 2330SOL    HW1 7889   6.989   4.678   2.139
 2330SOL    HW2 7890   0.016   4.648   2.293
 2331SOL     OW 7891   6.295   4.723   6.491
 2331SOL    HW1 7892   6.323   4.799   6.551
 2331SOL    HW2 7893   6.285   4.757   6.397
 2332SOL     OW 7894   5.103   2.093   5.592
 2332SOL    HW1 7895   5.118   2.051   5.681
 2332SOL    HW2 7896   5.035   2.041   5.541
 2333SOL     OW 7897   0.219   5.097   2.637
 2333SOL    HW1 7898   0.276   5.179   2.642
 2333SOL    HW2 7899   0.237   5.050   2.550
 2334SOL     OW 7900   3.377   0.118   6.929
 2334SOL    HW1 7901   3.335   0.153   7.013
 2334SOL    HW2 7902   3.393   0.020   6.938
 2335SOL     OW 7903   6.386   1.434   3.311
 2335SOL    HW1 7904   6.461   1.500   3.303
 2335SOL    HW2 7905   6.332   1.434   3.227
 2336SOL     OW 7906   4.725   1.321   5.425
 2336SOL    HW1 7907   4.722   1.309   5.524
 2336SOL    HW2 7908   4.635   1.298   5.386
 2337SOL     OW 7909   5.015   0.253   3.462
 2337SOL    HW1 7910   4.999   0.263   3.363
 2337SOL    HW2 7911   5.016   0.343   3.504
 2338SOL     OW 7912   0.849   6.933   0.270
 2338SOL    HW1 7913   0.907   7.015   0.269
 2338SOL    HW2 7914   0.889   6.862   0.213
 2339SOL     OW 7915   3.498   3.331   5.667
 2339SOL    HW1 7916   3.428   3.333   5.596
 2339SOL    HW2 7917   3.550   3.247   5.661
 2340SOL     OW 7918   3.606   6.547   5.647
 2340SOL    HW1 7919   3.679   6.603   5.610
 2340SOL    HW2 7920   3.626   6.524   5.742
 2341SOL     OW 7921   5.105   3.993   0.343
 2341SOL    HW1 7922   5.010   3.979   0.370
 2341SOL    HW2 7923   5.161   4.005   0.425
 2342SOL     OW 7924   0.760   6.495   5.119
 2342SOL    HW1 7925   0.838   6.499   5.057
 2342SOL    HW2 7926   0.724   6.588   5.133
 2343SOL     OW 7927   1.537   6.607   0.781
 2343SOL    HW1 7928   1.537   6.645   0.873
 2343SOL    HW2 7929   1.629   6.610   0.743
 2344SOL     OW 7930   2.489   1.983   2.254
 2344SOL    HW1 7931   2.492   1.894   2.300
 2344SOL    HW2 7932   2.577   2.001   2.210
 2345SOL     OW 7933   1.726   7.006   5.299
 2345SOL    HW1 7934   1.657   0.054   5.323
 2345SOL    HW2 7935   1.780   0.019   5.222
 2346SOL     OW 7936   4.678   2.938   5.109
 2346SOL    HW1 7937   4.702   2.853   5.061
 2346SOL    HW2 7938   4.761   2.982   5.143
 2347SOL     OW 7939   1.692   4.339   2.122
 2347SOL    HW1 7940   1.766   4.365   2.184
 2347SOL    HW2 7941   1.611   4.394   2.143
 2348SOL     OW 7942   1.864   6.416   3.365
 2348SOL    HW1 7943   1.857   6.338   3.303
 2348SOL    HW2 7944   1.782   6.421   3.421
 2349SOL     OW 7945   0.564   6.075   6.329
 2349SOL    HW1 7946   0.475   6.059   6.372
 2349SOL    HW2 7947   0.605   6.158   6.365
 2350SOL     OW 7948   3.485   0.282   5.664
 2350SOL    HW1 7949   3.402   0.283   5.719
 2350SOL    HW2 7950   3.462   0.292   5.567
 2351SOL     OW 7951   3.296   4.976   3.652
 2351SOL    HW1 7952   3.288   5.050   3.585
 2351SOL    HW2 7953   3.359   4.907   3.617
 2352SOL     OW 7954   6.547   4.028   3.640
 2352SOL    HW1 7955   6.595   4.001   3.556
 2352SOL    HW2 7956   6.569   4.123   3.662
 2353SOL     OW 7957   2.523   4.248   5.287
 2353SOL    HW1 7958   2.500   4.158   5.249
 2353SOL    HW2 7959   2.622   4.259   5.289
 2354SOL     OW 7960   3.504   2.293   6.856
 2354SOL    HW1 7961   3.455   2.358   6.914
 2354SOL    HW2 7962   3.565   2.343   6.794
 2355SOL     OW 7963   0.940   6.655   0.592
 2355SOL    HW1 7964   0.945   6.638   0.494
 2355SOL    HW2 7965   0.973   6.748   0.612
 2356SOL     OW 7966   2.137   4.637   2.223
 2356SOL    HW1 7967   2.120   4.553   2.171
 2356SOL    HW2 7968   2.084   4.712   2.184
 2357SOL     OW 7969   4.942   5.048   4.096
 2357SOL    HW1 7970   4.920   4.952   4.113
 2357SOL    HW2 7971   4.961   5.062   3.999
 2358SOL     OW 7972   3.338   6.772   4.261
 2358SOL    HW1 7973   3.367   6.840   4.195
 2358SOL    HW2 7974   3.334   6.682   4.218
 2359SOL     OW 7975   2.698   1.587   5.684
 2359SOL    HW1 7976   2.759   1.603   5.762
 2359SOL    HW2 7977   2.622   1.530   5.714
 2360SOL     OW 7978   3.880   4.776   6.987
 2360SOL    HW1 7979   3.939   4.846   6.948
 2360SOL    HW2 7980   3.931   4.722   0.033
 2361SOL     OW 7981   2.869   6.725   3.386
 2361SOL    HW1 7982   2.859   6.806   3.328
 2361SOL    HW2 7983   2.848   6.643   3.332
 2362SOL     OW 7984   4.933   6.123   5.300
 2362SOL    HW1 7985   5.001   6.160   5.363
 2362SOL    HW2 7986   4.866   6.194   5.278
 2363SOL     OW 7987   4.385   1.936   5.421
 2363SOL    HW1 7988   4.345   1.991   5.348
 2363SOL    HW2 7989   4.472   1.975   5.450
 2364SOL     OW 7990   5.462   1.620   1.617
 2364SOL    HW1 7991   5.383   1.563   1.637
 2364SOL    HW2 7992   5.491   1.607   1.522
 2365SOL     OW 7993   6.151   4.753   5.271
 2365SOL    HW1 7994   6.230   4.804   5.237
 2365SOL    HW2 7995   6.155   4.749   5.371
 2366SOL     OW 7996   0.767   4.111   5.684
 2366SOL    HW1 7997   0.841   4.044   5.684
 2366SOL    HW2 7998   0.805   4.203   5.693
 2367SOL     OW 7999   0.563   3.314   5.561
 2367SOL    HW1 8000   0.572   3.414   5.567
 2367SOL    HW2 8001   0.466   3.289   5.572
 2368SOL     OW 8002   4.483   1.126   4.903
 2368SOL    HW1 8003   4.514   1.049   4.959
 2368SOL    HW2 8004   4.557   1.156   4.844
 2369SOL     OW 8005   2.692   2.004   3.807
 2369SOL    HW1 8006   2.645   1.917   3.817
 2369SOL    HW2 8007   2.790   1.991   3.821
 2370SOL     OW 8008   4.580   2.816   0.680
 2370SOL    HW1 8009   4.660   2.822   0.741
 2370SOL    HW2 8010   4.547   2.908   0.661
 2371SOL     OW 8011   0.831   6.103   2.694
 2371SOL    HW1 8012   0.894   6.063   2.627
 2371SOL    HW2 8013   0.757   6.040   2.712
 2372SOL     OW 8014   6.774   0.513   6.628
 2372SOL    HW1 8015   6.852   0.551   6.679
 2372SOL    HW2 8016   6.752   0.423   6.665
 2373SOL     OW 8017   6.406   0.777   5.836
 2373SOL    HW1 8018   6.334   0.824   5.887
 2373SOL    HW2 8019   6.427   0.690   5.880
 2374SOL     OW 8020   5.859   5.923   3.124
 2374SOL    HW1 8021   5.783   5.988   3.128
 2374SOL    HW2 8022   5.944   5.970   3.147
 2375SOL     OW 8023   0.741   0.871   3.622
 2375SOL    HW1 8024   0.813   0.801   3.625
 2375SOL    HW2 8025   0.654   0.829   3.646
 2376SOL     OW 8026   6.405   2.655   3.525
 2376SOL    HW1 8027   6.305   2.664   3.526
 2376SOL    HW2 8028   6.437   2.651   3.430
 2377SOL     OW 8029   3.573   4.131   5.784
 2377SOL    HW1 8030   3.527   4.214   5.754
 2377SOL    HW2 8031   3.618   4.147   5.872
 2378SOL     OW 8032   5.426   1.903   0.264
 2378SOL    HW1 8033   5.411   1.991   0.220
 2378SOL    HW2 8034   5.520   1.873   0.247
 2379SOL     OW 8035   6.657   4.463   0.478
 2379SOL    HW1 8036   6.558   4.460   0.468
 2379SOL    HW2 8037   6.690   4.374   0.512
 2380SOL     OW 8038   6.096   1.572   5.402
 2380SOL    HW1 8039   6.022   1.552   5.467
 2380SOL    HW2 8040   6.079   1.660   5.359
 2381SOL     OW 8041   1.951   5.073   4.776
 2381SOL    HW1 8042   1.906   5.077   4.687
 2381SOL    HW2 8043   1.917   4.994   4.827
 2382SOL     OW 8044   1.915   6.203   2.926
 2382SOL    HW1 8045   1.904   6.290   2.878
 2382SOL    HW2 8046   1.971   6.141   2.871
 2383SOL     OW 8047   5.288   5.610   6.205
 2383SOL    HW1 8048   5.207   5.662   6.178
 2383SOL    HW2 8049   5.370   5.665   6.188
 2384SOL     OW 8050   1.244   2.381   1.155
 2384SOL    HW1 8051   1.278   2.344   1.068
 2384SOL    HW2 8052   1.173   2.321   1.192
 2385SOL     OW 8053   0.793   0.967   0.030
 2385SOL    HW1 8054   0.849   0.936   6.972
 2385SOL    HW2 8055   0.727   0.895   0.053
 2386SOL     OW 8056   3.729   4.951   4.986
 2386SOL    HW1 8057   3.820   4.910   4.987
 2386SOL    HW2 8058   3.681   4.929   5.071
 2387SOL     OW 8059   6.540   3.675   4.570
 2387SOL    HW1 8060   6.595   3.750   4.535
 2387SOL    HW2 8061   6.448   3.709   4.593
 2388SOL     OW 8062   0.428   1.341   5.708
 2388SOL    HW1 8063   0.357   1.303   5.649
 2388SOL    HW2 8064   0.517   1.307   5.679
 2389SOL     OW 8065   4.913   4.737   4.174
 2389SOL    HW1 8066   4.954   4.741   4.265
 2389SOL    HW2 8067   4.959   4.667   4.119
 2390SOL     OW 8068   3.404   3.821   5.233
 2390SOL    HW1 8069   3.504   3.824   5.239
 2390SOL    HW2 8070   3.366   3.834   5.325
 2391SOL     OW 8071   3.922   4.063   5.902
 2391SOL    HW1 8072   3.879   4.038   5.815
 2391SOL    HW2 8073   4.020   4.073   5.889
 2392SOL     OW 8074   3.113   4.118   6.359
 2392SOL    HW1 8075   3.213   4.113   6.360
 2392SOL    HW2 8076   3.075   4.031   6.393
 2393SOL     OW 8077   4.094   5.361   1.439
 2393SOL    HW1 8078   4.131   5.268   1.435
 2393SOL    HW2 8079   4.125   5.413   1.359
 2394SOL     OW 8080   0.338   4.048   4.365
 2394SOL    HW1 8081   0.315   4.144   4.353
 2394SOL    HW2 8082   0.318   3.997   4.281
 2395SOL     OW 8083   6.965   3.306   0.074
 2395SOL    HW1 8084   6.916   3.393   0.070
 2395SOL    HW2 8085   6.949   3.263   0.163
 2396SOL     OW 8086   5.347   0.015   0.579
 2396SOL    HW1 8087   5.318   0.049   0.669
 2396SOL    HW2 8088   5.350   0.091   0.514
 2397SOL     OW 8089   0.313   4.580   0.187
 2397SOL    HW1 8090   0.298   4.604   0.091
 2397SOL    HW2 8091   0.227   4.547   0.226
 2398SOL     OW 8092   2.934   5.077   4.865
 2398SOL    HW1 8093   3.005   5.082   4.935
 2398SOL    HW2 8094   2.970   5.110   4.778
 2399SOL     OW 8095   3.651   2.099   3.652
 2399SOL    HW1 8096   3.713   2.043   3.598
 2399SOL    HW2 8097   3.563   2.106   3.606
 2400SOL     OW 8098   1.868   3.509   0.268
 2400SOL    HW1 8099   1.926   3.465   0.199
 2400SOL    HW2 8100   1.850   3.444   0.342
 2401SOL     OW 8101   3.468   0.329   4.118
 2401SOL    HW1 8102   3.417   0.415   4.109
 2401SOL    HW2 8103   3.444   0.284   4.204
 2402SOL     OW 8104   7.009   1.756   3.804
 2402SOL    HW1 8105   0.032   1.828   3.859
 2402SOL    HW2 8106   6.911   1.753   3.824
 2403SOL     OW 8107   3.606   3.573   0.792
 2403SOL    HW1 8108   3.605   3.474   0.779
 2403SOL    HW2 8109   3.635   3.594   0.885
 2404SOL     OW 8110   5.582   1.959   1.379
 2404SOL    HW1 8111   5.606   1.942   1.475
 2404SOL    HW2 8112   5.655   2.013   1.336
 2405SOL     OW 8113   3.211   4.989   5.934
 2405SOL    HW1 8114   3.273   5.067   5.943
 2405SOL    HW2 8115   3.260   4.910   5.897
 2406SOL     OW 8116   2.749   6.930   3.876
 2406SOL    HW1 8117   2.714   6.921   3.783
 2406SOL    HW2 8118   2.743   6.842   3.922
 2407SOL     OW 8119   4.189   2.023   2.847
 2407SOL    HW1 8120   4.222   2.111   2.813
 2407SOL    HW2 8121   4.145   1.973   2.772
 2408SOL     OW 8122   2.275   5.471   2.999
 2408SOL    HW1 8123   2.351   5.469   2.934
 2408SOL    HW2 8124   2.275   5.558   3.048
 2409SOL     OW 8125   2.435   2.915   0.510
 2409SOL    HW1 8126   2.407   2.830   0.555
 2409SOL    HW2 8127   2.451   2.898   0.412
 2410SOL     OW 8128   6.066   3.357   5.911
 2410SOL    HW1 8129   6.057   3.259   5.891
 2410SOL    HW2 8130   6.142   3.395   5.858
 2411SOL     OW 8131   2.848   3.862   6.040
 2411SOL    HW1 8132   2.757   3.844   6.003
 2411SOL    HW2 8133   2.876   3.955   6.015
 2412SOL     OW 8134   2.758   2.735   0.444
 2412SOL    HW1 8135   2.767   2.766   0.539
 2412SOL    HW2 8136   2.695   2.795   0.395
 2413SOL     OW 8137   5.397   3.523   6.383
 2413SOL    HW1 8138   5.346   3.479   6.309
 2413SOL    HW2 8139   5.482   3.472   6.399
 2414SOL     OW 8140   5.904   3.080   3.829
 2414SOL    HW1 8141   5.941   3.116   3.915
 2414SOL    HW2 8142   5.841   3.006   3.849
 2415SOL     OW 8143   1.980   0.108   0.933
 2415SOL    HW1 8144   2.064   0.126   0.882
 2415SOL    HW2 8145   1.907   0.081   0.869
 2416SOL     OW 8146   1.420   2.938   3.865
 2416SOL    HW1 8147   1.372   2.949   3.951
 2416SOL    HW2 8148   1.413   2.843   3.835
 2417SOL     OW 8149   4.777   2.062   6.877
 2417SOL    HW1 8150   4.858   2.008   6.895
 2417SOL    HW2 8151   4.779   2.096   6.783
 2418SOL     OW 8152   3.761   3.735   4.707
 2418SOL    HW1 8153   3.847   3.738   4.656
 2418SOL    HW2 8154   3.759   3.811   4.772
 2419SOL     OW 8155   1.848   6.897   4.098
 2419SOL    HW1 8156   1.921   6.859   4.041
 2419SOL    HW2 8157   1.836   6.994   4.077
 2420SOL     OW 8158   3.372   5.545   1.750
 2420SOL    HW1 8159   3.357   5.454   1.789
 2420SOL    HW2 8160   3.462   5.578   1.778
 2421SOL     OW 8161   3.558   0.011   4.244
 2421SOL    HW1 8162   3.640   6.980   4.217
 2421SOL    HW2 8163   3.478   6.993   4.198
 2422SOL     OW 8164   3.939   0.063   1.203
 2422SOL    HW1 8165   4.025   0.035   1.161
 2422SOL    HW2 8166   3.916   0.156   1.175
 2423SOL     OW 8167   1.378   5.243   1.031
 2423SOL    HW1 8168   1.465   5.243   1.080
 2423SOL    HW2 8169   1.395   5.249   0.933
 2424SOL     OW 8170   5.582   6.315   6.905
 2424SOL    HW1 8171   5.599   6.306   6.807
 2424SOL    HW2 8172   5.544   6.405   6.923
 2425SOL     OW 8173   5.116   6.518   5.925
 2425SOL    HW1 8174   5.022   6.485   5.911
 2425SOL    HW2 8175   5.139   6.584   5.854
 2426SOL     OW 8176   1.198   5.135   3.884
 2426SOL    HW1 8177   1.199   5.220   3.937
 2426SOL    HW2 8178   1.111   5.128   3.836
 2427SOL     OW 8179   5.110   5.749   0.193
 2427SOL    HW1 8180   5.051   5.809   0.246
 2427SOL    HW2 8181   5.070   5.658   0.187
 2428SOL     OW 8182   0.320   0.657   2.972
 2428SOL    HW1 8183   0.347   0.689   2.881
 2428SOL    HW2 8184   0.346   0.725   3.040
 2429SOL     OW 8185   5.543   4.875   2.984
 2429SOL    HW1 8186   5.634   4.840   3.006
 2429SOL    HW2 8187   5.537   4.970   3.015
 2430SOL     OW 8188   5.468   2.188   0.152
 2430SOL    HW1 8189   5.376   2.167   0.117
 2430SOL    HW2 8190   5.461   2.258   0.223
 2431SOL     OW 8191   4.909   1.520   1.027
 2431SOL    HW1 8192   4.914   1.507   0.928
 2431SOL    HW2 8193   4.977   1.588   1.055
 2432SOL     OW 8194   2.893   6.473   1.443
 2432SOL    HW1 8195   2.952   6.413   1.389
 2432SOL    HW2 8196   2.945   6.512   1.519
 2433SOL     OW 8197   1.479   6.902   0.183
 2433SOL    HW1 8198   1.422   6.964   0.130
 2433SOL    HW2 8199   1.496   6.941   0.274
 2434SOL     OW 8200   5.665   1.757   2.760
 2434SOL    HW1 8201   5.594   1.784   2.826
 2434SOL    HW2 8202   5.752   1.744   2.809
 2435SOL     OW 8203   5.656   5.166   0.003
 2435SOL    HW1 8204   5.662   5.153   6.923
 2435SOL    HW2 8205   5.737   5.214   0.035
 2436SOL     OW 8206   1.753   0.882   1.219
 2436SOL    HW1 8207   1.806   0.899   1.136
 2436SOL    HW2 8208   1.743   0.968   1.270
 2437SOL     OW 8209   5.343   6.596   1.061
 2437SOL    HW1 8210   5.289   6.637   1.134
 2437SOL    HW2 8211   5.326   6.497   1.057
 2438SOL     OW 8212   3.963   1.496   3.802
 2438SOL    HW1 8213   3.961   1.398   3.819
 2438SOL    HW2 8214   4.016   1.541   3.873
 2439SOL     OW 8215   0.576   4.700   0.878
 2439SOL    HW1 8216   0.496   4.720   0.935
 2439SOL    HW2 8217   0.550   4.707   0.781
 2440SOL     OW 8218   4.056   7.013   6.088
 2440SOL    HW1 8219   4.052   6.915   6.067
 2440SOL    HW2 8220   4.143   0.031   6.056
 2441SOL     OW 8221   6.041   1.632   0.258
 2441SOL    HW1 8222   6.056   1.553   0.198
 2441SOL    HW2 8223   5.967   1.688   0.221
 2442SOL     OW 8224   5.497   5.141   3.041
 2442SOL    HW1 8225   5.404   5.108   3.030
 2442SOL    HW2 8226   5.504   5.234   3.003
 2443SOL     OW 8227   2.873   0.565   6.826
 2443SOL    HW1 8228   2.867   0.651   6.877
 2443SOL    HW2 8229   2.782   0.532   6.804
 2444SOL     OW 8230   4.089   4.389   0.351
 2444SOL    HW1 8231   4.088   4.361   0.255
 2444SOL    HW2 8232   4.078   4.488   0.356
 2445SOL     OW 8233   5.964   1.502   1.823
 2445SOL    HW1 8234   6.033   1.573   1.835
 2445SOL    HW2 8235   5.915   1.518   1.737
 2446SOL     OW 8236   1.069   2.702   4.003
 2446SOL    HW1 8237   1.070   2.612   3.960
 2446SOL    HW2 8238   1.163   2.734   4.015
 2447SOL     OW 8239   2.551   0.696   0.900
 2447SOL    HW1 8240   2.488   0.623   0.870
 2447SOL    HW2 8241   2.548   0.770   0.833
 2448SOL     OW 8242   6.189   1.347   4.093
 2448SOL    HW1 8243   6.207   1.250   4.106
 2448SOL    HW2 8244   6.258   1.400   4.143
 2449SOL     OW 8245   1.483   3.479   1.464
 2449SOL    HW1 8246   1.544   3.411   1.504
 2449SOL    HW2 8247   1.523   3.570   1.473
 2450SOL     OW 8248   3.423   4.665   6.539
 2450SOL    HW1 8249   3.382   4.727   6.606
 2450SOL    HW2 8250   3.497   4.613   6.584
 2451SOL     OW 8251   1.508   0.836   3.306
 2451SOL    HW1 8252   1.447   0.813   3.231
 2451SOL    HW2 8253   1.581   0.895   3.272
 2452SOL     OW 8254   2.771   1.891   4.260
 2452SOL    HW1 8255   2.865   1.913   4.235
 2452SOL    HW2 8256   2.720   1.976   4.274
 2453SOL     OW 8257   0.145   3.011   0.153
 2453SOL    HW1 8258   0.228   2.961   0.130
 2453SOL    HW2 8259   0.128   3.082   0.084
 2454SOL     OW 8260   2.714   6.826   0.004
 2454SOL    HW1 8261   2.774   6.866   6.954
 2454SOL    HW2 8262   2.677   6.739   6.990
 2455SOL     OW 8263   4.545   0.793   0.539
 2455SOL    HW1 8264   4.574   0.765   0.448
 2455SOL    HW2 8265   4.610   0.860   0.576
 2456SOL     OW 8266   0.139   2.489   6.727
 2456SOL    HW1 8267   0.061   2.552   6.724
 2456SOL    HW2 8268   0.224   2.540   6.716
 2457SOL     OW 8269   6.368   0.837   6.257
 2457SOL    HW1 8270   6.325   0.813   6.170
 2457SOL    HW2 8271   6.455   0.788   6.265
 2458SOL     OW 8272   1.717   6.502   3.645
 2458SOL    HW1 8273   1.711   6.404   3.664
 2458SOL    HW2 8274   1.801   6.538   3.685
 2459SOL     OW 8275   2.706   6.541   6.040
 2459SOL    HW1 8276   2.706   6.628   6.090
 2459SOL    HW2 8277   2.612   6.515   6.018
 2460SOL     OW 8278   1.637   1.173   0.897
 2460SOL    HW1 8279   1.636   1.111   0.819
 2460SOL    HW2 8280   1.681   1.128   0.974
 2461SOL     OW 8281   5.035   0.353   4.062
 2461SOL    HW1 8282   4.971   0.421   4.098
 2461SOL    HW2 8283   5.011   0.330   3.967
 2462SOL     OW 8284   1.824   4.916   6.631
 2462SOL    HW1 8285   1.855   5.006   6.663
 2462SOL    HW2 8286   1.795   4.861   6.710
 2463SOL     OW 8287   5.888   2.187   6.929
 2463SOL    HW1 8288   5.883   2.088   6.930
 2463SOL    HW2 8289   5.799   2.226   6.953
 2464SOL     OW 8290   1.920   3.409   2.860
 2464SOL    HW1 8291   1.949   3.401   2.956
 2464SOL    HW2 8292   1.842   3.470   2.853
 2465SOL     OW 8293   0.982   6.532   6.805
 2465SOL    HW1 8294   0.941   6.606   6.858
 2465SOL    HW2 8295   0.911   6.484   6.753
 2466SOL     OW 8296   2.201   1.822   2.485
 2466SOL    HW1 8297   2.191   1.881   2.405
 2466SOL    HW2 8298   2.220   1.878   2.566
 2467SOL     OW 8299   5.254   1.458   5.215
 2467SOL    HW1 8300   5.210   1.523   5.153
 2467SOL    HW2 8301   5.185   1.397   5.254
 2468SOL     OW 8302   4.342   0.363   0.749
 2468SOL    HW1 8303   4.385   0.446   0.713
 2468SOL    HW2 8304   4.362   0.355   0.847
 2469SOL     OW 8305   4.188   3.531   4.813
 2469SOL    HW1 8306   4.215   3.516   4.718
 2469SOL    HW2 8307   4.140   3.450   4.848
 2470SOL     OW 8308   4.431   4.197   5.531
 2470SOL    HW1 8309   4.489   4.129   5.576
 2470SOL    HW2 8310   4.344   4.155   5.506
 2471SOL     OW 8311   3.027   6.245   0.449
 2471SOL    HW1 8312   3.072   6.323   0.404
 2471SOL    HW2 8313   3.028   6.166   0.387
 2472SOL     OW 8314   5.001   2.368   3.713
 2472SOL    HW1 8315   5.006   2.334   3.807
 2472SOL    HW2 8316   4.928   2.321   3.665
 2473SOL     OW 8317   1.180   3.478   4.469
 2473SOL    HW1 8318   1.141   3.569   4.461
 2473SOL    HW2 8319   1.160   3.426   4.386
 2474SOL     OW 8320   0.306   5.800   1.677
 2474SOL    HW1 8321   0.352   5.868   1.620
 2474SOL    HW2 8322   0.357   5.788   1.762
 2475SOL     OW 8323   3.950   0.825   2.613
 2475SOL    HW1 8324   3.927   0.777   2.697
 2475SOL    HW2 8325   4.045   0.805   2.588
 2476SOL     OW 8326   6.459   1.550   3.050
 2476SOL    HW1 8327   6.522   1.559   2.972
 2476SOL    HW2 8328   6.414   1.461   3.047
 2477SOL     OW 8329   4.030   1.514   3.108
 2477SOL    HW1 8330   3.970   1.548   3.180
 2477SOL    HW2 8331   4.082   1.590   3.069
 2478SOL     OW 8332   6.099   1.735   1.463
 2478SOL    HW1 8333   6.033   1.669   1.426
 2478SOL    HW2 8334   6.189   1.692   1.469
 2479SOL     OW 8335   0.603   2.760   2.333
 2479SOL    HW1 8336   0.678   2.804   2.282
 2479SOL    HW2 8337   0.637   2.732   2.423
 2480SOL     OW 8338   4.858   3.874   0.750
 2480SOL    HW1 8339   4.792   3.845   0.820
 2480SOL    HW2 8340   4.920   3.797   0.730
 2481SOL     OW 8341   3.560   6.110   0.316
 2481SOL    HW1 8342   3.462   6.127   0.317
 2481SOL    HW2 8343   3.608   6.184   0.363
 2482SOL     OW 8344   5.527   3.862   5.511
 2482SOL    HW1 8345   5.583   3.813   5.578
 2482SOL    HW2 8346   5.494   3.798   5.442
 2483SOL     OW 8347   1.748   1.600   0.139
 2483SOL    HW1 8348   1.830   1.548   0.115
 2483SOL    HW2 8349   1.738   1.601   0.239
 2484SOL     OW 8350   3.852   0.598   0.274
 2484SOL    HW1 8351   3.760   0.613   0.312
 2484SOL    HW2 8352   3.875   0.501   0.280
 2485SOL     OW 8353   6.266   3.661   1.719
 2485SOL    HW1 8354   6.325   3.590   1.680
 2485SOL    HW2 8355   6.237   3.632   1.811
 2486SOL     OW 8356   2.186   5.017   5.101
 2486SOL    HW1 8357   2.260   4.966   5.145
 2486SOL    HW2 8358   2.102   5.008   5.155
 2487SOL     OW 8359   4.524   6.161   0.427
 2487SOL    HW1 8360   4.472   6.223   0.369
 2487SOL    HW2 8361   4.609   6.136   0.381
 2488SOL     OW 8362   1.457   4.606   2.498
 2488SOL    HW1 8363   1.394   4.531   2.517
 2488SOL    HW2 8364   1.478   4.654   2.583
 2489SOL     OW 8365   1.264   6.732   3.497
 2489SOL    HW1 8366   1.192   6.798   3.516
 2489SOL    HW2 8367   1.282   6.678   3.579
 2490SOL     OW 8368   0.100   4.992   1.403
 2490SOL    HW1 8369   0.094   5.005   1.304
 2490SOL    HW2 8370   0.190   4.956   1.426
 2491SOL     OW 8371   2.086   5.048   0.213
 2491SOL    HW1 8372   2.119   4.967   0.165
 2491SOL    HW2 8373   2.104   5.037   0.311
 2492SOL     OW 8374   4.928   3.117   0.967
 2492SOL    HW1 8375   4.844   3.071   0.939
 2492SOL    HW2 8376   4.972   3.157   0.887
 2493SOL     OW 8377   5.848   0.252   2.157
 2493SOL    HW1 8378   5.924   0.308   2.192
 2493SOL    HW2 8379   5.885   0.176   2.104
 2494SOL     OW 8380   4.998   4.503   2.913
 2494SOL    HW1 8381   4.898   4.502   2.926
 2494SOL    HW2 8382   5.040   4.433   2.972
 2495SOL     OW 8383   4.874   6.604   4.308
 2495SOL    HW1 8384   4.886   6.655   4.223
 2495SOL    HW2 8385   4.941   6.635   4.375
 2496SOL     OW 8386   7.015   3.174   5.951
 2496SOL    HW1 8387   0.090   3.146   5.936
 2496SOL    HW2 8388   6.960   3.150   5.871
 2497SOL     OW 8389   0.411   0.486   0.539
 2497SOL    HW1 8390   0.469   0.439   0.473
 2497SOL    HW2 8391   0.365   0.419   0.597
 2498SOL     OW 8392   2.926   1.921   4.505
 2498SOL    HW1 8393   2.864   1.875   4.441
 2498SOL    HW2 8394   2.876   1.993   4.554
 2499SOL     OW 8395   6.366   2.439   2.006
 2499SOL    HW1 8396   6.313   2.484   1.935
 2499SOL    HW2 8397   6.456   2.482   2.013
 2500SOL     OW 8398   4.835   3.801   6.776
 2500SOL    HW1 8399   4.882   3.776   6.691
 2500SOL    HW2 8400   4.744   3.760   6.776
 2501SOL     OW 8401   6.025   4.984   0.857
 2501SOL    HW1 8402   6.092   4.910   0.863
 2501SOL    HW2 8403   6.024   5.021   0.764
 2502SOL     OW 8404   1.117   6.445   3.102
 2502SOL    HW1 8405   1.046   6.463   3.170
 2502SOL    HW2 8406   1.182   6.521   3.102
 2503SOL     OW 8407   2.556   6.093   4.086
 2503SOL    HW1 8408   2.474   6.050   4.123
 2503SOL    HW2 8409   2.594   6.035   4.013
 2504SOL     OW 8410   3.562   5.286   4.481
 2504SOL    HW1 8411   3.561   5.195   4.522
 2504SOL    HW2 8412   3.656   5.315   4.467
 2505SOL     OW 8413   0.966   6.548   2.767
 2505SOL    HW1 8414   0.931   6.633   2.727
 2505SOL    HW2 8415   0.890   6.492   2.798
 2506SOL     OW 8416   5.597   4.158   5.486
 2506SOL    HW1 8417   5.568   4.111   5.403
 2506SOL    HW2 8418   5.607   4.091   5.560
 2507SOL     OW 8419   0.342   3.603   0.467
 2507SOL    HW1 8420   0.282   3.647   0.533
 2507SOL    HW2 8421   0.433   3.646   0.470
 2508SOL     OW 8422   1.941   1.289   3.347
 2508SOL    HW1 8423   1.890   1.259   3.427
 2508SOL    HW2 8424   2.034   1.252   3.351
 2509SOL     OW 8425   6.887   3.254   0.642
 2509SOL    HW1 8426   6.870   3.249   0.543
 2509SOL    HW2 8427   6.985   3.246   0.660
 2510SOL     OW 8428   2.430   4.400   1.716
 2510SOL    HW1 8429   2.521   4.372   1.684
 2510SOL    HW2 8430   2.438   4.484   1.770
 2511SOL     OW 8431   3.648   2.129   4.322
 2511SOL    HW1 8432   3.624   2.096   4.414
 2511SOL    HW2 8433   3.576   2.104   4.258
 2512SOL     OW 8434   5.444   3.743   5.224
 2512SOL    HW1 8435   5.415   3.746   5.128
 2512SOL    HW2 8436   5.396   3.668   5.270
 2513SOL     OW 8437   1.839   4.485   5.187
 2513SOL    HW1 8438   1.847   4.567   5.130
 2513SOL    HW2 8439   1.801   4.411   5.133
 2514SOL     OW 8440   6.685   3.035   5.088
 2514SOL    HW1 8441   6.605   3.045   5.146
 2514SOL    HW2 8442   6.766   3.020   5.144
 2515SOL     OW 8443   1.820   6.624   0.671
 2515SOL    HW1 8444   1.788   6.588   0.583
 2515SOL    HW2 8445   1.887   6.697   0.655
 2516SOL     OW 8446   6.115   1.263   2.501
 2516SOL    HW1 8447   6.076   1.207   2.427
 2516SOL    HW2 8448   6.058   1.344   2.514
 2517SOL     OW 8449   1.291   6.356   5.689
 2517SOL    HW1 8450   1.383   6.325   5.716
 2517SOL    HW2 8451   1.223   6.317   5.751
 2518SOL     OW 8452   1.103   4.346   6.665
 2518SOL    HW1 8453   1.038   4.337   6.588
 2518SOL    HW2 8454   1.101   4.439   6.699
 2519SOL     OW 8455   4.246   6.750   3.432
 2519SOL    HW1 8456   4.214   6.821   3.369
 2519SOL    HW2 8457   4.346   6.751   3.435
 2520SOL     OW 8458   2.835   1.561   0.715
 2520SOL    HW1 8459   2.909   1.539   0.652
 2520SOL    HW2 8460   2.823   1.660   0.719
 2521SOL     OW 8461   1.755   0.955   5.235
 2521SOL    HW1 8462   1.773   1.044   5.275
 2521SOL    HW2 8463   1.827   0.933   5.168
 2522SOL     OW 8464   0.487   3.765   4.915
 2522SOL    HW1 8465   0.446   3.704   4.983
 2522SOL    HW2 8466   0.484   3.722   4.825
 2523SOL     OW 8467   0.219   3.007   1.494
 2523SOL    HW1 8468   0.203   3.053   1.407
 2523SOL    HW2 8469   0.229   2.909   1.478
 2524SOL     OW 8470   1.557   6.414   5.082
 2524SOL    HW1 8471   1.472   6.383   5.125
 2524SOL    HW2 8472   1.557   6.514   5.077
 2525SOL     OW 8473   1.049   2.534   5.401
 2525SOL    HW1 8474   1.019   2.465   5.467
 2525SOL    HW2 8475   1.090   2.611   5.451
 2526SOL     OW 8476   1.237   4.681   6.139
 2526SOL    HW1 8477   1.267   4.727   6.222
 2526SOL    HW2 8478   1.289   4.596   6.128
 2527SOL     OW 8479   5.211   5.863   4.929
 2527SOL    HW1 8480   5.143   5.910   4.873
 2527SOL    HW2 8481   5.224   5.913   5.015
 2528SOL     OW 8482   5.734   4.813   0.782
 2528SOL    HW1 8483   5.803   4.775   0.721
 2528SOL    HW2 8484   5.712   4.747   0.854
 2529SOL     OW 8485   6.286   6.653   6.393
 2529SOL    HW1 8486   6.371   6.603   6.377
 2529SOL    HW2 8487   6.301   6.750   6.376
 2530SOL     OW 8488   2.686   6.640   5.478
 2530SOL    HW1 8489   2.634   6.678   5.555
 2530SOL    HW2 8490   2.623   6.600   5.412
 2531SOL     OW 8491   5.087   6.091   4.274
 2531SOL    HW1 8492   5.179   6.091   4.312
 2531SOL    HW2 8493   5.024   6.048   4.340
 2532SOL     OW 8494   0.780   6.347   1.156
 2532SOL    HW1 8495   0.805   6.251   1.167
 2532SOL    HW2 8496   0.826   6.401   1.227
 2533SOL     OW 8497   3.548   6.404   3.801
 2533SOL    HW1 8498   3.496   6.388   3.717
 2533SOL    HW2 8499   3.506   6.352   3.876
 2534SOL     OW 8500   3.707   0.500   3.257
 2534SOL    HW1 8501   3.746   0.510   3.349
 2534SOL    HW2 8502   3.767   0.442   3.202
 2535SOL     OW 8503   3.805   2.195   5.121
 2535SOL    HW1 8504   3.739   2.185   5.046
 2535SOL    HW2 8505   3.764   2.248   5.195
 2536SOL     OW 8506   1.161   1.925   5.270
 2536SOL    HW1 8507   1.143   2.005   5.327
 2536SOL    HW2 8508   1.078   1.902   5.219
 2537SOL     OW 8509   3.963   0.466   6.693
 2537SOL    HW1 8510   3.864   0.464   6.676
 2537SOL    HW2 8511   3.994   0.375   6.721
 2538SOL     OW 8512   1.146   4.592   4.083
 2538SOL    HW1 8513   1.094   4.651   4.021
 2538SOL    HW2 8514   1.242   4.619   4.081
 2539SOL     OW 8515   5.317   1.465   5.744
 2539SOL    HW1 8516   5.357   1.374   5.747
 2539SOL    HW2 8517   5.258   1.478   5.824
 2540SOL     OW 8518   4.344   1.535   2.863
 2540SOL    HW1 8519   4.314   1.591   2.785
 2540SOL    HW2 8520   4.347   1.592   2.945
 2541SOL     OW 8521   2.644   6.881   5.235
 2541SOL    HW1 8522   2.630   6.792   5.278
 2541SOL    HW2 8523   2.567   6.941   5.257
 2542SOL     OW 8524   3.840   1.806   6.089
 2542SOL    HW1 8525   3.775   1.881   6.079
 2542SOL    HW2 8526   3.805   1.739   6.155
 2543SOL     OW 8527   1.375   1.467   3.151
 2543SOL    HW1 8528   1.291   1.430   3.191
 2543SOL    HW2 8529   1.417   1.398   3.092
 2544SOL     OW 8530   0.301   6.002   1.446
 2544SOL    HW1 8531   0.277   5.981   1.351
 2544SOL    HW2 8532   0.225   6.051   1.489
 2545SOL     OW 8533   1.237   0.221   1.394
 2545SOL    HW1 8534   1.241   0.310   1.439
 2545SOL    HW2 8535   1.320   0.169   1.415
 2546SOL     OW 8536   0.238   1.699   1.413
 2546SOL    HW1 8537   0.188   1.786   1.411
 2546SOL    HW2 8538   0.298   1.697   1.494
 2547SOL     OW 8539   6.075   5.341   0.481
 2547SOL    HW1 8540   6.008   5.416   0.480
 2547SOL    HW2 8541   6.099   5.317   0.388
 2548SOL     OW 8542   2.015   6.561   5.797
 2548SOL    HW1 8543   2.036   6.468   5.826
 2548SOL    HW2 8544   1.942   6.598   5.854
 2549SOL     OW 8545   2.283   1.321   0.694
 2549SOL    HW1 8546   2.344   1.332   0.615
 2549SOL    HW2 8547   2.190   1.302   0.662
 2550SOL     OW 8548   0.184   0.140   6.254
 2550SOL    HW1 8549   0.201   0.049   6.292
 2550SOL    HW2 8550   0.167   0.132   6.156
 2551SOL     OW 8551   3.589   5.074   0.800
 2551SOL    HW1 8552   3.549   5.081   0.892
 2551SOL    HW2 8553   3.536   5.130   0.736
 2552SOL     OW 8554   2.172   5.866   5.497
 2552SOL    HW1 8555   2.198   5.861   5.594
 2552SOL    HW2 8556   2.140   5.776   5.467
 2553SOL     OW 8557   4.799   2.385   5.145
 2553SOL    HW1 8558   4.894   2.374   5.176
 2553SOL    HW2 8559   4.760   2.467   5.187
 2554SOL     OW 8560   2.137   6.366   0.646
 2554SOL    HW1 8561   2.113   6.423   0.568
 2554SOL    HW2 8562   2.138   6.270   0.619
 2555SOL     OW 8563   6.085   7.001   5.852
 2555SOL    HW1 8564   5.995   6.989   5.895
 2555SOL    HW2 8565   6.154   7.014   5.923
 2556SOL     OW 8566   4.474   5.780   1.091
 2556SOL    HW1 8567   4.395   5.828   1.130
 2556SOL    HW2 8568   4.538   5.756   1.163
 2557SOL     OW 8569   2.999   3.428   6.398
 2557SOL    HW1 8570   3.086   3.403   6.357
 2557SOL    HW2 8571   2.932   3.356   6.382
 2558SOL     OW 8572   5.199   1.825   5.407
 2558SOL    HW1 8573   5.254   1.751   5.446
 2558SOL    HW2 8574   5.146   1.868   5.480
 2559SOL     OW 8575   6.941   3.960   4.351
 2559SOL    HW1 8576   6.906   3.911   4.272
 2559SOL    HW2 8577   6.935   4.059   4.335
 2560SOL     OW 8578   5.928   3.382   4.665
 2560SOL    HW1 8579   5.929   3.459   4.601
 2560SOL    HW2 8580   6.012   3.329   4.655
 2561SOL     OW 8581   3.359   6.313   4.803
 2561SOL    HW1 8582   3.295   6.350   4.870
 2561SOL    HW2 8583   3.444   6.288   4.848
 2562SOL     OW 8584   1.268   5.111   2.201
 2562SOL    HW1 8585   1.264   5.083   2.106
 2562SOL    HW2 8586   1.333   5.187   2.211
 2563SOL     OW 8587   4.266   2.361   0.315
 2563SOL    HW1 8588   4.168   2.344   0.327
 2563SOL    HW2 8589   4.289   2.356   0.218
 2564SOL     OW 8590   2.325   6.209   6.001
 2564SOL    HW1 8591   2.268   6.224   5.920
 2564SOL    HW2 8592   2.395   6.140   5.979
 2565SOL     OW 8593   0.477   0.147   6.949
 2565SOL    HW1 8594   0.496   0.243   6.968
 2565SOL    HW2 8595   0.400   0.140   6.886
 2566SOL     OW 8596   2.528   6.988   0.615
 2566SOL    HW1 8597   2.599   6.935   0.661
 2566SOL    HW2 8598   2.570   0.042   0.563
 2567SOL     OW 8599   0.767   0.920   1.513
 2567SOL    HW1 8600   0.703   0.845   1.496
 2567SOL    HW2 8601   0.808   0.949   1.427
 2568SOL     OW 8602   4.134   0.190   0.423
 2568SOL    HW1 8603   4.168   0.120   0.486
 2568SOL    HW2 8604   4.075   0.254   0.472
 2569SOL     OW 8605   3.272   1.700   1.638
 2569SOL    HW1 8606   3.277   1.600   1.649
 2569SOL    HW2 8607   3.294   1.725   1.544
 2570SOL     OW 8608   5.316   0.402   6.430
 2570SOL    HW1 8609   5.251   0.357   6.492
 2570SOL    HW2 8610   5.281   0.492   6.405
 2571SOL     OW 8611   2.392   4.419   5.128
 2571SOL    HW1 8612   2.451   4.365   5.188
 2571SOL    HW2 8613   2.322   4.466   5.182
 2572SOL     OW 8614   2.079   5.306   0.117
 2572SOL    HW1 8615   2.171   5.314   0.079
 2572SOL    HW2 8616   2.060   5.210   0.138
 2573SOL     OW 8617   6.586   2.558   2.104
 2573SOL    HW1 8618   6.568   2.655   2.086
 2573SOL    HW2 8619   6.655   2.550   2.177
 2574SOL     OW 8620   6.632   3.855   0.239
 2574SOL    HW1 8621   6.543   3.828   0.202
 2574SOL    HW2 8622   6.687   3.774   0.256
 2575SOL     OW 8623   5.605   5.179   0.979
 2575SOL    HW1 8624   5.556   5.235   1.047
 2575SOL    HW2 8625   5.641   5.097   1.024
 2576SOL     OW 8626   3.788   6.853   4.247
 2576SOL    HW1 8627   3.798   6.793   4.168
 2576SOL    HW2 8628   3.743   6.803   4.321
 2577SOL     OW 8629   3.616   6.912   2.053
 2577SOL    HW1 8630   3.698   6.856   2.042
 2577SOL    HW2 8631   3.558   6.873   2.124
 2578SOL     OW 8632   4.954   1.187   4.245
 2578SOL    HW1 8633   4.967   1.236   4.158
 2578SOL    HW2 8634   5.042   1.156   4.279
 2579SOL     OW 8635   1.437   6.096   3.124
 2579SOL    HW1 8636   1.417   6.008   3.165
 2579SOL    HW2 8637   1.354   6.151   3.118
 2580SOL     OW 8638   3.256   3.287   6.373
 2580SOL    HW1 8639   3.207   3.215   6.323
 2580SOL    HW2 8640   3.341   3.308   6.325
 2581SOL     OW 8641   0.885   4.899   1.014
 2581SOL    HW1 8642   0.891   4.853   0.925
 2581SOL    HW2 8643   0.941   4.982   1.012
 2582SOL     OW 8644   0.672   4.800   2.544
 2582SOL    HW1 8645   0.579   4.824   2.519
 2582SOL    HW2 8646   0.704   4.725   2.487
 2583SOL     OW 8647   0.729   0.737   0.371
 2583SOL    HW1 8648   0.791   0.660   0.367
 2583SOL    HW2 8649   0.781   0.822   0.374
 2584SOL     OW 8650   4.310   5.584   6.538
 2584SOL    HW1 8651   4.322   5.659   6.603
 2584SOL    HW2 8652   4.274   5.620   6.452
 2585SOL     OW 8653   4.559   2.651   0.028
 2585SOL    HW1 8654   4.552   2.579   6.978
 2585SOL    HW2 8655   4.488   2.637   0.097
 2586SOL     OW 8656   3.764   1.403   3.279
 2586SOL    HW1 8657   3.848   1.356   3.253
 2586SOL    HW2 8658   3.748   1.391   3.377
 2587SOL     OW 8659   0.522   0.734   3.650
 2587SOL    HW1 8660   0.440   0.788   3.671
 2587SOL    HW2 8661   0.506   0.680   3.568
 2588SOL     OW 8662   4.241   0.960   6.498
 2588SOL    HW1 8663   4.310   1.025   6.530
 2588SOL    HW2 8664   4.168   0.952   6.566
 2589SOL     OW 8665   0.794   6.352   6.355
 2589SOL    HW1 8666   0.828   6.446   6.366
 2589SOL    HW2 8667   0.790   6.308   6.444
 2590SOL     OW 8668   3.634   5.968   0.833
 2590SOL    HW1 8669   3.637   5.988   0.735
 2590SOL    HW2 8670   3.541   5.943   0.859
 2591SOL     OW 8671   6.802   4.754   3.144
 2591SOL    HW1 8672   6.780   4.820   3.073
 2591SOL    HW2 8673   6.900   4.754   3.160
 2592SOL     OW 8674   3.718   5.207   6.962
 2592SOL    HW1 8675   3.706   5.118   7.008
 2592SOL    HW2 8676   3.773   5.194   6.879
 2593SOL     OW 8677   3.418   5.366   1.201
 2593SOL    HW1 8678   3.337   5.323   1.240
 2593SOL    HW2 8679   3.392   5.418   1.120
 2594SOL     OW 8680   1.915   4.731   6.450
 2594SOL    HW1 8681   2.008   4.739   6.415
 2594SOL    HW2 8682   1.902   4.796   6.525
 2595SOL     OW 8683   6.515   1.380   4.019
 2595SOL    HW1 8684   6.586   1.336   4.074
 2595SOL    HW2 8685   6.500   1.472   4.053
 2596SOL     OW 8686   2.991   1.710   1.649
 2596SOL    HW1 8687   3.087   1.683   1.651
 2596SOL    HW2 8688   2.973   1.777   1.721
 2597SOL     OW 8689   1.402   5.477   5.911
 2597SOL    HW1 8690   1.363   5.568   5.902
 2597SOL    HW2 8691   1.369   5.434   5.995
 2598SOL     OW 8692   6.920   1.275   3.215
 2598SOL    HW1 8693   6.944   1.328   3.134
 2598SOL    HW2 8694   6.960   1.184   3.208
 2599SOL     OW 8695   1.807   6.159   1.351
 2599SOL    HW1 8696   1.835   6.181   1.258
 2599SOL    HW2 8697   1.709   6.173   1.361
 2600SOL     OW 8698   5.106   2.987   4.858
 2600SOL    HW1 8699   5.123   2.959   4.953
 2600SOL    HW2 8700   5.009   3.004   4.845
 2601SOL     OW 8701   2.121   1.280   1.652
 2601SOL    HW1 8702   2.102   1.270   1.750
 2601SOL    HW2 8703   2.163   1.369   1.636
 2602SOL     OW 8704   1.341   4.756   4.660
 2602SOL    HW1 8705   1.350   4.856   4.657
 2602SOL    HW2 8706   1.356   4.718   4.569
 2603SOL     OW 8707   2.868   1.154   4.107
 2603SOL    HW1 8708   2.961   1.139   4.074
 2603SOL    HW2 8709   2.842   1.079   4.169
 2604SOL     OW 8710   4.833   1.918   2.624
 2604SOL    HW1 8711   4.890   1.968   2.689
 2604SOL    HW2 8712   4.737   1.941   2.638
 2605SOL     OW 8713   2.171   3.210   3.856
 2605SOL    HW1 8714   2.153   3.254   3.944
 2605SOL    HW2 8715   2.174   3.111   3.867
 2606SOL     OW 8716   5.375   4.534   1.825
 2606SOL    HW1 8717   5.432   4.508   1.902
 2606SOL    HW2 8718   5.292   4.479   1.824
 2607SOL     OW 8719   1.437   1.520   1.705
 2607SOL    HW1 8720   1.432   1.522   1.805
 2607SOL    HW2 8721   1.346   1.529   1.666
 2608SOL     OW 8722   5.231   5.010   0.188
 2608SOL    HW1 8723   5.211   5.104   0.163
 2608SOL    HW2 8724   5.196   4.991   0.280
 2609SOL     OW 8725   6.208   1.224   1.323
 2609SOL    HW1 8726   6.224   1.244   1.420
 2609SOL    HW2 8727   6.260   1.288   1.267
 2610SOL     OW 8728   1.073   4.389   4.572
 2610SOL    HW1 8729   1.084   4.470   4.515
 2610SOL    HW2 8730   1.029   4.414   4.658
 2611SOL     OW 8731   4.306   6.791   0.887
 2611SOL    HW1 8732   4.390   6.839   0.911
 2611SOL    HW2 8733   4.289   6.801   0.789
 2612SOL     OW 8734   6.474   0.111   4.665
 2612SOL    HW1 8735   6.483   0.208   4.686
 2612SOL    HW2 8736   6.389   0.075   4.704
 2613SOL     OW 8737   2.947   5.493   6.236
 2613SOL    HW1 8738   2.907   5.402   6.245
 2613SOL    HW2 8739   2.880   5.562   6.266
 2614SOL     OW 8740   6.457   1.726   6.412
 2614SOL    HW1 8741   6.491   1.814   6.446
 2614SOL    HW2 8742   6.414   1.739   6.323
 2615SOL     OW 8743   0.858   3.424   2.227
 2615SOL    HW1 8744   0.908   3.383   2.303
 2615SOL    HW2 8745   0.893   3.516   2.210
 2616SOL     OW 8746   3.022   2.905   5.672
 2616SOL    HW1 8747   2.941   2.888   5.728
 2616SOL    HW2 8748   2.995   2.957   5.590
 2617SOL     OW 8749   3.892   6.892   0.689
 2617SOL    HW1 8750   3.797   6.898   0.718
 2617SOL    HW2 8751   3.930   6.803   0.716
 2618SOL     OW 8752   6.470   0.245   3.277
 2618SOL    HW1 8753   6.434   0.327   3.322
 2618SOL    HW2 8754   6.570   0.246   3.283
 2619SOL     OW 8755   4.416   2.197   2.362
 2619SOL    HW1 8756   4.381   2.111   2.323
 2619SOL    HW2 8757   4.384   2.273   2.306
 2620SOL     OW 8758   6.203   6.623   3.467
 2620SOL    HW1 8759   6.256   6.705   3.490
 2620SOL    HW2 8760   6.247   6.543   3.506
 2621SOL     OW 8761   0.869   5.130   2.037
 2621SOL    HW1 8762   0.920   5.201   1.989
 2621SOL    HW2 8763   0.778   5.164   2.060
 2622SOL     OW 8764   1.841   3.377   5.186
 2622SOL    HW1 8765   1.898   3.312   5.236
 2622SOL    HW2 8766   1.857   3.367   5.088
 2623SOL     OW 8767   0.279   0.874   5.216
 2623SOL    HW1 8768   0.281   0.971   5.190
 2623SOL    HW2 8769   0.191   0.835   5.189
 2624SOL     OW 8770   0.240   1.209   4.497
 2624SOL    HW1 8771   0.236   1.308   4.498
 2624SOL    HW2 8772   0.331   1.179   4.467
 2625SOL     OW 8773   2.528   3.820   5.355
 2625SOL    HW1 8774   2.616   3.785   5.322
 2625SOL    HW2 8775   2.499   3.895   5.296
 2626SOL     OW 8776   7.008   0.530   5.956
 2626SOL    HW1 8777   6.921   0.524   6.006
 2626SOL    HW2 8778   7.015   0.455   5.891
 2627SOL     OW 8779   0.805   1.103   6.125
 2627SOL    HW1 8780   0.748   1.112   6.207
 2627SOL    HW2 8781   0.747   1.081   6.047
 2628SOL     OW 8782   2.095   4.033   5.709
 2628SOL    HW1 8783   2.138   3.984   5.633
 2628SOL    HW2 8784   2.074   4.127   5.680
 2629SOL     OW 8785   3.874   3.156   2.160
 2629SOL    HW1 8786   3.913   3.119   2.076
 2629SOL    HW2 8787   3.934   3.227   2.196
 2630SOL     OW 8788   2.783   1.935   2.797
 2630SOL    HW1 8789   2.698   1.908   2.753
 2630SOL    HW2 8790   2.817   1.858   2.852
 2631SOL     OW 8791   5.358   0.532   5.755
 2631SOL    HW1 8792   5.330   0.609   5.699
 2631SOL    HW2 8793   5.359   0.559   5.851
 2632SOL     OW 8794   5.369   3.074   0.197
 2632SOL    HW1 8795   5.323   3.125   0.124
 2632SOL    HW2 8796   5.453   3.034   0.161
 2633SOL     OW 8797   0.736   2.035   4.649
 2633SOL    HW1 8798   0.836   2.027   4.644
 2633SOL    HW2 8799   0.706   2.109   4.590
 2634SOL     OW 8800   0.481   4.756   3.757
 2634SOL    HW1 8801   0.534   4.672   3.764
 2634SOL    HW2 8802   0.538   4.834   3.783
 2635SOL     OW 8803   0.066   6.013   5.060
 2635SOL    HW1 8804   7.011   6.075   5.082
 2635SOL    HW2 8805   0.074   6.003   4.961
 2636SOL     OW 8806   4.187   0.427   5.396
 2636SOL    HW1 8807   4.152   0.444   5.304
 2636SOL    HW2 8808   4.173   0.508   5.453
 2637SOL     OW 8809   5.764   1.815   3.412
 2637SOL    HW1 8810   5.790   1.730   3.456
 2637SOL    HW2 8811   5.799   1.892   3.465
 2638SOL     OW 8812   6.955   6.894   4.079
 2638SOL    HW1 8813   7.000   6.938   4.157
 2638SOL    HW2 8814   0.005   6.857   4.017
 2639SOL     OW 8815   0.509   5.787   0.333
 2639SOL    HW1 8816   0.512   5.862   0.399
 2639SOL    HW2 8817   0.447   5.811   0.258
 2640SOL     OW 8818   7.018   6.289   5.372
 2640SOL    HW1 8819   0.090   6.273   5.337
 2640SOL    HW2 8820   6.984   6.206   5.417
 2641SOL     OW 8821   5.963   2.897   1.960
 2641SOL    HW1 8822   6.024   2.824   1.989
 2641SOL    HW2 8823   5.900   2.863   1.890
 2642SOL     OW 8824   5.675   0.648   3.843
 2642SOL    HW1 8825   5.649   0.678   3.752
 2642SOL    HW2 8826   5.620   0.697   3.911
 2643SOL     OW 8827   1.389   3.764   3.144
 2643SOL    HW1 8828   1.455   3.760   3.219
 2643SOL    HW2 8829   1.321   3.836   3.165
 2644SOL     OW 8830   5.025   5.234   4.913
 2644SOL    HW1 8831   5.114   5.278   4.922
 2644SOL    HW2 8832   5.029   5.160   4.846
 2645SOL     OW 8833   3.931   5.767   3.444
 2645SOL    HW1 8834   3.917   5.830   3.520
 2645SOL    HW2 8835   3.890   5.679   3.465
 2646SOL     OW 8836   6.323   1.751   6.836
 2646SOL    HW1 8837   6.345   1.848   6.827
 2646SOL    HW2 8838   6.244   1.729   6.779
 2647SOL     OW 8839   6.136   6.943   1.532
 2647SOL    HW1 8840   6.164   6.902   1.619
 2647SOL    HW2 8841   6.187   0.007   1.516
 2648SOL     OW 8842   0.914   6.608   3.246
 2648SOL    HW1 8843   0.831   6.619   3.192
 2648SOL    HW2 8844   0.965   6.694   3.248
 2649SOL     OW 8845   6.874   3.247   0.913
 2649SOL    HW1 8846   6.869   3.155   0.952
 2649SOL    HW2 8847   6.873   3.241   0.813
 2650SOL     OW 8848   1.733   4.670   3.909
 2650SOL    HW1 8849   1.730   4.571   3.895
 2650SOL    HW2 8850   1.650   4.711   3.873
 2651SOL     OW 8851   2.459   1.665   1.304
 2651SOL    HW1 8852   2.390   1.669   1.232
 2651SOL    HW2 8853   2.550   1.663   1.264
 2652SOL     OW 8854   4.195   3.339   5.271
 2652SOL    HW1 8855   4.156   3.257   5.230
 2652SOL    HW2 8856   4.196   3.413   5.204
 2653SOL     OW 8857   4.753   7.020   5.833
 2653SOL    HW1 8858   4.796   6.958   5.767
 2653SOL    HW2 8859   4.789   0.092   5.821
 2654SOL     OW 8860   4.326   6.976   1.542
 2654SOL    HW1 8861   4.295   6.996   1.635
 2654SOL    HW2 8862   4.339   0.041   1.492
 2655SOL     OW 8863   5.782   6.357   3.835
 2655SOL    HW1 8864   5.739   6.415   3.903
 2655SOL    HW2 8865   5.795   6.408   3.750
 2656SOL     OW 8866   3.306   5.158   4.292
 2656SOL    HW1 8867   3.367   5.230   4.326
 2656SOL    HW2 8868   3.310   5.079   4.353
 2657SOL     OW 8869   1.366   4.280   6.603
 2657SOL    HW1 8870   1.369   4.181   6.589
 2657SOL    HW2 8871   1.273   4.307   6.631
 2658SOL     OW 8872   5.576   4.634   0.398
 2658SOL    HW1 8873   5.663   4.594   0.425
 2658SOL    HW2 8874   5.582   4.668   0.304
 2659SOL     OW 8875   4.759   2.750   4.900
 2659SOL    HW1 8876   4.797   2.667   4.858
 2659SOL    HW2 8877   4.757   2.824   4.833
 2660SOL     OW 8878   1.338   6.809   2.011
 2660SOL    HW1 8879   1.336   6.777   1.916
 2660SOL    HW2 8880   1.268   6.880   2.023
 2661SOL     OW 8881   1.992   6.753   1.355
 2661SOL    HW1 8882   1.949   6.820   1.415
 2661SOL    HW2 8883   1.966   6.661   1.384
 2662SOL     OW 8884   3.375   6.517   5.526
 2662SOL    HW1 8885   3.313   6.470   5.589
 2662SOL    HW2 8886   3.465   6.525   5.567
 2663SOL     OW 8887   3.586   4.503   6.674
 2663SOL    HW1 8888   3.686   4.495   6.677
 2663SOL    HW2 8889   3.547   4.450   6.750
 2664SOL     OW 8890   4.435   3.456   5.697
 2664SOL    HW1 8891   4.502   3.531   5.700
 2664SOL    HW2 8892   4.403   3.444   5.603
 2665SOL     OW 8893   3.092   3.276   4.786
 2665SOL    HW1 8894   3.119   3.210   4.857
 2665SOL    HW2 8895   3.098   3.232   4.696
 2666SOL     OW 8896   0.686   5.012   1.642
 2666SOL    HW1 8897   0.724   4.999   1.733
 2666SOL    HW2 8898   0.756   5.049   1.581
 2667SOL     OW 8899   1.151   5.668   3.839
 2667SOL    HW1 8900   1.220   5.643   3.771
 2667SOL    HW2 8901   1.190   5.732   3.904
 2668SOL     OW 8902   0.334   3.262   5.049
 2668SOL    HW1 8903   0.370   3.355   5.057
 2668SOL    HW2 8904   0.342   3.232   4.954
 2669SOL     OW 8905   3.411   5.180   5.937
 2669SOL    HW1 8906   3.503   5.140   5.932
 2669SOL    HW2 8907   3.413   5.272   5.899
 2670SOL     OW 8908   5.754   3.945   5.043
 2670SOL    HW1 8909   5.780   3.855   5.009
 2670SOL    HW2 8910   5.831   3.985   5.094
 2671SOL     OW 8911   4.596   5.723   0.320
 2671SOL    HW1 8912   4.504   5.739   0.283
 2671SOL    HW2 8913   4.663   5.727   0.245
 2672SOL     OW 8914   2.667   5.287   1.165
 2672SOL    HW1 8915   2.593   5.230   1.200
 2672SOL    HW2 8916   2.698   5.252   1.076
 2673SOL     OW 8917   6.431   1.978   1.595
 2673SOL    HW1 8918   6.434   1.928   1.509
 2673SOL    HW2 8919   6.524   2.007   1.620
 2674SOL     OW 8920   1.554   4.423   3.998
 2674SOL    HW1 8921   1.515   4.346   3.948
 2674SOL    HW2 8922   1.643   4.397   4.036
 2675SOL     OW 8923   6.362   5.700   4.090
 2675SOL    HW1 8924   6.367   5.685   4.189
 2675SOL    HW2 8925   6.448   5.740   4.058
 2676SOL     OW 8926   3.071   3.258   1.130
 2676SOL    HW1 8927   3.026   3.298   1.050
 2676SOL    HW2 8928   3.102   3.330   1.191
 2677SOL     OW 8929   2.990   4.220   0.013
 2677SOL    HW1 8930   3.048   4.204   6.953
 2677SOL    HW2 8931   2.932   4.300   7.016
 2678SOL     OW 8932   0.395   2.034   2.383
 2678SOL    HW1 8933   0.430   2.106   2.442
 2678SOL    HW2 8934   0.341   2.075   2.310
 2679SOL     OW 8935   2.000   4.837   2.112
 2679SOL    HW1 8936   2.036   4.872   2.025
 2679SOL    HW2 8937   2.013   4.907   2.183
 2680SOL     OW 8938   0.964   1.967   1.022
 2680SOL    HW1 8939   0.872   1.945   1.055
 2680SOL    HW2 8940   1.005   2.035   1.083
 2681SOL     OW 8941   1.314   2.255   5.302
 2681SOL    HW1 8942   1.230   2.206   5.323
 2681SOL    HW2 8943   1.371   2.200   5.241
 2682SOL     OW 8944   4.902   4.646   3.786
 2682SOL    HW1 8945   4.940   4.617   3.874
 2682SOL    HW2 8946   4.967   4.626   3.713
 2683SOL     OW 8947   2.730   4.865   1.977
 2683SOL    HW1 8948   2.763   4.771   1.967
 2683SOL    HW2 8949   2.797   4.918   2.028
 2684SOL     OW 8950   4.257   6.896   2.168
 2684SOL    HW1 8951   4.211   6.833   2.105
 2684SOL    HW2 8952   4.331   6.847   2.215
 2685SOL     OW 8953   6.391   5.832   6.285
 2685SOL    HW1 8954   6.423   5.890   6.210
 2685SOL    HW2 8955   6.316   5.774   6.252
 2686SOL     OW 8956   1.880   1.877   6.015
 2686SOL    HW1 8957   1.796   1.897   5.964
 2686SOL    HW2 8958   1.888   1.779   6.030
 2687SOL     OW 8959   5.063   5.669   1.392
 2687SOL    HW1 8960   5.062   5.587   1.335
 2687SOL    HW2 8961   4.974   5.681   1.435
 2688SOL     OW 8962   2.674   2.555   0.208
 2688SOL    HW1 8963   2.574   2.546   0.201
 2688SOL    HW2 8964   2.697   2.623   0.277
 2689SOL     OW 8965   0.615   3.934   2.377
 2689SOL    HW1 8966   0.568   3.970   2.457
 2689SOL    HW2 8967   0.619   3.834   2.382
 2690SOL     OW 8968   3.729   3.519   5.070
 2690SOL    HW1 8969   3.788   3.510   4.991
 2690SOL    HW2 8970   3.678   3.433   5.084
 2691SOL     OW 8971   0.716   5.488   3.886
 2691SOL    HW1 8972   0.744   5.529   3.798
 2691SOL    HW2 8973   0.741   5.549   3.960
 2692SOL     OW 8974   2.639   6.600   3.678
 2692SOL    HW1 8975   2.550   6.604   3.723
 2692SOL    HW2 8976   2.665   6.692   3.648
 2693SOL     OW 8977   1.980   4.840   3.863
 2693SOL    HW1 8978   1.892   4.796   3.881
 2693SOL    HW2 8979   1.970   4.904   3.787
 2694SOL     OW 8980   4.324   6.379   3.079
 2694SOL    HW1 8981   4.240   6.354   3.031
 2694SOL    HW2 8982   4.304   6.390   3.177
 2695SOL     OW 8983   6.012   0.878   2.494
 2695SOL    HW1 8984   6.107   0.897   2.469
 2695SOL    HW2 8985   5.958   0.961   2.486
 2696SOL     OW 8986   3.449   3.105   5.974
 2696SOL    HW1 8987   3.452   3.029   6.039
 2696SOL    HW2 8988   3.438   3.069   5.882
 2697SOL     OW 8989   3.290   1.200   3.071
 2697SOL    HW1 8990   3.284   1.242   2.980
 2697SOL    HW2 8991   3.374   1.229   3.115
 2698SOL     OW 8992   1.574   4.574   0.792
 2698SOL    HW1 8993   1.604   4.584   0.697
 2698SOL    HW2 8994   1.648   4.535   0.846
 2699SOL     OW 8995   2.558   5.742   1.365
 2699SOL    HW1 8996   2.626   5.768   1.297
 2699SOL    HW2 8997   2.542   5.644   1.361
 2700SOL     OW 8998   2.566   2.528   0.689
 2700SOL    HW1 8999   2.510   2.448   0.667
 2700SOL    HW2 9000   2.652   2.523   0.638
 2701SOL     OW 9001   5.236   2.116   6.243
 2701SOL    HW1 9002   5.326   2.116   6.287
 2701SOL    HW2 9003   5.204   2.021   6.234
 2702SOL     OW 9004   0.755   2.574   3.392
 2702SOL    HW1 9005   0.762   2.479   3.423
 2702SOL    HW2 9006   0.806   2.586   3.307
 2703SOL     OW 9007   1.114   6.438   0.622
 2703SOL    HW1 9008   1.061   6.354   0.632
 2703SOL    HW2 9009   1.065   6.514   0.667
 2704SOL     OW 9010   6.605   5.785   1.812
 2704SOL    HW1 9011   6.524   5.771   1.756
 2704SOL    HW2 9012   6.685   5.746   1.765
 2705SOL     OW 9013   6.269   0.013   4.829
 2705SOL    HW1 9014   6.236   6.952   4.781
 2705SOL    HW2 9015   6.278   7.013   4.927
 2706SOL     OW 9016   6.273   5.286   3.259
 2706SOL    HW1 9017   6.211   5.313   3.185
 2706SOL    HW2 9018   6.366   5.276   3.222
 2707SOL     OW 9019   3.841   0.256   4.356
 2707SOL    HW1 9020   3.926   0.212   4.327
 2707SOL    HW2 9021   3.784   0.272   4.275
 2708SOL     OW 9022   6.427   2.899   0.974
 2708SOL    HW1 9023   6.373   2.848   1.041
 2708SOL    HW2 9024   6.454   2.987   1.013
 2709SOL     OW 9025   5.223   0.112   0.129
 2709SOL    HW1 9026   5.239   0.156   0.041
 2709SOL    HW2 9027   5.126   0.118   0.151
 2710SOL     OW 9028   1.017   3.222   3.915
 2710SOL    HW1 9029   1.059   3.132   3.903
 2710SOL    HW2 9030   1.075   3.292   3.874
 2711SOL     OW 9031   2.781   0.889   3.565
 2711SOL    HW1 9032   2.869   0.918   3.529
 2711SOL    HW2 9033   2.780   0.900   3.664
 2712SOL     OW 9034   2.639   4.797   1.276
 2712SOL    HW1 9035   2.622   4.756   1.366
 2712SOL    HW2 9036   2.635   4.897   1.284
 2713SOL     OW 9037   2.472   3.722   6.273
 2713SOL    HW1 9038   2.463   3.627   6.305
 2713SOL    HW2 9039   2.559   3.733   6.226
 2714SOL     OW 9040   4.244   2.508   6.989
 2714SOL    HW1 9041   4.235   2.547   0.062
 2714SOL    HW2 9042   4.286   2.418   6.995
 2715SOL     OW 9043   5.718   2.567   0.973
 2715SOL    HW1 9044   5.722   2.551   1.072
 2715SOL    HW2 9045   5.680   2.658   0.955
 2716SOL     OW 9046   5.277   3.325   3.569
 2716SOL    HW1 9047   5.206   3.275   3.619
 2716SOL    HW2 9048   5.345   3.359   3.635
 2717SOL     OW 9049   0.806   7.017   2.313
 2717SOL    HW1 9050   0.776   0.052   2.392
 2717SOL    HW2 9051   0.742   0.012   2.237
 2718SOL     OW 9052   1.304   1.045   5.526
 2718SOL    HW1 9053   1.350   0.971   5.576
 2718SOL    HW2 9054   1.338   1.133   5.558
 2719SOL     OW 9055   0.521   4.876   1.866
 2719SOL    HW1 9056   0.609   4.901   1.826
 2719SOL    HW2 9057   0.448   4.893   1.800
 2720SOL     OW 9058   1.660   6.877   2.353
 2720SOL    HW1 9059   1.722   6.862   2.430
 2720SOL    HW2 9060   1.627   6.972   2.354
 2721SOL     OW 9061   3.111   6.157   3.539
 2721SOL    HW1 9062   3.091   6.176   3.442
 2721SOL    HW2 9063   3.119   6.058   3.552
 2722SOL     OW 9064   5.945   5.117   0.636
 2722SOL    HW1 9065   5.951   5.161   0.546
 2722SOL    HW2 9066   5.881   5.167   0.694
 2723SOL     OW 9067   0.948   5.479   6.091
 2723SOL    HW1 9068   0.922   5.500   5.997
 2723SOL    HW2 9069   0.943   5.562   6.147
 2724SOL     OW 9070   1.637   6.223   6.605
 2724SOL    HW1 9071   1.662   6.133   6.569
 2724SOL    HW2 9072   1.605   6.281   6.530
 2725SOL     OW 9073   4.923   4.791   5.020
 2725SOL    HW1 9074   4.961   4.770   5.110
 2725SOL    HW2 9075   4.998   4.813   4.957
 2726SOL     OW 9076   0.038   2.278   2.205
 2726SOL    HW1 9077   0.080   2.264   2.295
 2726SOL    HW2 9078   7.009   2.365   2.204
 2727SOL     OW 9079   0.778   4.765   3.840
 2727SOL    HW1 9080   0.741   4.857   3.853
 2727SOL    HW2 9081   0.870   4.761   3.881
 2728SOL     OW 9082   4.354   6.775   5.181
 2728SOL    HW1 9083   4.322   6.681   5.180
 2728SOL    HW2 9084   4.393   6.798   5.091
 2729SOL     OW 9085   0.170   6.052   0.605
 2729SOL    HW1 9086   0.141   5.967   0.649
 2729SOL    HW2 9087   0.205   6.116   0.674
 2730SOL     OW 9088   1.345   5.425   2.001
 2730SOL    HW1 9089   1.404   5.357   2.044
 2730SOL    HW2 9090   1.297   5.384   1.924
 2731SOL     OW 9091   2.936   3.639   3.442
 2731SOL    HW1 9092   2.977   3.729   3.454
 2731SOL    HW2 9093   2.896   3.633   3.350
 2732SOL     OW 9094   5.952   2.421   1.623
 2732SOL    HW1 9095   5.994   2.363   1.554
 2732SOL    HW2 9096   5.855   2.399   1.631
 2733SOL     OW 9097   6.333   1.666   4.995
 2733SOL    HW1 9098   6.258   1.607   5.026
 2733SOL    HW2 9099   6.383   1.701   5.075
 2734SOL     OW 9100   2.851   4.988   1.013
 2734SOL    HW1 9101   2.940   4.970   1.055
 2734SOL    HW2 9102   2.828   4.913   0.951
 2735SOL     OW 9103   1.805   2.656   1.626
 2735SOL    HW1 9104   1.816   2.567   1.670
 2735SOL    HW2 9105   1.777   2.724   1.694
 2736SOL     OW 9106   6.296   6.161   4.557
 2736SOL    HW1 9107   6.290   6.136   4.461
 2736SOL    HW2 9108   6.336   6.252   4.566
 2737SOL     OW 9109   3.025   4.139   5.312
 2737SOL    HW1 9110   3.090   4.201   5.267
 2737SOL    HW2 9111   2.944   4.190   5.339
 2738SOL     OW 9112   5.082   6.513   2.103
 2738SOL    HW1 9113   5.047   6.427   2.140
 2738SOL    HW2 9114   5.182   6.510   2.104
 2739SOL     OW 9115   1.708   4.842   1.187
 2739SOL    HW1 9116   1.611   4.868   1.190
 2739SOL    HW2 9117   1.724   4.767   1.251
 2740SOL     OW 9118   6.334   4.437   1.362
 2740SOL    HW1 9119   6.369   4.526   1.331
 2740SOL    HW2 9120   6.409   4.372   1.367
 2741SOL     OW 9121   6.101   0.719   4.499
 2741SOL    HW1 9122   6.107   0.657   4.578
 2741SOL    HW2 9123   6.187   0.770   4.491
 2742SOL     OW 9124   1.347   5.072   0.408
 2742SOL    HW1 9125   1.325   5.168   0.393
 2742SOL    HW2 9126   1.436   5.051   0.366
 2743SOL     OW 9127   6.962   4.577   2.804
 2743SOL    HW1 9128   6.906   4.657   2.786
 2743SOL    HW2 9129   0.039   4.601   2.795
 2744SOL     OW 9130   4.740   2.304   0.271
 2744SOL    HW1 9131   4.784   2.394   0.273
 2744SOL    HW2 9132   4.648   2.311   0.311
 2745SOL     OW 9133   0.082   1.053   4.664
 2745SOL    HW1 9134   0.125   1.130   4.616
 2745SOL    HW2 9135   7.011   1.081   4.697
 2746SOL     OW 9136   0.852   2.582   4.758
 2746SOL    HW1 9137   0.759   2.589   4.796
 2746SOL    HW2 9138   0.888   2.675   4.743
 2747SOL     OW 9139   4.784   4.897   0.072
 2747SOL    HW1 9140   4.782   4.997   0.067
 2747SOL    HW2 9141   4.697   4.864   0.109
 2748SOL     OW 9142   4.708   1.178   2.517
 2748SOL    HW1 9143   4.779   1.158   2.585
 2748SOL    HW2 9144   4.750   1.213   2.434
 2749SOL     OW 9145   0.147   4.247   1.098
 2749SOL    HW1 9146   0.215   4.315   1.069
 2749SOL    HW2 9147   0.177   4.204   1.183
 2750SOL     OW 9148   1.537   3.491   1.111
 2750SOL    HW1 9149   1.557   3.437   1.030
 2750SOL    HW2 9150   1.514   3.431   1.187
 2751SOL     OW 9151   1.496   2.981   1.617
 2751SOL    HW1 9152   1.494   2.933   1.530
 2751SOL    HW2 9153   1.477   3.078   1.602
 2752SOL     OW 9154   3.411   4.982   5.537
 2752SOL    HW1 9155   3.418   4.950   5.631
 2752SOL    HW2 9156   3.320   5.021   5.522
 2753SOL     OW 9157   6.820   6.512   5.179
 2753SOL    HW1 9158   6.829   6.609   5.154
 2753SOL    HW2 9159   6.726   6.483   5.163
 2754SOL     OW 9160   0.858   0.446   0.850
 2754SOL    HW1 9161   0.908   0.424   0.934
 2754SOL    HW2 9162   0.781   0.506   0.872
 2755SOL     OW 9163   3.061   6.681   2.106
 2755SOL    HW1 9164   3.132   6.611   2.117
 2755SOL    HW2 9165   3.015   6.696   2.193
 2756SOL     OW 9166   5.795   5.167   0.339
 2756SOL    HW1 9167   5.763   5.077   0.369
 2756SOL    HW2 9168   5.756   5.238   0.399
 2757SOL     OW 9169   2.704   6.598   6.786
 2757SOL    HW1 9170   2.709   6.595   6.686
 2757SOL    HW2 9171   2.609   6.610   6.814
 2758SOL     OW 9172   3.717   6.323   4.195
 2758SOL    HW1 9173   3.668   6.249   4.241
 2758SOL    HW2 9174   3.656   6.402   4.184
 2759SOL     OW 9175   5.217   6.830   6.192
 2759SOL    HW1 9176   5.181   6.922   6.178
 2759SOL    HW2 9177   5.161   6.782   6.260
 2760SOL     OW 9178   0.811   6.210   1.708
 2760SOL    HW1 9179   0.870   6.291   1.697
 2760SOL    HW2 9180   0.739   6.212   1.639
 2761SOL     OW 9181   2.006   5.475   4.436
 2761SOL    HW1 9182   1.926   5.510   4.485
 2761SOL    HW2 9183   2.084   5.470   4.499
 2762SOL     OW 9184   1.696   1.146   5.684
 2762SOL    HW1 9185   1.765   1.177   5.751
 2762SOL    HW2 9186   1.694   1.047   5.682
 2763SOL     OW 9187   5.279   1.731   3.752
 2763SOL    HW1 9188   5.363   1.765   3.711
 2763SOL    HW2 9189   5.201   1.752   3.692
 2764SOL     OW 9190   5.555   1.111   0.664
 2764SOL    HW1 9191   5.564   1.106   0.763
 2764SOL    HW2 9192   5.459   1.125   0.639
 2765SOL     OW 9193   6.159   6.484   0.781
 2765SOL    HW1 9194   6.081   6.546   0.771
 2765SOL    HW2 9195   6.221   6.519   0.851
 2766SOL     OW 9196   4.946   2.124   0.220
 2766SOL    HW1 9197   4.888   2.204   0.235
 2766SOL    HW2 9198   4.909   2.047   0.271
 2767SOL     OW 9199   0.028   5.175   0.440
 2767SOL    HW1 9200   6.950   5.171   0.419
 2767SOL    HW2 9201   0.070   5.249   0.388
 2768SOL     OW 9202   4.377   0.886   0.971
 2768SOL    HW1 9203   4.396   0.982   0.950
 2768SOL    HW2 9204   4.385   0.832   0.887
 2769SOL     OW 9205   1.218   4.335   4.100
 2769SOL    HW1 9206   1.138   4.283   4.127
 2769SOL    HW2 9207   1.193   4.431   4.088
 2770SOL     OW 9208   3.525   5.729   5.379
 2770SOL    HW1 9209   3.586   5.756   5.454
 2770SOL    HW2 9210   3.458   5.801   5.363
 2771SOL     OW 9211   6.640   1.049   3.549
 2771SOL    HW1 9212   6.541   1.061   3.557
 2771SOL    HW2 9213   6.660   0.976   3.484
 2772SOL     OW 9214   4.011   1.221   1.127
 2772SOL    HW1 9215   3.972   1.304   1.088
 2772SOL    HW2 9216   4.104   1.208   1.093
 2773SOL     OW 9217   6.239   2.346   5.504
 2773SOL    HW1 9218   6.317   2.292   5.472
 2773SOL    HW2 9219   6.177   2.288   5.557
 2774SOL     OW 9220   5.861   3.412   3.090
 2774SOL    HW1 9221   5.897   3.506   3.089
 2774SOL    HW2 9222   5.761   3.415   3.092
 2775SOL     OW 9223   0.129   6.106   6.656
 2775SOL    HW1 9224   0.209   6.101   6.715
 2775SOL    HW2 9225   0.086   6.196   6.665
 2776SOL     OW 9226   4.067   5.043   5.740
 2776SOL    HW1 9227   4.145   5.102   5.761
 2776SOL    HW2 9228   4.098   4.949   5.731
 2777SOL     OW 9229   2.554   1.199   2.074
 2777SOL    HW1 9230   2.468   1.238   2.109
 2777SOL    HW2 9231   2.553   1.100   2.087
 2778SOL     OW 9232   1.434   6.876   5.651
 2778SOL    HW1 9233   1.367   6.915   5.587
 2778SOL    HW2 9234   1.504   6.826   5.600
 2779SOL     OW 9235   4.988   6.468   0.975
 2779SOL    HW1 9236   4.923   6.441   1.046
 2779SOL    HW2 9237   5.071   6.413   0.983
 2780SOL     OW 9238   6.629   6.282   6.869
 2780SOL    HW1 9239   6.697   6.279   6.796
 2780SOL    HW2 9240   6.632   6.371   6.915
 2781SOL     OW 9241   5.142   6.542   1.789
 2781SOL    HW1 9242   5.225   6.584   1.825
 2781SOL    HW2 9243   5.074   6.535   1.861
 2782SOL     OW 9244   3.562   1.774   5.845
 2782SOL    HW1 9245   3.542   1.810   5.754
 2782SOL    HW2 9246   3.560   1.849   5.911
 2783SOL     OW 9247   4.970   4.307   3.956
 2783SOL    HW1 9248   4.875   4.294   3.984
 2783SOL    HW2 9249   4.993   4.241   3.884
 2784SOL     OW 9250   3.709   1.715   2.174
 2784SOL    HW1 9251   3.660   1.682   2.093
 2784SOL    HW2 9252   3.782   1.777   2.145
 2785SOL     OW 9253   4.715   1.307   0.737
 2785SOL    HW1 9254   4.668   1.388   0.772
 2785SOL    HW2 9255   4.808   1.304   0.772
 2786SOL     OW 9256   4.949   0.223   2.068
 2786SOL    HW1 9257   4.913   0.207   2.160
 2786SOL    HW2 9258   4.884   0.278   2.016
 2787SOL     OW 9259   3.634   1.872   6.605
 2787SOL    HW1 9260   3.718   1.826   6.576
 2787SOL    HW2 9261   3.643   1.900   6.700
 2788SOL     OW 9262   2.442   4.711   6.008
 2788SOL    HW1 9263   2.478   4.798   5.973
 2788SOL    HW2 9264   2.439   4.644   5.933
 2789SOL     OW 9265   1.829   2.403   3.718
 2789SOL    HW1 9266   1.830   2.306   3.695
 2789SOL    HW2 9267   1.833   2.414   3.817
 2790SOL     OW 9268   3.264   5.894   1.946
 2790SOL    HW1 9269   3.173   5.899   1.905
 2790SOL    HW2 9270   3.270   5.812   2.004
 2791SOL     OW 9271   0.928   3.351   2.713
 2791SOL    HW1 9272   0.864   3.276   2.726
 2791SOL    HW2 9273   0.879   3.438   2.717
 2792SOL     OW 9274   2.375   0.163   4.044
 2792SOL    HW1 9275   2.419   0.236   3.992
 2792SOL    HW2 9276   2.336   0.096   3.980
 2793SOL     OW 9277   5.509   3.524   3.325
 2793SOL    HW1 9278   5.556   3.475   3.398
 2793SOL    HW2 9279   5.411   3.527   3.344
 2794SOL     OW 9280   0.328   2.674   6.640
 2794SOL    HW1 9281   0.373   2.753   6.682
 2794SOL    HW2 9282   0.338   2.680   6.541
 2795SOL     OW 9283   1.555   2.814   0.547
 2795SOL    HW1 9284   1.629   2.813   0.479
 2795SOL    HW2 9285   1.566   2.736   0.609
 2796SOL     OW 9286   7.016   6.068   2.431
 2796SOL    HW1 9287   6.950   6.142   2.416
 2796SOL    HW2 9288   0.078   6.106   2.476
 2797SOL     OW 9289   5.806   5.181   4.302
 2797SOL    HW1 9290   5.720   5.141   4.269
 2797SOL    HW2 9291   5.796   5.208   4.398
 2798SOL     OW 9292   0.393   5.179   2.083
 2798SOL    HW1 9293   0.474   5.193   2.140
 2798SOL    HW2 9294   0.323   5.247   2.106
 2799SOL     OW 9295   6.136   5.850   6.957
 2799SOL    HW1 9296   6.129   5.790   0.017
 2799SOL    HW2 9297   6.046   5.885   6.933
 2800SOL     OW 9298   4.908   5.711   0.488
 2800SOL    HW1 9299   4.889   5.707   0.586
 2800SOL    HW2 9300   4.861   5.636   0.442
 2801SOL     OW 9301   6.264   5.566   6.014
 2801SOL    HW1 9302   6.350   5.519   6.034
 2801SOL    HW2 9303   6.208   5.571   6.096
 2802SOL     OW 9304   5.022   1.113   5.142
 2802SOL    HW1 9305   5.029   1.202   5.186
 2802SOL    HW2 9306   4.934   1.072   5.163
 2803SOL     OW 9307   3.812   6.136   6.700
 2803SOL    HW1 9308   3.888   6.193   6.669
 2803SOL    HW2 9309   3.745   6.194   6.747
 2804SOL     OW 9310   0.415   5.132   5.096
 2804SOL    HW1 9311   0.487   5.067   5.069
 2804SOL    HW2 9312   0.438   5.223   5.063
 2805SOL     OW 9313   5.366   3.277   1.772
 2805SOL    HW1 9314   5.374   3.178   1.773
 2805SOL    HW2 9315   5.301   3.306   1.842
 2806SOL     OW 9316   6.476   5.037   5.793
 2806SOL    HW1 9317   6.523   5.096   5.728
 2806SOL    HW2 9318   6.532   4.957   5.811
 2807SOL     OW 9319   5.268   6.296   4.121
 2807SOL    HW1 9320   5.268   6.351   4.205
 2807SOL    HW2 9321   5.194   6.228   4.126
 2808SOL     OW 9322   5.649   4.000   2.563
 2808SOL    HW1 9323   5.617   3.976   2.471
 2808SOL    HW2 9324   5.721   3.936   2.591
 2809SOL     OW 9325   5.868   3.134   1.123
 2809SOL    HW1 9326   5.808   3.054   1.120
 2809SOL    HW2 9327   5.823   3.211   1.079
 2810SOL     OW 9328   3.652   5.192   3.549
 2810SOL    HW1 9329   3.666   5.274   3.605
 2810SOL    HW2 9330   3.631   5.219   3.455
 2811SOL     OW 9331   1.046   1.878   3.510
 2811SOL    HW1 9332   1.097   1.848   3.429
 2811SOL    HW2 9333   1.022   1.798   3.565
 2812SOL     OW 9334   4.956   3.919   6.462
 2812SOL    HW1 9335   5.038   3.935   6.517
 2812SOL    HW2 9336   4.980   3.927   6.365
 2813SOL     OW 9337   6.520   6.880   5.971
 2813SOL    HW1 9338   6.520   6.801   6.033
 2813SOL    HW2 9339   6.551   6.851   5.881
 2814SOL     OW 9340   4.073   3.552   5.657
 2814SOL    HW1 9341   4.095   3.555   5.754
 2814SOL    HW2 9342   4.153   3.521   5.605
 2815SOL     OW 9343   6.270   0.047   5.389
 2815SOL    HW1 9344   6.192   0.030   5.449
 2815SOL    HW2 9345   6.238   0.079   5.300
 2816SOL     OW 9346   6.741   5.558   3.446
 2816SOL    HW1 9347   6.800   5.574   3.525
 2816SOL    HW2 9348   6.655   5.608   3.459
 2817SOL     OW 9349   2.488   6.921   1.435
 2817SOL    HW1 9350   2.502   6.967   1.523
 2817SOL    HW2 9351   2.419   6.849   1.445
 2818SOL     OW 9352   0.077   0.632   0.926
 2818SOL    HW1 9353   0.136   0.573   0.871
 2818SOL    HW2 9354   7.019   0.662   0.870
 2819SOL     OW 9355   0.475   1.078   1.566
 2819SOL    HW1 9356   0.562   1.101   1.522
 2819SOL    HW2 9357   0.416   1.159   1.569
 2820SOL     OW 9358   0.875   2.930   3.075
 2820SOL    HW1 9359   0.811   2.856   3.054
 2820SOL    HW2 9360   0.948   2.931   3.007
 2821SOL     OW 9361   4.030   3.366   0.068
 2821SOL    HW1 9362   3.978   3.318   0.138
 2821SOL    HW2 9363   3.986   3.355   6.999
 2822SOL     OW 9364   4.372   1.815   0.170
 2822SOL    HW1 9365   4.423   1.866   0.101
 2822SOL    HW2 9366   4.274   1.832   0.159
 2823SOL     OW 9367   4.461   0.055   0.152
 2823SOL    HW1 9368   4.486   0.092   0.063
 2823SOL    HW2 9369   4.369   0.084   0.176
 2824SOL     OW 9370   3.127   1.379   3.454
 2824SOL    HW1 9371   3.047   1.437   3.441
 2824SOL    HW2 9372   3.181   1.415   3.530
 2825SOL     OW 9373   6.092   0.149   0.126
 2825SOL    HW1 9374   6.089   0.234   0.072
 2825SOL    HW2 9375   6.148   0.081   0.079
 2826SOL     OW 9376   4.677   1.165   6.382
 2826SOL    HW1 9377   4.602   1.099   6.375
 2826SOL    HW2 9378   4.642   1.250   6.421
 2827SOL     OW 9379   0.078   0.535   4.915
 2827SOL    HW1 9380   0.005   0.562   4.853
 2827SOL    HW2 9381   0.056   0.448   4.958
 2828SOL     OW 9382   2.980   1.066   6.603
 2828SOL    HW1 9383   3.046   0.990   6.600
 2828SOL    HW2 9384   2.894   1.036   6.562
 2829SOL     OW 9385   3.446   3.584   5.114
 2829SOL    HW1 9386   3.440   3.672   5.163
 2829SOL    HW2 9387   3.540   3.571   5.082
 2830SOL     OW 9388   1.478   3.371   5.986
 2830SOL    HW1 9389   1.560   3.422   5.959
 2830SOL    HW2 9390   1.467   3.377   6.085
 2831SOL     OW 9391   0.641   5.243   3.778
 2831SOL    HW1 9392   0.666   5.316   3.842
 2831SOL    HW2 9393   0.646   5.278   3.684
 2832SOL     OW 9394   0.895   1.905   2.342
 2832SOL    HW1 9395   0.934   1.990   2.379
 2832SOL    HW2 9396   0.795   1.911   2.343
 2833SOL     OW 9397   3.412   2.031   2.431
 2833SOL    HW1 9398   3.502   2.071   2.410
 2833SOL    HW2 9399   3.349   2.050   2.356
 2834SOL     OW 9400   3.865   5.104   6.743
 2834SOL    HW1 9401   3.926   5.051   6.683
 2834SOL    HW2 9402   3.784   5.132   6.692
 2835SOL     OW 9403   0.209   0.176   1.827
 2835SOL    HW1 9404   0.214   0.174   1.927
 2835SOL    HW2 9405   0.113   0.177   1.800
 2836SOL     OW 9406   6.108   0.205   2.292
 2836SOL    HW1 9407   6.170   0.167   2.361
 2836SOL    HW2 9408   6.065   0.288   2.327
 2837SOL     OW 9409   5.274   4.413   2.504
 2837SOL    HW1 9410   5.271   4.513   2.498
 2837SOL    HW2 9411   5.184   4.375   2.483
 2838SOL     OW 9412   2.473   3.883   1.083
 2838SOL    HW1 9413   2.438   3.873   0.990
 2838SOL    HW2 9414   2.410   3.938   1.138
 2839SOL     OW 9415   6.958   1.728   2.012
 2839SOL    HW1 9416   6.894   1.800   1.983
 2839SOL    HW2 9417   6.997   1.684   1.931
 2840SOL     OW 9418   1.876   0.759   3.016
 2840SOL    HW1 9419   1.932   0.733   3.095
 2840SOL    HW2 9420   1.816   0.835   3.041
 2841SOL     OW 9421   0.238   0.965   6.133
 2841SOL    HW1 9422   0.318   0.939   6.187
 2841SOL    HW2 9423   0.155   0.944   6.184
 2842SOL     OW 9424   0.284   4.215   4.031
 2842SOL    HW1 9425   0.266   4.147   3.960
 2842SOL    HW2 9426   0.301   4.169   4.118
 2843SOL     OW 9427   2.562   1.916   2.648
 2843SOL    HW1 9428   2.555   2.009   2.612
 2843SOL    HW2 9429   2.503   1.907   2.728
 2844SOL     OW 9430   7.017   4.887   0.651
 2844SOL    HW1 9431   0.043   4.975   0.665
 2844SOL    HW2 9432   6.931   4.903   0.601
 2845SOL     OW 9433   6.315   2.954   1.395
 2845SOL    HW1 9434   6.223   2.955   1.433
 2845SOL    HW2 9435   6.315   2.901   1.310
 2846SOL     OW 9436   3.985   1.242   6.694
 2846SOL    HW1 9437   3.928   1.161   6.682
 2846SOL    HW2 9438   3.949   1.318   6.639
 2847SOL     OW 9439   5.101   3.481   3.880
 2847SOL    HW1 9440   5.067   3.389   3.856
 2847SOL    HW2 9441   5.123   3.531   3.797
 2848SOL     OW 9442   1.495   2.635   4.978
 2848SOL    HW1 9443   1.589   2.644   4.945
 2848SOL    HW2 9444   1.485   2.685   5.064
 2849SOL     OW 9445   4.205   6.068   0.736
 2849SOL    HW1 9446   4.118   6.097   0.695
 2849SOL    HW2 9447   4.188   6.038   0.830
 2850SOL     OW 9448   1.574   0.394   2.279
 2850SOL    HW1 9449   1.661   0.377   2.232
 2850SOL    HW2 9450   1.505   0.422   2.212
 2851SOL     OW 9451   6.277   1.340   6.360
 2851SOL    HW1 9452   6.291   1.400   6.282
 2851SOL    HW2 9453   6.192   1.289   6.348
 2852SOL     OW 9454   5.818   4.452   6.913
 2852SOL    HW1 9455   5.827   4.502   6.999
 2852SOL    HW2 9456   5.873   4.496   6.842
 2853SOL     OW 9457   1.823   2.835   6.493
 2853SOL    HW1 9458   1.764   2.782   6.431
 2853SOL    HW2 9459   1.908   2.785   6.510
 2854SOL     OW 9460   4.217   1.363   5.289
 2854SOL    HW1 9461   4.122   1.334   5.297
 2854SOL    HW2 9462   4.258   1.368   5.380
 2855SOL     OW 9463   2.485   1.292   0.152
 2855SOL    HW1 9464   2.450   1.365   0.210
 2855SOL    HW2 9465   2.585   1.298   0.147
 2856SOL     OW 9466   1.293   3.102   5.607
 2856SOL    HW1 9467   1.355   3.113   5.684
 2856SOL    HW2 9468   1.297   3.007   5.575
 2857SOL     OW 9469   2.834   1.929   2.516
 2857SOL    HW1 9470   2.803   1.903   2.608
 2857SOL    HW2 9471   2.831   2.028   2.506
 2858SOL     OW 9472   4.770   4.304   2.578
 2858SOL    HW1 9473   4.741   4.395   2.607
 2858SOL    HW2 9474   4.735   4.285   2.486
 2859SOL     OW 9475   5.276   1.366   6.321
 2859SOL    HW1 9476   5.266   1.331   6.414
 2859SOL    HW2 9477   5.347   1.313   6.273
 2860SOL     OW 9478   3.305   1.517   1.967
 2860SOL    HW1 9479   3.268   1.608   1.948
 2860SOL    HW2 9480   3.284   1.456   1.891
 2861SOL     OW 9481   4.162   3.827   5.236
 2861SOL    HW1 9482   4.104   3.782   5.304
 2861SOL    HW2 9483   4.104   3.884   5.177
 2862SOL     OW 9484   5.609   1.574   3.093
 2862SOL    HW1 9485   5.584   1.502   3.029
 2862SOL    HW2 9486   5.699   1.611   3.069
 2863SOL     OW 9487   5.131   1.058   6.214
 2863SOL    HW1 9488   5.037   1.049   6.247
 2863SOL    HW2 9489   5.193   1.060   6.292
 2864SOL     OW 9490   4.773   1.654   1.817
 2864SOL    HW1 9491   4.705   1.582   1.801
 2864SOL    HW2 9492   4.834   1.626   1.891
 2865SOL     OW 9493   4.042   4.112   6.758
 2865SOL    HW1 9494   3.987   4.183   6.714
 2865SOL    HW2 9495   4.006   4.094   6.850
 2866SOL     OW 9496   6.838   5.229   0.657
 2866SOL    HW1 9497   6.853   5.323   0.627
 2866SOL    HW2 9498   6.894   5.211   0.737
 2867SOL     OW 9499   5.966   5.020   2.806
 2867SOL    HW1 9500   6.046   5.044   2.752
 2867SOL    HW2 9501   5.957   5.082   2.884
 2868SOL     OW 9502   0.941   1.567   5.660
 2868SOL    HW1 9503   0.854   1.617   5.660
 2868SOL    HW2 9504   0.933   1.486   5.601
 2869SOL     OW 9505   6.609   1.568   2.826
 2869SOL    HW1 9506   6.696   1.617   2.835
 2869SOL    HW2 9507   6.628   1.473   2.802
 2870SOL     OW 9508   0.501   1.787   4.711
 2870SOL    HW1 9509   0.479   1.698   4.671
 2870SOL    HW2 9510   0.478   1.787   4.808
 2871SOL     OW 9511   0.599   1.766   6.883
 2871SOL    HW1 9512   0.537   1.715   6.943
 2871SOL    HW2 9513   0.555   1.850   6.852
 2872SOL     OW 9514   2.466   1.407   2.681
 2872SOL    HW1 9515   2.537   1.346   2.715
 2872SOL    HW2 9516   2.379   1.386   2.726
 2873SOL     OW 9517   6.787   5.414   3.208
 2873SOL    HW1 9518   6.845   5.474   3.154
 2873SOL    HW2 9519   6.762   5.460   3.294
 2874SOL     OW 9520   3.990   6.402   3.256
 2874SOL    HW1 9521   4.056   6.415   3.330
 2874SOL    HW2 9522   4.036   6.360   3.178
 2875SOL     OW 9523   4.498   6.915   0.360
 2875SOL    HW1 9524   4.454   6.967   0.287
 2875SOL    HW2 9525   4.456   6.824   0.368
 2876SOL     OW 9526   1.043   6.922   1.592
 2876SOL    HW1 9527   1.023   6.981   1.671
 2876SOL    HW2 9528   1.006   6.964   1.509
 2877SOL     OW 9529   3.323   2.661   5.267
 2877SOL    HW1 9530   3.268   2.579   5.252
 2877SOL    HW2 9531   3.325   2.683   5.364
 2878SOL     OW 9532   4.527   5.068   4.517
 2878SOL    HW1 9533   4.441   5.033   4.556
 2878SOL    HW2 9534   4.587   5.099   4.591
 2879SOL     OW 9535   5.523   5.118   0.541
 2879SOL    HW1 9536   5.561   5.028   0.561
 2879SOL    HW2 9537   5.597   5.180   0.515
 2880SOL     OW 9538   6.778   0.321   1.379
 2880SOL    HW1 9539   6.836   0.364   1.448
 2880SOL    HW2 9540   6.739   0.237   1.417
 2881SOL     OW 9541   5.394   5.740   0.183
 2881SOL    HW1 9542   5.296   5.757   0.193
 2881SOL    HW2 9543   5.436   5.814   0.131
 2882SOL     OW 9544   0.626   4.607   2.761
 2882SOL    HW1 9545   0.714   4.567   2.784
 2882SOL    HW2 9546   0.636   4.669   2.683
 2883SOL     OW 9547   5.835   0.215   3.487
 2883SOL    HW1 9548   5.892   0.136   3.464
 2883SOL    HW2 9549   5.815   0.266   3.404
 2884SOL     OW 9550   0.825   6.781   2.740
 2884SOL    HW1 9551   0.787   6.812   2.827
 2884SOL    HW2 9552   0.913   6.826   2.724
 2885SOL     OW 9553   0.751   3.569   2.923
 2885SOL    HW1 9554   0.704   3.658   2.919
 2885SOL    HW2 9555   0.683   3.496   2.926
 2886SOL     OW 9556   2.030   4.315   5.597
 2886SOL    HW1 9557   1.957   4.371   5.558
 2886SOL    HW2 9558   2.105   4.375   5.627
 2887SOL     OW 9559   0.289   0.418   4.664
 2887SOL    HW1 9560   0.252   0.472   4.589
 2887SOL    HW2 9561   0.250   0.450   4.751
 2888SOL     OW 9562   0.714   4.122   0.026
 2888SOL    HW1 9563   0.744   4.190   0.092
 2888SOL    HW2 9564   0.773   4.125   6.965
 2889SOL     OW 9565   2.018   6.862   2.104
 2889SOL    HW1 9566   2.118   6.861   2.103
 2889SOL    HW2 9567   1.984   6.910   2.023
 2890SOL     OW 9568   2.366   6.123   0.680
 2890SOL    HW1 9569   2.379   6.137   0.778
 2890SOL    HW2 9570   2.271   6.097   0.662
 2891SOL     OW 9571   0.923   4.362   3.817
 2891SOL    HW1 9572   1.006   4.343   3.765
 2891SOL    HW2 9573   0.928   4.317   3.906
 2892SOL     OW 9574   4.958   3.207   0.091
 2892SOL    HW1 9575   4.920   3.290   0.132
 2892SOL    HW2 9576   5.058   3.210   0.095
 2893SOL     OW 9577   0.888   6.321   4.522
 2893SOL    HW1 9578   0.849   6.231   4.543
 2893SOL    HW2 9579   0.926   6.319   4.429
 2894SOL     OW 9580   1.640   2.269   1.639
 2894SOL    HW1 9581   1.561   2.299   1.587
 2894SOL    HW2 9582   1.686   2.348   1.679
 2895SOL     OW 9583   4.427   2.574   5.869
 2895SOL    HW1 9584   4.347   2.622   5.906
 2895SOL    HW2 9585   4.453   2.501   5.932
 2896SOL     OW 9586   4.857   5.632   6.087
 2896SOL    HW1 9587   4.820   5.552   6.134
 2896SOL    HW2 9588   4.838   5.625   5.989
 2897SOL     OW 9589   3.829   5.072   3.191
 2897SOL    HW1 9590   3.741   5.028   3.174
 2897SOL    HW2 9591   3.895   5.043   3.123
 2898SOL     OW 9592   4.030   5.132   4.098
 2898SOL    HW1 9593   4.010   5.044   4.140
 2898SOL    HW2 9594   4.122   5.161   4.122
 2899SOL     OW 9595   0.881   1.769   0.457
 2899SOL    HW1 9596   0.802   1.707   0.463
 2899SOL    HW2 9597   0.853   1.854   0.414
 2900SOL     OW 9598   1.529   4.807   5.275
 2900SOL    HW1 9599   1.514   4.811   5.176
 2900SOL    HW2 9600   1.546   4.712   5.303
 2901SOL     OW 9601   2.904   5.645   3.643
 2901SOL    HW1 9602   2.955   5.573   3.596
 2901SOL    HW2 9603   2.812   5.651   3.604
 2902SOL     OW 9604   4.856   6.673   2.500
 2902SOL    HW1 9605   4.844   6.627   2.412
 2902SOL    HW2 9606   4.879   6.769   2.484
 2903SOL     OW 9607   3.785   0.973   0.491
 2903SOL    HW1 9608   3.790   1.072   0.499
 2903SOL    HW2 9609   3.856   0.941   0.428
 2904SOL     OW 9610   2.055   4.096   5.172
 2904SOL    HW1 9611   1.981   4.043   5.130
 2904SOL    HW2 9612   2.135   4.096   5.112
 2905SOL     OW 9613   1.330   2.695   3.972
 2905SOL    HW1 9614   1.372   2.642   3.899
 2905SOL    HW2 9615   1.382   2.684   4.056
 2906SOL     OW 9616   4.345   5.622   2.441
 2906SOL    HW1 9617   4.350   5.695   2.373
 2906SOL    HW2 9618   4.306   5.658   2.525
 2907SOL     OW 9619   0.628   1.818   3.207
 2907SOL    HW1 9620   0.696   1.752   3.175
 2907SOL    HW2 9621   0.636   1.902   3.155
 2908SOL     OW 9622   4.669   6.269   4.317
 2908SOL    HW1 9623   4.705   6.175   4.318
 2908SOL    HW2 9624   4.675   6.308   4.408
 2909SOL     OW 9625   1.450   6.397   3.080
 2909SOL    HW1 9626   1.415   6.458   3.151
 2909SOL    HW2 9627   1.495   6.318   3.123
 2910SOL     OW 9628   4.538   6.697   4.699
 2910SOL    HW1 9629   4.537   6.691   4.599
 2910SOL    HW2 9630   4.573   6.612   4.738
 2911SOL     OW 9631   1.182   5.541   3.439
 2911SOL    HW1 9632   1.243   5.603   3.489
 2911SOL    HW2 9633   1.192   5.558   3.341
 2912SOL     OW 9634   4.662   0.505   6.997
 2912SOL    HW1 9635   4.657   0.601   0.003
 2912SOL    HW2 9636   4.572   0.463   7.008
 2913SOL     OW 9637   2.805   4.920   2.814
 2913SOL    HW1 9638   2.776   4.826   2.830
 2913SOL    HW2 9639   2.763   4.954   2.730
 2914SOL     OW 9640   5.455   6.033   6.500
 2914SOL    HW1 9641   5.538   6.072   6.460
 2914SOL    HW2 9642   5.450   5.936   6.478
 2915SOL     OW 9643   5.546   1.561   4.583
 2915SOL    HW1 9644   5.544   1.540   4.680
 2915SOL    HW2 9645   5.586   1.485   4.532
 2916SOL     OW 9646   0.706   6.379   6.865
 2916SOL    HW1 9647   0.715   6.344   6.772
 2916SOL    HW2 9648   0.783   6.349   6.921
 2917SOL     OW 9649   2.445   6.837   2.702
 2917SOL    HW1 9650   2.481   6.906   2.764
 2917SOL    HW2 9651   2.448   6.871   2.608
 2918SOL     OW 9652   6.920   5.147   4.504
 2918SOL    HW1 9653   6.954   5.172   4.414
 2918SOL    HW2 9654   6.966   5.063   4.535
 2919SOL     OW 9655   6.707   1.276   0.851
 2919SOL    HW1 9656   6.734   1.372   0.853
 2919SOL    HW2 9657   6.656   1.258   0.767
 2920SOL     OW 9658   2.718   1.945   1.666
 2920SOL    HW1 9659   2.656   2.014   1.703
 2920SOL    HW2 9660   2.781   1.915   1.737
 2921SOL     OW 9661   1.087   0.750   3.422
 2921SOL    HW1 9662   1.166   0.808   3.401
 2921SOL    HW2 9663   1.029   0.742   3.341
 2922SOL     OW 9664   4.871   0.651   0.246
 2922SOL    HW1 9665   4.870   0.664   0.345
 2922SOL    HW2 9666   4.798   0.707   0.205
 2923SOL     OW 9667   0.038   5.541   2.288
 2923SOL    HW1 9668   7.008   5.585   2.213
 2923SOL    HW2 9669   0.087   5.610   2.341
 2924SOL     OW 9670   6.886   1.798   6.243
 2924SOL    HW1 9671   6.908   1.844   6.157
 2924SOL    HW2 9672   6.811   1.845   6.288
 2925SOL     OW 9673   4.273   0.937   2.640
 2925SOL    HW1 9674   4.244   0.903   2.730
 2925SOL    HW2 9675   4.373   0.937   2.635
 2926SOL     OW 9676   6.276   1.646   4.534
 2926SOL    HW1 9677   6.224   1.592   4.600
 2926SOL    HW2 9678   6.329   1.715   4.584
 2927SOL     OW 9679   0.768   2.247   2.368
 2927SOL    HW1 9680   0.863   2.228   2.393
 2927SOL    HW2 9681   0.749   2.211   2.277
 2928SOL     OW 9682   0.009   1.326   5.883
 2928SOL    HW1 9683   6.984   1.242   5.853
 2928SOL    HW2 9684   6.960   1.394   5.907
 2929SOL     OW 9685   0.770   2.186   6.893
 2929SOL    HW1 9686   0.800   2.201   6.987
 2929SOL    HW2 9687   0.821   2.109   6.854
 2930SOL     OW 9688   4.709   6.502   4.815
 2930SOL    HW1 9689   4.736   6.409   4.837
 2930SOL    HW2 9690   4.789   6.554   4.785
 2931SOL     OW 9691   5.473   4.850   0.733
 2931SOL    HW1 9692   5.569   4.843   0.761
 2931SOL    HW2 9693   5.459   4.800   0.648
 2932SOL     OW 9694   0.565   4.925   1.051
 2932SOL    HW1 9695   0.642   4.880   1.006
 2932SOL    HW2 9696   0.547   4.880   1.139
 2933SOL     OW 9697   6.178   4.325   3.587
 2933SOL    HW1 9698   6.239   4.404   3.593
 2933SOL    HW2 9699   6.211   4.264   3.515
 2934SOL     OW 9700   4.451   1.181   0.171
 2934SOL    HW1 9701   4.458   1.102   0.232
 2934SOL    HW2 9702   4.450   1.265   0.225
 2935SOL     OW 9703   6.210   2.923   0.605
 2935SOL    HW1 9704   6.190   3.020   0.615
 2935SOL    HW2 9705   6.200   2.878   0.694
 2936SOL     OW 9706   3.571   5.794   1.358
 2936SOL    HW1 9707   3.561   5.739   1.441
 2936SOL    HW2 9708   3.644   5.756   1.301
 2937SOL     OW 9709   4.848   4.658   0.500
 2937SOL    HW1 9710   4.898   4.741   0.526
 2937SOL    HW2 9711   4.753   4.665   0.530
 2938SOL     OW 9712   4.482   5.464   6.973
 2938SOL    HW1 9713   4.535   5.429   6.896
 2938SOL    HW2 9714   4.538   5.461   0.036
 2939SOL     OW 9715   1.288   0.990   3.433
 2939SOL    HW1 9716   1.379   0.974   3.471
 2939SOL    HW2 9717   1.238   1.054   3.493
 2940SOL     OW 9718   5.869   5.394   6.098
 2940SOL    HW1 9719   5.802   5.432   6.161
 2940SOL    HW2 9720   5.883   5.456   6.021
 2941SOL     OW 9721   1.440   3.126   4.569
 2941SOL    HW1 9722   1.390   3.041   4.555
 2941SOL    HW2 9723   1.387   3.186   4.629
 2942SOL     OW 9724   3.284   2.616   1.412
 2942SOL    HW1 9725   3.288   2.516   1.413
 2942SOL    HW2 9726   3.193   2.645   1.382
 2943SOL     OW 9727   4.744   4.494   2.992
 2943SOL    HW1 9728   4.655   4.453   2.975
 2943SOL    HW2 9729   4.738   4.556   3.071
 2944SOL     OW 9730   3.024   5.363   4.971
 2944SOL    HW1 9731   3.068   5.349   4.882
 2944SOL    HW2 9732   3.084   5.328   5.043
 2945SOL     OW 9733   3.622   4.159   3.986
 2945SOL    HW1 9734   3.565   4.194   4.060
 2945SOL    HW2 9735   3.708   4.124   4.024
 2946SOL     OW 9736   0.980   5.104   6.479
 2946SOL    HW1 9737   1.026   5.063   6.401
 2946SOL    HW2 9738   1.012   5.060   6.564
 2947SOL     OW 9739   0.346   3.421   0.680
 2947SOL    HW1 9740   0.348   3.465   0.590
 2947SOL    HW2 9741   0.420   3.354   0.686
 2948SOL     OW 9742   0.444   4.617   5.818
 2948SOL    HW1 9743   0.344   4.610   5.828
 2948SOL    HW2 9744   0.476   4.550   5.751
 2949SOL     OW 9745   2.987   4.549   0.972
 2949SOL    HW1 9746   2.931   4.625   0.939
 2949SOL    HW2 9747   3.030   4.504   0.894
 2950SOL     OW 9748   5.636   3.547   4.542
 2950SOL    HW1 9749   5.621   3.641   4.571
 2950SOL    HW2 9750   5.548   3.499   4.538
 2951SOL     OW 9751   5.786   1.325   0.864
 2951SOL    HW1 9752   5.831   1.388   0.927
 2951SOL    HW2 9753   5.763   1.373   0.779
 2952SOL     OW 9754   1.268   5.706   5.039
 2952SOL    HW1 9755   1.333   5.736   4.969
 2952SOL    HW2 9756   1.314   5.643   5.101
 2953SOL     OW 9757   5.238   3.548   3.010
 2953SOL    HW1 9758   5.268   3.635   2.970
 2953SOL    HW2 9759   5.193   3.493   2.940
 2954SOL     OW 9760   0.432   5.765   2.280
 2954SOL    HW1 9761   0.429   5.678   2.231
 2954SOL    HW2 9762   0.339   5.799   2.293
 2955SOL     OW 9763   1.088   3.846   1.426
 2955SOL    HW1 9764   1.125   3.910   1.359
 2955SOL    HW2 9765   1.119   3.754   1.405
 2956SOL     OW 9766   5.404   6.584   3.267
 2956SOL    HW1 9767   5.394   6.498   3.317
 2956SOL    HW2 9768   5.402   6.566   3.169
 2957SOL     OW 9769   6.026   3.143   2.294
 2957SOL    HW1 9770   5.979   3.132   2.206
 2957SOL    HW2 9771   6.088   3.066   2.309
 2958SOL     OW 9772   2.085   4.673   4.656
 2958SOL    HW1 9773   2.136   4.588   4.660
 2958SOL    HW2 9774   2.116   4.735   4.728
 2959SOL     OW 9775   4.901   4.267   0.866
 2959SOL    HW1 9776   4.951   4.182   0.887
 2959SOL    HW2 9777   4.946   4.314   0.791
 2960SOL     OW 9778   3.957   0.392   6.117
 2960SOL    HW1 9779   3.942   0.304   6.163
 2960SOL    HW2 9780   3.872   0.445   6.118
 2961SOL     OW 9781   4.946   3.349   3.224
 2961SOL    HW1 9782   5.034   3.305   3.206
 2961SOL    HW2 9783   4.956   3.411   3.302
 2962SOL     OW 9784   3.925   0.390   3.139
 2962SOL    HW1 9785   3.960   0.342   3.219
 2962SOL    HW2 9786   3.984   0.468   3.118
 2963SOL     OW 9787   2.050   0.267   6.746
 2963SOL    HW1 9788   2.051   0.299   6.651
 2963SOL    HW2 9789   1.996   0.330   6.802
 2964SOL     OW 9790   0.663   0.393   3.117
 2964SOL    HW1 9791   0.750   0.407   3.164
 2964SOL    HW2 9792   0.681   0.348   3.029
 2965SOL     OW 9793   6.438   1.154   4.638
 2965SOL    HW1 9794   6.346   1.175   4.603
 2965SOL    HW2 9795   6.503   1.154   4.562
 2966SOL     OW 9796   6.599   6.013   4.340
 2966SOL    HW1 9797   6.511   6.059   4.350
 2966SOL    HW2 9798   6.594   5.923   4.384
 2967SOL     OW 9799   5.730   0.787   4.701
 2967SOL    HW1 9800   5.764   0.792   4.607
 2967SOL    HW2 9801   5.759   0.701   4.743
 2968SOL     OW 9802   0.579   3.390   6.308
 2968SOL    HW1 9803   0.488   3.375   6.346
 2968SOL    HW2 9804   0.592   3.333   6.227
 2969SOL     OW 9805   5.447   0.985   4.232
 2969SOL    HW1 9806   5.523   0.941   4.281
 2969SOL    HW2 9807   5.447   1.083   4.251
 2970SOL     OW 9808   1.583   4.559   6.055
 2970SOL    HW1 9809   1.670   4.529   6.016
 2970SOL    HW2 9810   1.508   4.532   5.995
 2971SOL     OW 9811   5.244   4.379   6.919
 2971SOL    HW1 9812   5.181   4.364   6.843
 2971SOL    HW2 9813   5.193   4.374   7.005
 2972SOL     OW 9814   5.885   4.136   6.319
 2972SOL    HW1 9815   5.948   4.076   6.368
 2972SOL    HW2 9816   5.877   4.105   6.224
 2973SOL     OW 9817   5.539   0.786   3.653
 2973SOL    HW1 9818   5.463   0.844   3.682
 2973SOL    HW2 9819   5.617   0.843   3.630
 2974SOL     OW 9820   0.381   4.352   2.944
 2974SOL    HW1 9821   0.448   4.426   2.945
 2974SOL    HW2 9822   0.426   4.266   2.968
 2975SOL     OW 9823   6.290   2.741   5.250
 2975SOL    HW1 9824   6.240   2.819   5.213
 2975SOL    HW2 9825   6.230   2.687   5.308
 2976SOL     OW 9826   3.987   2.071   3.374
 2976SOL    HW1 9827   4.010   2.168   3.383
 2976SOL    HW2 9828   4.025   2.036   3.289
 2977SOL     OW 9829   2.514   7.005   3.314
 2977SOL    HW1 9830   2.436   0.025   3.266
 2977SOL    HW2 9831   2.541   6.920   3.268
 2978SOL     OW 9832   4.983   4.552   0.285
 2978SOL    HW1 9833   5.004   4.619   0.214
 2978SOL    HW2 9834   4.940   4.598   0.363
 2979SOL     OW 9835   4.856   1.214   4.503
 2979SOL    HW1 9836   4.931   1.231   4.567
 2979SOL    HW2 9837   4.891   1.211   4.410
 2980SOL     OW 9838   2.109   6.642   3.500
 2980SOL    HW1 9839   2.183   6.709   3.496
 2980SOL    HW2 9840   2.040   6.664   3.432
 2981SOL     OW 9841   2.185   0.963   5.932
 2981SOL    HW1 9842   2.266   1.015   5.960
 2981SOL    HW2 9843   2.106   1.024   5.928
 2982SOL     OW 9844   4.114   5.149   3.275
 2982SOL    HW1 9845   4.081   5.127   3.184
 2982SOL    HW2 9846   4.038   5.180   3.332
 2983SOL     OW 9847   1.078   1.640   3.222
 2983SOL    HW1 9848   0.991   1.611   3.181
 2983SOL    HW2 9849   1.119   1.710   3.164
 2984SOL     OW 9850   5.437   5.793   1.144
 2984SOL    HW1 9851   5.453   5.830   1.235
 2984SOL    HW2 9852   5.369   5.719   1.150
 2985SOL     OW 9853   1.540   2.768   6.103
 2985SOL    HW1 9854   1.520   2.711   6.024
 2985SOL    HW2 9855   1.520   2.864   6.081
 2986SOL     OW 9856   3.448   3.917   5.553
 2986SOL    HW1 9857   3.450   3.901   5.652
 2986SOL    HW2 9858   3.396   4.000   5.533
 2987SOL     OW 9859   5.899   0.902   4.465
 2987SOL    HW1 9860   5.979   0.844   4.480
 2987SOL    HW2 9861   5.927   0.990   4.429
 2988SOL     OW 9862   0.645   5.918   2.766
 2988SOL    HW1 9863   0.569   5.888   2.707
 2988SOL    HW2 9864   0.637   5.874   2.855
 2989SOL     OW 9865   6.794   6.178   6.653
 2989SOL    HW1 9866   6.813   6.124   6.735
 2989SOL    HW2 9867   6.743   6.122   6.587
 2990SOL     OW 9868   4.360   1.824   4.187
 2990SOL    HW1 9869   4.420   1.898   4.216
 2990SOL    HW2 9870   4.268   1.859   4.173
 2991SOL     OW 9871   6.401   4.064   5.907
 2991SOL    HW1 9872   6.376   4.125   5.981
 2991SOL    HW2 9873   6.322   4.048   5.849
 2992SOL     OW 9874   2.940   5.207   5.384
 2992SOL    HW1 9875   2.962   5.158   5.299
 2992SOL    HW2 9876   2.866   5.272   5.367
 2993SOL     OW 9877   0.704   5.164   1.145
 2993SOL    HW1 9878   0.777   5.184   1.080
 2993SOL    HW2 9879   0.653   5.084   1.114
 2994SOL     OW 9880   3.741   6.537   6.953
 2994SOL    HW1 9881   3.659   6.481   6.936
 2994SOL    HW2 9882   3.821   6.478   6.960
 2995SOL     OW 9883   2.641   2.490   6.478
 2995SOL    HW1 9884   2.602   2.578   6.506
 2995SOL    HW2 9885   2.597   2.459   6.394
 2996SOL     OW 9886   2.409   0.298   3.716
 2996SOL    HW1 9887   2.501   0.317   3.681
 2996SOL    HW2 9888   2.393   0.200   3.716
 2997SOL     OW 9889   5.845   1.085   2.488
 2997SOL    HW1 9890   5.776   1.082   2.560
 2997SOL    HW2 9891   5.800   1.089   2.399
 2998SOL     OW 9892   4.586   0.031   4.256
 2998SOL    HW1 9893   4.649   0.026   4.178
 2998SOL    HW2 9894   4.595   6.968   4.312
 2999SOL     OW 9895   2.875   4.850   4.538
 2999SOL    HW1 9896   2.836   4.808   4.620
 2999SOL    HW2 9897   2.958   4.900   4.562
 3000SOL     OW 9898   2.230   3.604   6.752
 3000SOL    HW1 9899   2.319   3.616   6.796
 3000SOL    HW2 9900   2.157   3.618   6.820
 3001SOL     OW 9901   5.151   6.460   6.201
 3001SOL    HW1 9902   5.152   6.515   6.118
 3001SOL    HW2 9903   5.245   6.444   6.231
 3002SOL     OW 9904   4.166   0.871   6.257
 3002SOL    HW1 9905   4.184   0.891   6.353
 3002SOL    HW2 9906   4.145   0.956   6.208
 3003SOL     OW 9907   2.340   6.984   7.012
 3003SOL    HW1 9908   2.258   0.019   0.003
 3003SOL    HW2 9909   2.322   6.890   0.022
 3004SOL     OW 9910   1.671   4.793   3.339
 3004SOL    HW1 9911   1.688   4.697   3.358
 3004SOL    HW2 9912   1.575   4.814   3.354
 3005SOL     OW 9913   3.377   2.553   6.976
 3005SOL    HW1 9914   3.435   2.599   0.023
 3005SOL    HW2 9915   3.389   2.595   6.886
 3006SOL     OW 9916   5.398   2.087   5.994
 3006SOL    HW1 9917   5.321   2.122   6.048
 3006SOL    HW2 9918   5.437   2.007   6.041
 3007SOL     OW 9919   5.869   5.623   1.008
 3007SOL    HW1 9920   5.824   5.652   0.924
 3007SOL    HW2 9921   5.927   5.697   1.042
 3008SOL     OW 9922   3.455   1.624   6.850
 3008SOL    HW1 9923   3.381   1.618   6.917
 3008SOL    HW2 9924   3.481   1.720   6.838
 3009SOL     OW 9925   0.800   0.991   3.200
 3009SOL    HW1 9926   0.776   0.897   3.177
 3009SOL    HW2 9927   0.900   1.001   3.200
 3010SOL     OW 9928   3.165   5.867   3.103
 3010SOL    HW1 9929   3.151   5.915   3.016
 3010SOL    HW2 9930   3.149   5.931   3.178
 3011SOL     OW 9931   5.125   1.465   1.347
 3011SOL    HW1 9932   5.056   1.398   1.320
 3011SOL    HW2 9933   5.167   1.437   1.433
 3012SOL     OW 9934   1.073   3.809   5.205
 3012SOL    HW1 9935   1.119   3.747   5.269
 3012SOL    HW2 9936   1.139   3.875   5.169
 3013SOL     OW 9937   5.494   5.603   4.702
 3013SOL    HW1 9938   5.509   5.696   4.737
 3013SOL    HW2 9939   5.569   5.578   4.641
 3014SOL     OW 9940   5.008   2.033   5.074
 3014SOL    HW1 9941   5.040   1.955   5.128
 3014SOL    HW2 9942   4.918   2.013   5.037
 3015SOL     OW 9943   3.343   2.276   0.181
 3015SOL    HW1 9944   3.417   2.210   0.190
 3015SOL    HW2 9945   3.340   2.334   0.263
 3016SOL     OW 9946   2.779   6.211   4.214
 3016SOL    HW1 9947   2.824   6.284   4.163
 3016SOL    HW2 9948   2.708   6.169   4.157
 3017SOL     OW 9949   0.050   5.430   1.870
 3017SOL    HW1 9950   6.997   5.377   1.827
 3017SOL    HW2 9951   0.012   5.514   1.908
 3018SOL     OW 9952   2.885   6.258   6.312
 3018SOL    HW1 9953   2.984   6.255   6.325
 3018SOL    HW2 9954   2.841   6.290   6.396
 3019SOL     OW 9955   1.162   0.138   6.809
 3019SOL    HW1 9956   1.078   0.110   6.856
 3019SOL    HW2 9957   1.155   0.233   6.780
 3020SOL     OW 9958   3.928   3.057   1.922
 3020SOL    HW1 9959   3.861   2.985   1.940
 3020SOL    HW2 9960   3.952   3.056   1.825
 3021SOL     OW 9961   3.207   0.184   6.705
 3021SOL    HW1 9962   3.134   0.242   6.741
 3021SOL    HW2 9963   3.263   0.150   6.781
 3022SOL     OW 9964   3.767   5.149   4.343
 3022SOL    HW1 9965   3.815   5.221   4.294
 3022SOL    HW2 9966   3.722   5.088   4.278
 3023SOL     OW 9967   4.105   0.463   2.752
 3023SOL    HW1 9968   4.187   0.434   2.801
 3023SOL    HW2 9969   4.054   0.528   2.808
 3024SOL     OW 9970   4.106   6.201   5.571
 3024SOL    HW1 9971   4.147   6.119   5.611
 3024SOL    HW2 9972   4.109   6.275   5.637
 3025SOL     OW 9973   3.263   1.146   0.739
 3025SOL    HW1 9974   3.355   1.159   0.702
 3025SOL    HW2 9975   3.248   1.049   0.759
 3026SOL     OW 9976   1.670   0.963   0.677
 3026SOL    HW1 9977   1.610   0.884   0.681
 3026SOL    HW2 9978   1.652   1.016   0.594
 3027SOL     OW 9979   4.022   0.676   2.899
 3027SOL    HW1 9980   4.061   0.686   2.990
 3027SOL    HW2 9981   3.922   0.681   2.904
 3028SOL     OW 9982   0.985   4.873   5.650
 3028SOL    HW1 9983   1.044   4.797   5.621
 3028SOL    HW2 9984   0.979   4.874   5.749
 3029SOL     OW 9985   6.816   3.231   4.950
 3029SOL    HW1 9986   6.834   3.304   5.015
 3029SOL    HW2 9987   6.766   3.157   4.995
 3030SOL     OW 9988   0.658   2.792   6.174
 3030SOL    HW1 9989   0.722   2.718   6.153
 3030SOL    HW2 9990   0.683   2.834   6.262
 3031SOL     OW 9991   0.411   2.894   0.099
 3031SOL    HW1 9992   0.440   2.843   0.018
 3031SOL    HW2 9993   0.489   2.945   0.137
 3032SOL     OW 9994   3.959   6.552   1.203
 3032SOL    HW1 9995   3.924   6.517   1.290
 3032SOL    HW2 9996   4.054   6.521   1.190
 3033SOL     OW 9997   6.845   2.001   1.633
 3033SOL    HW1 9998   6.804   1.996   1.542
 3033SOL    HW2 9999   6.920   2.068   1.632
 3034SOL     OW10000   1.172   5.764   3.049
 3034SOL    HW110001   1.200   5.671   3.075
 3034SOL    HW210002   1.202   5.828   3.120
 3035SOL     OW10003   6.853   3.060   6.943
 3035SOL    HW110004   6.845   2.965   6.975
 3035SOL    HW210005   6.833   3.122   7.019
 3036SOL     OW10006   1.619   2.352   6.338
 3036SOL    HW110007   1.605   2.255   6.360
 3036SOL    HW210008   1.689   2.360   6.267
 3037SOL     OW10009   6.880   6.237   5.111
 3037SOL    HW110010   6.789   6.241   5.070
 3037SOL    HW210011   6.886   6.302   5.187
 3038SOL     OW10012   6.031   6.195   6.256
 3038SOL    HW110013   6.059   6.187   6.161
 3038SOL    HW210014   6.046   6.289   6.287
 3039SOL     OW10015   6.788   3.887   1.466
 3039SOL    HW110016   6.702   3.860   1.424
 3039SOL    HW210017   6.826   3.966   1.418
 3040SOL     OW10018   3.869   3.452   6.248
 3040SOL    HW110019   3.913   3.366   6.222
 3040SOL    HW210020   3.936   3.526   6.247
 3041SOL     OW10021   2.067   2.945   4.310
 3041SOL    HW110022   2.126   3.000   4.371
 3041SOL    HW210023   2.004   3.006   4.262
 3042SOL     OW10024   4.483   6.755   2.267
 3042SOL    HW110025   4.466   6.785   2.362
 3042SOL    HW210026   4.560   6.806   2.230
 3043SOL     OW10027   1.210   5.339   1.501
 3043SOL    HW110028   1.181   5.426   1.542
 3043SOL    HW210029   1.298   5.352   1.456
 3044SOL     OW10030   3.721   3.422   5.794
 3044SOL    HW110031   3.624   3.419   5.769
 3044SOL    HW210032   3.776   3.385   5.718
 3045SOL     OW10033   4.712   0.456   2.994
 3045SOL    HW110034   4.677   0.497   3.078
 3045SOL    HW210035   4.811   0.444   3.001
 3046SOL     OW10036   2.115   1.032   6.362
 3046SOL    HW110037   2.211   1.007   6.350
 3046SOL    HW210038   2.095   1.112   6.306
 3047SOL     OW10039   5.897   0.522   2.625
 3047SOL    HW110040   5.820   0.575   2.589
 3047SOL    HW210041   5.868   0.471   2.705
 3048SOL     OW10042   4.247   2.457   1.562
 3048SOL    HW110043   4.254   2.391   1.487
 3048SOL    HW210044   4.150   2.468   1.587
 3049SOL     OW10045   0.656   6.932   2.051
 3049SOL    HW110046   0.676   0.002   2.012
 3049SOL    HW210047   0.603   6.878   1.987
 3050SOL     OW10048   2.760   1.228   2.283
 3050SOL    HW110049   2.848   1.213   2.239
 3050SOL    HW210050   2.687   1.197   2.223
 3051SOL     OW10051   2.146   4.265   0.031
 3051SOL    HW110052   2.105   4.219   0.109
 3051SOL    HW210053   2.081   4.267   6.975
 3052SOL     OW10054   5.605   0.176   2.229
 3052SOL    HW110055   5.534   0.225   2.179
 3052SOL    HW210056   5.695   0.213   2.205
 3053SOL     OW10057   0.138   1.776   6.728
 3053SOL    HW110058   0.157   1.680   6.707
 3053SOL    HW210059   0.206   1.834   6.681
 3054SOL     OW10060   6.567   1.875   0.872
 3054SOL    HW110061   6.666   1.868   0.858
 3054SOL    HW210062   6.524   1.786   0.856
 3055SOL     OW10063   5.214   6.785   3.876
 3055SOL    HW110064   5.206   6.693   3.914
 3055SOL    HW210065   5.311   6.804   3.857
 3056SOL     OW10066   5.813   0.984   4.952
 3056SOL    HW110067   5.729   1.037   4.939
 3056SOL    HW210068   5.871   0.994   4.872
 3057SOL     OW10069   3.898   5.918   3.224
 3057SOL    HW110070   3.798   5.918   3.219
 3057SOL    HW210071   3.927   5.872   3.308
 3058SOL     OW10072   6.950   5.527   1.089
 3058SOL    HW110073   6.944   5.514   0.990
 3058SOL    HW210074   7.007   5.607   1.108
 3059SOL     OW10075   2.645   2.443   4.372
 3059SOL    HW110076   2.650   2.531   4.420
 3059SOL    HW210077   2.550   2.414   4.364
 3060SOL     OW10078   0.163   5.085   0.676
 3060SOL    HW110079   0.132   5.125   0.590
 3060SOL    HW210080   0.263   5.081   0.676
 3061SOL     OW10081   6.544   6.832   5.677
 3061SOL    HW110082   6.593   6.804   5.594
 3061SOL    HW210083   6.549   6.931   5.686
 3062SOL     OW10084   1.606   6.632   6.878
 3062SOL    HW110085   1.565   6.599   6.963
 3062SOL    HW210086   1.589   6.567   6.805
 3063SOL     OW10087   2.841   5.535   1.578
 3063SOL    HW110088   2.803   5.448   1.545
 3063SOL    HW210089   2.940   5.535   1.566
 3064SOL     OW10090   5.704   4.445   3.195
 3064SOL    HW110091   5.668   4.527   3.241
 3064SOL    HW210092   5.792   4.466   3.154
 3065SOL     OW10093   2.497   0.965   0.012
 3065SOL    HW110094   2.469   1.060   0.018
 3065SOL    HW210095   2.578   0.957   6.973
 3066SOL     OW10096   5.542   4.691   0.950
 3066SOL    HW110097   5.534   4.592   0.962
 3066SOL    HW210098   5.480   4.721   0.878
 3067SOL     OW10099   3.769   1.765   5.485
 3067SOL    HW110100   3.798   1.860   5.502
 3067SOL    HW210101   3.785   1.743   5.389
 3068SOL     OW10102   6.463   6.607   1.607
 3068SOL    HW110103   6.441   6.542   1.535
 3068SOL    HW210104   6.398   6.596   1.683
 3069SOL     OW10105   6.689   6.412   1.769
 3069SOL    HW110106   6.669   6.321   1.734
 3069SOL    HW210107   6.652   6.481   1.706
 3070SOL     OW10108   1.415   0.966   1.085
 3070SOL    HW110109   1.501   0.953   1.035
 3070SOL    HW210110   1.428   0.942   1.181
 3071SOL     OW10111   6.544   6.351   2.379
 3071SOL    HW110112   6.613   6.316   2.317
 3071SOL    HW210113   6.581   6.356   2.472
 3072SOL     OW10114   2.065   6.804   6.815
 3072SOL    HW110115   2.015   6.745   6.751
 3072SOL    HW210116   2.092   6.888   6.768
 3073SOL     OW10117   6.029   2.926   4.873
 3073SOL    HW110118   6.082   2.892   4.796
 3073SOL    HW210119   5.975   3.005   4.846
 3074SOL     OW10120   6.016   3.285   1.279
 3074SOL    HW110121   5.963   3.228   1.216
 3074SOL    HW210122   5.958   3.360   1.313
 3075SOL     OW10123   2.560   5.776   1.950
 3075SOL    HW110124   2.612   5.861   1.953
 3075SOL    HW210125   2.623   5.699   1.938
 3076SOL     OW10126   6.561   0.463   4.292
 3076SOL    HW110127   6.548   0.380   4.347
 3076SOL    HW210128   6.642   0.453   4.235
 3077SOL     OW10129   4.890   6.002   2.138
 3077SOL    HW110130   4.927   5.909   2.128
 3077SOL    HW210131   4.834   6.007   2.220
 3078SOL     OW10132   1.031   3.325   2.416
 3078SOL    HW110133   1.128   3.342   2.426
 3078SOL    HW210134   0.992   3.299   2.505
 3079SOL     OW10135   1.965   2.141   3.986
 3079SOL    HW110136   1.936   2.151   3.890
 3079SOL    HW210137   1.978   2.044   4.006
 3080SOL     OW10138   4.771   3.956   3.867
 3080SOL    HW110139   4.681   3.922   3.839
 3080SOL    HW210140   4.771   4.056   3.867
 3081SOL     OW10141   0.363   2.397   5.796
 3081SOL    HW110142   0.395   2.381   5.702
 3081SOL    HW210143   0.297   2.328   5.821
 3082SOL     OW10144   2.761   6.729   4.083
 3082SOL    HW110145   2.854   6.697   4.105
 3082SOL    HW210146   2.702   6.651   4.064
 3083SOL     OW10147   4.102   6.267   3.994
 3083SOL    HW110148   4.054   6.334   3.938
 3083SOL    HW210149   4.137   6.194   3.937
 3084SOL     OW10150   5.743   4.113   4.617
 3084SOL    HW110151   5.773   4.018   4.632
 3084SOL    HW210152   5.709   4.150   4.703
 3085SOL     OW10153   6.918   4.758   1.321
 3085SOL    HW110154   6.989   4.825   1.341
 3085SOL    HW210155   6.848   4.762   1.392
 3086SOL     OW10156   4.032   1.762   1.829
 3086SOL    HW110157   4.131   1.763   1.843
 3086SOL    HW210158   4.011   1.777   1.733
 3087SOL     OW10159   0.302   5.853   3.936
 3087SOL    HW110160   0.351   5.767   3.925
 3087SOL    HW210161   0.348   5.909   4.005
 3088SOL     OW10162   2.092   4.344   5.254
 3088SOL    HW110163   2.067   4.253   5.222
 3088SOL    HW210164   2.015   4.407   5.241
 3089SOL     OW10165   1.312   3.186   7.007
 3089SOL    HW110166   1.239   3.118   7.005
 3089SOL    HW210167   1.296   3.250   0.062
 3090SOL     OW10168   1.602   2.137   1.871
 3090SOL    HW110169   1.623   2.191   1.789
 3090SOL    HW210170   1.670   2.157   1.942
 3091SOL     OW10171   2.001   0.927   1.068
 3091SOL    HW110172   1.985   0.839   1.023
 3091SOL    HW210173   2.009   0.998   0.998
 3092SOL     OW10174   4.598   6.968   0.612
 3092SOL    HW110175   4.548   0.009   0.674
 3092SOL    HW210176   4.543   6.953   0.530
 3093SOL     OW10177   5.100   6.143   5.541
 3093SOL    HW110178   5.065   6.235   5.556
 3093SOL    HW210179   5.052   6.078   5.600
 3094SOL     OW10180   3.000   6.753   4.540
 3094SOL    HW110181   2.939   6.685   4.500
 3094SOL    HW210182   3.095   6.727   4.523
 3095SOL     OW10183   2.323   5.541   5.532
 3095SOL    HW110184   2.338   5.613   5.600
 3095SOL    HW210185   2.234   5.554   5.489
 3096SOL     OW10186   1.885   6.603   4.805
 3096SOL    HW110187   1.893   6.509   4.770
 3096SOL    HW210188   1.815   6.605   4.876
 3097SOL     OW10189   6.509   2.475   0.755
 3097SOL    HW110190   6.532   2.379   0.736
 3097SOL    HW210191   6.484   2.484   0.851
 3098SOL     OW10192   2.939   2.773   0.907
 3098SOL    HW110193   2.943   2.824   0.993
 3098SOL    HW210194   2.881   2.822   0.842
 3099SOL     OW10195   0.533   6.628   2.890
 3099SOL    HW110196   0.585   6.574   2.825
 3099SOL    HW210197   0.582   6.632   2.977
 3100SOL     OW10198   6.548   6.901   4.921
 3100SOL    HW110199   6.599   6.919   4.837
 3100SOL    HW210200   6.508   6.809   4.918
 3101SOL     OW10201   4.797   6.919   6.424
 3101SOL    HW110202   4.832   6.983   6.492
 3101SOL    HW210203   4.746   6.970   6.354
 3102SOL     OW10204   0.385   4.772   2.613
 3102SOL    HW110205   0.365   4.787   2.710
 3102SOL    HW210206   0.385   4.859   2.564
 3103SOL     OW10207   4.003   0.627   2.279
 3103SOL    HW110208   4.086   0.610   2.333
 3103SOL    HW210209   4.028   0.650   2.185
 3104SOL     OW10210   5.305   6.409   5.354
 3104SOL    HW110211   5.375   6.481   5.356
 3104SOL    HW210212   5.269   6.401   5.261
 3105SOL     OW10213   5.910   4.580   2.175
 3105SOL    HW110214   5.964   4.664   2.171
 3105SOL    HW210215   5.890   4.548   2.082
 3106SOL     OW10216   6.281   2.159   2.895
 3106SOL    HW110217   6.376   2.151   2.925
 3106SOL    HW210218   6.253   2.255   2.898
 3107SOL     OW10219   4.127   0.936   4.514
 3107SOL    HW110220   4.199   0.989   4.560
 3107SOL    HW210221   4.066   0.896   4.583
 3108SOL     OW10222   1.212   0.041   3.992
 3108SOL    HW110223   1.145   0.001   4.054
 3108SOL    HW210224   1.302   0.004   4.012
 3109SOL     OW10225   5.536   6.731   2.810
 3109SOL    HW110226   5.629   6.747   2.776
 3109SOL    HW210227   5.481   6.813   2.796
 3110SOL     OW10228   1.677   1.907   3.265
 3110SOL    HW110229   1.740   1.873   3.194
 3110SOL    HW210230   1.620   1.980   3.226
 3111SOL     OW10231   6.135   6.364   3.742
 3111SOL    HW110232   6.083   6.312   3.674
 3111SOL    HW210233   6.222   6.318   3.760
 3112SOL     OW10234   4.506   2.495   6.447
 3112SOL    HW110235   4.462   2.558   6.511
 3112SOL    HW210236   4.498   2.402   6.483
 3113SOL     OW10237   1.988   6.029   3.635
 3113SOL    HW110238   1.908   6.029   3.574
 3113SOL    HW210239   2.067   5.994   3.586
 3114SOL     OW10240   4.259   1.986   0.668
 3114SOL    HW110241   4.346   2.033   0.681
 3114SOL    HW210242   4.277   1.892   0.639
 3115SOL     OW10243   4.238   3.271   6.091
 3115SOL    HW110244   4.293   3.187   6.089
 3115SOL    HW210245   4.147   3.250   6.127
 3116SOL     OW10246   0.186   2.769   6.932
 3116SOL    HW110247   0.269   2.791   6.880
 3116SOL    HW210248   0.209   2.704   7.005
 3117SOL     OW10249   4.212   3.575   5.104
 3117SOL    HW110250   4.228   3.586   5.006
 3117SOL    HW210251   4.173   3.660   5.141
 3118SOL     OW10252   0.170   4.481   1.632
 3118SOL    HW110253   0.253   4.535   1.644
 3118SOL    HW210254   0.142   4.485   1.536
 3119SOL     OW10255   1.844   3.478   5.671
 3119SOL    HW110256   1.919   3.518   5.619
 3119SOL    HW210257   1.846   3.378   5.661
 3120SOL     OW10258   3.240   6.836   4.785
 3120SOL    HW110259   3.172   6.832   4.858
 3120SOL    HW210260   3.210   6.778   4.709
 3121SOL     OW10261   6.894   1.474   3.498
 3121SOL    HW110262   6.845   1.417   3.564
 3121SOL    HW210263   6.856   1.461   3.407
 3122SOL     OW10264   3.251   6.753   6.077
 3122SOL    HW110265   3.187   6.790   6.145
 3122SOL    HW210266   3.235   6.654   6.067
 3123SOL     OW10267   4.507   1.542   3.978
 3123SOL    HW110268   4.493   1.456   4.028
 3123SOL    HW210269   4.584   1.591   4.016
 3124SOL     OW10270   4.212   6.657   4.756
 3124SOL    HW110271   4.287   6.605   4.714
 3124SOL    HW210272   4.131   6.649   4.699
 3125SOL     OW10273   6.535   1.931   4.999
 3125SOL    HW110274   6.584   1.871   4.936
 3125SOL    HW210275   6.596   2.005   5.029
 3126SOL     OW10276   4.369   4.835   6.596
 3126SOL    HW110277   4.337   4.914   6.543
 3126SOL    HW210278   4.435   4.865   6.665
 3127SOL     OW10279   1.178   3.413   3.778
 3127SOL    HW110280   1.187   3.417   3.679
 3127SOL    HW210281   1.256   3.364   3.817
 3128SOL     OW10282   2.235   0.702   6.725
 3128SOL    HW110283   2.247   0.622   6.784
 3128SOL    HW210284   2.247   0.785   6.780
 3129SOL     OW10285   0.319   3.920   6.532
 3129SOL    HW110286   0.318   3.969   6.619
 3129SOL    HW210287   0.412   3.915   6.497
 3130SOL     OW10288   2.058   4.190   1.340
 3130SOL    HW110289   2.147   4.232   1.322
 3130SOL    HW210290   2.051   4.167   1.437
 3131SOL     OW10291   0.086   2.635   1.379
 3131SOL    HW110292   0.062   2.658   1.284
 3131SOL    HW210293   0.041   2.550   1.405
 3132SOL     OW10294   4.563   5.851   5.652
 3132SOL    HW110295   4.558   5.880   5.748
 3132SOL    HW210296   4.500   5.774   5.638
 3133SOL     OW10297   3.452   2.118   3.893
 3133SOL    HW110298   3.380   2.058   3.858
 3133SOL    HW210299   3.499   2.162   3.816
 3134SOL     OW10300   5.102   4.423   1.170
 3134SOL    HW110301   5.013   4.438   1.125
 3134SOL    HW210302   5.088   4.377   1.257
 3135SOL     OW10303   5.442   0.220   5.419
 3135SOL    HW110304   5.382   0.163   5.363
 3135SOL    HW210305   5.517   0.255   5.362
 3136SOL     OW10306   5.648   0.596   1.057
 3136SOL    HW110307   5.625   0.674   1.116
 3136SOL    HW210308   5.745   0.602   1.033
 3137SOL     OW10309   6.193   0.726   3.036
 3137SOL    HW110310   6.292   0.735   3.021
 3137SOL    HW210311   6.145   0.733   2.948
 3138SOL     OW10312   6.256   3.517   4.087
 3138SOL    HW110313   6.161   3.534   4.113
 3138SOL    HW210314   6.317   3.576   4.141
 3139SOL     OW10315   5.131   6.383   0.482
 3139SOL    HW110316   5.044   6.400   0.435
 3139SOL    HW210317   5.185   6.467   0.484
 3140SOL     OW10318   5.949   6.696   6.269
 3140SOL    HW110319   5.961   6.710   6.368
 3140SOL    HW210320   6.022   6.745   6.221
 3141SOL     OW10321   7.019   6.428   6.130
 3141SOL    HW110322   0.028   6.360   6.062
 3141SOL    HW210323   0.079   6.471   6.171
 3142SOL     OW10324   3.811   6.887   1.589
 3142SOL    HW110325   3.805   6.823   1.666
 3142SOL    HW210326   3.899   6.876   1.544
 3143SOL     OW10327   6.728   1.505   6.591
 3143SOL    HW110328   6.787   1.540   6.518
 3143SOL    HW210329   6.633   1.504   6.560
 3144SOL     OW10330   4.313   4.489   1.484
 3144SOL    HW110331   4.287   4.441   1.568
 3144SOL    HW210332   4.409   4.516   1.488
 3145SOL     OW10333   2.015   5.656   1.560
 3145SOL    HW110334   2.013   5.609   1.472
 3145SOL    HW210335   1.969   5.600   1.629
 3146SOL     OW10336   1.370   6.868   2.950
 3146SOL    HW110337   1.453   6.815   2.965
 3146SOL    HW210338   1.312   6.821   2.884
 3147SOL     OW10339   3.047   4.787   0.425
 3147SOL    HW110340   3.014   4.743   0.341
 3147SOL    HW210341   3.124   4.736   0.462
 3148SOL     OW10342   4.896   6.012   4.499
 3148SOL    HW110343   4.799   6.001   4.479
 3148SOL    HW210344   4.908   6.087   4.564
 3149SOL     OW10345   2.742   1.484   6.141
 3149SOL    HW110346   2.658   1.431   6.134
 3149SOL    HW210347   2.752   1.519   6.234
 3150SOL     OW10348   6.653   6.179   4.020
 3150SOL    HW110349   6.673   6.195   4.116
 3150SOL    HW210350   6.556   6.159   4.008
 3151SOL     OW10351   4.270   1.695   6.115
 3151SOL    HW110352   4.357   1.674   6.160
 3151SOL    HW210353   4.280   1.685   6.017
 3152SOL     OW10354   1.423   6.232   0.272
 3152SOL    HW110355   1.415   6.181   0.358
 3152SOL    HW210356   1.332   6.253   0.237
 3153SOL     OW10357   6.428   4.769   2.250
 3153SOL    HW110358   6.415   4.672   2.230
 3153SOL    HW210359   6.344   4.819   2.230
 3154SOL     OW10360   6.365   0.610   6.505
 3154SOL    HW110361   6.328   0.698   6.477
 3154SOL    HW210362   6.465   0.613   6.502
 3155SOL     OW10363   6.516   4.532   1.105
 3155SOL    HW110364   6.600   4.535   1.051
 3155SOL    HW210365   6.446   4.481   1.054
 3156SOL     OW10366   3.256   3.525   3.298
 3156SOL    HW110367   3.162   3.496   3.278
 3156SOL    HW210368   3.316   3.497   3.222
 3157SOL     OW10369   2.346   2.785   4.807
 3157SOL    HW110370   2.342   2.851   4.882
 3157SOL    HW210371   2.422   2.722   4.822
 3158SOL     OW10372   4.429   0.126   2.700
 3158SOL    HW110373   4.477   0.197   2.750
 3158SOL    HW210374   4.330   0.145   2.702
 3159SOL     OW10375   5.488   1.351   0.004
 3159SOL    HW110376   5.404   1.318   6.981
 3159SOL    HW210377   5.559   1.361   6.954
 3160SOL     OW10378   0.348   6.043   5.031
 3160SOL    HW110379   0.350   6.136   5.069
 3160SOL    HW210380   0.253   6.012   5.025
 3161SOL     OW10381   1.574   2.062   3.865
 3161SOL    HW110382   1.486   2.098   3.833
 3161SOL    HW210383   1.561   1.968   3.897
 3162SOL     OW10384   1.322   6.459   1.754
 3162SOL    HW110385   1.274   6.546   1.742
 3162SOL    HW210386   1.277   6.388   1.700
 3163SOL     OW10387   3.449   2.132   6.187
 3163SOL    HW110388   3.364   2.158   6.142
 3163SOL    HW210389   3.485   2.210   6.238
 3164SOL     OW10390   4.583   4.407   1.505
 3164SOL    HW110391   4.581   4.311   1.532
 3164SOL    HW210392   4.662   4.424   1.447
 3165SOL     OW10393   0.889   5.947   0.807
 3165SOL    HW110394   0.852   6.018   0.867
 3165SOL    HW210395   0.955   5.891   0.859
 3166SOL     OW10396   4.557   1.474   5.680
 3166SOL    HW110397   4.554   1.547   5.611
 3166SOL    HW210398   4.589   1.513   5.766
 3167SOL     OW10399   6.801   3.554   1.753
 3167SOL    HW110400   6.777   3.650   1.771
 3167SOL    HW210401   6.896   3.538   1.776
 3168SOL     OW10402   4.816   2.500   6.511
 3168SOL    HW110403   4.832   2.402   6.501
 3168SOL    HW210404   4.721   2.520   6.490
 3169SOL     OW10405   1.647   3.124   4.771
 3169SOL    HW110406   1.623   3.183   4.848
 3169SOL    HW210407   1.580   3.135   4.698
 3170SOL     OW10408   4.099   0.944   1.441
 3170SOL    HW110409   4.099   0.928   1.540
 3170SOL    HW210410   4.140   0.865   1.395
 3171SOL     OW10411   0.517   6.312   1.367
 3171SOL    HW110412   0.433   6.318   1.314
 3171SOL    HW210413   0.495   6.315   1.465
 3172SOL     OW10414   0.307   5.186   6.184
 3172SOL    HW110415   0.371   5.168   6.109
 3172SOL    HW210416   0.217   5.152   6.160
 3173SOL     OW10417   3.190   2.286   0.765
 3173SOL    HW110418   3.121   2.238   0.819
 3173SOL    HW210419   3.246   2.343   0.825
 3174SOL     OW10420   2.964   2.954   6.367
 3174SOL    HW110421   2.922   2.878   6.318
 3174SOL    HW210422   3.018   3.009   6.303
 3175SOL     OW10423   0.274   6.516   0.178
 3175SOL    HW110424   0.232   6.597   0.219
 3175SOL    HW210425   0.339   6.475   0.243
 3176SOL     OW10426   1.959   4.864   5.194
 3176SOL    HW110427   2.004   4.811   5.265
 3176SOL    HW210428   1.912   4.803   5.130
 3177SOL     OW10429   4.716   4.769   4.657
 3177SOL    HW110430   4.678   4.677   4.646
 3177SOL    HW210431   4.786   4.769   4.728
 3178SOL     OW10432   6.335   2.203   0.736
 3178SOL    HW110433   6.256   2.231   0.681
 3178SOL    HW210434   6.364   2.111   0.709
 3179SOL     OW10435   1.820   2.704   2.178
 3179SOL    HW110436   1.780   2.749   2.098
 3179SOL    HW210437   1.912   2.740   2.194
 3180SOL     OW10438   4.589   0.970   6.657
 3180SOL    HW110439   4.663   0.903   6.655
 3180SOL    HW210440   4.503   0.924   6.678
 3181SOL     OW10441   1.081   1.316   2.921
 3181SOL    HW110442   1.123   1.285   2.836
 3181SOL    HW210443   0.990   1.275   2.930
 3182SOL     OW10444   2.190   2.000   4.710
 3182SOL    HW110445   2.230   1.966   4.624
 3182SOL    HW210446   2.123   1.934   4.743
 3183SOL     OW10447   4.381   4.053   1.479
 3183SOL    HW110448   4.434   4.084   1.400
 3183SOL    HW210449   4.372   4.127   1.544
 3184SOL     OW10450   1.412   2.510   2.966
 3184SOL    HW110451   1.349   2.585   2.987
 3184SOL    HW210452   1.442   2.518   2.871
 3185SOL     OW10453   6.210   6.404   7.004
 3185SOL    HW110454   6.167   6.446   0.064
 3185SOL    HW210455   6.242   6.312   0.008
 3186SOL     OW10456   3.877   2.136   2.534
 3186SOL    HW110457   3.941   2.064   2.506
 3186SOL    HW210458   3.825   2.166   2.454
 3187SOL     OW10459   4.470   3.972   0.645
 3187SOL    HW110460   4.454   4.049   0.583
 3187SOL    HW210461   4.474   3.887   0.592
 3188SOL     OW10462   3.862   6.534   5.250
 3188SOL    HW110463   3.863   6.632   5.227
 3188SOL    HW210464   3.785   6.515   5.311
 3189SOL     OW10465   1.946   1.213   1.466
 3189SOL    HW110466   1.998   1.159   1.400
 3189SOL    HW210467   2.006   1.245   1.539
 3190SOL     OW10468   0.081   6.196   1.554
 3190SOL    HW110469   0.104   6.225   1.647
 3190SOL    HW210470   0.108   6.267   1.489
 3191SOL     OW10471   4.381   6.477   0.770
 3191SOL    HW110472   4.431   6.546   0.716
 3191SOL    HW210473   4.353   6.517   0.857
 3192SOL     OW10474   0.094   2.401   1.134
 3192SOL    HW110475   0.070   2.497   1.141
 3192SOL    HW210476   0.057   2.363   1.049
 3193SOL     OW10477   3.956   1.523   6.043
 3193SOL    HW110478   4.003   1.538   6.130
 3193SOL    HW210479   3.927   1.610   6.004
 3194SOL     OW10480   0.772   3.550   6.050
 3194SOL    HW110481   0.710   3.582   6.121
 3194SOL    HW210482   0.754   3.453   6.031
 3195SOL     OW10483   2.317   2.195   3.085
 3195SOL    HW110484   2.393   2.187   3.150
 3195SOL    HW210485   2.309   2.291   3.056
 3196SOL     OW10486   0.063   0.720   5.123
 3196SOL    HW110487   0.012   0.685   5.202
 3196SOL    HW210488   0.055   0.655   5.047
 3197SOL     OW10489   1.620   6.268   3.269
 3197SOL    HW110490   1.710   6.256   3.226
 3197SOL    HW210491   1.569   6.182   3.264
 3198SOL     OW10492   6.439   2.063   5.683
 3198SOL    HW110493   6.461   1.965   5.679
 3198SOL    HW210494   6.373   2.079   5.757
 3199SOL     OW10495   4.711   2.773   2.099
 3199SOL    HW110496   4.660   2.749   2.016
 3199SOL    HW210497   4.728   2.871   2.100
 3200SOL     OW10498   7.017   2.545   2.123
 3200SOL    HW110499   0.080   2.567   2.070
 3200SOL    HW210500   6.939   2.595   2.086
 3201SOL     OW10501   5.399   4.735   4.893
 3201SOL    HW110502   5.338   4.659   4.872
 3201SOL    HW210503   5.345   4.812   4.928
 3202SOL     OW10504   1.388   4.719   2.227
 3202SOL    HW110505   1.422   4.734   2.320
 3202SOL    HW210506   1.373   4.621   2.213
 3203SOL     OW10507   6.086   2.472   0.034
 3203SOL    HW110508   6.123   2.551   7.004
 3203SOL    HW210509   5.986   2.472   0.028
 3204SOL     OW10510   5.132   6.333   1.603
 3204SOL    HW110511   5.147   6.375   1.514
 3204SOL    HW210512   5.117   6.404   1.671
 3205SOL     OW10513   0.588   3.855   6.494
 3205SOL    HW110514   0.634   3.845   6.582
 3205SOL    HW210515   0.640   3.917   6.436
 3206SOL     OW10516   0.081   6.597   5.857
 3206SOL    HW110517   7.009   6.637   5.855
 3206SOL    HW210518   0.147   6.662   5.821
 3207SOL     OW10519   0.462   1.277   6.012
 3207SOL    HW110520   0.365   1.270   5.988
 3207SOL    HW210521   0.471   1.296   6.110
 3208SOL     OW10522   4.822   6.053   5.738
 3208SOL    HW110523   4.787   6.081   5.648
 3208SOL    HW210524   4.750   6.002   5.787
 3209SOL     OW10525   3.438   5.296   3.245
 3209SOL    HW110526   3.465   5.391   3.265
 3209SOL    HW210527   3.505   5.256   3.183
 3210SOL     OW10528   0.835   3.958   2.163
 3210SOL    HW110529   0.893   4.025   2.211
 3210SOL    HW210530   0.743   3.960   2.202
 3211SOL     OW10531   2.755   3.348   1.174
 3211SOL    HW110532   2.683   3.310   1.116
 3211SOL    HW210533   2.743   3.315   1.268
 3212SOL     OW10534   3.448   1.280   0.455
 3212SOL    HW110535   3.396   1.350   0.406
 3212SOL    HW210536   3.490   1.218   0.389
 3213SOL     OW10537   6.193   5.896   2.736
 3213SOL    HW110538   6.111   5.943   2.768
 3213SOL    HW210539   6.271   5.959   2.741
 3214SOL     OW10540   5.229   5.310   0.299
 3214SOL    HW110541   5.315   5.308   0.247
 3214SOL    HW210542   5.232   5.241   0.371
 3215SOL     OW10543   0.457   3.011   1.014
 3215SOL    HW110544   0.472   3.033   1.110
 3215SOL    HW210545   0.524   3.061   0.958
 3216SOL     OW10546   5.520   5.365   1.866
 3216SOL    HW110547   5.459   5.298   1.907
 3216SOL    HW210548   5.544   5.434   1.934
 3217SOL     OW10549   0.377   5.339   2.718
 3217SOL    HW110550   0.453   5.308   2.776
 3217SOL    HW210551   0.368   5.438   2.726
 3218SOL     OW10552   3.983   6.414   3.798
 3218SOL    HW110553   3.921   6.357   3.744
 3218SOL    HW210554   4.048   6.460   3.738
 3219SOL     OW10555   6.912   1.919   3.470
 3219SOL    HW110556   6.997   1.874   3.498
 3219SOL    HW210557   6.860   1.946   3.551
 3220SOL     OW10558   6.794   5.943   5.918
 3220SOL    HW110559   6.881   5.991   5.906
 3220SOL    HW210560   6.770   5.940   6.015
 3221SOL     OW10561   3.306   0.462   2.017
 3221SOL    HW110562   3.289   0.553   2.053
 3221SOL    HW210563   3.224   0.406   2.025
 3222SOL     OW10564   4.557   1.805   3.521
 3222SOL    HW110565   4.558   1.705   3.524
 3222SOL    HW210566   4.574   1.841   3.613
 3223SOL     OW10567   1.932   5.195   6.660
 3223SOL    HW110568   1.859   5.242   6.710
 3223SOL    HW210569   2.021   5.219   6.699
 3224SOL     OW10570   4.180   4.670   6.501
 3224SOL    HW110571   4.223   4.757   6.523
 3224SOL    HW210572   4.128   4.637   6.580
 3225SOL     OW10573   4.490   2.982   5.331
 3225SOL    HW110574   4.546   2.981   5.248
 3225SOL    HW210575   4.463   3.076   5.352
 3226SOL     OW10576   1.274   1.639   4.708
 3226SOL    HW110577   1.258   1.688   4.793
 3226SOL    HW210578   1.256   1.542   4.720
 3227SOL     OW10579   3.009   2.480   6.357
 3227SOL    HW110580   2.997   2.516   6.450
 3227SOL    HW210581   3.104   2.450   6.346
 3228SOL     OW10582   5.607   3.392   3.543
 3228SOL    HW110583   5.561   3.363   3.627
 3228SOL    HW210584   5.694   3.437   3.566
 3229SOL     OW10585   3.352   1.600   5.319
 3229SOL    HW110586   3.366   1.593   5.418
 3229SOL    HW210587   3.432   1.563   5.272
 3230SOL     OW10588   1.104   2.972   3.840
 3230SOL    HW110589   1.130   3.021   3.757
 3230SOL    HW210590   1.131   2.876   3.833
 3231SOL     OW10591   2.987   7.013   2.188
 3231SOL    HW110592   2.921   6.968   2.129
 3231SOL    HW210593   2.939   0.055   2.251
 3232SOL     OW10594   4.187   4.714   3.892
 3232SOL    HW110595   4.266   4.657   3.870
 3232SOL    HW210596   4.207   4.770   3.972
 3233SOL     OW10597   1.902   3.030   1.313
 3233SOL    HW110598   1.941   3.039   1.221
 3233SOL    HW210599   1.822   2.971   1.310
 3234SOL     OW10600   0.045   2.171   0.575
 3234SOL    HW110601   6.999   2.096   0.570
 3234SOL    HW210602   0.111   2.161   0.501
 3235SOL     OW10603   4.665   6.701   1.437
 3235SOL    HW110604   4.742   6.649   1.473
 3235SOL    HW210605   4.680   6.722   1.341
 3236SOL     OW10606   1.544   3.361   0.868
 3236SOL    HW110607   1.448   3.335   0.874
 3236SOL    HW210608   1.566   3.387   0.774
 3237SOL     OW10609   5.548   1.310   4.142
 3237SOL    HW110610   5.527   1.275   4.051
 3237SOL    HW210611   5.557   1.410   4.139
 3238SOL     OW10612   0.347   4.778   0.383
 3238SOL    HW110613   0.286   4.857   0.378
 3238SOL    HW210614   0.330   4.717   0.306
 3239SOL     OW10615   5.610   1.849   0.593
 3239SOL    HW110616   5.524   1.877   0.635
 3239SOL    HW210617   5.598   1.762   0.546
 3240SOL     OW10618   0.612   6.150   4.966
 3240SOL    HW110619   0.544   6.100   4.911
 3240SOL    HW210620   0.640   6.232   4.917
 3241SOL     OW10621   5.012   1.443   4.613
 3241SOL    HW110622   5.074   1.366   4.626
 3241SOL    HW210623   5.057   1.514   4.559
 3242SOL     OW10624   3.025   4.722   1.331
 3242SOL    HW110625   2.964   4.654   1.290
 3242SOL    HW210626   3.061   4.687   1.417
 3243SOL     OW10627   6.198   4.652   0.089
 3243SOL    HW110628   6.240   4.667   7.019
 3243SOL    HW210629   6.098   4.658   0.081
 3244SOL     OW10630   4.969   5.933   0.362
 3244SOL    HW110631   5.044   5.969   0.418
 3244SOL    HW210632   4.939   5.845   0.398
 3245SOL     OW10633   5.048   2.376   5.630
 3245SOL    HW110634   5.003   2.393   5.542
 3245SOL    HW210635   5.072   2.279   5.636
 3246SOL     OW10636   6.247   1.040   3.156
 3246SOL    HW110637   6.194   0.963   3.190
 3246SOL    HW210638   6.298   1.081   3.232
 3247SOL     OW10639   6.611   5.084   3.907
 3247SOL    HW110640   6.515   5.111   3.911
 3247SOL    HW210641   6.629   5.041   3.819
 3248SOL     OW10642   6.015   3.503   1.624
 3248SOL    HW110643   5.969   3.588   1.648
 3248SOL    HW210644   6.037   3.452   1.706
 3249SOL     OW10645   3.658   3.983   5.390
 3249SOL    HW110646   3.695   3.902   5.344
 3249SOL    HW210647   3.600   3.954   5.466
 3250SOL     OW10648   5.578   1.002   2.514
 3250SOL    HW110649   5.523   0.983   2.433
 3250SOL    HW210650   5.581   0.921   2.573
 3251SOL     OW10651   4.057   1.392   2.685
 3251SOL    HW110652   4.005   1.388   2.600
 3251SOL    HW210653   4.018   1.462   2.745
 3252SOL     OW10654   2.753   1.376   2.020
 3252SOL    HW110655   2.773   1.418   2.109
 3252SOL    HW210656   2.698   1.294   2.034
 3253SOL     OW10657   5.168   3.379   2.793
 3253SOL    HW110658   5.228   3.302   2.816
 3253SOL    HW210659   5.075   3.346   2.776
 3254SOL     OW10660   3.948   5.431   5.467
 3254SOL    HW110661   3.980   5.517   5.428
 3254SOL    HW210662   3.908   5.375   5.395
 3255SOL     OW10663   4.493   6.320   1.585
 3255SOL    HW110664   4.446   6.233   1.574
 3255SOL    HW210665   4.426   6.391   1.610
 3256SOL     OW10666   5.556   0.319   6.537
 3256SOL    HW110667   5.593   0.226   6.537
 3256SOL    HW210668   5.459   0.317   6.512
 3257SOL     OW10669   1.589   1.704   1.338
 3257SOL    HW110670   1.520   1.659   1.281
 3257SOL    HW210671   1.545   1.779   1.389
 3258SOL     OW10672   3.907   5.210   2.347
 3258SOL    HW110673   3.922   5.242   2.254
 3258SOL    HW210674   3.994   5.181   2.387
 3259SOL     OW10675   4.747   6.277   4.049
 3259SOL    HW110676   4.718   6.284   4.145
 3259SOL    HW210677   4.697   6.202   4.005
 3260SOL     OW10678   2.038   1.811   1.755
 3260SOL    HW110679   1.943   1.785   1.740
 3260SOL    HW210680   2.062   1.887   1.694
 3261SOL     OW10681   4.378   5.935   0.522
 3261SOL    HW110682   4.427   6.015   0.489
 3261SOL    HW210683   4.292   5.963   0.564
 3262SOL     OW10684   3.350   1.983   2.691
 3262SOL    HW110685   3.395   2.009   2.606
 3262SOL    HW210686   3.259   2.024   2.695
 3263SOL     OW10687   4.686   0.263   3.980
 3263SOL    HW110688   4.653   0.258   3.886
 3263SOL    HW210689   4.610   0.286   4.041
 3264SOL     OW10690   1.256   5.021   0.768
 3264SOL    HW110691   1.240   5.027   0.867
 3264SOL    HW210692   1.236   4.927   0.737
 3265SOL     OW10693   4.311   1.676   5.831
 3265SOL    HW110694   4.257   1.635   5.758
 3265SOL    HW210695   4.403   1.639   5.830
 3266SOL     OW10696   1.176   2.497   0.646
 3266SOL    HW110697   1.099   2.486   0.583
 3266SOL    HW210698   1.190   2.594   0.665
 3267SOL     OW10699   3.583   1.986   0.509
 3267SOL    HW110700   3.513   1.979   0.581
 3267SOL    HW210701   3.623   1.895   0.494
 3268SOL     OW10702   1.162   3.761   6.420
 3268SOL    HW110703   1.154   3.855   6.453
 3268SOL    HW210704   1.070   3.723   6.406
 3269SOL     OW10705   4.440   5.070   1.862
 3269SOL    HW110706   4.401   5.108   1.945
 3269SOL    HW210707   4.431   5.136   1.787
 3270SOL     OW10708   1.456   4.791   4.978
 3270SOL    HW110709   1.482   4.751   4.890
 3270SOL    HW210710   1.366   4.832   4.971
 3271SOL     OW10711   5.210   3.141   2.966
 3271SOL    HW110712   5.125   3.092   2.947
 3271SOL    HW210713   5.285   3.101   2.913
 3272SOL     OW10714   3.328   4.050   0.363
 3272SOL    HW110715   3.250   4.080   0.308
 3272SOL    HW210716   3.295   3.987   0.434
 3273SOL     OW10717   0.970   6.588   2.269
 3273SOL    HW110718   1.002   6.555   2.358
 3273SOL    HW210719   0.953   6.510   2.209
 3274SOL     OW10720   4.057   2.178   0.684
 3274SOL    HW110721   3.969   2.154   0.642
 3274SOL    HW210722   4.125   2.109   0.660
 3275SOL     OW10723   1.153   0.609   6.549
 3275SOL    HW110724   1.252   0.616   6.552
 3275SOL    HW210725   1.121   0.548   6.621
 3276SOL     OW10726   3.217   5.206   7.019
 3276SOL    HW110727   3.263   5.125   0.036
 3276SOL    HW210728   3.260   5.289   0.035
 3277SOL     OW10729   5.285   6.785   7.013
 3277SOL    HW110730   5.369   6.827   6.980
 3277SOL    HW210731   5.226   6.764   6.935
 3278SOL     OW10732   6.681   1.312   5.724
 3278SOL    HW110733   6.734   1.359   5.794
 3278SOL    HW210734   6.630   1.237   5.765
 3279SOL     OW10735   0.392   1.143   0.955
 3279SOL    HW110736   0.342   1.147   0.868
 3279SOL    HW210737   0.353   1.071   1.012
 3280SOL     OW10738   3.066   5.270   5.846
 3280SOL    HW110739   3.098   5.178   5.869
 3280SOL    HW210740   3.094   5.292   5.753
 3281SOL     OW10741   1.896   5.602   0.959
 3281SOL    HW110742   1.886   5.666   0.883
 3281SOL    HW210743   1.891   5.652   1.045
 3282SOL     OW10744   2.202   5.134   4.331
 3282SOL    HW110745   2.210   5.128   4.431
 3282SOL    HW210746   2.152   5.054   4.297
 3283SOL     OW10747   3.015   1.064   1.777
 3283SOL    HW110748   3.096   1.088   1.830
 3283SOL    HW210749   2.988   1.142   1.721
 3284SOL     OW10750   6.368   6.379   6.652
 3284SOL    HW110751   6.378   6.293   6.701
 3284SOL    HW210752   6.381   6.364   6.554
 3285SOL     OW10753   6.024   2.503   3.570
 3285SOL    HW110754   5.970   2.486   3.652
 3285SOL    HW210755   6.032   2.601   3.554
 3286SOL     OW10756   3.968   3.422   3.676
 3286SOL    HW110757   3.925   3.352   3.734
 3286SOL    HW210758   4.023   3.377   3.606
 3287SOL     OW10759   1.432   6.108   0.513
 3287SOL    HW110760   1.530   6.093   0.524
 3287SOL    HW210761   1.392   6.130   0.602
 3288SOL     OW10762   0.913   4.750   6.734
 3288SOL    HW110763   0.857   4.667   6.732
 3288SOL    HW210764   0.962   4.760   6.647
 3289SOL     OW10765   1.900   0.032   5.847
 3289SOL    HW110766   1.976   7.002   5.887
 3289SOL    HW210767   1.832   6.987   5.812
 3290SOL     OW10768   0.473   6.788   1.883
 3290SOL    HW110769   0.416   6.825   1.810
 3290SOL    HW210770   0.420   6.721   1.936
 3291SOL     OW10771   1.360   6.049   6.710
 3291SOL    HW110772   1.458   6.038   6.729
 3291SOL    HW210773   1.329   5.973   6.652
 3292SOL     OW10774   0.162   1.214   6.756
 3292SOL    HW110775   0.157   1.219   6.656
 3292SOL    HW210776   0.110   1.135   6.788
 3293SOL     OW10777   6.432   3.332   2.888
 3293SOL    HW110778   6.452   3.407   2.825
 3293SOL    HW210779   6.469   3.247   2.850
 3294SOL     OW10780   0.310   0.470   6.057
 3294SOL    HW110781   0.306   0.567   6.035
 3294SOL    HW210782   0.245   0.449   6.130
 3295SOL     OW10783   1.384   2.347   1.559
 3295SOL    HW110784   1.326   2.398   1.621
 3295SOL    HW210785   1.353   2.252   1.554
 3296SOL     OW10786   2.091   6.125   1.438
 3296SOL    HW110787   1.998   6.127   1.400
 3296SOL    HW210788   2.150   6.184   1.383
 3297SOL     OW10789   2.759   0.328   5.146
 3297SOL    HW110790   2.669   0.352   5.181
 3297SOL    HW210791   2.802   0.409   5.106
 3298SOL     OW10792   5.901   2.494   3.925
 3298SOL    HW110793   5.860   2.567   3.870
 3298SOL    HW210794   5.865   2.498   4.018
 3299SOL     OW10795   2.152   6.365   3.412
 3299SOL    HW110796   2.065   6.330   3.377
 3299SOL    HW210797   2.139   6.458   3.447
 3300SOL     OW10798   6.962   0.736   5.620
 3300SOL    HW110799   0.030   0.779   5.640
 3300SOL    HW210800   6.889   0.789   5.662
 3301SOL     OW10801   2.138   3.827   3.491
 3301SOL    HW110802   2.063   3.841   3.556
 3301SOL    HW210803   2.193   3.749   3.520
 3302SOL     OW10804   1.446   6.044   4.155
 3302SOL    HW110805   1.439   6.063   4.253
 3302SOL    HW210806   1.526   5.986   4.138
 3303SOL     OW10807   3.820   3.422   1.402
 3303SOL    HW110808   3.757   3.348   1.377
 3303SOL    HW210809   3.767   3.504   1.425
 3304SOL     OW10810   1.539   5.097   4.034
 3304SOL    HW110811   1.552   5.029   4.106
 3304SOL    HW210812   1.476   5.168   4.065
 3305SOL     OW10813   2.444   2.007   2.913
 3305SOL    HW110814   2.521   1.965   2.960
 3305SOL    HW210815   2.400   2.073   2.974
 3306SOL     OW10816   2.192   5.156   3.581
 3306SOL    HW110817   2.277   5.136   3.630
 3306SOL    HW210818   2.144   5.070   3.562
 3307SOL     OW10819   0.476   5.492   6.772
 3307SOL    HW110820   0.447   5.452   6.686
 3307SOL    HW210821   0.397   5.502   6.833
 3308SOL     OW10822   4.854   6.010   0.026
 3308SOL    HW110823   4.954   6.009   0.017
 3308SOL    HW210824   4.828   6.068   0.103
 3309SOL     OW10825   0.980   5.372   1.973
 3309SOL    HW110826   0.947   5.456   1.928
 3309SOL    HW210827   1.062   5.340   1.925
 3310SOL     OW10828   0.100   4.383   4.708
 3310SOL    HW110829   0.116   4.369   4.806
 3310SOL    HW210830   0.039   4.312   4.674
 3311SOL     OW10831   2.800   4.707   1.687
 3311SOL    HW110832   2.819   4.617   1.726
 3311SOL    HW210833   2.763   4.766   1.758
 3312SOL     OW10834   3.541   4.404   6.005
 3312SOL    HW110835   3.603   4.334   6.039
 3312SOL    HW210836   3.451   4.364   5.987
 3313SOL     OW10837   6.960   5.211   2.564
 3313SOL    HW110838   6.960   5.310   2.548
 3313SOL    HW210839   0.033   5.183   2.591
 3314SOL     OW10840   1.646   2.386   5.026
 3314SOL    HW110841   1.672   2.446   4.951
 3314SOL    HW210842   1.579   2.432   5.085
 3315SOL     OW10843   6.386   2.867   4.438
 3315SOL    HW110844   6.417   2.824   4.523
 3315SOL    HW210845   6.435   2.953   4.425
 3316SOL     OW10846   3.326   1.539   5.891
 3316SOL    HW110847   3.422   1.558   5.908
 3316SOL    HW210848   3.272   1.565   5.971
 3317SOL     OW10849   4.919   2.933   1.835
 3317SOL    HW110850   4.834   2.956   1.882
 3317SOL    HW210851   4.963   3.017   1.803
 3318SOL     OW10852   3.217   0.193   0.140
 3318SOL    HW110853   3.248   0.152   0.225
 3318SOL    HW210854   3.118   0.201   0.141
 3319SOL     OW10855   5.885   6.956   3.861
 3319SOL    HW110856   5.844   6.921   3.945
 3319SOL    HW210857   5.833   0.016   3.829
 3320SOL     OW10858   5.243   0.958   5.827
 3320SOL    HW110859   5.292   0.894   5.769
 3320SOL    HW210860   5.187   0.907   5.893
 3321SOL     OW10861   3.448   2.331   1.700
 3321SOL    HW110862   3.472   2.416   1.653
 3321SOL    HW210863   3.512   2.315   1.775
 3322SOL     OW10864   5.177   3.038   1.794
 3322SOL    HW110865   5.108   3.077   1.733
 3322SOL    HW210866   5.148   3.050   1.889
 3323SOL     OW10867   1.888   4.078   0.007
 3323SOL    HW110868   1.788   4.083   0.001
 3323SOL    HW210869   1.928   4.125   6.949
 3324SOL     OW10870   0.889   3.855   6.529
 3324SOL    HW110871   0.849   3.894   6.446
 3324SOL    HW210872   0.834   3.778   6.560
 3325SOL     OW10873   2.508   3.491   6.439
 3325SOL    HW110874   2.599   3.514   6.474
 3325SOL    HW210875   2.469   3.418   6.495
 3326SOL     OW10876   5.090   1.733   1.871
 3326SOL    HW110877   5.032   1.655   1.896
 3326SOL    HW210878   5.055   1.816   1.914
 3327SOL     OW10879   2.835   6.117   1.324
 3327SOL    HW110880   2.809   6.190   1.261
 3327SOL    HW210881   2.788   6.130   1.411
 3328SOL     OW10882   4.120   1.753   2.981
 3328SOL    HW110883   4.127   1.794   2.890
 3328SOL    HW210884   4.045   1.797   3.031
 3329SOL     OW10885   4.934   0.070   5.566
 3329SOL    HW110886   4.841   0.054   5.535
 3329SOL    HW210887   4.959   0.165   5.551
 3330SOL     OW10888   5.352   6.467   2.188
 3330SOL    HW110889   5.413   6.408   2.136
 3330SOL    HW210890   5.379   6.467   2.284
 3331SOL     OW10891   1.329   2.708   2.476
 3331SOL    HW110892   1.291   2.619   2.500
 3331SOL    HW210893   1.361   2.754   2.559
 3332SOL     OW10894   6.720   4.467   6.907
 3332SOL    HW110895   6.781   4.389   6.920
 3332SOL    HW210896   6.627   4.434   6.890
 3333SOL     OW10897   2.757   3.426   6.700
 3333SOL    HW110898   2.710   3.390   6.620
 3333SOL    HW210899   2.728   3.376   6.781
 3334SOL     OW10900   2.079   3.101   2.209
 3334SOL    HW110901   2.100   3.125   2.114
 3334SOL    HW210902   1.982   3.121   2.227
 3335SOL     OW10903   5.113   5.939   6.700
 3335SOL    HW110904   5.109   5.881   6.781
 3335SOL    HW210905   5.020   5.952   6.664
 3336SOL     OW10906   2.447   6.836   4.010
 3336SOL    HW110907   2.499   6.830   4.095
 3336SOL    HW210908   2.474   6.918   3.959
 3337SOL     OW10909   2.762   3.956   1.191
 3337SOL    HW110910   2.687   4.021   1.178
 3337SOL    HW210911   2.728   3.863   1.178
 3338SOL     OW10912   0.082   2.589   1.660
 3338SOL    HW110913   0.078   2.659   1.731
 3338SOL    HW210914   0.113   2.629   1.574
 3339SOL     OW10915   1.645   0.044   6.684
 3339SOL    HW110916   1.611   6.972   6.667
 3339SOL    HW210917   1.610   0.106   6.613
 3340SOL     OW10918   4.099   1.202   4.436
 3340SOL    HW110919   4.023   1.220   4.373
 3340SOL    HW210920   4.109   1.103   4.447
 3341SOL     OW10921   1.928   4.447   3.903
 3341SOL    HW110922   2.008   4.479   3.852
 3341SOL    HW210923   1.934   4.480   3.997
 3342SOL     OW10924   0.887   0.650   2.882
 3342SOL    HW110925   0.882   0.551   2.892
 3342SOL    HW210926   0.812   0.693   2.933
 3343SOL     OW10927   5.472   4.868   6.575
 3343SOL    HW110928   5.386   4.888   6.622
 3343SOL    HW210929   5.463   4.784   6.522
 3344SOL     OW10930   6.185   3.106   4.138
 3344SOL    HW110931   6.199   3.164   4.058
 3344SOL    HW210932   6.217   3.013   4.117
 3345SOL     OW10933   0.804   4.213   6.106
 3345SOL    HW110934   0.801   4.275   6.028
 3345SOL    HW210935   0.734   4.239   6.173
 3346SOL     OW10936   1.497   0.682   6.632
 3346SOL    HW110937   1.564   0.672   6.707
 3346SOL    HW210938   1.533   0.744   6.563
 3347SOL     OW10939   1.257   2.807   6.300
 3347SOL    HW110940   1.250   2.834   6.204
 3347SOL    HW210941   1.248   2.708   6.307
 3348SOL     OW10942   4.002   3.737   4.888
 3348SOL    HW110943   4.071   3.665   4.879
 3348SOL    HW210944   3.911   3.697   4.877
 3349SOL     OW10945   2.168   4.899   2.997
 3349SOL    HW110946   2.177   4.836   2.921
 3349SOL    HW210947   2.242   4.883   3.063
 3350SOL     OW10948   0.332   2.674   6.385
 3350SOL    HW110949   0.353   2.765   6.349
 3350SOL    HW210950   0.288   2.619   6.314
 3351SOL     OW10951   4.734   1.242   1.973
 3351SOL    HW110952   4.727   1.294   1.888
 3351SOL    HW210953   4.826   1.253   2.011
 3352SOL     OW10954   5.802   2.641   1.462
 3352SOL    HW110955   5.845   2.572   1.520
 3352SOL    HW210956   5.839   2.731   1.485
 3353SOL     OW10957   2.449   6.123   0.948
 3353SOL    HW110958   2.537   6.110   0.903
 3353SOL    HW210959   2.463   6.130   1.047
 3354SOL     OW10960   4.416   2.686   5.289
 3354SOL    HW110961   4.318   2.684   5.308
 3354SOL    HW210962   4.446   2.781   5.280
 3355SOL     OW10963   2.248   1.367   6.018
 3355SOL    HW110964   2.306   1.448   6.017
 3355SOL    HW210965   2.229   1.339   5.924
 3356SOL     OW10966   1.464   5.762   6.081
 3356SOL    HW110967   1.518   5.792   6.160
 3356SOL    HW210968   1.367   5.756   6.107
 3357SOL     OW10969   3.676   3.295   2.047
 3357SOL    HW110970   3.749   3.241   2.089
 3357SOL    HW210971   3.626   3.345   2.118
 3358SOL     OW10972   5.073   1.668   3.240
 3358SOL    HW110973   5.080   1.764   3.211
 3358SOL    HW210974   4.998   1.659   3.305
 3359SOL     OW10975   6.740   5.739   3.050
 3359SOL    HW110976   6.664   5.682   3.081
 3359SOL    HW210977   6.737   5.747   2.951
 3360SOL     OW10978   0.955   2.250   6.183
 3360SOL    HW110979   0.933   2.331   6.239
 3360SOL    HW210980   1.054   2.235   6.185
 3361SOL     OW10981   0.672   6.349   4.798
 3361SOL    HW110982   0.692   6.446   4.783
 3361SOL    HW210983   0.613   6.315   4.726
 3362SOL     OW10984   3.741   1.867   2.604
 3362SOL    HW110985   3.733   1.964   2.579
 3362SOL    HW210986   3.717   1.856   2.701
 3363SOL     OW10987   6.819   2.480   1.654
 3363SOL    HW110988   6.839   2.440   1.564
 3363SOL    HW210989   6.897   2.533   1.685
 3364SOL     OW10990   2.657   4.683   2.943
 3364SOL    HW110991   2.689   4.677   3.038
 3364SOL    HW210992   2.574   4.628   2.933
 3365SOL     OW10993   0.510   3.382   4.695
 3365SOL    HW110994   0.579   3.321   4.734
 3365SOL    HW210995   0.419   3.341   4.707
 3366SOL     OW10996   5.942   5.219   3.760
 3366SOL    HW110997   5.959   5.123   3.741
 3366SOL    HW210998   5.986   5.244   3.846
 3367SOL     OW10999   3.140   3.520   2.942
 3367SOL    HW111000   3.203   3.463   2.890
 3367SOL    HW211001   3.174   3.613   2.945
 3368SOL     OW11002   0.805   5.392   6.675
 3368SOL    HW111003   0.757   5.348   6.599
 3368SOL    HW211004   0.836   5.322   6.740
 3369SOL     OW11005   4.652   1.694   1.529
 3369SOL    HW111006   4.717   1.752   1.578
 3369SOL    HW211007   4.678   1.687   1.433
 3370SOL     OW11008   6.063   6.321   1.655
 3370SOL    HW111009   6.135   6.357   1.713
 3370SOL    HW211010   5.984   6.382   1.658
 3371SOL     OW11011   2.185   3.391   1.661
 3371SOL    HW111012   2.249   3.426   1.730
 3371SOL    HW211013   2.138   3.468   1.618
 3372SOL     OW11014   0.367   1.931   6.645
 3372SOL    HW111015   0.438   1.986   6.688
 3372SOL    HW211016   0.404   1.888   6.563
 3373SOL     OW11017   0.454   2.609   4.022
 3373SOL    HW111018   0.418   2.565   4.104
 3373SOL    HW211019   0.387   2.601   3.948
 3374SOL     OW11020   1.086   0.382   3.676
 3374SOL    HW111021   1.068   0.320   3.752
 3374SOL    HW211022   1.146   0.336   3.609
 3375SOL     OW11023   0.048   4.394   0.628
 3375SOL    HW111024   7.011   4.379   0.709
 3375SOL    HW211025   0.089   4.485   0.632
 3376SOL     OW11026   3.379   2.860   4.374
 3376SOL    HW111027   3.315   2.840   4.300
 3376SOL    HW211028   3.331   2.910   4.446
 3377SOL     OW11029   6.602   5.110   5.564
 3377SOL    HW111030   6.679   5.171   5.579
 3377SOL    HW211031   6.622   5.050   5.486
 3378SOL     OW11032   1.089   6.214   6.670
 3378SOL    HW111033   1.155   6.231   6.597
 3378SOL    HW211034   1.128   6.152   6.737
 3379SOL     OW11035   0.768   2.243   4.454
 3379SOL    HW111036   0.722   2.188   4.385
 3379SOL    HW211037   0.733   2.337   4.451
 3380SOL     OW11038   4.277   5.984   5.642
 3380SOL    HW111039   4.267   6.021   5.734
 3380SOL    HW211040   4.372   5.953   5.629
 3381SOL     OW11041   6.939   2.812   1.513
 3381SOL    HW111042   7.017   2.755   1.487
 3381SOL    HW211043   6.919   2.875   1.439
 3382SOL     OW11044   0.463   2.835   6.846
 3382SOL    HW111045   0.427   2.924   6.819
 3382SOL    HW211046   0.563   2.838   6.847
 3383SOL     OW11047   3.248   4.975   0.814
 3383SOL    HW111048   3.322   5.025   0.859
 3383SOL    HW211049   3.222   5.023   0.730
 3384SOL     OW11050   2.434   3.751   0.753
 3384SOL    HW111051   2.392   3.841   0.741
 3384SOL    HW211052   2.380   3.682   0.705
 3385SOL     OW11053   6.422   3.296   4.603
 3385SOL    HW111054   6.506   3.312   4.654
 3385SOL    HW211055   6.417   3.362   4.527
 3386SOL     OW11056   5.896   4.203   6.935
 3386SOL    HW111057   5.865   4.298   6.933
 3386SOL    HW211058   5.871   4.162   0.003
 3387SOL     OW11059   4.983   0.307   3.181
 3387SOL    HW111060   4.910   0.239   3.170
 3387SOL    HW211061   4.987   0.364   3.099
 3388SOL     OW11062   5.332   3.572   2.648
 3388SOL    HW111063   5.283   3.486   2.664
 3388SOL    HW211064   5.319   3.633   2.726
 3389SOL     OW11065   6.655   5.923   6.157
 3389SOL    HW111066   6.624   5.890   6.246
 3389SOL    HW211067   6.629   6.019   6.147
 3390SOL     OW11068   4.449   6.457   6.369
 3390SOL    HW111069   4.445   6.477   6.467
 3390SOL    HW211070   4.390   6.379   6.350
 3391SOL     OW11071   4.904   2.508   3.409
 3391SOL    HW111072   4.863   2.450   3.479
 3391SOL    HW211073   4.969   2.455   3.355
 3392SOL     OW11074   3.337   6.991   4.556
 3392SOL    HW111075   3.295   0.055   4.591
 3392SOL    HW211076   3.301   6.912   4.607
 3393SOL     OW11077   5.945   6.142   0.782
 3393SOL    HW111078   5.884   6.189   0.846
 3393SOL    HW211079   6.019   6.205   0.755
 3394SOL     OW11080   4.478   4.070   0.896
 3394SOL    HW111081   4.517   4.161   0.911
 3394SOL    HW211082   4.500   4.040   0.803
 3395SOL     OW11083   5.008   1.815   2.891
 3395SOL    HW111084   4.960   1.878   2.953
 3395SOL    HW211085   5.045   1.866   2.814
 3396SOL     OW11086   5.490   1.229   3.877
 3396SOL    HW111087   5.415   1.296   3.875
 3396SOL    HW211088   5.549   1.243   3.798
 3397SOL     OW11089   3.568   5.112   6.213
 3397SOL    HW111090   3.525   5.149   6.131
 3397SOL    HW211091   3.665   5.136   6.214
 3398SOL     OW11092   0.979   0.098   5.012
 3398SOL    HW111093   0.965   0.154   4.931
 3398SOL    HW211094   1.078   0.087   5.028
 3399SOL     OW11095   5.846   5.211   3.363
 3399SOL    HW111096   5.764   5.250   3.406
 3399SOL    HW211097   5.820   5.131   3.308
 3400SOL     OW11098   5.831   3.640   6.973
 3400SOL    HW111099   5.866   3.695   6.897
 3400SOL    HW211100   5.785   3.559   6.937
 3401SOL     OW11101   6.275   3.987   6.848
 3401SOL    HW111102   6.275   3.989   6.948
 3401SOL    HW211103   6.183   4.006   6.815
 3402SOL     OW11104   5.884   5.275   0.116
 3402SOL    HW111105   5.853   5.237   0.203
 3402SOL    HW211106   5.922   5.366   0.131
 3403SOL     OW11107   4.799   5.214   6.471
 3403SOL    HW111108   4.873   5.241   6.410
 3403SOL    HW211109   4.725   5.172   6.418
 3404SOL     OW11110   4.975   2.623   6.709
 3404SOL    HW111111   4.954   2.567   6.629
 3404SOL    HW211112   4.891   2.651   6.754
 3405SOL     OW11113   5.847   4.367   6.470
 3405SOL    HW111114   5.864   4.298   6.400
 3405SOL    HW211115   5.917   4.438   6.465
 3406SOL     OW11116   1.579   3.410   2.202
 3406SOL    HW111117   1.548   3.413   2.297
 3406SOL    HW211118   1.674   3.441   2.196
 3407SOL     OW11119   2.062   4.711   0.419
 3407SOL    HW111120   2.091   4.635   0.362
 3407SOL    HW211121   2.138   4.776   0.430
 3408SOL     OW11122   4.857   3.080   4.837
 3408SOL    HW111123   4.767   3.076   4.792
 3408SOL    HW211124   4.844   3.096   4.935
 3409SOL     OW11125   3.713   6.332   0.482
 3409SOL    HW111126   3.722   6.343   0.581
 3409SOL    HW211127   3.803   6.313   0.442
 3410SOL     OW11128   5.932   6.510   2.045
 3410SOL    HW111129   5.844   6.557   2.039
 3410SOL    HW211130   5.999   6.557   1.988
 3411SOL     OW11131   0.527   2.979   0.638
 3411SOL    HW111132   0.454   2.916   0.664
 3411SOL    HW211133   0.602   2.927   0.597
 3412SOL     OW11134   5.142   3.501   1.269
 3412SOL    HW111135   5.091   3.460   1.344
 3412SOL    HW211136   5.190   3.583   1.302
 3413SOL     OW11137   6.325   2.051   6.866
 3413SOL    HW111138   6.255   2.122   6.877
 3413SOL    HW211139   6.415   2.090   6.887
 3414SOL     OW11140   3.100   2.135   5.824
 3414SOL    HW111141   3.199   2.127   5.828
 3414SOL    HW211142   3.069   2.123   5.729
 3415SOL     OW11143   2.561   2.401   4.053
 3415SOL    HW111144   2.572   2.500   4.056
 3415SOL    HW211145   2.539   2.367   4.144
 3416SOL     OW11146   5.753   0.164   6.840
 3416SOL    HW111147   5.774   0.129   6.932
 3416SOL    HW211148   5.782   0.259   6.834
 3417SOL     OW11149   6.998   6.712   3.599
 3417SOL    HW111150   6.920   6.652   3.579
 3417SOL    HW211151   7.006   6.780   3.526
 3418SOL     OW11152   3.918   5.978   3.685
 3418SOL    HW111153   3.997   6.039   3.673
 3418SOL    HW211154   3.840   6.031   3.717
 3419SOL     OW11155   3.583   5.576   6.057
 3419SOL    HW111156   3.674   5.535   6.051
 3419SOL    HW211157   3.588   5.673   6.033
 3420SOL     OW11158   5.162   3.478   4.596
 3420SOL    HW111159   5.147   3.422   4.677
 3420SOL    HW211160   5.077   3.488   4.545
 3421SOL     OW11161   5.455   1.865   3.551
 3421SOL    HW111162   5.453   1.809   3.468
 3421SOL    HW211163   5.533   1.928   3.547
 3422SOL     OW11164   2.668   0.681   0.430
 3422SOL    HW111165   2.732   0.655   0.358
 3422SOL    HW211166   2.587   0.623   0.426
 3423SOL     OW11167   0.209   4.375   6.258
 3423SOL    HW111168   0.245   4.313   6.188
 3423SOL    HW211169   0.221   4.469   6.228
 3424SOL     OW11170   2.881   0.491   1.134
 3424SOL    HW111171   2.808   0.472   1.199
 3424SOL    HW211172   2.963   0.520   1.183
 3425SOL     OW11173   4.960   4.376   2.021
 3425SOL    HW111174   4.922   4.444   2.083
 3425SOL    HW211175   4.899   4.297   2.018
 3426SOL     OW11176   5.077   2.627   0.932
 3426SOL    HW111177   5.158   2.568   0.920
 3426SOL    HW211178   5.009   2.603   0.863
 3427SOL     OW11179   0.716   2.150   2.082
 3427SOL    HW111180   0.721   2.189   1.990
 3427SOL    HW211181   0.773   2.068   2.086
 3428SOL     OW11182   4.244   4.553   6.924
 3428SOL    HW111183   4.314   4.567   6.854
 3428SOL    HW211184   4.266   4.608   7.005
 3429SOL     OW11185   0.719   1.096   1.048
 3429SOL    HW111186   0.746   1.187   1.017
 3429SOL    HW211187   0.652   1.058   0.984
 3430SOL     OW11188   2.396   5.245   5.592
 3430SOL    HW111189   2.395   5.320   5.527
 3430SOL    HW211190   2.401   5.158   5.544
 3431SOL     OW11191   1.350   6.043   1.714
 3431SOL    HW111192   1.286   5.978   1.674
 3431SOL    HW211193   1.444   6.011   1.701
 3432SOL     OW11194   2.399   4.661   6.675
 3432SOL    HW111195   2.472   4.594   6.684
 3432SOL    HW211196   2.430   4.737   6.618
 3433SOL     OW11197   1.565   1.582   5.776
 3433SOL    HW111198   1.517   1.655   5.824
 3433SOL    HW211199   1.545   1.495   5.820
 3434SOL     OW11200   3.857   1.976   1.343
 3434SOL    HW111201   3.757   1.968   1.345
 3434SOL    HW211202   3.898   1.888   1.363
 3435SOL     OW11203   2.192   1.232   0.404
 3435SOL    HW111204   2.248   1.164   0.357
 3435SOL    HW211205   2.247   1.314   0.421
 3436SOL     OW11206   3.430   5.680   0.662
 3436SOL    HW111207   3.387   5.753   0.716
 3436SOL    HW211208   3.516   5.654   0.706
 3437SOL     OW11209   2.431   6.478   5.996
 3437SOL    HW111210   2.371   6.400   6.015
 3437SOL    HW211211   2.384   6.543   5.937
 3438SOL     OW11212   0.558   4.024   1.664
 3438SOL    HW111213   0.465   3.997   1.639
 3438SOL    HW211214   0.613   3.942   1.679
 3439SOL     OW11215   3.153   6.115   3.985
 3439SOL    HW111216   3.097   6.101   4.067
 3439SOL    HW211217   3.203   6.031   3.965
 3440SOL     OW11218   4.073   3.234   2.773
 3440SOL    HW111219   3.999   3.221   2.838
 3440SOL    HW211220   4.103   3.329   2.775
 3441SOL     OW11221   0.326   5.855   6.717
 3441SOL    HW111222   0.292   5.789   6.785
 3441SOL    HW211223   0.315   5.816   6.625
 3442SOL     OW11224   2.625   3.737   1.429
 3442SOL    HW111225   2.668   3.698   1.510
 3442SOL    HW211226   2.636   3.674   1.352
 3443SOL     OW11227   3.443   6.370   1.920
 3443SOL    HW111228   3.468   6.440   1.986
 3443SOL    HW211229   3.343   6.362   1.915
 3444SOL     OW11230   4.898   5.564   1.118
 3444SOL    HW111231   4.847   5.510   1.185
 3444SOL    HW211232   4.905   5.513   1.032
 3445SOL     OW11233   6.570   5.312   3.444
 3445SOL    HW111234   6.582   5.410   3.465
 3445SOL    HW211235   6.494   5.276   3.497
 3446SOL     OW11236   5.694   0.620   1.586
 3446SOL    HW111237   5.754   0.626   1.666
 3446SOL    HW211238   5.599   0.637   1.614
 3447SOL     OW11239   5.079   0.171   0.537
 3447SOL    HW111240   5.052   0.234   0.610
 3447SOL    HW211241   5.016   0.093   0.536
 3448SOL     OW11242   3.195   6.504   6.291
 3448SOL    HW111243   3.224   6.443   6.217
 3448SOL    HW211244   3.270   6.517   6.355
 3449SOL     OW11245   6.039   5.091   4.661
 3449SOL    HW111246   6.028   5.114   4.758
 3449SOL    HW211247   5.956   5.047   4.628
 3450SOL     OW11248   1.235   1.154   6.509
 3450SOL    HW111249   1.179   1.197   6.437
 3450SOL    HW211250   1.308   1.101   6.466
 3451SOL     OW11251   1.873   5.906   6.954
 3451SOL    HW111252   1.781   5.925   6.920
 3451SOL    HW211253   1.917   5.992   6.982
 3452SOL     OW11254   5.941   0.290   6.290
 3452SOL    HW111255   5.847   0.263   6.269
 3452SOL    HW211256   5.941   0.365   6.357
 3453SOL     OW11257   6.137   5.689   6.254
 3453SOL    HW111258   6.076   5.768   6.246
 3453SOL    HW211259   6.122   5.643   6.341
 3454SOL     OW11260   1.326   3.912   5.095
 3454SOL    HW111261   1.393   3.852   5.138
 3454SOL    HW211262   1.363   4.005   5.087
 3455SOL     OW11263   2.713   1.450   4.730
 3455SOL    HW111264   2.782   1.416   4.793
 3455SOL    HW211265   2.755   1.517   4.669
 3456SOL     OW11266   4.659   5.063   2.139
 3456SOL    HW111267   4.666   5.011   2.054
 3456SOL    HW211268   4.731   5.033   2.202
 3457SOL     OW11269   4.132   5.471   4.678
 3457SOL    HW111270   4.132   5.521   4.765
 3457SOL    HW211271   4.038   5.453   4.650
 3458SOL     OW11272   4.620   1.638   2.317
 3458SOL    HW111273   4.598   1.567   2.384
 3458SOL    HW211274   4.590   1.727   2.353
 3459SOL     OW11275   4.847   1.959   3.092
 3459SOL    HW111276   4.798   2.026   3.036
 3459SOL    HW211277   4.832   1.979   3.188
 3460SOL     OW11278   2.938   2.074   6.020
 3460SOL    HW111279   2.982   1.994   6.060
 3460SOL    HW211280   2.987   2.102   5.938
 3461SOL     OW11281   5.538   4.064   6.822
 3461SOL    HW111282   5.583   4.152   6.805
 3461SOL    HW211283   5.605   3.997   6.852
 3462SOL     OW11284   0.751   3.999   5.082
 3462SOL    HW111285   0.723   4.094   5.070
 3462SOL    HW211286   0.720   3.945   5.005
 3463SOL     OW11287   0.699   4.338   0.827
 3463SOL    HW111288   0.676   4.241   0.822
 3463SOL    HW211289   0.703   4.376   0.734
 3464SOL     OW11290   0.608   4.530   6.319
 3464SOL    HW111291   0.546   4.568   6.388
 3464SOL    HW211292   0.569   4.545   6.228
 3465SOL     OW11293   2.545   2.508   2.070
 3465SOL    HW111294   2.597   2.433   2.110
 3465SOL    HW211295   2.540   2.584   2.135
 3466SOL     OW11296   0.119   5.582   6.423
 3466SOL    HW111297   0.056   5.615   6.353
 3466SOL    HW211298   0.195   5.647   6.433
 3467SOL     OW11299   1.536   2.287   6.702
 3467SOL    HW111300   1.513   2.384   6.696
 3467SOL    HW211301   1.495   2.249   6.785
 3468SOL     OW11302   3.850   5.589   2.638
 3468SOL    HW111303   3.914   5.656   2.601
 3468SOL    HW211304   3.762   5.633   2.658
 3469SOL     OW11305   5.909   1.321   3.740
 3469SOL    HW111306   5.978   1.379   3.785
 3469SOL    HW211307   5.825   1.374   3.727
 3470SOL     OW11308   7.019   4.547   1.133
 3470SOL    HW111309   6.977   4.616   1.192
 3470SOL    HW211310   0.078   4.507   1.180
 3471SOL     OW11311   4.169   5.205   4.785
 3471SOL    HW111312   4.187   5.294   4.743
 3471SOL    HW211313   4.070   5.187   4.785
 3472SOL     OW11314   2.494   0.903   3.607
 3472SOL    HW111315   2.446   0.815   3.600
 3472SOL    HW211316   2.588   0.892   3.575
 3473SOL     OW11317   5.811   1.459   5.821
 3473SOL    HW111318   5.795   1.540   5.876
 3473SOL    HW211319   5.868   1.394   5.873
 3474SOL     OW11320   3.046   5.076   1.843
 3474SOL    HW111321   3.063   5.109   1.936
 3474SOL    HW211322   2.972   5.128   1.802
 3475SOL     OW11323   1.294   6.723   4.173
 3475SOL    HW111324   1.369   6.660   4.150
 3475SOL    HW211325   1.330   6.816   4.180
 3476SOL     OW11326   3.737   1.146   4.032
 3476SOL    HW111327   3.808   1.185   3.973
 3476SOL    HW211328   3.688   1.075   3.983
 3477SOL     OW11329   2.994   5.686   2.095
 3477SOL    HW111330   2.944   5.721   2.174
 3477SOL    HW211331   3.092   5.702   2.108
 3478SOL     OW11332   2.992   5.998   5.298
 3478SOL    HW111333   3.029   5.919   5.346
 3478SOL    HW211334   2.919   6.039   5.353
 3479SOL     OW11335   0.209   0.685   3.306
 3479SOL    HW111336   0.194   0.612   3.374
 3479SOL    HW211337   0.305   0.682   3.276
 3480SOL     OW11338   6.704   0.729   4.348
 3480SOL    HW111339   6.693   0.646   4.403
 3480SOL    HW211340   6.619   0.749   4.300
 3481SOL     OW11341   4.517   6.822   6.628
 3481SOL    HW111342   4.533   6.920   6.613
 3481SOL    HW211343   4.601   6.779   6.659
 3482SOL     OW11344   5.300   1.374   1.102
 3482SOL    HW111345   5.240   1.422   1.166
 3482SOL    HW211346   5.322   1.283   1.138
 3483SOL     OW11347   3.237   0.423   1.179
 3483SOL    HW111348   3.318   0.454   1.130
 3483SOL    HW211349   3.173   0.381   1.114
 3484SOL     OW11350   2.788   3.277   1.922
 3484SOL    HW111351   2.823   3.313   2.009
 3484SOL    HW211352   2.814   3.181   1.914
 3485SOL     OW11353   1.441   0.890   4.820
 3485SOL    HW111354   1.408   0.923   4.731
 3485SOL    HW211355   1.468   0.968   4.876
 3486SOL     OW11356   3.187   1.688   2.538
 3486SOL    HW111357   3.275   1.662   2.497
 3486SOL    HW211358   3.120   1.704   2.466
 3487SOL     OW11359   6.067   1.961   6.059
 3487SOL    HW111360   6.090   2.016   6.139
 3487SOL    HW211361   5.985   1.998   6.015
 3488SOL     OW11362   5.907   3.151   4.088
 3488SOL    HW111363   5.996   3.114   4.114
 3488SOL    HW211364   5.840   3.130   4.159
 3489SOL     OW11365   2.996   0.018   0.386
 3489SOL    HW111366   3.046   6.975   0.446
 3489SOL    HW211367   3.017   7.017   0.291
 3490SOL     OW11368   4.681   4.629   6.940
 3490SOL    HW111369   4.763   4.583   6.905
 3490SOL    HW211370   4.656   4.590   0.009
 3491SOL     OW11371   6.516   3.043   5.332
 3491SOL    HW111372   6.454   2.965   5.329
 3491SOL    HW211373   6.610   3.012   5.319
 3492SOL     OW11374   0.625   5.502   0.670
 3492SOL    HW111375   0.715   5.533   0.699
 3492SOL    HW211376   0.622   5.497   0.570
 3493SOL     OW11377   6.570   5.133   6.635
 3493SOL    HW111378   6.624   5.065   6.684
 3493SOL    HW211379   6.501   5.086   6.580
 3494SOL     OW11380   4.028   0.248   0.919
 3494SOL    HW111381   4.033   0.153   0.889
 3494SOL    HW211382   4.117   0.292   0.907
 3495SOL     OW11383   4.732   5.131   2.537
 3495SOL    HW111384   4.779   5.219   2.547
 3495SOL    HW211385   4.771   5.080   2.461
 3496SOL     OW11386   1.234   3.006   1.250
 3496SOL    HW111387   1.264   2.981   1.158
 3496SOL    HW211388   1.306   2.985   1.315
 3497SOL     OW11389   3.659   0.236   2.711
 3497SOL    HW111390   3.707   0.240   2.799
 3497SOL    HW211391   3.632   0.141   2.692
 3498SOL     OW11392   2.992   2.276   1.005
 3498SOL    HW111393   3.061   2.237   1.066
 3498SOL    HW211394   3.009   2.374   0.994
 3499SOL     OW11395   5.581   2.803   4.526
 3499SOL    HW111396   5.590   2.879   4.591
 3499SOL    HW211397   5.576   2.717   4.577
 3500SOL     OW11398   6.942   4.377   5.863
 3500SOL    HW111399   6.988   4.332   5.787
 3500SOL    HW211400   6.858   4.327   5.886
 3501SOL     OW11401   0.528   5.389   4.716
 3501SOL    HW111402   0.519   5.457   4.644
 3501SOL    HW211403   0.499   5.300   4.682
 3502SOL     OW11404   6.798   2.099   2.259
 3502SOL    HW111405   6.724   2.159   2.289
 3502SOL    HW211406   6.843   2.140   2.179
 3503SOL     OW11407   5.487   5.446   5.234
 3503SOL    HW111408   5.408   5.504   5.210
 3503SOL    HW211409   5.475   5.413   5.328
 3504SOL     OW11410   2.689   2.964   1.277
 3504SOL    HW111411   2.728   2.972   1.368
 3504SOL    HW211412   2.760   2.981   1.208
 3505SOL     OW11413   6.109   5.181   5.184
 3505SOL    HW111414   6.069   5.103   5.233
 3505SOL    HW211415   6.065   5.265   5.214
 3506SOL     OW11416   3.729   5.819   4.442
 3506SOL    HW111417   3.828   5.825   4.424
 3506SOL    HW211418   3.713   5.824   4.541
 3507SOL     OW11419   1.612   0.872   6.486
 3507SOL    HW111420   1.698   0.883   6.437
 3507SOL    HW211421   1.539   0.917   6.434
 3508SOL     OW11422   4.314   2.650   6.166
 3508SOL    HW111423   4.371   2.722   6.206
 3508SOL    HW211424   4.348   2.561   6.194
 3509SOL     OW11425   5.443   5.513   6.595
 3509SOL    HW111426   5.406   5.606   6.606
 3509SOL    HW211427   5.507   5.493   6.669
 3510SOL     OW11428   1.787   2.558   1.375
 3510SOL    HW111429   1.855   2.609   1.323
 3510SOL    HW211430   1.778   2.599   1.466
 3511SOL     OW11431   1.225   3.765   6.846
 3511SOL    HW111432   1.147   3.705   6.828
 3511SOL    HW211433   1.300   3.741   6.784
 3512SOL     OW11434   0.901   4.476   0.970
 3512SOL    HW111435   0.891   4.555   0.909
 3512SOL    HW211436   0.832   4.407   0.946
 3513SOL     OW11437   5.715   4.096   0.653
 3513SOL    HW111438   5.624   4.130   0.627
 3513SOL    HW211439   5.705   4.018   0.715
 3514SOL     OW11440   0.950   0.798   1.898
 3514SOL    HW111441   0.907   0.816   1.987
 3514SOL    HW211442   0.889   0.830   1.825
 3515SOL     OW11443   3.992   6.210   2.354
 3515SOL    HW111444   3.897   6.236   2.375
 3515SOL    HW211445   4.031   6.163   2.433
 3516SOL     OW11446   3.771   1.022   1.724
 3516SOL    HW111447   3.757   1.119   1.704
 3516SOL    HW211448   3.809   1.012   1.816
 3517SOL     OW11449   0.445   1.603   0.032
 3517SOL    HW111450   0.352   1.641   0.035
 3517SOL    HW211451   0.495   1.632   0.114
 3518SOL     OW11452   4.873   4.130   5.378
 3518SOL    HW111453   4.844   4.206   5.437
 3518SOL    HW211454   4.842   4.044   5.417
 3519SOL     OW11455   1.387   0.432   6.478
 3519SOL    HW111456   1.387   0.338   6.513
 3519SOL    HW211457   1.421   0.493   6.549
 3520SOL     OW11458   3.890   4.446   1.528
 3520SOL    HW111459   3.868   4.512   1.456
 3520SOL    HW211460   3.900   4.355   1.488
 3521SOL     OW11461   5.763   2.858   1.626
 3521SOL    HW111462   5.698   2.826   1.558
 3521SOL    HW211463   5.787   2.783   1.687
 3522SOL     OW11464   3.151   5.395   2.133
 3522SOL    HW111465   3.157   5.296   2.143
 3522SOL    HW211466   3.244   5.433   2.128
 3523SOL     OW11467   3.162   4.721   5.605
 3523SOL    HW111468   3.143   4.664   5.524
 3523SOL    HW211469   3.100   4.799   5.606
 3524SOL     OW11470   2.444   0.410   1.396
 3524SOL    HW111471   2.418   0.506   1.400
 3524SOL    HW211472   2.543   0.402   1.405
 3525SOL     OW11473   1.000   3.653   1.870
 3525SOL    HW111474   0.983   3.670   1.773
 3525SOL    HW211475   0.971   3.560   1.893
 3526SOL     OW11476   1.182   0.581   3.943
 3526SOL    HW111477   1.204   0.489   3.974
 3526SOL    HW211478   1.093   0.608   3.981
 3527SOL     OW11479   5.256   2.618   5.295
 3527SOL    HW111480   5.307   2.544   5.338
 3527SOL    HW211481   5.275   2.704   5.344
 3528SOL     OW11482   0.965   6.410   3.431
 3528SOL    HW111483   0.923   6.339   3.374
 3528SOL    HW211484   0.965   6.497   3.381
 3529SOL     OW11485   3.703   0.123   5.598
 3529SOL    HW111486   3.743   0.196   5.543
 3529SOL    HW211487   3.625   0.158   5.649
 3530SOL     OW11488   2.025   5.206   2.511
 3530SOL    HW111489   2.086   5.286   2.510
 3530SOL    HW211490   2.000   5.184   2.605
 3531SOL     OW11491   5.035   4.033   0.867
 3531SOL    HW111492   4.958   3.995   0.815
 3531SOL    HW211493   5.081   3.960   0.917
 3532SOL     OW11494   3.235   0.621   0.349
 3532SOL    HW111495   3.236   0.522   0.364
 3532SOL    HW211496   3.324   0.650   0.313
 3533SOL     OW11497   1.371   1.936   3.518
 3533SOL    HW111498   1.314   1.932   3.599
 3533SOL    HW211499   1.455   1.884   3.533
 3534SOL     OW11500   5.694   1.518   5.370
 3534SOL    HW111501   5.616   1.465   5.335
 3534SOL    HW211502   5.695   1.608   5.328
 3535SOL     OW11503   0.197   5.756   0.804
 3535SOL    HW111504   0.281   5.709   0.833
 3535SOL    HW211505   0.137   5.769   0.883
 3536SOL     OW11506   2.128   3.385   3.600
 3536SOL    HW111507   2.140   3.316   3.672
 3536SOL    HW211508   2.157   3.347   3.512
 3537SOL     OW11509   1.927   4.636   0.851
 3537SOL    HW111510   1.885   4.721   0.884
 3537SOL    HW211511   1.891   4.559   0.903
 3538SOL     OW11512   3.040   1.363   3.860
 3538SOL    HW111513   3.040   1.267   3.830
 3538SOL    HW211514   3.009   1.368   3.955
 3539SOL     OW11515   6.234   3.477   5.694
 3539SOL    HW111516   6.296   3.494   5.770
 3539SOL    HW211517   6.170   3.553   5.684
 3540SOL     OW11518   2.189   2.542   6.122
 3540SOL    HW111519   2.174   2.445   6.140
 3540SOL    HW211520   2.118   2.595   6.168
 3541SOL     OW11521   2.582   3.199   0.123
 3541SOL    HW111522   2.607   3.198   0.220
 3541SOL    HW211523   2.527   3.280   0.104
 3542SOL     OW11524   5.569   2.417   0.267
 3542SOL    HW111525   5.549   2.476   0.189
 3542SOL    HW211526   5.667   2.394   0.267
 3543SOL     OW11527   1.495   3.494   3.027
 3543SOL    HW111528   1.593   3.482   3.044
 3543SOL    HW211529   1.473   3.591   3.026
 3544SOL     OW11530   2.203   4.454   6.674
 3544SOL    HW111531   2.273   4.384   6.664
 3544SOL    HW211532   2.244   4.545   6.661
 3545SOL     OW11533   3.854   4.666   0.769
 3545SOL    HW111534   3.885   4.574   0.746
 3545SOL    HW211535   3.762   4.681   0.732
 3546SOL     OW11536   6.345   4.565   3.454
 3546SOL    HW111537   6.402   4.639   3.420
 3546SOL    HW211538   6.379   4.477   3.419
 3547SOL     OW11539   6.452   3.914   4.865
 3547SOL    HW111540   6.457   3.952   4.958
 3547SOL    HW211541   6.418   3.820   4.870
 3548SOL     OW11542   5.728   0.587   5.544
 3548SOL    HW111543   5.799   0.586   5.474
 3548SOL    HW211544   5.744   0.514   5.610
 3549SOL     OW11545   1.663   5.291   6.132
 3549SOL    HW111546   1.664   5.390   6.145
 3549SOL    HW211547   1.755   5.259   6.109
 3550SOL     OW11548   5.588   2.536   5.248
 3550SOL    HW111549   5.573   2.510   5.152
 3550SOL    HW211550   5.508   2.512   5.302
 3551SOL     OW11551   3.390   2.134   5.107
 3551SOL    HW111552   3.437   2.095   5.028
 3551SOL    HW211553   3.306   2.179   5.076
 3552SOL     OW11554   5.963   5.299   2.064
 3552SOL    HW111555   6.019   5.321   2.144
 3552SOL    HW211556   5.942   5.383   2.014
 3553SOL     OW11557   3.388   5.797   6.441
 3553SOL    HW111558   3.303   5.790   6.493
 3553SOL    HW211559   3.384   5.736   6.362
 3554SOL     OW11560   4.108   3.673   0.464
 3554SOL    HW111561   4.139   3.583   0.495
 3554SOL    HW211562   4.113   3.677   0.364
 3555SOL     OW11563   1.710   2.151   4.504
 3555SOL    HW111564   1.701   2.168   4.602
 3555SOL    HW211565   1.676   2.059   4.483
 3556SOL     OW11566   3.940   1.275   4.202
 3556SOL    HW111567   3.936   1.364   4.247
 3556SOL    HW211568   3.875   1.273   4.125
 3557SOL     OW11569   1.014   0.696   3.143
 3557SOL    HW111570   1.028   0.679   3.045
 3557SOL    HW211571   0.916   0.695   3.163
 3558SOL     OW11572   2.794   4.765   0.856
 3558SOL    HW111573   2.844   4.809   0.782
 3558SOL    HW211574   2.739   4.690   0.820
 3559SOL     OW11575   2.054   6.643   4.344
 3559SOL    HW111576   2.113   6.677   4.271
 3559SOL    HW211577   1.970   6.697   4.346
 3560SOL     OW11578   2.176   4.906   3.378
 3560SOL    HW111579   2.084   4.923   3.343
 3560SOL    HW211580   2.196   4.808   3.374
 3561SOL     OW11581   5.063   5.043   6.050
 3561SOL    HW111582   4.968   5.059   6.024
 3561SOL    HW211583   5.124   5.095   5.989
 3562SOL     OW11584   3.605   1.936   4.560
 3562SOL    HW111585   3.506   1.928   4.575
 3562SOL    HW211586   3.635   1.861   4.501
 3563SOL     OW11587   6.081   2.171   6.242
 3563SOL    HW111588   6.141   2.240   6.282
 3563SOL    HW211589   5.986   2.191   6.267
 3564SOL     OW11590   0.333   5.225   3.113
 3564SOL    HW111591   0.253   5.285   3.108
 3564SOL    HW211592   0.306   5.131   3.092
 3565SOL     OW11593   3.659   4.884   2.582
 3565SOL    HW111594   3.585   4.946   2.609
 3565SOL    HW211595   3.690   4.833   2.662
 3566SOL     OW11596   6.308   0.762   5.585
 3566SOL    HW111597   6.325   0.856   5.557
 3566SOL    HW211598   6.333   0.751   5.682
 3567SOL     OW11599   0.222   2.580   6.150
 3567SOL    HW111600   0.193   2.494   6.193
 3567SOL    HW211601   0.143   2.626   6.110
 3568SOL     OW11602   6.238   4.094   5.332
 3568SOL    HW111603   6.204   4.061   5.244
 3568SOL    HW211604   6.255   4.016   5.392
 3569SOL     OW11605   3.040   1.744   5.372
 3569SOL    HW111606   3.069   1.668   5.313
 3569SOL    HW211607   3.075   1.830   5.334
 3570SOL     OW11608   4.815   0.526   6.277
 3570SOL    HW111609   4.770   0.437   6.276
 3570SOL    HW211610   4.835   0.554   6.183
 3571SOL     OW11611   0.263   5.437   6.917
 3571SOL    HW111612   0.181   5.392   6.882
 3571SOL    HW211613   0.296   5.389   6.997
 3572SOL     OW11614   5.378   3.966   3.748
 3572SOL    HW111615   5.300   3.943   3.807
 3572SOL    HW211616   5.427   3.882   3.724
 3573SOL     OW11617   0.275   4.798   4.083
 3573SOL    HW111618   0.233   4.720   4.129
 3573SOL    HW211619   0.252   4.882   4.132
 3574SOL     OW11620   0.611   4.571   0.315
 3574SOL    HW111621   0.646   4.663   0.300
 3574SOL    HW211622   0.524   4.560   0.266
 3575SOL     OW11623   5.600   4.688   3.326
 3575SOL    HW111624   5.533   4.708   3.255
 3575SOL    HW211625   5.557   4.697   3.416
 3576SOL     OW11626   2.090   1.722   5.810
 3576SOL    HW111627   2.155   1.724   5.734
 3576SOL    HW211628   2.060   1.628   5.825
 3577SOL     OW11629   1.285   3.518   5.775
 3577SOL    HW111630   1.332   3.561   5.698
 3577SOL    HW211631   1.352   3.488   5.842
 3578SOL     OW11632   3.890   2.896   0.374
 3578SOL    HW111633   3.864   2.893   0.277
 3578SOL    HW211634   3.921   2.805   0.402
 3579SOL     OW11635   0.319   4.074   4.662
 3579SOL    HW111636   0.388   4.023   4.609
 3579SOL    HW211637   0.235   4.081   4.608
 3580SOL     OW11638   6.070   1.666   1.047
 3580SOL    HW111639   6.084   1.737   1.116
 3580SOL    HW211640   5.974   1.639   1.045
 3581SOL     OW11641   6.149   0.088   4.144
 3581SOL    HW111642   6.184   7.017   4.169
 3581SOL    HW211643   6.223   0.155   4.150
 3582SOL     OW11644   0.908   1.904   5.882
 3582SOL    HW111645   0.897   1.925   5.979
 3582SOL    HW211646   0.829   1.851   5.850
 3583SOL     OW11647   0.716   3.670   6.679
 3583SOL    HW111648   0.628   3.629   6.655
 3583SOL    HW211649   0.760   3.617   6.751
 3584SOL     OW11650   6.222   5.608   6.751
 3584SOL    HW111651   6.229   5.644   6.844
 3584SOL    HW211652   6.159   5.531   6.750
 3585SOL     OW11653   3.700   5.519   4.989
 3585SOL    HW111654   3.747   5.544   4.904
 3585SOL    HW211655   3.679   5.421   4.987
 3586SOL     OW11656   6.985   1.902   5.428
 3586SOL    HW111657   6.939   1.892   5.516
 3586SOL    HW211658   6.920   1.885   5.354
 3587SOL     OW11659   2.419   5.037   0.204
 3587SOL    HW111660   2.442   5.131   0.229
 3587SOL    HW211661   2.444   5.022   0.108
 3588SOL     OW11662   0.600   2.606   4.888
 3588SOL    HW111663   0.564   2.536   4.950
 3588SOL    HW211664   0.529   2.673   4.869
 3589SOL     OW11665   3.844   1.929   4.140
 3589SOL    HW111666   3.850   1.874   4.057
 3589SOL    HW211667   3.797   2.016   4.119
 3590SOL     OW11668   0.282   3.968   6.054
 3590SOL    HW111669   0.256   4.040   5.990
 3590SOL    HW211670   0.234   3.983   6.141
 3591SOL     OW11671   4.582   3.540   6.518
 3591SOL    HW111672   4.673   3.579   6.524
 3591SOL    HW211673   4.522   3.583   6.585
 3592SOL     OW11674   6.120   4.072   3.095
 3592SOL    HW111675   6.076   4.127   3.024
 3592SOL    HW211676   6.087   3.978   3.090
 3593SOL     OW11677   2.114   5.882   4.724
 3593SOL    HW111678   2.153   5.796   4.755
 3593SOL    HW211679   2.161   5.958   4.768
 3594SOL     OW11680   3.779   0.449   2.336
 3594SOL    HW111681   3.861   0.499   2.364
 3594SOL    HW211682   3.755   0.382   2.407
 3595SOL     OW11683   2.284   5.561   6.203
 3595SOL    HW111684   2.301   5.535   6.108
 3595SOL    HW211685   2.199   5.519   6.235
 3596SOL     OW11686   6.300   2.456   2.935
 3596SOL    HW111687   6.281   2.495   2.845
 3596SOL    HW211688   6.399   2.447   2.947
 3597SOL     OW11689   2.645   6.512   4.777
 3597SOL    HW111690   2.714   6.514   4.705
 3597SOL    HW211691   2.577   6.583   4.760
 3598SOL     OW11692   1.328   6.477   6.397
 3598SOL    HW111693   1.339   6.498   6.300
 3598SOL    HW211694   1.343   6.561   6.451
 3599SOL     OW11695   0.419   2.419   5.537
 3599SOL    HW111696   0.478   2.500   5.533
 3599SOL    HW211697   0.425   2.369   5.451
 3600SOL     OW11698   0.843   2.940   0.443
 3600SOL    HW111699   0.842   2.842   0.425
 3600SOL    HW211700   0.820   2.989   0.359
 3601SOL     OW11701   6.681   4.215   0.669
 3601SOL    HW111702   6.705   4.212   0.766
 3601SOL    HW211703   6.700   4.126   0.627
 3602SOL     OW11704   1.477   1.705   1.026
 3602SOL    HW111705   1.478   1.677   0.930
 3602SOL    HW211706   1.474   1.624   1.084
 3603SOL     OW11707   3.527   6.493   4.358
 3603SOL    HW111708   3.558   6.411   4.407
 3603SOL    HW211709   3.582   6.572   4.386
 3604SOL     OW11710   6.491   4.788   4.100
 3604SOL    HW111711   6.456   4.824   4.013
 3604SOL    HW211712   6.478   4.857   4.172
 3605SOL     OW11713   5.403   4.451   5.322
 3605SOL    HW111714   5.319   4.439   5.270
 3605SOL    HW211715   5.479   4.408   5.272
 3606SOL     OW11716   6.885   5.491   5.179
 3606SOL    HW111717   6.949   5.568   5.184
 3606SOL    HW211718   6.860   5.476   5.083
 3607SOL     OW11719   5.245   6.355   1.015
 3607SOL    HW111720   5.253   6.368   0.916
 3607SOL    HW211721   5.271   6.262   1.039
 3608SOL     OW11722   6.576   1.810   2.110
 3608SOL    HW111723   6.664   1.857   2.101
 3608SOL    HW211724   6.571   1.735   2.045
 3609SOL     OW11725   0.414   0.457   3.751
 3609SOL    HW111726   0.458   0.368   3.743
 3609SOL    HW211727   0.359   0.461   3.834
 3610SOL     OW11728   0.939   0.691   5.514
 3610SOL    HW111729   0.929   0.682   5.613
 3610SOL    HW211730   1.034   0.709   5.492
 3611SOL     OW11731   3.858   5.888   5.534
 3611SOL    HW111732   3.907   5.818   5.482
 3611SOL    HW211733   3.777   5.848   5.577
 3612SOL     OW11734   6.213   0.329   5.726
 3612SOL    HW111735   6.125   0.323   5.774
 3612SOL    HW211736   6.214   0.412   5.669
 3613SOL     OW11737   5.356   5.448   1.455
 3613SOL    HW111738   5.320   5.530   1.499
 3613SOL    HW211739   5.287   5.376   1.458
 3614SOL     OW11740   3.527   3.129   2.676
 3614SOL    HW111741   3.602   3.111   2.740
 3614SOL    HW211742   3.451   3.172   2.724
 3615SOL     OW11743   5.316   6.117   0.224
 3615SOL    HW111744   5.410   6.115   0.190
 3615SOL    HW211745   5.316   6.139   0.322
 3616SOL     OW11746   6.971   1.973   6.014
 3616SOL    HW111747   6.975   1.918   5.931
 3616SOL    HW211748   0.014   2.051   6.005
 3617SOL     OW11749   4.846   1.164   6.634
 3617SOL    HW111750   4.766   1.138   6.580
 3617SOL    HW211751   4.869   1.260   6.616
 3618SOL     OW11752   2.100   1.655   5.045
 3618SOL    HW111753   2.075   1.704   4.962
 3618SOL    HW211754   2.176   1.701   5.090
 3619SOL     OW11755   6.376   3.154   3.709
 3619SOL    HW111756   6.358   3.065   3.751
 3619SOL    HW211757   6.400   3.220   3.780
 3620SOL     OW11758   6.316   5.831   5.739
 3620SOL    HW111759   6.329   5.914   5.685
 3620SOL    HW211760   6.232   5.838   5.792
 3621SOL     OW11761   2.888   2.573   5.768
 3621SOL    HW111762   2.817   2.542   5.831
 3621SOL    HW211763   2.845   2.609   5.685
 3622SOL     OW11764   1.856   2.625   3.577
 3622SOL    HW111765   1.845   2.536   3.621
 3622SOL    HW211766   1.772   2.648   3.527
 3623SOL     OW11767   6.174   6.057   3.827
 3623SOL    HW111768   6.221   6.007   3.755
 3623SOL    HW211769   6.118   5.994   3.881
 3624SOL     OW11770   1.213   6.837   2.348
 3624SOL    HW111771   1.284   6.775   2.316
 3624SOL    HW211772   1.136   6.836   2.284
 3625SOL     OW11773   5.695   3.399   6.840
 3625SOL    HW111774   5.758   3.323   6.851
 3625SOL    HW211775   5.704   3.436   6.747
 3626SOL     OW11776   1.513   3.785   5.244
 3626SOL    HW111777   1.539   3.833   5.328
 3626SOL    HW211778   1.490   3.690   5.266
 3627SOL     OW11779   3.616   2.854   3.512
 3627SOL    HW111780   3.677   2.784   3.547
 3627SOL    HW211781   3.618   2.934   3.572
 3628SOL     OW11782   1.790   6.862   1.524
 3628SOL    HW111783   1.737   6.829   1.602
 3628SOL    HW211784   1.728   6.886   1.449
 3629SOL     OW11785   5.924   2.146   4.727
 3629SOL    HW111786   5.966   2.066   4.684
 3629SOL    HW211787   5.961   2.229   4.685
 3630SOL     OW11788   4.906   2.659   3.038
 3630SOL    HW111789   4.874   2.740   3.087
 3630SOL    HW211790   5.006   2.662   3.030
 3631SOL     OW11791   2.390   0.009   3.724
 3631SOL    HW111792   2.397   6.985   3.634
 3631SOL    HW211793   2.309   6.993   3.771
 3632SOL     OW11794   4.871   6.999   0.582
 3632SOL    HW111795   4.893   6.974   0.487
 3632SOL    HW211796   4.775   6.977   0.600
 3633SOL     OW11797   3.187   1.803   5.644
 3633SOL    HW111798   3.222   1.878   5.588
 3633SOL    HW211799   3.161   1.727   5.584
 3634SOL     OW11800   0.928   5.551   4.469
 3634SOL    HW111801   0.966   5.620   4.532
 3634SOL    HW211802   0.828   5.556   4.472
 3635SOL     OW11803   2.769   6.770   6.507
 3635SOL    HW111804   2.726   6.684   6.478
 3635SOL    HW211805   2.750   6.840   6.439
 3636SOL     OW11806   0.664   5.772   6.513
 3636SOL    HW111807   0.680   5.724   6.427
 3636SOL    HW211808   0.670   5.708   6.590
 3637SOL     OW11809   5.821   2.063   1.228
 3637SOL    HW111810   5.756   2.100   1.161
 3637SOL    HW211811   5.901   2.122   1.232
 3638SOL     OW11812   7.004   4.857   4.546
 3638SOL    HW111813   6.913   4.827   4.518
 3638SOL    HW211814   0.028   4.785   4.599
 3639SOL     OW11815   3.655   4.272   1.461
 3639SOL    HW111816   3.748   4.282   1.426
 3639SOL    HW211817   3.625   4.178   1.449
 3640SOL     OW11818   3.567   0.646   6.940
 3640SOL    HW111819   3.609   0.676   6.854
 3640SOL    HW211820   3.494   0.580   6.920
 3641SOL     OW11821   4.754   2.885   4.317
 3641SOL    HW111822   4.793   2.975   4.335
 3641SOL    HW211823   4.719   2.881   4.224
 3642SOL     OW11824   4.923   1.073   0.356
 3642SOL    HW111825   4.931   1.074   0.456
 3642SOL    HW211826   4.878   0.989   0.327
 3643SOL     OW11827   3.257   5.685   4.663
 3643SOL    HW111828   3.308   5.611   4.619
 3643SOL    HW211829   3.159   5.671   4.650
 3644SOL     OW11830   6.332   1.612   1.546
 3644SOL    HW111831   6.303   1.632   1.640
 3644SOL    HW211832   6.400   1.538   1.548
 3645SOL     OW11833   0.042   2.439   3.836
 3645SOL    HW111834   0.079   2.428   3.743
 3645SOL    HW211835   6.963   2.428   3.834
 3646SOL     OW11836   6.565   4.087   6.857
 3646SOL    HW111837   6.627   4.026   6.807
 3646SOL    HW211838   6.482   4.036   6.882
 3647SOL     OW11839   1.932   3.390   0.007
 3647SOL    HW111840   1.834   3.379   7.011
 3647SOL    HW211841   1.976   3.300   0.004
 3648SOL     OW11842   3.311   4.904   3.217
 3648SOL    HW111843   3.242   4.839   3.246
 3648SOL    HW211844   3.301   4.922   3.119
 3649SOL     OW11845   5.193   2.995   2.182
 3649SOL    HW111846   5.273   2.943   2.213
 3649SOL    HW211847   5.138   2.939   2.121
 3650SOL     OW11848   0.738   4.395   0.560
 3650SOL    HW111849   0.796   4.318   0.585
 3650SOL    HW211850   0.679   4.370   0.484
 3651SOL     OW11851   0.502   0.171   3.786
 3651SOL    HW111852   0.579   0.183   3.723
 3651SOL    HW211853   0.532   0.118   3.865
 3652SOL     OW11854   6.068   6.184   2.837
 3652SOL    HW111855   6.039   6.089   2.849
 3652SOL    HW211856   6.029   6.240   2.910
 3653SOL     OW11857   0.448   1.586   4.547
 3653SOL    HW111858   0.523   1.553   4.489
 3653SOL    HW211859   0.369   1.526   4.534
 3654SOL     OW11860   2.700   5.475   0.460
 3654SOL    HW111861   2.625   5.501   0.399
 3654SOL    HW211862   2.777   5.442   0.405
 3655SOL     OW11863   2.687   0.093   3.494
 3655SOL    HW111864   2.674   0.192   3.493
 3655SOL    HW211865   2.624   0.051   3.429
 3656SOL     OW11866   0.940   3.699   2.150
 3656SOL    HW111867   0.908   3.794   2.153
 3656SOL    HW211868   0.964   3.675   2.056
 3657SOL     OW11869   5.141   5.014   6.307
 3657SOL    HW111870   5.131   4.924   6.349
 3657SOL    HW211871   5.129   5.006   6.208
 3658SOL     OW11872   1.674   6.419   4.296
 3658SOL    HW111873   1.733   6.460   4.365
 3658SOL    HW211874   1.669   6.320   4.311
 3659SOL     OW11875   2.246   3.247   5.628
 3659SOL    HW111876   2.217   3.231   5.722
 3659SOL    HW211877   2.244   3.161   5.577
 3660SOL     OW11878   4.724   0.617   2.773
 3660SOL    HW111879   4.700   0.562   2.853
 3660SOL    HW211880   4.715   0.714   2.795
 3661SOL     OW11881   4.574   1.675   6.249
 3661SOL    HW111882   4.612   1.583   6.244
 3661SOL    HW211883   4.600   1.716   6.337
 3662SOL     OW11884   4.243   0.495   3.866
 3662SOL    HW111885   4.335   0.531   3.877
 3662SOL    HW211886   4.191   0.510   3.950
 3663SOL     OW11887   1.496   1.943   0.303
 3663SOL    HW111888   1.503   1.958   0.401
 3663SOL    HW211889   1.536   2.021   0.255
 3664SOL     OW11890   4.979   1.951   2.025
 3664SOL    HW111891   5.020   2.042   2.028
 3664SOL    HW211892   4.887   1.954   2.064
 3665SOL     OW11893   1.881   6.487   5.336
 3665SOL    HW111894   1.913   6.574   5.299
 3665SOL    HW211895   1.790   6.499   5.375
 3666SOL     OW11896   1.597   3.758   3.320
 3666SOL    HW111897   1.651   3.676   3.341
 3666SOL    HW211898   1.610   3.825   3.393
 3667SOL     OW11899   0.130   0.904   1.015
 3667SOL    HW111900   0.128   0.813   0.974
 3667SOL    HW211901   0.042   0.923   1.060
 3668SOL     OW11902   1.490   1.122   2.346
 3668SOL    HW111903   1.490   1.218   2.374
 3668SOL    HW211904   1.557   1.108   2.273
 3669SOL     OW11905   5.679   1.475   3.739
 3669SOL    HW111906   5.624   1.529   3.803
 3669SOL    HW211907   5.683   1.523   3.651
 3670SOL     OW11908   2.081   4.209   0.278
 3670SOL    HW111909   2.123   4.161   0.356
 3670SOL    HW211910   2.068   4.305   0.301
 3671SOL     OW11911   5.999   0.319   3.872
 3671SOL    HW111912   5.984   0.297   3.968
 3671SOL    HW211913   5.933   0.269   3.816
 3672SOL     OW11914   5.716   2.196   1.951
 3672SOL    HW111915   5.649   2.124   1.970
 3672SOL    HW211916   5.801   2.154   1.919
 3673SOL     OW11917   4.317   0.222   6.611
 3673SOL    HW111918   4.356   0.313   6.630
 3673SOL    HW211919   4.227   0.215   6.653
 3674SOL     OW11920   0.357   6.826   4.896
 3674SOL    HW111921   0.293   6.886   4.847
 3674SOL    HW211922   0.339   6.831   4.994
 3675SOL     OW11923   1.302   3.094   4.890
 3675SOL    HW111924   1.262   3.154   4.959
 3675SOL    HW211925   1.381   3.046   4.928
 3676SOL     OW11926   5.223   4.554   4.799
 3676SOL    HW111927   5.149   4.541   4.734
 3676SOL    HW211928   5.207   4.497   4.880
 3677SOL     OW11929   2.380   6.512   2.961
 3677SOL    HW111930   2.347   6.427   2.922
 3677SOL    HW211931   2.343   6.524   3.053
 3678SOL     OW11932   0.115   3.126   4.566
 3678SOL    HW111933   0.152   3.165   4.482
 3678SOL    HW211934   0.019   3.102   4.553
 3679SOL     OW11935   1.733   0.544   2.969
 3679SOL    HW111936   1.774   0.630   3.001
 3679SOL    HW211937   1.654   0.522   3.025
 3680SOL     OW11938   5.582   1.979   3.163
 3680SOL    HW111939   5.677   2.012   3.166
 3680SOL    HW211940   5.533   2.010   3.244
 3681SOL     OW11941   0.807   0.519   5.124
 3681SOL    HW111942   0.774   0.565   5.207
 3681SOL    HW211943   0.731   0.504   5.062
 3682SOL     OW11944   5.399   2.404   6.759
 3682SOL    HW111945   5.462   2.477   6.787
 3682SOL    HW211946   5.314   2.412   6.810
 3683SOL     OW11947   0.004   6.973   3.077
 3683SOL    HW111948   6.983   6.969   3.168
 3683SOL    HW211949   0.064   0.033   3.070
 3684SOL     OW11950   1.461   4.985   6.824
 3684SOL    HW111951   1.449   4.948   6.917
 3684SOL    HW211952   1.435   4.915   6.758
 3685SOL     OW11953   6.750   6.270   5.932
 3685SOL    HW111954   6.682   6.224   5.874
 3685SOL    HW211955   6.838   6.271   5.885
 3686SOL     OW11956   5.834   6.534   2.630
 3686SOL    HW111957   5.851   6.508   2.726
 3686SOL    HW211958   5.919   6.527   2.579
 3687SOL     OW11959   3.865   6.154   5.429
 3687SOL    HW111960   3.868   6.055   5.442
 3687SOL    HW211961   3.952   6.194   5.457
 3688SOL     OW11962   6.583   3.471   6.594
 3688SOL    HW111963   6.679   3.445   6.600
 3688SOL    HW211964   6.532   3.400   6.546
 3689SOL     OW11965   1.894   0.966   6.689
 3689SOL    HW111966   1.889   0.880   6.638
 3689SOL    HW211967   1.803   1.004   6.700
 3690SOL     OW11968   4.930   6.832   0.334
 3690SOL    HW111969   4.914   6.745   0.381
 3690SOL    HW211970   5.024   6.835   0.300
 3691SOL     OW11971   2.926   2.592   0.059
 3691SOL    HW111972   2.846   2.566   0.113
 3691SOL    HW211973   2.899   2.661   7.011
 3692SOL     OW11974   0.798   5.958   4.917
 3692SOL    HW111975   0.766   6.034   4.973
 3692SOL    HW211976   0.898   5.955   4.920
 3693SOL     OW11977   1.884   3.077   2.942
 3693SOL    HW111978   1.788   3.087   2.967
 3693SOL    HW211979   1.894   3.085   2.842
 3694SOL     OW11980   0.976   5.408   2.911
 3694SOL    HW111981   0.949   5.428   3.006
 3694SOL    HW211982   0.912   5.343   2.871
 3695SOL     OW11983   6.732   2.851   2.172
 3695SOL    HW111984   6.686   2.807   2.249
 3695SOL    HW211985   6.729   2.950   2.184
 3696SOL     OW11986   2.993   5.826   4.952
 3696SOL    HW111987   3.093   5.830   4.953
 3696SOL    HW211988   2.956   5.912   4.984
 3697SOL     OW11989   6.937   6.520   3.303
 3697SOL    HW111990   6.882   6.521   3.386
 3697SOL    HW211991   6.949   6.613   3.269
 3698SOL     OW11992   1.982   0.241   4.671
 3698SOL    HW111993   2.016   0.290   4.591
 3698SOL    HW211994   2.059   0.198   4.719
 3699SOL     OW11995   0.357   3.432   3.382
 3699SOL    HW111996   0.367   3.346   3.332
 3699SOL    HW211997   0.266   3.470   3.365
 3700SOL     OW11998   0.243   0.098   4.994
 3700SOL    HW111999   0.338   0.111   5.024
 3700SOL    HW212000   0.212   0.007   5.021
 3701SOL     OW12001   1.486   0.397   3.476
 3701SOL    HW112002   1.476   0.394   3.576
 3701SOL    HW212003   1.418   0.459   3.437
 3702SOL     OW12004   6.097   6.408   2.535
 3702SOL    HW112005   6.111   6.458   2.620
 3702SOL    HW212006   6.160   6.330   2.531
 3703SOL     OW12007   4.358   1.988   6.558
 3703SOL    HW112008   4.351   1.987   6.459
 3703SOL    HW212009   4.271   2.019   6.598
 3704SOL     OW12010   3.651   1.354   1.481
 3704SOL    HW112011   3.575   1.294   1.506
 3704SOL    HW212012   3.720   1.354   1.554
 3705SOL     OW12013   4.623   6.053   3.924
 3705SOL    HW112014   4.707   6.007   3.897
 3705SOL    HW212015   4.564   5.990   3.973
 3706SOL     OW12016   1.598   4.315   5.058
 3706SOL    HW112017   1.576   4.388   4.993
 3706SOL    HW212018   1.517   4.293   5.112
 3707SOL     OW12019   5.405   4.315   5.636
 3707SOL    HW112020   5.478   4.320   5.568
 3707SOL    HW212021   5.371   4.407   5.655
 3708SOL     OW12022   6.697   0.895   6.027
 3708SOL    HW112023   6.790   0.860   6.021
 3708SOL    HW212024   6.645   0.841   6.092
 3709SOL     OW12025   3.645   0.851   0.691
 3709SOL    HW112026   3.682   0.907   0.617
 3709SOL    HW212027   3.631   0.909   0.772
 3710SOL     OW12028   6.935   5.628   6.847
 3710SOL    HW112029   6.843   5.663   6.868
 3710SOL    HW212030   7.003   5.682   6.894
 3711SOL     OW12031   0.691   0.254   2.715
 3711SOL    HW112032   0.678   0.254   2.616
 3711SOL    HW212033   0.604   0.238   2.761
 3712SOL     OW12034   0.417   6.078   6.978
 3712SOL    HW112035   0.455   6.054   6.889
 3712SOL    HW212036   0.455   6.165   7.008
 3713SOL     OW12037   1.771   6.121   4.856
 3713SOL    HW112038   1.736   6.127   4.950
 3713SOL    HW212039   1.759   6.028   4.822
 3714SOL     OW12040   4.460   5.783   5.225
 3714SOL    HW112041   4.386   5.841   5.258
 3714SOL    HW212042   4.438   5.687   5.243
 3715SOL     OW12043   5.754   3.838   2.902
 3715SOL    HW112044   5.826   3.852   2.835
 3715SOL    HW212045   5.714   3.747   2.889
 3716SOL     OW12046   6.220   6.673   5.336
 3716SOL    HW112047   6.227   6.754   5.394
 3716SOL    HW212048   6.166   6.603   5.383
 3717SOL     OW12049   5.590   5.692   6.170
 3717SOL    HW112050   5.527   5.769   6.160
 3717SOL    HW212051   5.668   5.719   6.225
 3718SOL     OW12052   1.672   0.677   6.984
 3718SOL    HW112053   1.697   0.654   6.890
 3718SOL    HW212054   1.639   0.596   0.011
 3719SOL     OW12055   5.572   4.451   1.086
 3719SOL    HW112056   5.576   4.390   1.007
 3719SOL    HW212057   5.663   4.460   1.126
 3720SOL     OW12058   6.299   2.019   5.942
 3720SOL    HW112059   6.371   1.991   6.006
 3720SOL    HW212060   6.211   2.021   5.990
 3721SOL     OW12061   4.880   4.257   1.670
 3721SOL    HW112062   4.840   4.299   1.752
 3721SOL    HW212063   4.858   4.159   1.670
 3722SOL     OW12064   6.372   6.450   1.172
 3722SOL    HW112065   6.396   6.432   1.267
 3722SOL    HW212066   6.273   6.459   1.164
 3723SOL     OW12067   6.386   6.216   2.139
 3723SOL    HW112068   6.455   6.145   2.132
 3723SOL    HW212069   6.315   6.201   2.070
 3724SOL     OW12070   2.210   4.534   5.644
 3724SOL    HW112071   2.143   4.572   5.581
 3724SOL    HW212072   2.194   4.569   5.736
 3725SOL     OW12073   5.983   5.383   0.899
 3725SOL    HW112074   5.976   5.463   0.958
 3725SOL    HW212075   6.076   5.375   0.863
 3726SOL     OW12076   6.476   4.930   0.667
 3726SOL    HW112077   6.538   4.982   0.727
 3726SOL    HW212078   6.412   4.993   0.624
 3727SOL     OW12079   6.995   1.896   5.703
 3727SOL    HW112080   0.046   1.961   5.674
 3727SOL    HW212081   0.016   1.805   5.711
 3728SOL     OW12082   0.904   4.183   6.848
 3728SOL    HW112083   0.946   4.232   6.924
 3728SOL    HW212084   0.921   4.233   6.763
 3729SOL     OW12085   1.005   2.026   3.191
 3729SOL    HW112086   1.088   1.979   3.220
 3729SOL    HW212087   0.950   1.964   3.135
 3730SOL     OW12088   2.829   5.410   6.507
 3730SOL    HW112089   2.826   5.329   6.448
 3730SOL    HW212090   2.874   5.386   6.593
 3731SOL     OW12091   5.259   0.212   1.133
 3731SOL    HW112092   5.309   0.132   1.099
 3731SOL    HW212093   5.178   0.226   1.077
 3732SOL     OW12094   2.104   2.276   6.194
 3732SOL    HW112095   2.186   2.241   6.148
 3732SOL    HW212096   2.034   2.204   6.197
 3733SOL     OW12097   1.234   3.241   2.095
 3733SOL    HW112098   1.259   3.292   2.013
 3733SOL    HW212099   1.209   3.147   2.069
 3734SOL     OW12100   4.541   1.061   2.015
 3734SOL    HW112101   4.513   1.037   2.108
 3734SOL    HW212102   4.606   1.137   2.018
 3735SOL     OW12103   2.695   0.643   3.464
 3735SOL    HW112104   2.622   0.656   3.397
 3735SOL    HW212105   2.736   0.732   3.485
 3736SOL     OW12106   6.529   2.098   0.341
 3736SOL    HW112107   6.500   2.080   0.435
 3736SOL    HW212108   6.573   2.016   0.303
 3737SOL     OW12109   4.627   0.338   3.380
 3737SOL    HW112110   4.566   0.360   3.456
 3737SOL    HW212111   4.698   0.275   3.411
 3738SOL     OW12112   0.219   5.975   2.072
 3738SOL    HW112113   0.271   5.948   1.992
 3738SOL    HW212114   0.281   6.013   2.141
 3739SOL     OW12115   2.574   4.697   1.530
 3739SOL    HW112116   2.658   4.738   1.567
 3739SOL    HW212117   2.499   4.709   1.595
 3740SOL     OW12118   5.758   0.170   0.676
 3740SOL    HW112119   5.717   0.121   0.599
 3740SOL    HW212120   5.846   0.209   0.648
 3741SOL     OW12121   5.241   3.111   1.386
 3741SOL    HW112122   5.199   3.167   1.315
 3741SOL    HW212123   5.248   3.017   1.355
 3742SOL     OW12124   2.605   2.055   6.441
 3742SOL    HW112125   2.657   1.996   6.380
 3742SOL    HW212126   2.654   2.141   6.456
 3743SOL     OW12127   5.153   2.928   0.797
 3743SOL    HW112128   5.058   2.905   0.817
 3743SOL    HW212129   5.161   3.026   0.784
 3744SOL     OW12130   0.456   6.148   2.844
 3744SOL    HW112131   0.506   6.099   2.916
 3744SOL    HW212132   0.517   6.168   2.768
 3745SOL     OW12133   3.842   5.103   2.072
 3745SOL    HW112134   3.866   5.006   2.067
 3745SOL    HW212135   3.747   5.115   2.041
 3746SOL     OW12136   5.483   1.357   2.921
 3746SOL    HW112137   5.472   1.339   3.019
 3746SOL    HW212138   5.393   1.363   2.877
 3747SOL     OW12139   2.903   6.893   5.398
 3747SOL    HW112140   2.827   6.869   5.338
 3747SOL    HW212141   2.972   6.943   5.347
 3748SOL     OW12142   5.750   0.347   1.892
 3748SOL    HW112143   5.795   0.310   1.974
 3748SOL    HW212144   5.761   0.446   1.890
 3749SOL     OW12145   1.983   6.603   3.743
 3749SOL    HW112146   2.027   6.515   3.758
 3749SOL    HW212147   2.020   6.646   3.661
 3750SOL     OW12148   1.388   3.761   0.590
 3750SOL    HW112149   1.352   3.834   0.533
 3750SOL    HW212150   1.314   3.699   0.616
 3751SOL     OW12151   6.988   3.509   2.028
 3751SOL    HW112152   6.994   3.411   2.012
 3751SOL    HW212153   6.893   3.534   2.049
 3752SOL     OW12154   5.261   0.676   6.469
 3752SOL    HW112155   5.341   0.703   6.416
 3752SOL    HW212156   5.182   0.731   6.441
 3753SOL     OW12157   6.426   0.614   5.355
 3753SOL    HW112158   6.402   0.641   5.448
 3753SOL    HW212159   6.371   0.535   5.328
 3754SOL     OW12160   1.651   0.276   1.471
 3754SOL    HW112161   1.734   0.223   1.487
 3754SOL    HW212162   1.666   0.372   1.496
 3755SOL     OW12163   4.857   5.418   5.037
 3755SOL    HW112164   4.913   5.475   5.097
 3755SOL    HW212165   4.915   5.354   4.988
 3756SOL     OW12166   3.123   5.217   6.385
 3756SOL    HW112167   3.117   5.128   6.341
 3756SOL    HW212168   3.130   5.204   6.484
 3757SOL     OW12169   6.098   5.212   1.845
 3757SOL    HW112170   6.048   5.209   1.932
 3757SOL    HW212171   6.156   5.131   1.838
 3758SOL     OW12172   2.287   1.476   4.526
 3758SOL    HW112173   2.208   1.452   4.582
 3758SOL    HW212174   2.357   1.519   4.583
 3759SOL     OW12175   3.933   0.025   5.784
 3759SOL    HW112176   3.904   6.950   5.796
 3759SOL    HW212177   3.857   0.087   5.805
 3760SOL     OW12178   0.619   1.764   4.138
 3760SOL    HW112179   0.688   1.806   4.196
 3760SOL    HW212180   0.638   1.786   4.042
 3761SOL     OW12181   6.568   0.997   5.415
 3761SOL    HW112182   6.612   1.079   5.377
 3761SOL    HW212183   6.489   1.025   5.469
 3762SOL     OW12184   1.409   4.163   1.395
 3762SOL    HW112185   1.363   4.192   1.311
 3762SOL    HW212186   1.384   4.224   1.470
 3763SOL     OW12187   0.348   3.425   6.896
 3763SOL    HW112188   0.263   3.377   6.916
 3763SOL    HW212189   0.421   3.390   6.956
 3764SOL     OW12190   1.439   6.674   2.240
 3764SOL    HW112191   1.416   6.716   2.152
 3764SOL    HW212192   1.516   6.723   2.281
 3765SOL     OW12193   5.572   1.152   0.970
 3765SOL    HW112194   5.612   1.234   0.930
 3765SOL    HW212195   5.630   1.121   1.046
 3766SOL     OW12196   1.876   2.512   4.306
 3766SOL    HW112197   1.885   2.412   4.301
 3766SOL    HW212198   1.785   2.535   4.340
 3767SOL     OW12199   3.221   4.542   6.875
 3767SOL    HW112200   3.174   4.626   6.900
 3767SOL    HW212201   3.308   4.536   6.925
 3768SOL     OW12202   0.853   6.879   4.398
 3768SOL    HW112203   0.816   6.798   4.443
 3768SOL    HW212204   0.791   6.957   4.413
 3769SOL     OW12205   5.855   5.572   5.106
 3769SOL    HW112206   5.783   5.552   5.039
 3769SOL    HW212207   5.893   5.663   5.087
 3770SOL     OW12208   1.118   0.427   6.750
 3770SOL    HW112209   1.179   0.429   6.829
 3770SOL    HW212210   1.024   0.436   6.781
 3771SOL     OW12211   5.176   4.195   0.194
 3771SOL    HW112212   5.120   4.270   0.160
 3771SOL    HW212213   5.132   4.153   0.273
 3772SOL     OW12214   0.613   0.148   0.367
 3772SOL    HW112215   0.589   0.084   0.294
 3772SOL    HW212216   0.534   0.160   0.428
 3773SOL     OW12217   5.980   3.317   5.483
 3773SOL    HW112218   5.972   3.319   5.383
 3773SOL    HW212219   6.069   3.277   5.508
 3774SOL     OW12220   5.636   5.705   1.702
 3774SOL    HW112221   5.657   5.736   1.795
 3774SOL    HW212222   5.568   5.766   1.661
 3775SOL     OW12223   4.971   5.211   3.018
 3775SOL    HW112224   5.007   5.304   3.026
 3775SOL    HW212225   5.047   5.148   2.999
 3776SOL     OW12226   3.617   2.474   6.697
 3776SOL    HW112227   3.638   2.563   6.736
 3776SOL    HW212228   3.556   2.486   6.618
 3777SOL     OW12229   2.809   5.041   3.195
 3777SOL    HW112230   2.832   5.122   3.141
 3777SOL    HW212231   2.794   5.069   3.290
 3778SOL     OW12232   2.415   5.451   3.363
 3778SOL    HW112233   2.515   5.455   3.359
 3778SOL    HW212234   2.385   5.357   3.346
 3779SOL     OW12235   0.852   4.691   1.518
 3779SOL    HW112236   0.890   4.601   1.498
 3779SOL    HW212237   0.854   4.747   1.436
 3780SOL     OW12238   6.433   4.139   4.713
 3780SOL    HW112239   6.439   4.048   4.754
 3780SOL    HW212240   6.506   4.150   4.645
 3781SOL     OW12241   0.799   0.182   3.684
 3781SOL    HW112242   0.816   0.273   3.646
 3781SOL    HW212243   0.879   0.152   3.736
 3782SOL     OW12244   3.358   6.978   2.714
 3782SOL    HW112245   3.291   6.986   2.640
 3782SOL    HW212246   3.451   6.986   2.676
 3783SOL     OW12247   6.145   5.346   4.296
 3783SOL    HW112248   6.222   5.384   4.245
 3783SOL    HW212249   6.075   5.416   4.309
 3784SOL     OW12250   4.997   3.003   2.882
 3784SOL    HW112251   5.051   2.951   2.816
 3784SOL    HW212252   4.908   2.960   2.894
 3785SOL     OW12253   1.474   3.053   5.109
 3785SOL    HW112254   1.536   3.130   5.091
 3785SOL    HW212255   1.526   2.977   5.146
 3786SOL     OW12256   2.197   3.929   3.228
 3786SOL    HW112257   2.191   3.851   3.166
 3786SOL    HW212258   2.165   3.901   3.319
 3787SOL     OW12259   5.627   0.894   1.693
 3787SOL    HW112260   5.538   0.940   1.703
 3787SOL    HW212261   5.623   0.830   1.616
 3788SOL     OW12262   6.814   4.473   4.956
 3788SOL    HW112263   6.908   4.505   4.942
 3788SOL    HW212264   6.751   4.535   4.909
 3789SOL     OW12265   0.030   3.879   3.819
 3789SOL    HW112266   6.951   3.867   3.823
 3789SOL    HW212267   0.067   3.828   3.741
 3790SOL     OW12268   0.808   5.181   6.155
 3790SOL    HW112269   0.788   5.267   6.203
 3790SOL    HW212270   0.877   5.130   6.207
 3791SOL     OW12271   4.725   1.808   6.427
 3791SOL    HW112272   4.799   1.790   6.492
 3791SOL    HW212273   4.751   1.881   6.365
 3792SOL     OW12274   1.237   1.855   3.802
 3792SOL    HW112275   1.291   1.771   3.801
 3792SOL    HW212276   1.163   1.846   3.869
 3793SOL     OW12277   4.268   6.681   1.852
 3793SOL    HW112278   4.351   6.679   1.908
 3793SOL    HW212279   4.274   6.612   1.780
 3794SOL     OW12280   2.931   2.700   1.729
 3794SOL    HW112281   3.018   2.652   1.732
 3794SOL    HW212282   2.857   2.635   1.714
 3795SOL     OW12283   4.694   5.924   1.292
 3795SOL    HW112284   4.670   5.957   1.384
 3795SOL    HW212285   4.793   5.910   1.288
 3796SOL     OW12286   4.299   1.975   2.211
 3796SOL    HW112287   4.257   1.885   2.203
 3796SOL    HW212288   4.330   2.006   2.120
 3797SOL     OW12289   0.355   3.476   2.802
 3797SOL    HW112290   0.347   3.508   2.896
 3797SOL    HW212291   0.405   3.389   2.800
 3798SOL     OW12292   2.275   6.063   2.527
 3798SOL    HW112293   2.352   6.121   2.500
 3798SOL    HW212294   2.209   6.059   2.452
 3799SOL     OW12295   6.664   2.965   3.779
 3799SOL    HW112296   6.588   2.902   3.763
 3799SOL    HW212297   6.705   2.945   3.868
 3800SOL     OW12298   5.581   1.561   3.976
 3800SOL    HW112299   5.671   1.538   4.012
 3800SOL    HW212300   5.547   1.643   4.022
 3801SOL     OW12301   6.150   6.768   1.907
 3801SOL    HW112302   6.207   6.820   1.843
 3801SOL    HW212303   6.189   6.775   1.999
 3802SOL     OW12304   1.193   1.576   1.591
 3802SOL    HW112305   1.137   1.508   1.638
 3802SOL    HW212306   1.177   1.571   1.493
 3803SOL     OW12307   4.136   3.642   3.075
 3803SOL    HW112308   4.113   3.739   3.067
 3803SOL    HW212309   4.158   3.605   2.985
 3804SOL     OW12310   4.342   1.265   3.845
 3804SOL    HW112311   4.400   1.288   3.923
 3804SOL    HW212312   4.328   1.166   3.841
 3805SOL     OW12313   1.970   3.007   1.858
 3805SOL    HW112314   2.022   3.091   1.875
 3805SOL    HW212315   1.986   2.977   1.764
 3806SOL     OW12316   3.140   3.844   5.458
 3806SOL    HW112317   3.157   3.759   5.508
 3806SOL    HW212318   3.208   3.913   5.484
 3807SOL     OW12319   2.208   5.223   3.036
 3807SOL    HW112320   2.207   5.175   2.948
 3807SOL    HW212321   2.232   5.319   3.021
 3808SOL     OW12322   3.998   1.176   0.213
 3808SOL    HW112323   4.026   1.111   0.284
 3808SOL    HW212324   3.984   1.128   0.127
 3809SOL     OW12325   5.573   3.194   1.280
 3809SOL    HW112326   5.513   3.164   1.205
 3809SOL    HW212327   5.517   3.229   1.355
 3810SOL     OW12328   5.785   2.676   3.725
 3810SOL    HW112329   5.721   2.648   3.654
 3810SOL    HW212330   5.845   2.748   3.690
 3811SOL     OW12331   7.002   6.692   4.607
 3811SOL    HW112332   0.077   6.662   4.597
 3811SOL    HW212333   6.955   6.686   4.518
 3812SOL     OW12334   4.124   4.874   5.405
 3812SOL    HW112335   4.047   4.848   5.347
 3812SOL    HW212336   4.165   4.958   5.369
 3813SOL     OW12337   5.686   3.831   0.104
 3813SOL    HW112338   5.767   3.789   0.062
 3813SOL    HW212339   5.606   3.775   0.085
 3814SOL     OW12340   6.523   0.135   5.066
 3814SOL    HW112341   6.604   0.147   5.125
 3814SOL    HW212342   6.552   0.100   4.977
 3815SOL     OW12343   4.132   2.067   0.961
 3815SOL    HW112344   4.095   2.122   0.886
 3815SOL    HW212345   4.137   1.971   0.934
 3816SOL     OW12346   1.293   4.900   6.620
 3816SOL    HW112347   1.199   4.887   6.591
 3816SOL    HW212348   1.351   4.830   6.577
 3817SOL     OW12349   4.988   3.337   2.252
 3817SOL    HW112350   4.994   3.386   2.338
 3817SOL    HW212351   4.989   3.402   2.176
 3818SOL     OW12352   6.387   1.446   0.061
 3818SOL    HW112353   6.458   1.375   0.061
 3818SOL    HW212354   6.430   1.536   0.069
 3819SOL     OW12355   5.848   5.355   2.822
 3819SOL    HW112356   5.791   5.308   2.755
 3819SOL    HW212357   5.822   5.452   2.825
 3820SOL     OW12358   5.038   6.776   4.462
 3820SOL    HW112359   4.988   6.851   4.419
 3820SOL    HW212360   5.136   6.792   4.455
 3821SOL     OW12361   1.409   0.814   1.940
 3821SOL    HW112362   1.367   0.799   2.030
 3821SOL    HW212363   1.390   0.735   1.881
 3822SOL     OW12364   2.181   6.472   0.403
 3822SOL    HW112365   2.182   6.372   0.400
 3822SOL    HW212366   2.126   6.508   0.328
 3823SOL     OW12367   3.340   3.800   6.270
 3823SOL    HW112368   3.290   3.801   6.184
 3823SOL    HW212369   3.390   3.886   6.281
 3824SOL     OW12370   0.470   2.428   0.620
 3824SOL    HW112371   0.554   2.482   0.611
 3824SOL    HW212372   0.492   2.331   0.620
 3825SOL     OW12373   0.507   4.754   0.004
 3825SOL    HW112374   0.542   4.761   0.097
 3825SOL    HW212375   0.530   4.837   6.972
 3826SOL     OW12376   0.895   3.619   0.593
 3826SOL    HW112377   0.909   3.638   0.495
 3826SOL    HW212378   0.829   3.545   0.603
 3827SOL     OW12379   1.118   0.779   1.514
 3827SOL    HW112380   1.213   0.801   1.537
 3827SOL    HW212381   1.061   0.861   1.526
 3828SOL     OW12382   3.356   3.313   3.727
 3828SOL    HW112383   3.446   3.280   3.757
 3828SOL    HW212384   3.350   3.311   3.628
 3829SOL     OW12385   0.687   4.551   2.395
 3829SOL    HW112386   0.684   4.454   2.421
 3829SOL    HW212387   0.698   4.558   2.296
 3830SOL     OW12388   1.070   0.818   5.196
 3830SOL    HW112389   1.021   0.798   5.112
 3830SOL    HW212390   1.007   0.853   5.265
 3831SOL     OW12391   4.445   1.964   2.575
 3831SOL    HW112392   4.502   1.969   2.657
 3831SOL    HW212393   4.473   2.034   2.509
 3832SOL     OW12394   6.636   0.570   2.938
 3832SOL    HW112395   6.707   0.567   2.868
 3832SOL    HW212396   6.678   0.582   3.028
 3833SOL     OW12397   0.465   6.081   6.695
 3833SOL    HW112398   0.559   6.077   6.662
 3833SOL    HW212399   0.431   5.987   6.709
 3834SOL     OW12400   3.252   4.209   0.645
 3834SOL    HW112401   3.341   4.230   0.604
 3834SOL    HW212402   3.203   4.145   0.585
 3835SOL     OW12403   3.968   5.857   4.562
 3835SOL    HW112404   3.982   5.881   4.658
 3835SOL    HW212405   4.054   5.825   4.522
 3836SOL     OW12406   0.291   4.893   5.993
 3836SOL    HW112407   0.377   4.941   5.973
 3836SOL    HW212408   0.270   4.901   6.090
 3837SOL     OW12409   4.658   4.219   5.969
 3837SOL    HW112410   4.690   4.158   6.042
 3837SOL    HW212411   4.725   4.292   5.956
 3838SOL     OW12412   0.848   2.879   3.812
 3838SOL    HW112413   0.941   2.873   3.848
 3838SOL    HW212414   0.849   2.861   3.714
 3839SOL     OW12415   5.486   1.848   2.927
 3839SOL    HW112416   5.536   1.891   3.001
 3839SOL    HW212417   5.409   1.797   2.964
 3840SOL     OW12418   3.017   1.500   6.729
 3840SOL    HW112419   3.103   1.513   6.778
 3840SOL    HW212420   3.026   1.534   6.635
 3841SOL     OW12421   0.141   3.489   4.476
 3841SOL    HW112422   0.207   3.425   4.435
 3841SOL    HW212423   0.177   3.582   4.471
 3842SOL     OW12424   1.661   2.309   2.261
 3842SOL    HW112425   1.736   2.243   2.260
 3842SOL    HW212426   1.696   2.399   2.287
 3843SOL     OW12427   5.371   4.282   2.759
 3843SOL    HW112428   5.423   4.315   2.838
 3843SOL    HW212429   5.332   4.360   2.710
 3844SOL     OW12430   1.088   2.548   5.121
 3844SOL    HW112431   1.068   2.551   5.219
 3844SOL    HW212432   1.071   2.456   5.086
 3845SOL     OW12433   3.446   4.659   6.008
 3845SOL    HW112434   3.470   4.562   6.002
 3845SOL    HW212435   3.439   4.685   6.104
 3846SOL     OW12436   0.033   4.685   3.184
 3846SOL    HW112437   7.016   4.689   3.277
 3846SOL    HW212438   0.026   4.592   3.149
 3847SOL     OW12439   5.147   3.046   4.385
 3847SOL    HW112440   5.204   3.078   4.309
 3847SOL    HW212441   5.201   3.050   4.470
 3848SOL     OW12442   4.468   4.447   2.946
 3848SOL    HW112443   4.415   4.523   2.910
 3848SOL    HW212444   4.435   4.361   2.907
 3849SOL     OW12445   1.143   1.528   5.849
 3849SOL    HW112446   1.069   1.530   5.783
 3849SOL    HW212447   1.206   1.455   5.827
 3850SOL     OW12448   2.424   3.693   1.718
 3850SOL    HW112449   2.391   3.613   1.770
 3850SOL    HW212450   2.518   3.677   1.689
 3851SOL     OW12451   0.854   4.313   3.047
 3851SOL    HW112452   0.818   4.404   3.068
 3851SOL    HW212453   0.847   4.254   3.128
 3852SOL     OW12454   4.212   6.147   4.214
 3852SOL    HW112455   4.307   6.177   4.199
 3852SOL    HW212456   4.152   6.198   4.153
 3853SOL     OW12457   0.661   4.255   3.855
 3853SOL    HW112458   0.623   4.344   3.830
 3853SOL    HW212459   0.759   4.255   3.837
 3854SOL     OW12460   1.481   2.043   2.599
 3854SOL    HW112461   1.462   2.115   2.533
 3854SOL    HW212462   1.530   2.082   2.677
 3855SOL     OW12463   4.889   6.383   6.359
 3855SOL    HW112464   4.819   6.452   6.345
 3855SOL    HW212465   4.978   6.420   6.334
 3856SOL     OW12466   6.728   0.407   6.100
 3856SOL    HW112467   6.736   0.367   6.008
 3856SOL    HW212468   6.678   0.344   6.159
 3857SOL     OW12469   0.699   5.927   6.882
 3857SOL    HW112470   0.710   5.960   6.975
 3857SOL    HW212471   0.745   5.839   6.872
 3858SOL     OW12472   2.586   1.241   5.580
 3858SOL    HW112473   2.679   1.209   5.597
 3858SOL    HW212474   2.574   1.331   5.621
 3859SOL     OW12475   5.548   1.230   1.951
 3859SOL    HW112476   5.596   1.259   1.868
 3859SOL    HW212477   5.470   1.290   1.968
 3860SOL     OW12478   2.096   1.426   3.895
 3860SOL    HW112479   2.160   1.351   3.910
 3860SOL    HW212480   2.012   1.410   3.947
 3861SOL     OW12481   4.551   5.172   3.118
 3861SOL    HW112482   4.516   5.217   3.035
 3861SOL    HW212483   4.474   5.145   3.176
 3862SOL     OW12484   0.511   0.552   4.965
 3862SOL    HW112485   0.503   0.524   5.061
 3862SOL    HW212486   0.429   0.604   4.939
 3863SOL     OW12487   5.630   2.288   6.963
 3863SOL    HW112488   5.589   2.250   0.025
 3863SOL    HW212489   5.560   2.303   6.893
 3864SOL     OW12490   2.371   1.099   5.504
 3864SOL    HW112491   2.454   1.151   5.527
 3864SOL    HW212492   2.308   1.158   5.453
 3865SOL     OW12493   3.957   0.720   0.488
 3865SOL    HW112494   3.956   0.691   0.392
 3865SOL    HW212495   3.890   0.666   0.540
 3866SOL     OW12496   3.581   0.159   0.870
 3866SOL    HW112497   3.630   0.075   0.893
 3866SOL    HW212498   3.483   0.145   0.884
 3867SOL     OW12499   0.641   5.238   4.165
 3867SOL    HW112500   0.735   5.241   4.131
 3867SOL    HW212501   0.609   5.143   4.164
 3868SOL     OW12502   2.735   6.543   0.294
 3868SOL    HW112503   2.684   6.628   0.287
 3868SOL    HW212504   2.721   6.488   0.211
 3869SOL     OW12505   6.181   3.920   4.394
 3869SOL    HW112506   6.165   3.904   4.297
 3869SOL    HW212507   6.264   3.975   4.405
 3870SOL     OW12508   6.345   6.131   0.055
 3870SOL    HW112509   6.250   6.126   0.086
 3870SOL    HW212510   6.406   6.117   0.133
 3871SOL     OW12511   3.720   0.632   2.895
 3871SOL    HW112512   3.691   0.667   2.805
 3871SOL    HW212513   3.646   0.577   2.934
 3872SOL     OW12514   3.865   3.008   4.161
 3872SOL    HW112515   3.782   2.953   4.164
 3872SOL    HW212516   3.881   3.050   4.251
 3873SOL     OW12517   6.891   3.005   1.017
 3873SOL    HW112518   6.985   2.998   0.983
 3873SOL    HW212519   6.839   2.925   0.988
 3874SOL     OW12520   4.499   6.180   6.999
 3874SOL    HW112521   4.516   6.085   0.004
 3874SOL    HW212522   4.554   6.204   6.919
 3875SOL     OW12523   2.153   3.117   2.493
 3875SOL    HW112524   2.243   3.125   2.450
 3875SOL    HW212525   2.085   3.098   2.423
 3876SOL     OW12526   3.564   6.051   1.174
 3876SOL    HW112527   3.543   6.009   1.085
 3876SOL    HW212528   3.555   5.982   1.246
 3877SOL     OW12529   5.672   2.798   0.462
 3877SOL    HW112530   5.727   2.789   0.545
 3877SOL    HW212531   5.610   2.877   0.472
 3878SOL     OW12532   3.443   0.460   4.441
 3878SOL    HW112533   3.425   0.363   4.454
 3878SOL    HW212534   3.489   0.497   4.521
 3879SOL     OW12535   5.690   5.574   1.193
 3879SOL    HW112536   5.752   5.575   1.114
 3879SOL    HW212537   5.614   5.513   1.174
 3880SOL     OW12538   5.503   4.724   4.439
 3880SOL    HW112539   5.560   4.672   4.375
 3880SOL    HW212540   5.555   4.740   4.523
 3881SOL     OW12541   1.299   3.325   1.855
 3881SOL    HW112542   1.347   3.413   1.848
 3881SOL    HW212543   1.226   3.322   1.787
 3882SOL     OW12544   1.403   0.833   5.635
 3882SOL    HW112545   1.380   0.742   5.668
 3882SOL    HW212546   1.503   0.844   5.633
 3883SOL     OW12547   4.080   0.718   3.163
 3883SOL    HW112548   3.987   0.732   3.198
 3883SOL    HW212549   4.146   0.741   3.235
 3884SOL     OW12550   0.187   5.639   3.081
 3884SOL    HW112551   0.241   5.722   3.094
 3884SOL    HW212552   0.175   5.592   3.168
 3885SOL     OW12553   6.272   0.159   2.487
 3885SOL    HW112554   6.187   0.148   2.537
 3885SOL    HW212555   6.332   0.222   2.537
 3886SOL     OW12556   5.939   6.180   4.854
 3886SOL    HW112557   5.913   6.242   4.928
 3886SOL    HW212558   5.860   6.125   4.828
 3887SOL     OW12559   0.196   0.480   6.593
 3887SOL    HW112560   0.271   0.546   6.595
 3887SOL    HW212561   0.180   0.451   6.498
 3888SOL     OW12562   6.399   0.715   4.755
 3888SOL    HW112563   6.354   0.664   4.681
 3888SOL    HW212564   6.340   0.791   4.784
 3889SOL     OW12565   0.368   3.247   6.499
 3889SOL    HW112566   0.275   3.214   6.481
 3889SOL    HW212567   0.428   3.168   6.512
 3890SOL     OW12568   5.519   5.402   2.959
 3890SOL    HW112569   5.519   5.383   2.861
 3890SOL    HW212570   5.600   5.454   2.983
 3891SOL     OW12571   5.780   4.521   4.800
 3891SOL    HW112572   5.734   4.450   4.746
 3891SOL    HW212573   5.876   4.497   4.811
 3892SOL     OW12574   0.253   2.401   1.758
 3892SOL    HW112575   0.320   2.437   1.823
 3892SOL    HW212576   0.181   2.469   1.744
 3893SOL     OW12577   4.624   4.298   0.920
 3893SOL    HW112578   4.713   4.281   0.878
 3893SOL    HW212579   4.634   4.311   1.018
 3894SOL     OW12580   3.558   1.585   1.364
 3894SOL    HW112581   3.577   1.501   1.415
 3894SOL    HW212582   3.518   1.561   1.276
 3895SOL     OW12583   1.592   0.584   5.374
 3895SOL    HW112584   1.500   0.561   5.345
 3895SOL    HW212585   1.615   0.530   5.456
 3896SOL     OW12586   0.138   0.393   6.330
 3896SOL    HW112587   0.160   0.300   6.299
 3896SOL    HW212588   0.039   0.405   6.332
 3897SOL     OW12589   3.454   5.401   2.848
 3897SOL    HW112590   3.476   5.499   2.854
 3897SOL    HW212591   3.369   5.383   2.898
 3898SOL     OW12592   3.461   3.810   4.824
 3898SOL    HW112593   3.397   3.877   4.861
 3898SOL    HW212594   3.435   3.719   4.855
 3899SOL     OW12595   5.625   6.899   5.007
 3899SOL    HW112596   5.599   6.869   5.099
 3899SOL    HW212597   5.651   6.819   4.952
 3900SOL     OW12598   4.890   3.214   3.968
 3900SOL    HW112599   4.841   3.128   3.979
 3900SOL    HW212600   4.929   3.218   3.876
 3901SOL     OW12601   3.036   0.571   5.747
 3901SOL    HW112602   3.002   0.480   5.773
 3901SOL    HW212603   3.106   0.600   5.812
 3902SOL     OW12604   5.568   3.930   2.076
 3902SOL    HW112605   5.653   3.948   2.027
 3902SOL    HW212606   5.508   4.011   2.071
 3903SOL     OW12607   4.353   5.739   0.193
 3903SOL    HW112608   4.276   5.795   0.225
 3903SOL    HW212609   4.338   5.714   0.097
 3904SOL     OW12610   2.215   0.610   5.069
 3904SOL    HW112611   2.272   0.627   5.150
 3904SOL    HW212612   2.119   0.607   5.097
 3905SOL     OW12613   6.850   0.057   5.806
 3905SOL    HW112614   6.903   7.009   5.755
 3905SOL    HW212615   6.855   0.036   5.904
 3906SOL     OW12616   3.888   5.288   5.233
 3906SOL    HW112617   3.881   5.190   5.248
 3906SOL    HW212618   3.806   5.321   5.185
 3907SOL     OW12619   5.550   6.823   5.261
 3907SOL    HW112620   5.476   6.890   5.262
 3907SOL    HW212621   5.623   6.854   5.322
 3908SOL     OW12622   0.988   0.939   0.242
 3908SOL    HW112623   1.083   0.970   0.235
 3908SOL    HW212624   0.938   0.966   0.159
 3909SOL     OW12625   0.326   5.024   5.568
 3909SOL    HW112626   0.304   5.067   5.480
 3909SOL    HW212627   0.418   5.050   5.596
 3910SOL     OW12628   3.273   3.761   1.936
 3910SOL    HW112629   3.298   3.740   2.030
 3910SOL    HW212630   3.238   3.678   1.892
 3911SOL     OW12631   4.181   1.423   0.139
 3911SOL    HW112632   4.207   1.382   0.052
 3911SOL    HW212633   4.087   1.395   0.162
 3912SOL     OW12634   3.747   0.611   6.146
 3912SOL    HW112635   3.676   0.542   6.160
 3912SOL    HW212636   3.772   0.653   6.233
 3913SOL     OW12637   2.215   5.799   6.395
 3913SOL    HW112638   2.125   5.838   6.376
 3913SOL    HW212639   2.232   5.721   6.334
 3914SOL     OW12640   4.060   1.260   1.449
 3914SOL    HW112641   4.057   1.163   1.429
 3914SOL    HW212642   4.153   1.294   1.435
 3915SOL     OW12643   3.704   6.274   1.886
 3915SOL    HW112644   3.610   6.308   1.896
 3915SOL    HW212645   3.703   6.185   1.840
 3916SOL     OW12646   1.742   6.055   3.482
 3916SOL    HW112647   1.719   6.111   3.562
 3916SOL    HW212648   1.667   6.060   3.416
 3917SOL     OW12649   1.385   4.900   6.298
 3917SOL    HW112650   1.399   4.980   6.356
 3917SOL    HW212651   1.474   4.861   6.272
 3918SOL     OW12652   5.198   0.247   2.777
 3918SOL    HW112653   5.276   0.290   2.732
 3918SOL    HW212654   5.159   0.176   2.718
 3919SOL     OW12655   2.811   5.902   6.959
 3919SOL    HW112656   2.776   5.887   6.867
 3919SOL    HW212657   2.911   5.903   6.956
 3920SOL     OW12658   2.504   2.701   6.522
 3920SOL    HW112659   2.417   2.702   6.472
 3920SOL    HW212660   2.541   2.794   6.526
 3921SOL     OW12661   0.066   2.836   0.853
 3921SOL    HW112662   0.127   2.887   0.913
 3921SOL    HW212663   0.051   2.887   0.769
 3922SOL     OW12664   5.820   4.392   1.235
 3922SOL    HW112665   5.842   4.484   1.268
 3922SOL    HW212666   5.904   4.340   1.223
 3923SOL     OW12667   6.963   1.742   0.211
 3923SOL    HW112668   6.945   1.749   0.112
 3923SOL    HW212669   6.987   1.649   0.234
 3924SOL     OW12670   6.886   5.723   3.258
 3924SOL    HW112671   6.820   5.751   3.187
 3924SOL    HW212672   6.842   5.659   3.320
 3925SOL     OW12673   3.728   4.230   1.124
 3925SOL    HW112674   3.720   4.136   1.093
 3925SOL    HW212675   3.638   4.274   1.122
 3926SOL     OW12676   6.463   5.480   2.423
 3926SOL    HW112677   6.492   5.406   2.363
 3926SOL    HW212678   6.431   5.558   2.369
 3927SOL     OW12679   6.794   3.842   3.840
 3927SOL    HW112680   6.713   3.871   3.891
 3927SOL    HW212681   6.781   3.862   3.743
 3928SOL     OW12682   2.698   5.191   4.959
 3928SOL    HW112683   2.706   5.290   4.955
 3928SOL    HW212684   2.780   5.149   4.919
 3929SOL     OW12685   0.710   1.730   5.671
 3929SOL    HW112686   0.622   1.684   5.657
 3929SOL    HW212687   0.694   1.825   5.698
 3930SOL     OW12688   1.971   1.846   4.076
 3930SOL    HW112689   1.924   1.817   3.992
 3930SOL    HW212690   2.038   1.777   4.102
 3931SOL     OW12691   1.743   1.833   2.692
 3931SOL    HW112692   1.668   1.892   2.721
 3931SOL    HW212693   1.710   1.739   2.683
 3932SOL     OW12694   1.490   3.798   2.861
 3932SOL    HW112695   1.426   3.742   2.809
 3932SOL    HW212696   1.453   3.815   2.952
 3933SOL     OW12697   2.239   6.976   6.460
 3933SOL    HW112698   2.332   7.009   6.476
 3933SOL    HW212699   2.197   6.950   6.547
 3934SOL     OW12700   0.318   0.959   1.214
 3934SOL    HW112701   0.319   0.875   1.268
 3934SOL    HW212702   0.265   0.943   1.130
 3935SOL     OW12703   2.064   6.820   6.324
 3935SOL    HW112704   2.131   6.783   6.259
 3935SOL    HW212705   2.109   6.886   6.385
 3936SOL     OW12706   0.253   4.801   5.354
 3936SOL    HW112707   0.239   4.872   5.286
 3936SOL    HW212708   0.256   4.842   5.445
 3937SOL     OW12709   0.236   0.571   2.129
 3937SOL    HW112710   0.333   0.573   2.154
 3937SOL    HW212711   0.182   0.611   2.203
 3938SOL     OW12712   6.789   2.667   3.611
 3938SOL    HW112713   6.791   2.676   3.711
 3938SOL    HW212714   6.842   2.741   3.570
 3939SOL     OW12715   3.232   1.759   2.191
 3939SOL    HW112716   3.312   1.739   2.247
 3939SOL    HW212717   3.238   1.710   2.105
 3940SOL     OW12718   4.317   5.204   2.083
 3940SOL    HW112719   4.275   5.283   2.127
 3940SOL    HW212720   4.276   5.120   2.119
 3941SOL     OW12721   5.176   1.819   6.287
 3941SOL    HW112722   5.250   1.820   6.354
 3941SOL    HW212723   5.119   1.738   6.302
 3942SOL     OW12724   0.337   0.272   5.558
 3942SOL    HW112725   0.433   0.244   5.555
 3942SOL    HW212726   0.283   0.202   5.604
 3943SOL     OW12727   1.000   3.693   2.900
 3943SOL    HW112728   0.936   3.623   2.931
 3943SOL    HW212729   0.982   3.715   2.804
 3944SOL     OW12730   5.837   3.932   5.477
 3944SOL    HW112731   5.776   3.865   5.435
 3944SOL    HW212732   5.875   3.991   5.406
 3945SOL     OW12733   0.895   1.901   2.073
 3945SOL    HW112734   0.904   1.888   2.171
 3945SOL    HW212735   0.974   1.951   2.038
 3946SOL     OW12736   6.346   4.889   6.033
 3946SOL    HW112737   6.377   4.860   5.942
 3946SOL    HW212738   6.412   4.952   6.072
 3947SOL     OW12739   5.900   5.282   1.667
 3947SOL    HW112740   5.961   5.252   1.739
 3947SOL    HW212741   5.903   5.217   1.591
 3948SOL     OW12742   1.076   4.712   1.234
 3948SOL    HW112743   1.094   4.621   1.195
 3948SOL    HW212744   0.981   4.737   1.216
 3949SOL     OW12745   5.717   1.004   3.033
 3949SOL    HW112746   5.786   1.024   3.103
 3949SOL    HW212747   5.759   0.953   2.958
 3950SOL     OW12748   2.966   3.813   1.482
 3950SOL    HW112749   2.970   3.746   1.556
 3950SOL    HW212750   2.888   3.874   1.496
 3951SOL     OW12751   0.378   6.746   0.656
 3951SOL    HW112752   0.371   6.830   0.602
 3951SOL    HW212753   0.460   6.752   0.714
 3952SOL     OW12754   6.915   4.183   4.206
 3952SOL    HW112755   6.987   4.252   4.199
 3952SOL    HW212756   6.884   4.156   4.115
 3953SOL     OW12757   3.225   4.278   1.083
 3953SOL    HW112758   3.238   4.195   1.028
 3953SOL    HW212759   3.160   4.338   1.036
 3954SOL     OW12760   6.013   5.409   5.267
 3954SOL    HW112761   5.988   5.492   5.217
 3954SOL    HW212762   5.958   5.403   5.350
 3955SOL     OW12763   3.697   6.322   6.419
 3955SOL    HW112764   3.710   6.359   6.511
 3955SOL    HW212765   3.606   6.281   6.412
 3956SOL     OW12766   0.412   1.880   2.741
 3956SOL    HW112767   0.511   1.889   2.734
 3956SOL    HW212768   0.386   1.866   2.836
 3957SOL     OW12769   4.911   6.557   3.583
 3957SOL    HW112770   4.926   6.480   3.645
 3957SOL    HW212771   4.974   6.631   3.606
 3958SOL     OW12772   5.690   0.238   6.200
 3958SOL    HW112773   5.675   0.140   6.208
 3958SOL    HW212774   5.610   0.281   6.157
 3959SOL     OW12775   3.748   6.444   1.024
 3959SOL    HW112776   3.658   6.472   1.057
 3959SOL    HW212777   3.819   6.489   1.078
 3960SOL     OW12778   4.756   1.452   6.461
 3960SOL    HW112779   4.851   1.482   6.474
 3960SOL    HW212780   4.733   1.453   6.364
 3961SOL     OW12781   5.558   2.511   2.166
 3961SOL    HW112782   5.489   2.572   2.204
 3961SOL    HW212783   5.568   2.529   2.068
 3962SOL     OW12784   2.075   4.880   6.854
 3962SOL    HW112785   2.087   4.822   6.935
 3962SOL    HW212786   1.986   4.860   6.812
 3963SOL     OW12787   4.679   4.432   4.205
 3963SOL    HW112788   4.710   4.401   4.115
 3963SOL    HW212789   4.602   4.495   4.194
 3964SOL     OW12790   4.955   4.893   3.620
 3964SOL    HW112791   4.858   4.904   3.641
 3964SOL    HW212792   4.976   4.795   3.612
 3965SOL     OW12793   4.077   2.871   6.058
 3965SOL    HW112794   4.100   2.788   6.008
 3965SOL    HW212795   4.030   2.935   5.997
 3966SOL     OW12796   6.023   5.794   0.507
 3966SOL    HW112797   6.022   5.878   0.453
 3966SOL    HW212798   6.003   5.815   0.603
 3967SOL     OW12799   1.573   4.329   2.853
 3967SOL    HW112800   1.494   4.389   2.842
 3967SOL    HW212801   1.542   4.234   2.859
 3968SOL     OW12802   6.390   0.121   1.051
 3968SOL    HW112803   6.348   0.117   0.960
 3968SOL    HW212804   6.326   0.161   1.116
 3969SOL     OW12805   1.464   3.403   2.470
 3969SOL    HW112806   1.495   3.452   2.551
 3969SOL    HW212807   1.435   3.311   2.496
 3970SOL     OW12808   5.416   5.579   4.091
 3970SOL    HW112809   5.339   5.557   4.031
 3970SOL    HW212810   5.488   5.510   4.080
 3971SOL     OW12811   2.489   5.005   1.715
 3971SOL    HW112812   2.479   4.912   1.749
 3971SOL    HW212813   2.564   5.008   1.649
 3972SOL     OW12814   1.631   5.456   0.676
 3972SOL    HW112815   1.572   5.536   0.688
 3972SOL    HW212816   1.669   5.457   0.583
 3973SOL     OW12817   1.112   4.383   5.926
 3973SOL    HW112818   1.154   4.374   5.836
 3973SOL    HW212819   1.040   4.452   5.923
 3974SOL     OW12820   0.919   0.517   4.626
 3974SOL    HW112821   0.834   0.539   4.675
 3974SOL    HW212822   0.897   0.470   4.541
 3975SOL     OW12823   5.421   0.290   6.065
 3975SOL    HW112824   5.338   0.251   6.027
 3975SOL    HW212825   5.402   0.326   6.156
 3976SOL     OW12826   1.225   5.029   1.057
 3976SOL    HW112827   1.268   5.119   1.049
 3976SOL    HW212828   1.233   4.998   1.152
 3977SOL     OW12829   3.149   4.338   5.590
 3977SOL    HW112830   3.118   4.413   5.531
 3977SOL    HW212831   3.122   4.357   5.685
 3978SOL     OW12832   5.421   6.874   4.668
 3978SOL    HW112833   5.462   6.942   4.729
 3978SOL    HW212834   5.450   6.782   4.696
 3979SOL     OW12835   2.962   5.838   1.838
 3979SOL    HW112836   2.908   5.811   1.758
 3979SOL    HW212837   2.956   5.767   1.908
 3980SOL     OW12838   0.351   5.692   6.500
 3980SOL    HW112839   0.381   5.597   6.494
 3980SOL    HW212840   0.423   5.752   6.464
 3981SOL     OW12841   1.747   1.932   6.495
 3981SOL    HW112842   1.789   1.874   6.565
 3981SOL    HW212843   1.811   2.005   6.470
 3982SOL     OW12844   2.291   0.632   4.170
 3982SOL    HW112845   2.251   0.687   4.243
 3982SOL    HW212846   2.258   0.664   4.081
 3983SOL     OW12847   4.308   5.249   4.105
 3983SOL    HW112848   4.381   5.318   4.107
 3983SOL    HW212849   4.344   5.162   4.139
 3984SOL     OW12850   1.344   0.735   3.131
 3984SOL    HW112851   1.255   0.779   3.127
 3984SOL    HW212852   1.371   0.707   3.038
 3985SOL     OW12853   4.089   4.744   6.239
 3985SOL    HW112854   4.177   4.713   6.203
 3985SOL    HW212855   4.078   4.712   6.333
 3986SOL     OW12856   6.508   2.240   2.596
 3986SOL    HW112857   6.482   2.197   2.682
 3986SOL    HW212858   6.560   2.323   2.614
 3987SOL     OW12859   3.067   5.459   4.083
 3987SOL    HW112860   3.053   5.511   3.998
 3987SOL    HW212861   3.050   5.362   4.066
 3988SOL     OW12862   3.967   3.616   6.555
 3988SOL    HW112863   3.881   3.576   6.588
 3988SOL    HW212864   3.948   3.676   6.478
 3989SOL     OW12865   6.515   1.694   0.051
 3989SOL    HW112866   6.519   1.776   0.108
 3989SOL    HW212867   6.432   1.697   7.014
 3990SOL     OW12868   5.643   2.348   3.044
 3990SOL    HW112869   5.577   2.303   2.984
 3990SOL    HW212870   5.606   2.437   3.073
 3991SOL     OW12871   5.788   1.444   2.061
 3991SOL    HW112872   5.826   1.451   1.969
 3991SOL    HW212873   5.862   1.441   2.128
 3992SOL     OW12874   3.687   2.182   0.033
 3992SOL    HW112875   3.633   2.218   6.977
 3992SOL    HW212876   3.628   2.125   0.091
 3993SOL     OW12877   0.483   2.623   3.254
 3993SOL    HW112878   0.441   2.674   3.179
 3993SOL    HW212879   0.579   2.606   3.232
 3994SOL     OW12880   0.574   1.195   6.292
 3994SOL    HW112881   0.640   1.239   6.353
 3994SOL    HW212882   0.487   1.245   6.296
 3995SOL     OW12883   1.363   3.781   4.289
 3995SOL    HW112884   1.406   3.744   4.372
 3995SOL    HW212885   1.364   3.711   4.218
 3996SOL     OW12886   0.794   1.092   4.356
 3996SOL    HW112887   0.760   1.112   4.264
 3996SOL    HW212888   0.855   1.166   4.386
 3997SOL     OW12889   5.301   2.542   3.692
 3997SOL    HW112890   5.227   2.524   3.757
 3997SOL    HW212891   5.352   2.623   3.721
 3998SOL     OW12892   4.185   1.205   2.514
 3998SOL    HW112893   4.226   1.131   2.567
 3998SOL    HW212894   4.142   1.271   2.575
 3999SOL     OW12895   5.488   3.375   3.879
 3999SOL    HW112896   5.560   3.374   3.949
 3999SOL    HW212897   5.437   3.461   3.885
 4000SOL     OW12898   3.053   4.848   2.941
 4000SOL    HW112899   3.039   4.781   3.014
 4000SOL    HW212900   2.964   4.876   2.905
 4001SOL     OW12901   2.363   2.274   4.568
 4001SOL    HW112902   2.273   2.238   4.546
 4001SOL    HW212903   2.433   2.209   4.539
 4002SOL     OW12904   2.815   2.511   0.574
 4002SOL    HW112905   2.910   2.486   0.589
 4002SOL    HW212906   2.810   2.588   0.511
 4003SOL     OW12907   2.930   6.382   4.813
 4003SOL    HW112908   2.906   6.296   4.769
 4003SOL    HW212909   2.860   6.406   4.880
 4004SOL     OW12910   6.012   2.171   4.042
 4004SOL    HW112911   5.962   2.127   4.116
 4004SOL    HW212912   6.026   2.106   3.968
 4005SOL     OW12913   5.647   5.931   1.043
 4005SOL    HW112914   5.564   5.903   1.091
 4005SOL    HW212915   5.667   5.866   0.970
 4006SOL     OW12916   4.087   5.025   2.654
 4006SOL    HW112917   4.077   5.124   2.640
 4006SOL    HW212918   4.169   4.993   2.607
 4007SOL     OW12919   1.105   2.871   1.726
 4007SOL    HW112920   1.087   2.791   1.668
 4007SOL    HW212921   1.190   2.856   1.777
 4008SOL     OW12922   3.410   2.086   4.172
 4008SOL    HW112923   3.408   2.096   4.072
 4008SOL    HW212924   3.325   2.046   4.203
 4009SOL     OW12925   4.807   3.331   0.412
 4009SOL    HW112926   4.767   3.410   0.459
 4009SOL    HW212927   4.829   3.356   0.318
 4010SOL     OW12928   2.307   3.121   1.771
 4010SOL    HW112929   2.244   3.190   1.733
 4010SOL    HW212930   2.399   3.137   1.735
 4011SOL     OW12931   0.749   0.629   1.643
 4011SOL    HW112932   0.845   0.622   1.668
 4011SOL    HW212933   0.740   0.631   1.543
 4012SOL     OW12934   4.525   5.400   2.011
 4012SOL    HW112935   4.466   5.320   2.023
 4012SOL    HW212936   4.475   5.471   1.962
 4013SOL     OW12937   3.224   6.851   0.278
 4013SOL    HW112938   3.296   6.853   0.347
 4013SOL    HW212939   3.144   6.802   0.313
 4014SOL     OW12940   3.966   5.825   2.883
 4014SOL    HW112941   3.991   5.732   2.911
 4014SOL    HW212942   4.009   5.891   2.946
 4015SOL     OW12943   4.441   5.678   6.171
 4015SOL    HW112944   4.454   5.585   6.204
 4015SOL    HW212945   4.517   5.735   6.201
 4016SOL     OW12946   1.913   6.014   6.617
 4016SOL    HW112947   1.988   6.079   6.628
 4016SOL    HW212948   1.885   5.980   6.706
 4017SOL     OW12949   0.410   6.121   0.888
 4017SOL    HW112950   0.451   6.210   0.907
 4017SOL    HW212951   0.439   6.055   0.957
 4018SOL     OW12952   5.158   6.591   2.891
 4018SOL    HW112953   5.089   6.638   2.946
 4018SOL    HW212954   5.179   6.646   2.809
 4019SOL     OW12955   5.699   3.581   2.872
 4019SOL    HW112956   5.641   3.576   2.953
 4019SOL    HW212957   5.643   3.574   2.790
 4020SOL     OW12958   5.783   2.410   5.530
 4020SOL    HW112959   5.859   2.422   5.594
 4020SOL    HW212960   5.749   2.316   5.535
 4021SOL     OW12961   2.944   3.166   5.503
 4021SOL    HW112962   2.984   3.256   5.486
 4021SOL    HW212963   2.857   3.158   5.455
 4022SOL     OW12964   4.378   0.470   0.242
 4022SOL    HW112965   4.390   0.434   0.149
 4022SOL    HW212966   4.426   0.411   0.307
 4023SOL     OW12967   6.568   1.586   5.274
 4023SOL    HW112968   6.512   1.506   5.252
 4023SOL    HW212969   6.510   1.658   5.312
 4024SOL     OW12970   3.338   5.153   4.015
 4024SOL    HW112971   3.319   5.127   4.110
 4024SOL    HW212972   3.422   5.207   4.012
 4025SOL     OW12973   0.969   6.261   4.226
 4025SOL    HW112974   0.876   6.274   4.192
 4025SOL    HW212975   0.997   6.166   4.211
 4026SOL     OW12976   6.291   6.096   4.294
 4026SOL    HW112977   6.320   6.121   4.202
 4026SOL    HW212978   6.204   6.046   4.290
 4027SOL     OW12979   3.267   4.119   2.151
 4027SOL    HW112980   3.252   4.217   2.168
 4027SOL    HW212981   3.196   4.086   2.088
 4028SOL     OW12982   1.209   2.253   4.026
 4028SOL    HW112983   1.254   2.274   4.113
 4028SOL    HW212984   1.112   2.236   4.042
 4029SOL     OW12985   2.353   4.245   6.642
 4029SOL    HW112986   2.350   4.169   6.707
 4029SOL    HW212987   2.435   4.236   6.585
 4030SOL     OW12988   1.486   1.858   6.246
 4030SOL    HW112989   1.489   1.953   6.279
 4030SOL    HW212990   1.559   1.806   6.290
 4031SOL     OW12991   4.612   5.934   2.644
 4031SOL    HW112992   4.620   5.868   2.570
 4031SOL    HW212993   4.695   5.931   2.700
 4032SOL     OW12994   5.806   0.753   2.858
 4032SOL    HW112995   5.746   0.779   2.782
 4032SOL    HW212996   5.901   0.763   2.830
 4033SOL     OW12997   3.039   3.134   3.297
 4033SOL    HW112998   3.023   3.227   3.264
 4033SOL    HW212999   3.087   3.081   3.227
 4034SOL     OW13000   6.182   1.798   4.805
 4034SOL    HW113001   6.090   1.759   4.810
 4034SOL    HW213002   6.245   1.744   4.860
 4035SOL     OW13003   6.954   3.345   1.150
 4035SOL    HW113004   6.925   3.327   1.056
 4035SOL    HW213005   6.873   3.354   1.209
 4036SOL     OW13006   5.613   0.073   2.790
 4036SOL    HW113007   5.698   0.035   2.826
 4036SOL    HW213008   5.633   0.150   2.730
 4037SOL     OW13009   1.773   1.944   0.567
 4037SOL    HW113010   1.786   1.926   0.665
 4037SOL    HW213011   1.809   2.034   0.544
 4038SOL     OW13012   5.039   4.816   1.713
 4038SOL    HW113013   5.067   4.805   1.617
 4038SOL    HW213014   4.989   4.735   1.743
 4039SOL     OW13015   5.208   5.222   1.542
 4039SOL    HW113016   5.281   5.173   1.493
 4039SOL    HW213017   5.204   5.190   1.636
 4040SOL     OW13018   2.895   6.884   6.824
 4040SOL    HW113019   2.961   6.833   6.879
 4040SOL    HW213020   2.872   6.832   6.742
 4041SOL     OW13021   1.591   5.940   1.748
 4041SOL    HW113022   1.620   5.977   1.836
 4041SOL    HW213023   1.665   5.952   1.681
 4042SOL     OW13024   6.433   4.464   3.144
 4042SOL    HW113025   6.389   4.377   3.120
 4042SOL    HW213026   6.424   4.528   3.067
 4043SOL     OW13027   5.381   2.380   4.607
 4043SOL    HW113028   5.286   2.404   4.589
 4043SOL    HW213029   5.389   2.338   4.697
 4044SOL     OW13030   4.762   0.839   4.339
 4044SOL    HW113031   4.798   0.928   4.366
 4044SOL    HW213032   4.827   0.794   4.278
 4045SOL     OW13033   2.899   4.467   6.585
 4045SOL    HW113034   2.987   4.420   6.574
 4045SOL    HW213035   2.896   4.547   6.525
 4046SOL     OW13036   0.450   1.775   3.416
 4046SOL    HW113037   0.498   1.789   3.503
 4046SOL    HW213038   0.513   1.792   3.340
 4047SOL     OW13039   3.011   2.628   1.310
 4047SOL    HW113040   2.993   2.725   1.328
 4047SOL    HW213041   2.940   2.573   1.353
 4048SOL     OW13042   5.731   1.493   1.610
 4048SOL    HW113043   5.640   1.532   1.620
 4048SOL    HW213044   5.725   1.393   1.617
 4049SOL     OW13045   6.164   6.081   6.688
 4049SOL    HW113046   6.256   6.113   6.711
 4049SOL    HW213047   6.170   6.002   6.628
 4050SOL     OW13048   1.798   6.537   0.417
 4050SOL    HW113049   1.703   6.552   0.389
 4050SOL    HW213050   1.812   6.441   0.438
 4051SOL     OW13051   3.618   3.106   0.363
 4051SOL    HW113052   3.617   3.169   0.285
 4051SOL    HW213053   3.595   3.014   0.332
 4052SOL     OW13054   1.222   0.480   1.463
 4052SOL    HW113055   1.170   0.565   1.473
 4052SOL    HW213056   1.291   0.491   1.391
 4053SOL     OW13057   3.254   4.919   3.911
 4053SOL    HW113058   3.306   4.986   3.963
 4053SOL    HW213059   3.269   4.934   3.813
 4054SOL     OW13060   1.524   2.493   1.349
 4054SOL    HW113061   1.490   2.420   1.409
 4054SOL    HW213062   1.618   2.515   1.374
 4055SOL     OW13063   3.198   3.588   5.266
 4055SOL    HW113064   3.136   3.640   5.208
 4055SOL    HW213065   3.287   3.581   5.223
 4056SOL     OW13066   4.271   3.060   6.805
 4056SOL    HW113067   4.346   3.016   6.755
 4056SOL    HW213068   4.203   2.991   6.831
 4057SOL     OW13069   5.177   2.949   6.852
 4057SOL    HW113070   5.119   2.985   6.779
 4057SOL    HW213071   5.267   2.991   6.847
 4058SOL     OW13072   1.376   1.733   4.466
 4058SOL    HW113073   1.334   1.702   4.551
 4058SOL    HW213074   1.440   1.663   4.433
 4059SOL     OW13075   2.048   2.537   3.026
 4059SOL    HW113076   2.063   2.634   3.006
 4059SOL    HW213077   1.992   2.528   3.108
 4060SOL     OW13078   4.454   5.308   5.401
 4060SOL    HW113079   4.391   5.241   5.439
 4060SOL    HW213080   4.512   5.265   5.331
 4061SOL     OW13081   3.420   4.648   1.597
 4061SOL    HW113082   3.482   4.620   1.671
 4061SOL    HW213083   3.444   4.600   1.513
 4062SOL     OW13084   3.599   1.603   3.224
 4062SOL    HW113085   3.511   1.563   3.250
 4062SOL    HW213086   3.671   1.537   3.242
 4063SOL     OW13087   4.809   6.648   5.272
 4063SOL    HW113088   4.774   6.683   5.185
 4063SOL    HW213089   4.881   6.709   5.306
 4064SOL     OW13090   2.127   6.890   3.059
 4064SOL    HW113091   2.165   6.825   2.994
 4064SOL    HW213092   2.038   6.922   3.027
 4065SOL     OW13093   1.572   6.575   0.162
 4065SOL    HW113094   1.538   6.669   0.155
 4065SOL    HW213095   1.542   6.534   0.248
 4066SOL     OW13096   5.068   5.054   2.608
 4066SOL    HW113097   5.055   5.146   2.645
 4066SOL    HW213098   4.984   5.001   2.618
 4067SOL     OW13099   5.884   3.149   2.548
 4067SOL    HW113100   5.877   3.049   2.556
 4067SOL    HW213101   5.926   3.173   2.461
 4068SOL     OW13102   4.573   0.175   4.548
 4068SOL    HW113103   4.555   0.151   4.453
 4068SOL    HW213104   4.610   0.095   4.596
 4069SOL     OW13105   4.181   3.574   6.702
 4069SOL    HW113106   4.094   3.601   6.661
 4069SOL    HW213107   4.199   3.478   6.681
 4070SOL     OW13108   1.276   3.678   2.740
 4070SOL    HW113109   1.180   3.685   2.766
 4070SOL    HW213110   1.300   3.582   2.724
 4071SOL     OW13111   1.162   1.108   4.881
 4071SOL    HW113112   1.185   1.204   4.864
 4071SOL    HW213113   1.227   1.069   4.946
 4072SOL     OW13114   1.290   6.562   3.791
 4072SOL    HW113115   1.367   6.581   3.851
 4072SOL    HW213116   1.215   6.522   3.845
 4073SOL     OW13117   2.590   5.617   5.883
 4073SOL    HW113118   2.662   5.621   5.813
 4073SOL    HW213119   2.536   5.533   5.870
 4074SOL     OW13120   1.206   2.739   2.202
 4074SOL    HW113121   1.192   2.641   2.187
 4074SOL    HW213122   1.271   2.752   2.277
 4075SOL     OW13123   4.836   2.190   2.867
 4075SOL    HW113124   4.802   2.217   2.777
 4075SOL    HW213125   4.840   2.269   2.927
 4076SOL     OW13126   2.638   3.996   5.562
 4076SOL    HW113127   2.648   3.926   5.633
 4076SOL    HW213128   2.597   3.954   5.481
 4077SOL     OW13129   3.152   6.408   0.669
 4077SOL    HW113130   3.068   6.461   0.681
 4077SOL    HW213131   3.141   6.345   0.592
 4078SOL     OW13132   6.905   5.271   1.737
 4078SOL    HW113133   6.842   5.310   1.670
 4078SOL    HW213134   6.991   5.249   1.693
 4079SOL     OW13135   1.400   1.086   3.185
 4079SOL    HW113136   1.354   1.051   3.266
 4079SOL    HW213137   1.452   1.168   3.208
 4080SOL     OW13138   2.473   2.957   6.879
 4080SOL    HW113139   2.423   2.884   6.833
 4080SOL    HW213140   2.533   2.917   6.949
 4081SOL     OW13141   1.739   1.122   4.586
 4081SOL    HW113142   1.728   1.072   4.500
 4081SOL    HW213143   1.699   1.213   4.577
 4082SOL     OW13144   1.529   1.756   0.069
 4082SOL    HW113145   1.600   1.686   0.081
 4082SOL    HW213146   1.520   1.809   0.153
 4083SOL     OW13147   5.945   3.738   3.325
 4083SOL    HW113148   5.911   3.821   3.370
 4083SOL    HW213149   5.960   3.667   3.393
 4084SOL     OW13150   4.873   2.914   3.168
 4084SOL    HW113151   4.963   2.937   3.205
 4084SOL    HW213152   4.843   2.986   3.106
 4085SOL     OW13153   2.730   5.212   0.917
 4085SOL    HW113154   2.788   5.141   0.958
 4085SOL    HW213155   2.641   5.173   0.894
 4086SOL     OW13156   0.499   4.724   0.601
 4086SOL    HW113157   0.534   4.631   0.586
 4086SOL    HW213158   0.442   4.751   0.524
 4087SOL     OW13159   2.297   1.202   2.160
 4087SOL    HW113160   2.227   1.142   2.200
 4087SOL    HW213161   2.259   1.294   2.149
 4088SOL     OW13162   6.330   1.050   5.551
 4088SOL    HW113163   6.348   1.079   5.645
 4088SOL    HW213164   6.253   1.102   5.514
 4089SOL     OW13165   0.247   5.559   4.301
 4089SOL    HW113166   0.184   5.632   4.329
 4089SOL    HW213167   0.244   5.549   4.202
 4090SOL     OW13168   1.952   6.005   5.457
 4090SOL    HW113169   2.050   5.987   5.459
 4090SOL    HW213170   1.903   5.918   5.465
 4091SOL     OW13171   1.340   5.162   0.094
 4091SOL    HW113172   1.370   5.073   0.129
 4091SOL    HW213173   1.277   5.204   0.159
 4092SOL     OW13174   5.202   3.038   3.947
 4092SOL    HW113175   5.117   3.014   3.995
 4092SOL    HW213176   5.255   2.955   3.930
 4093SOL     OW13177   5.611   6.619   1.686
 4093SOL    HW113178   5.626   6.711   1.721
 4093SOL    HW213179   5.557   6.624   1.602
 4094SOL     OW13180   1.139   4.306   6.945
 4094SOL    HW113181   1.177   4.376   6.885
 4094SOL    HW213182   1.181   4.218   6.925
 4095SOL     OW13183   0.865   3.093   6.976
 4095SOL    HW113184   0.838   3.157   6.904
 4095SOL    HW213185   0.803   3.014   6.974
 4096SOL     OW13186   2.434   0.969   6.065
 4096SOL    HW113187   2.409   0.941   6.158
 4096SOL    HW213188   2.492   0.899   6.024
 4097SOL     OW13189   5.926   4.460   5.644
 4097SOL    HW113190   5.933   4.558   5.622
 4097SOL    HW213191   5.898   4.450   5.740
 4098SOL     OW13192   2.184   2.925   1.307
 4098SOL    HW113193   2.088   2.944   1.329
 4098SOL    HW213194   2.200   2.827   1.313
 4099SOL     OW13195   3.495   4.922   0.319
 4099SOL    HW113196   3.569   4.941   0.384
 4099SOL    HW213197   3.489   4.824   0.302
 4100SOL     OW13198   1.040   1.039   4.050
 4100SOL    HW113199   1.128   1.046   4.004
 4100SOL    HW213200   1.034   1.107   4.122
 4101SOL     OW13201   0.205   1.246   6.046
 4101SOL    HW113202   0.136   1.285   5.986
 4101SOL    HW213203   0.184   1.149   6.063
 4102SOL     OW13204   2.284   0.966   0.613
 4102SOL    HW113205   2.240   0.934   0.529
 4102SOL    HW213206   2.265   1.064   0.625
 4103SOL     OW13207   6.962   6.832   1.802
 4103SOL    HW113208   6.936   6.863   1.894
 4103SOL    HW213209   6.992   6.737   1.806
 4104SOL     OW13210   0.318   5.032   3.881
 4104SOL    HW113211   0.221   5.010   3.877
 4104SOL    HW213212   0.367   4.961   3.932
 4105SOL     OW13213   5.140   0.977   2.181
 4105SOL    HW113214   5.149   0.880   2.204
 4105SOL    HW213215   5.089   1.024   2.253
 4106SOL     OW13216   0.452   2.167   3.402
 4106SOL    HW113217   0.517   2.165   3.479
 4106SOL    HW213218   0.393   2.087   3.407
 4107SOL     OW13219   0.814   5.957   0.131
 4107SOL    HW113220   0.822   5.893   0.207
 4107SOL    HW213221   0.877   5.930   0.058
 4108SOL     OW13222   0.041   5.474   4.868
 4108SOL    HW113223   0.049   5.531   4.787
 4108SOL    HW213224   6.973   5.425   4.866
 4109SOL     OW13225   5.364   6.661   4.256
 4109SOL    HW113226   5.317   6.734   4.307
 4109SOL    HW213227   5.439   6.701   4.203
 4110SOL     OW13228   3.652   3.289   6.334
 4110SOL    HW113229   3.593   3.288   6.253
 4110SOL    HW213230   3.730   3.349   6.318
 4111SOL     OW13231   6.356   5.036   6.486
 4111SOL    HW113232   6.268   5.072   6.456
 4111SOL    HW213233   6.413   5.016   6.406
 4112SOL     OW13234   4.942   7.013   4.399
 4112SOL    HW113235   4.972   0.088   4.413
 4112SOL    HW213236   4.934   6.995   4.300
 4113SOL     OW13237   4.897   5.684   4.663
 4113SOL    HW113238   4.935   5.595   4.689
 4113SOL    HW213239   4.915   5.750   4.736
 4114SOL     OW13240   6.583   1.863   3.036
 4114SOL    HW113241   6.542   1.931   2.975
 4114SOL    HW213242   6.659   1.818   2.989
 4115SOL     OW13243   3.036   4.815   3.233
 4115SOL    HW113244   3.060   4.880   3.305
 4115SOL    HW213245   2.936   4.802   3.233
 4116SOL     OW13246   4.507   2.226   3.623
 4116SOL    HW113247   4.416   2.221   3.582
 4116SOL    HW213248   4.514   2.158   3.697
 4117SOL     OW13249   1.637   2.273   3.340
 4117SOL    HW113250   1.557   2.233   3.296
 4117SOL    HW213251   1.693   2.201   3.380
 4118SOL     OW13252   5.464   6.576   6.448
 4118SOL    HW113253   5.407   6.499   6.476
 4118SOL    HW213254   5.539   6.543   6.391
 4119SOL     OW13255   3.189   1.128   3.324
 4119SOL    HW113256   3.222   1.144   3.230
 4119SOL    HW213257   3.172   1.216   3.368
 4120SOL     OW13258   3.696   1.354   6.159
 4120SOL    HW113259   3.771   1.357   6.225
 4120SOL    HW213260   3.688   1.443   6.113
 4121SOL     OW13261   6.554   0.247   2.571
 4121SOL    HW113262   6.553   0.291   2.660
 4121SOL    HW213263   6.608   0.163   2.576
 4122SOL     OW13264   1.831   6.875   5.038
 4122SOL    HW113265   1.794   6.967   5.044
 4122SOL    HW213266   1.887   6.867   4.956
 4123SOL     OW13267   3.940   4.864   4.172
 4123SOL    HW113268   3.944   4.839   4.075
 4123SOL    HW213269   3.844   4.873   4.199
 4124SOL     OW13270   6.770   6.602   1.212
 4124SOL    HW113271   6.870   6.614   1.208
 4124SOL    HW213272   6.739   6.614   1.306
 4125SOL     OW13273   4.658   2.289   2.684
 4125SOL    HW113274   4.603   2.365   2.718
 4125SOL    HW213275   4.677   2.302   2.587
 4126SOL     OW13276   2.078   3.602   2.619
 4126SOL    HW113277   2.065   3.604   2.718
 4126SOL    HW213278   1.991   3.584   2.574
 4127SOL     OW13279   5.407   2.432   5.422
 4127SOL    HW113280   5.371   2.340   5.403
 4127SOL    HW213281   5.430   2.439   5.520
 4128SOL     OW13282   0.854   3.548   1.434
 4128SOL    HW113283   0.765   3.583   1.405
 4128SOL    HW213284   0.912   3.534   1.353
 4129SOL     OW13285   3.539   1.218   0.698
 4129SOL    HW113286   3.634   1.196   0.678
 4129SOL    HW213287   3.496   1.257   0.617
 4130SOL     OW13288   6.189   2.235   0.401
 4130SOL    HW113289   6.154   2.156   0.452
 4130SOL    HW213290   6.245   2.202   0.325
 4131SOL     OW13291   7.017   1.406   2.983
 4131SOL    HW113292   7.014   1.495   2.938
 4131SOL    HW213293   0.089   1.369   2.978
 4132SOL     OW13294   5.386   4.173   4.655
 4132SOL    HW113295   5.432   4.140   4.738
 4132SOL    HW213296   5.395   4.272   4.650
 4133SOL     OW13297   4.064   6.344   1.581
 4133SOL    HW113298   4.004   6.409   1.627
 4133SOL    HW213299   4.012   6.264   1.553
 4134SOL     OW13300   2.266   3.573   0.648
 4134SOL    HW113301   2.309   3.487   0.621
 4134SOL    HW213302   2.228   3.618   0.567
 4135SOL     OW13303   0.304   2.520   2.298
 4135SOL    HW113304   0.262   2.580   2.366
 4135SOL    HW213305   0.316   2.429   2.337
 4136SOL     OW13306   1.179   4.070   2.310
 4136SOL    HW113307   1.152   4.147   2.253
 4136SOL    HW213308   1.138   4.079   2.400
 4137SOL     OW13309   1.534   3.216   6.589
 4137SOL    HW113310   1.592   3.164   6.527
 4137SOL    HW213311   1.539   3.313   6.565
 4138SOL     OW13312   3.848   5.154   1.403
 4138SOL    HW113313   3.940   5.191   1.418
 4138SOL    HW213314   3.853   5.076   1.341
 4139SOL     OW13315   1.347   1.610   3.751
 4139SOL    HW113316   1.372   1.589   3.657
 4139SOL    HW213317   1.426   1.594   3.810
 4140SOL     OW13318   3.075   1.766   4.139
 4140SOL    HW113319   3.042   1.688   4.192
 4140SOL    HW213320   3.149   1.736   4.078
 4141SOL     OW13321   5.405   7.010   1.073
 4141SOL    HW113322   5.492   0.014   1.117
 4141SOL    HW213323   5.417   6.927   1.019
 4142SOL     OW13324   6.134   3.914   1.737
 4142SOL    HW113325   6.189   3.993   1.764
 4142SOL    HW213326   6.189   3.831   1.745
 4143SOL     OW13327   5.839   2.832   0.232
 4143SOL    HW113328   5.793   2.833   0.321
 4143SOL    HW213329   5.937   2.812   0.246
 4144SOL     OW13330   4.842   1.506   0.003
 4144SOL    HW113331   4.920   1.568   7.016
 4144SOL    HW213332   4.766   1.541   6.969
 4145SOL     OW13333   0.821   6.319   0.430
 4145SOL    HW113334   0.766   6.267   0.364
 4145SOL    HW213335   0.831   6.413   0.397
 4146SOL     OW13336   6.576   0.748   3.667
 4146SOL    HW113337   6.585   0.668   3.726
 4146SOL    HW213338   6.586   0.720   3.571
 4147SOL     OW13339   4.866   4.517   6.566
 4147SOL    HW113340   4.916   4.511   6.480
 4147SOL    HW213341   4.768   4.527   6.547
 4148SOL     OW13342   2.944   0.474   5.506
 4148SOL    HW113343   2.932   0.515   5.596
 4148SOL    HW213344   2.885   0.520   5.440
 4149SOL     OW13345   0.457   3.362   1.537
 4149SOL    HW113346   0.458   3.326   1.444
 4149SOL    HW213347   0.426   3.291   1.600
 4150SOL     OW13348   0.222   1.897   5.289
 4150SOL    HW113349   0.172   1.839   5.224
 4150SOL    HW213350   0.235   1.847   5.375
 4151SOL     OW13351   2.832   5.823   6.222
 4151SOL    HW113352   2.764   5.831   6.149
 4151SOL    HW213353   2.799   5.757   6.290
 4152SOL     OW13354   3.852   5.563   1.411
 4152SOL    HW113355   3.934   5.506   1.410
 4152SOL    HW213356   3.824   5.581   1.505
 4153SOL     OW13357   5.965   5.105   1.474
 4153SOL    HW113358   5.975   5.031   1.541
 4153SOL    HW213359   6.053   5.150   1.461
 4154SOL     OW13360   0.082   6.255   3.831
 4154SOL    HW113361   0.146   6.328   3.856
 4154SOL    HW213362   0.017   6.241   3.906
 4155SOL     OW13363   0.256   1.598   0.669
 4155SOL    HW113364   0.348   1.637   0.677
 4155SOL    HW213365   0.261   1.498   0.680
 4156SOL     OW13366   6.504   5.622   4.951
 4156SOL    HW113367   6.433   5.563   4.989
 4156SOL    HW213368   6.538   5.684   5.021
 4157SOL     OW13369   5.102   6.329   3.458
 4157SOL    HW113370   5.072   6.417   3.420
 4157SOL    HW213371   5.094   6.331   3.557
 4158SOL     OW13372   0.804   2.891   2.174
 4158SOL    HW113373   0.864   2.822   2.132
 4158SOL    HW213374   0.856   2.976   2.187
 4159SOL     OW13375   2.121   2.506   3.562
 4159SOL    HW113376   2.157   2.561   3.487
 4159SOL    HW213377   2.026   2.533   3.580
 4160SOL     OW13378   5.683   6.729   6.980
 4160SOL    HW113379   5.748   6.778   6.922
 4160SOL    HW213380   5.697   6.755   0.056
 4161SOL     OW13381   1.801   2.062   1.553
 4161SOL    HW113382   1.761   2.153   1.565
 4161SOL    HW213383   1.851   2.036   1.636
 4162SOL     OW13384   6.443   5.770   0.332
 4162SOL    HW113385   6.401   5.731   0.414
 4162SOL    HW213386   6.468   5.865   0.349
 4163SOL     OW13387   5.806   1.342   3.367
 4163SOL    HW113388   5.711   1.374   3.363
 4163SOL    HW213389   5.833   1.309   3.276
 4164SOL     OW13390   1.303   0.074   4.556
 4164SOL    HW113391   1.312   0.161   4.605
 4164SOL    HW213392   1.206   0.054   4.542
 4165SOL     OW13393   4.973   0.349   5.503
 4165SOL    HW113394   4.996   0.414   5.431
 4165SOL    HW213395   4.980   0.394   5.592
 4166SOL     OW13396   5.100   1.233   1.577
 4166SOL    HW113397   5.036   1.310   1.575
 4166SOL    HW213398   5.078   1.173   1.654
 4167SOL     OW13399   3.527   4.847   6.901
 4167SOL    HW113400   3.517   4.750   6.921
 4167SOL    HW213401   3.484   4.869   6.814
 4168SOL     OW13402   0.077   3.757   1.190
 4168SOL    HW113403   0.075   3.712   1.280
 4168SOL    HW213404   7.010   3.804   1.174
 4169SOL     OW13405   6.003   4.720   5.063
 4169SOL    HW113406   6.057   4.641   5.036
 4169SOL    HW213407   6.034   4.754   5.152
 4170SOL     OW13408   4.904   3.103   5.116
 4170SOL    HW113409   4.986   3.045   5.113
 4170SOL    HW213410   4.879   3.121   5.211
 4171SOL     OW13411   6.674   5.001   1.298
 4171SOL    HW113412   6.699   4.980   1.393
 4171SOL    HW213413   6.635   4.920   1.255
 4172SOL     OW13414   2.417   2.470   0.147
 4172SOL    HW113415   2.407   2.394   0.082
 4172SOL    HW213416   2.356   2.545   0.119
 4173SOL     OW13417   5.426   3.337   4.880
 4173SOL    HW113418   5.443   3.273   4.806
 4173SOL    HW213419   5.330   3.333   4.907
 4174SOL     OW13420   4.897   1.596   2.285
 4174SOL    HW113421   4.973   1.637   2.336
 4174SOL    HW213422   4.812   1.640   2.312
 4175SOL     OW13423   1.877   4.503   4.749
 4175SOL    HW113424   1.938   4.552   4.688
 4175SOL    HW213425   1.930   4.456   4.819
 4176SOL     OW13426   4.263   6.696   1.241
 4176SOL    HW113427   4.316   6.709   1.325
 4176SOL    HW213428   4.266   6.600   1.215
 4177SOL     OW13429   5.637   4.903   5.497
 4177SOL    HW113430   5.634   4.971   5.423
 4177SOL    HW213431   5.571   4.831   5.478
 4178SOL     OW13432   4.235   0.013   3.681
 4178SOL    HW113433   4.192   6.943   3.684
 4178SOL    HW213434   4.196   0.071   3.753
 4179SOL     OW13435   5.238   3.999   3.275
 4179SOL    HW113436   5.322   3.948   3.257
 4179SOL    HW213437   5.177   3.993   3.196
 4180SOL     OW13438   4.644   2.374   0.579
 4180SOL    HW113439   4.656   2.470   0.552
 4180SOL    HW213440   4.595   2.325   0.507
 4181SOL     OW13441   4.062   0.665   6.853
 4181SOL    HW113442   4.007   0.589   6.818
 4181SOL    HW213443   4.033   0.686   6.946
 4182SOL     OW13444   0.355   5.534   3.495
 4182SOL    HW113445   0.280   5.473   3.470
 4182SOL    HW213446   0.322   5.604   3.559
 4183SOL     OW13447   2.740   1.863   0.610
 4183SOL    HW113448   2.702   1.892   0.523
 4183SOL    HW213449   2.681   1.893   0.685
 4184SOL     OW13450   3.436   6.803   2.251
 4184SOL    HW113451   3.395   6.768   2.335
 4184SOL    HW213452   3.383   6.881   2.218
 4185SOL     OW13453   0.495   4.510   3.294
 4185SOL    HW113454   0.411   4.561   3.312
 4185SOL    HW213455   0.541   4.547   3.213
 4186SOL     OW13456   2.271   5.007   6.725
 4186SOL    HW113457   2.305   4.975   6.637
 4186SOL    HW213458   2.208   4.939   6.763
 4187SOL     OW13459   2.528   3.171   5.644
 4187SOL    HW113460   2.443   3.214   5.614
 4187SOL    HW213461   2.508   3.081   5.682
 4188SOL     OW13462   5.377   0.644   5.135
 4188SOL    HW113463   5.371   0.614   5.230
 4188SOL    HW213464   5.291   0.623   5.088
 4189SOL     OW13465   3.236   4.896   4.385
 4189SOL    HW113466   3.159   4.892   4.449
 4189SOL    HW213467   3.206   4.865   4.295
 4190SOL     OW13468   0.952   0.352   1.380
 4190SOL    HW113469   0.896   0.323   1.458
 4190SOL    HW213470   1.046   0.367   1.411
 4191SOL     OW13471   5.006   4.598   4.577
 4191SOL    HW113472   5.027   4.657   4.499
 4191SOL    HW213473   4.934   4.534   4.553
 4192SOL     OW13474   0.417   1.623   3.166
 4192SOL    HW113475   0.427   1.718   3.197
 4192SOL    HW213476   0.356   1.574   3.228
 4193SOL     OW13477   5.899   0.367   0.891
 4193SOL    HW113478   5.869   0.443   0.835
 4193SOL    HW213479   5.835   0.290   0.880
 4194SOL     OW13480   4.782   0.470   4.446
 4194SOL    HW113481   4.688   0.461   4.480
 4194SOL    HW213482   4.781   0.466   4.346
 4195SOL     OW13483   4.201   5.330   1.747
 4195SOL    HW113484   4.165   5.363   1.660
 4195SOL    HW213485   4.127   5.288   1.800
 4196SOL     OW13486   6.155   2.995   2.805
 4196SOL    HW113487   6.162   3.071   2.741
 4196SOL    HW213488   6.154   3.031   2.899
 4197SOL     OW13489   4.778   5.601   5.815
 4197SOL    HW113490   4.687   5.563   5.832
 4197SOL    HW213491   4.774   5.664   5.738
 4198SOL     OW13492   5.856   2.223   0.770
 4198SOL    HW113493   5.926   2.180   0.827
 4198SOL    HW213494   5.786   2.264   0.829
 4199SOL     OW13495   1.036   2.690   5.906
 4199SOL    HW113496   1.080   2.771   5.866
 4199SOL    HW213497   1.105   2.623   5.930
 4200SOL     OW13498   3.133   0.230   6.222
 4200SOL    HW113499   3.041   0.193   6.211
 4200SOL    HW213500   3.155   0.290   6.144
 4201SOL     OW13501   5.532   6.840   3.437
 4201SOL    HW113502   5.453   6.889   3.399
 4201SOL    HW213503   5.572   6.894   3.511
 4202SOL     OW13504   3.210   5.426   6.254
 4202SOL    HW113505   3.166   5.353   6.305
 4202SOL    HW213506   3.140   5.487   6.216
 4203SOL     OW13507   4.248   4.001   0.350
 4203SOL    HW113508   4.196   4.069   0.402
 4203SOL    HW213509   4.340   4.035   0.332
 4204SOL     OW13510   4.111   3.676   4.281
 4204SOL    HW113511   4.108   3.774   4.300
 4204SOL    HW213512   4.122   3.661   4.183
 4205SOL     OW13513   4.418   6.531   4.457
 4205SOL    HW113514   4.459   6.543   4.367
 4205SOL    HW213515   4.477   6.473   4.513
 4206SOL     OW13516   6.147   1.227   5.455
 4206SOL    HW113517   6.161   1.324   5.433
 4206SOL    HW213518   6.056   1.215   5.494
 4207SOL     OW13519   2.308   2.363   2.000
 4207SOL    HW113520   2.391   2.402   2.038
 4207SOL    HW213521   2.266   2.428   1.937
 4208SOL     OW13522   6.975   3.800   5.433
 4208SOL    HW113523   6.931   3.737   5.368
 4208SOL    HW213524   6.952   3.894   5.409
 4209SOL     OW13525   6.895   6.524   4.070
 4209SOL    HW113526   6.970   6.546   4.006
 4209SOL    HW213527   6.906   6.577   4.153
 4210SOL     OW13528   3.763   3.639   2.472
 4210SOL    HW113529   3.856   3.652   2.437
 4210SOL    HW213530   3.697   3.679   2.408
 4211SOL     OW13531   3.665   0.977   6.013
 4211SOL    HW113532   3.671   0.894   5.957
 4211SOL    HW213533   3.730   0.972   6.088
 4212SOL     OW13534   6.201   2.271   2.638
 4212SOL    HW113535   6.202   2.192   2.700
 4212SOL    HW213536   6.248   2.247   2.553
 4213SOL     OW13537   2.397   0.360   2.246
 4213SOL    HW113538   2.346   0.304   2.311
 4213SOL    HW213539   2.387   0.457   2.269
 4214SOL     OW13540   0.960   5.875   5.447
 4214SOL    HW113541   0.935   5.866   5.351
 4214SOL    HW213542   1.054   5.844   5.460
 4215SOL     OW13543   4.492   0.039   6.158
 4215SOL    HW113544   4.441   0.107   6.211
 4215SOL    HW213545   4.435   0.005   6.083
 4216SOL     OW13546   1.686   0.940   3.121
 4216SOL    HW113547   1.765   1.002   3.119
 4216SOL    HW213548   1.602   0.993   3.110
 4217SOL     OW13549   1.091   0.999   3.129
 4217SOL    HW113550   1.099   0.957   3.038
 4217SOL    HW213551   1.181   1.032   3.158
 4218SOL     OW13552   3.461   1.193   1.609
 4218SOL    HW113553   3.392   1.149   1.666
 4218SOL    HW213554   3.481   1.135   1.530
 4219SOL     OW13555   3.795   5.720   4.012
 4219SOL    HW113556   3.786   5.803   4.067
 4219SOL    HW213557   3.859   5.737   3.937
 4220SOL     OW13558   6.850   3.136   3.357
 4220SOL    HW113559   6.755   3.142   3.326
 4220SOL    HW213560   6.853   3.143   3.457
 4221SOL     OW13561   6.061   5.282   6.228
 4221SOL    HW113562   5.988   5.312   6.166
 4221SOL    HW213563   6.142   5.258   6.175
 4222SOL     OW13564   0.409   1.556   1.892
 4222SOL    HW113565   0.455   1.608   1.964
 4222SOL    HW213566   0.360   1.479   1.932
 4223SOL     OW13567   3.602   3.365   0.222
 4223SOL    HW113568   3.628   3.424   0.299
 4223SOL    HW213569   3.620   3.413   0.136
 4224SOL     OW13570   5.293   4.567   4.063
 4224SOL    HW113571   5.313   4.665   4.065
 4224SOL    HW213572   5.373   4.517   4.030
 4225SOL     OW13573   2.646   2.606   5.214
 4225SOL    HW113574   2.568   2.658   5.246
 4225SOL    HW213575   2.642   2.598   5.114
 4226SOL     OW13576   0.483   6.868   2.753
 4226SOL    HW113577   0.483   6.932   2.675
 4226SOL    HW213578   0.577   6.851   2.782
 4227SOL     OW13579   3.628   5.280   1.531
 4227SOL    HW113580   3.629   5.249   1.626
 4227SOL    HW213581   3.691   5.224   1.477
 4228SOL     OW13582   1.404   5.533   5.182
 4228SOL    HW113583   1.467   5.548   5.259
 4228SOL    HW213584   1.354   5.447   5.197
 4229SOL     OW13585   4.672   6.326   6.109
 4229SOL    HW113586   4.711   6.307   6.199
 4229SOL    HW213587   4.653   6.240   6.061
 4230SOL     OW13588   0.380   5.626   2.796
 4230SOL    HW113589   0.290   5.664   2.774
 4230SOL    HW213590   0.447   5.656   2.728
 4231SOL     OW13591   5.697   6.775   5.938
 4231SOL    HW113592   5.599   6.768   5.955
 4231SOL    HW213593   5.743   6.693   5.973
 4232SOL     OW13594   0.250   4.617   3.381
 4232SOL    HW113595   0.241   4.716   3.394
 4232SOL    HW213596   0.164   4.579   3.349
 4233SOL     OW13597   6.286   7.020   6.043
 4233SOL    HW113598   6.381   6.988   6.033
 4233SOL    HW213599   6.278   0.055   6.126
 4234SOL     OW13600   2.274   5.689   4.913
 4234SOL    HW113601   2.357   5.636   4.929
 4234SOL    HW213602   2.281   5.776   4.961
 4235SOL     OW13603   5.364   4.308   6.104
 4235SOL    HW113604   5.443   4.341   6.157
 4235SOL    HW213605   5.395   4.241   6.038
 4236SOL     OW13606   6.379   3.544   2.232
 4236SOL    HW113607   6.421   3.505   2.150
 4236SOL    HW213608   6.313   3.614   2.206
 4237SOL     OW13609   5.449   5.969   3.449
 4237SOL    HW113610   5.501   5.889   3.477
 4237SOL    HW213611   5.423   6.023   3.529
 4238SOL     OW13612   2.107   6.252   2.354
 4238SOL    HW113613   2.033   6.273   2.418
 4238SOL    HW213614   2.152   6.337   2.326
 4239SOL     OW13615   5.120   0.821   2.511
 4239SOL    HW113616   5.151   0.898   2.566
 4239SOL    HW213617   5.023   0.832   2.488
 4240SOL     OW13618   2.442   5.768   0.446
 4240SOL    HW113619   2.472   5.856   0.408
 4240SOL    HW213620   2.470   5.761   0.541
 4241SOL     OW13621   5.897   0.873   0.150
 4241SOL    HW113622   5.936   0.857   0.241
 4241SOL    HW213623   5.972   0.879   0.083
 4242SOL     OW13624   3.403   1.855   4.009
 4242SOL    HW113625   3.426   1.805   4.093
 4242SOL    HW213626   3.428   1.951   4.020
 4243SOL     OW13627   6.481   3.166   2.550
 4243SOL    HW113628   6.414   3.228   2.592
 4243SOL    HW213629   6.539   3.128   2.621
 4244SOL     OW13630   4.303   4.368   1.732
 4244SOL    HW113631   4.372   4.323   1.788
 4244SOL    HW213632   4.293   4.463   1.762
 4245SOL     OW13633   6.775   1.107   6.187
 4245SOL    HW113634   6.726   1.064   6.111
 4245SOL    HW213635   6.723   1.187   6.219
 4246SOL     OW13636   6.888   4.059   3.108
 4246SOL    HW113637   6.845   4.099   3.027
 4246SOL    HW213638   6.846   3.971   3.128
 4247SOL     OW13639   2.604   6.263   3.676
 4247SOL    HW113640   2.530   6.275   3.610
 4247SOL    HW213641   2.689   6.301   3.639
 4248SOL     OW13642   3.723   1.410   3.564
 4248SOL    HW113643   3.635   1.457   3.560
 4248SOL    HW213644   3.714   1.326   3.616
 4249SOL     OW13645   5.965   2.921   4.576
 4249SOL    HW113646   6.034   2.964   4.519
 4249SOL    HW213647   5.934   2.836   4.533
 4250SOL     OW13648   6.493   4.764   2.598
 4250SOL    HW113649   6.412   4.709   2.576
 4250SOL    HW213650   6.547   4.717   2.668
 4251SOL     OW13651   5.524   4.570   1.392
 4251SOL    HW113652   5.603   4.631   1.388
 4251SOL    HW213653   5.553   4.477   1.371
 4252SOL     OW13654   5.592   6.016   5.824
 4252SOL    HW113655   5.565   5.923   5.851
 4252SOL    HW213656   5.647   6.057   5.897
 4253SOL     OW13657   3.530   6.523   0.751
 4253SOL    HW113658   3.582   6.439   0.768
 4253SOL    HW213659   3.479   6.548   0.833
 4254SOL     OW13660   0.678   3.049   1.966
 4254SOL    HW113661   0.747   3.040   1.895
 4254SOL    HW213662   0.707   3.000   2.048
 4255SOL     OW13663   6.069   3.899   3.725
 4255SOL    HW113664   6.160   3.868   3.754
 4255SOL    HW213665   6.018   3.931   3.804
 4256SOL     OW13666   2.278   6.744   0.130
 4256SOL    HW113667   2.318   6.757   0.220
 4256SOL    HW213668   2.179   6.733   0.138
 4257SOL     OW13669   2.622   0.494   4.430
 4257SOL    HW113670   2.598   0.433   4.505
 4257SOL    HW213671   2.575   0.465   4.347
 4258SOL     OW13672   4.870   6.386   0.757
 4258SOL    HW113673   4.901   6.421   0.846
 4258SOL    HW213674   4.886   6.288   0.753
 4259SOL     OW13675   2.726   1.088   0.671
 4259SOL    HW113676   2.791   1.014   0.684
 4259SOL    HW213677   2.760   1.171   0.713
 4260SOL     OW13678   5.133   0.549   0.603
 4260SOL    HW113679   5.172   0.507   0.685
 4260SOL    HW213680   5.188   0.524   0.523
 4261SOL     OW13681   1.944   6.965   1.865
 4261SOL    HW113682   1.859   7.019   1.870
 4261SOL    HW213683   2.017   0.002   1.828
 4262SOL     OW13684   0.553   4.868   5.867
 4262SOL    HW113685   0.491   4.795   5.842
 4262SOL    HW213686   0.575   4.861   5.965
 4263SOL     OW13687   2.422   6.304   3.435
 4263SOL    HW113688   2.438   6.207   3.418
 4263SOL    HW213689   2.324   6.321   3.448
 4264SOL     OW13690   0.315   2.597   2.928
 4264SOL    HW113691   0.263   2.530   2.981
 4264SOL    HW213692   0.264   2.622   2.846
 4265SOL     OW13693   5.362   1.630   0.802
 4265SOL    HW113694   5.353   1.656   0.898
 4265SOL    HW213695   5.367   1.712   0.746
 4266SOL     OW13696   1.714   5.403   0.379
 4266SOL    HW113697   1.812   5.391   0.360
 4266SOL    HW213698   1.675   5.470   0.316
 4267SOL     OW13699   1.718   3.437   4.667
 4267SOL    HW113700   1.777   3.371   4.621
 4267SOL    HW213701   1.622   3.410   4.656
 4268SOL     OW13702   1.315   5.903   6.340
 4268SOL    HW113703   1.349   5.854   6.420
 4268SOL    HW213704   1.392   5.938   6.288
 4269SOL     OW13705   2.367   0.700   1.728
 4269SOL    HW113706   2.374   0.764   1.805
 4269SOL    HW213707   2.304   0.627   1.752
 4270SOL     OW13708   4.149   3.578   4.039
 4270SOL    HW113709   4.233   3.528   4.019
 4270SOL    HW213710   4.101   3.599   3.954
 4271SOL     OW13711   6.726   0.996   6.437
 4271SOL    HW113712   6.736   1.074   6.499
 4271SOL    HW213713   6.752   1.024   6.345
 4272SOL     OW13714   6.281   2.921   4.748
 4272SOL    HW113715   6.370   2.939   4.790
 4272SOL    HW213716   6.242   3.007   4.716
 4273SOL     OW13717   4.453   6.819   4.942
 4273SOL    HW113718   4.456   6.786   4.847
 4273SOL    HW213719   4.372   6.876   4.954
 4274SOL     OW13720   1.173   6.246   1.684
 4274SOL    HW113721   1.264   6.205   1.682
 4274SOL    HW213722   1.127   6.231   1.596
 4275SOL     OW13723   6.687   0.571   3.894
 4275SOL    HW113724   6.676   0.660   3.937
 4275SOL    HW213725   6.597   0.534   3.871
 4276SOL     OW13726   1.978   5.080   3.138
 4276SOL    HW113727   2.036   5.157   3.111
 4276SOL    HW213728   2.019   4.995   3.106
 4277SOL     OW13729   6.409   4.280   4.300
 4277SOL    HW113730   6.368   4.281   4.209
 4277SOL    HW213731   6.338   4.295   4.369
 4278SOL     OW13732   0.151   0.240   4.257
 4278SOL    HW113733   0.066   0.253   4.309
 4278SOL    HW213734   0.148   0.152   4.210
 4279SOL     OW13735   3.161   1.105   4.117
 4279SOL    HW113736   3.246   1.089   4.066
 4279SOL    HW213737   3.147   1.032   4.184
 4280SOL     OW13738   4.704   0.285   6.156
 4280SOL    HW113739   4.606   0.299   6.165
 4280SOL    HW213740   4.723   0.188   6.140
 4281SOL     OW13741   0.643   4.989   3.895
 4281SOL    HW113742   0.585   5.005   3.975
 4281SOL    HW213743   0.651   5.074   3.843
 4282SOL     OW13744   3.740   4.217   6.067
 4282SOL    HW113745   3.764   4.213   6.164
 4282SOL    HW213746   3.821   4.200   6.012
 4283SOL     OW13747   1.458   0.907   3.665
 4283SOL    HW113748   1.364   0.907   3.702
 4283SOL    HW213749   1.478   0.818   3.625
 4284SOL     OW13750   4.257   4.626   1.791
 4284SOL    HW113751   4.174   4.619   1.735
 4284SOL    HW213752   4.307   4.709   1.765
 4285SOL     OW13753   0.508   0.709   6.140
 4285SOL    HW113754   0.473   0.621   6.172
 4285SOL    HW213755   0.593   0.731   6.188
 4286SOL     OW13756   4.507   5.943   5.891
 4286SOL    HW113757   4.429   6.006   5.884
 4286SOL    HW213758   4.549   5.952   5.981
 4287SOL     OW13759   5.753   2.567   6.366
 4287SOL    HW113760   5.705   2.624   6.433
 4287SOL    HW213761   5.704   2.569   6.279
 4288SOL     OW13762   0.743   6.340   3.550
 4288SOL    HW113763   0.787   6.319   3.637
 4288SOL    HW213764   0.813   6.361   3.481
 4289SOL     OW13765   6.817   2.896   0.636
 4289SOL    HW113766   6.767   2.816   0.601
 4289SOL    HW213767   6.784   2.917   0.728
 4290SOL     OW13768   1.504   6.820   2.668
 4290SOL    HW113769   1.560   6.902   2.660
 4290SOL    HW213770   1.563   6.741   2.683
 4291SOL     OW13771   4.242   3.473   1.511
 4291SOL    HW113772   4.318   3.411   1.527
 4291SOL    HW213773   4.251   3.553   1.570
 4292SOL     OW13774   6.291   4.054   0.122
 4292SOL    HW113775   6.379   4.098   0.132
 4292SOL    HW213776   6.218   4.122   0.130
 4293SOL     OW13777   2.139   3.290   0.279
 4293SOL    HW113778   2.197   3.213   0.308
 4293SOL    HW213779   2.044   3.260   0.271
 4294SOL     OW13780   2.626   2.986   6.646
 4294SOL    HW113781   2.723   3.005   6.664
 4294SOL    HW213782   2.573   3.007   6.728
 4295SOL     OW13783   4.068   5.230   3.843
 4295SOL    HW113784   4.041   5.226   3.939
 4295SOL    HW213785   4.160   5.192   3.832
 4296SOL     OW13786   4.118   0.501   0.323
 4296SOL    HW113787   4.217   0.494   0.321
 4296SOL    HW213788   4.087   0.510   0.418
 4297SOL     OW13789   5.115   1.046   6.577
 4297SOL    HW113790   5.130   0.981   6.651
 4297SOL    HW213791   5.020   1.074   6.575
 4298SOL     OW13792   3.663   5.635   0.791
 4298SOL    HW113793   3.676   5.698   0.868
 4298SOL    HW213794   3.733   5.563   0.795
 4299SOL     OW13795   1.164   2.580   6.477
 4299SOL    HW113796   1.239   2.515   6.470
 4299SOL    HW213797   1.198   2.668   6.511
 4300SOL     OW13798   4.074   0.351   0.032
 4300SOL    HW113799   3.980   0.321   0.019
 4300SOL    HW213800   4.076   0.432   0.090
 4301SOL     OW13801   4.024   1.498   1.602
 4301SOL    HW113802   3.987   1.503   1.695
 4301SOL    HW213803   4.040   1.403   1.578
 4302SOL     OW13804   1.188   6.642   6.044
 4302SOL    HW113805   1.171   6.557   6.093
 4302SOL    HW213806   1.246   6.624   5.965
 4303SOL     OW13807   6.752   4.800   4.499
 4303SOL    HW113808   6.663   4.827   4.536
 4303SOL    HW213809   6.749   4.807   4.399
 4304SOL     OW13810   3.077   3.915   3.148
 4304SOL    HW113811   3.142   3.991   3.142
 4304SOL    HW213812   3.050   3.887   3.056
 4305SOL     OW13813   6.310   0.520   4.549
 4305SOL    HW113814   6.219   0.480   4.564
 4305SOL    HW213815   6.327   0.527   4.451
 4306SOL     OW13816   5.632   3.775   6.635
 4306SOL    HW113817   5.581   3.789   6.550
 4306SOL    HW213818   5.569   3.752   6.709
 4307SOL     OW13819   3.896   4.127   6.270
 4307SOL    HW113820   3.916   4.052   6.208
 4307SOL    HW213821   3.951   4.117   6.354
 4308SOL     OW13822   5.781   5.396   6.800
 4308SOL    HW113823   5.688   5.397   6.835
 4308SOL    HW213824   5.783   5.346   6.713
 4309SOL     OW13825   0.784   1.238   0.043
 4309SOL    HW113826   0.763   1.292   0.125
 4309SOL    HW213827   0.781   1.141   0.066
 4310SOL     OW13828   1.503   2.789   2.743
 4310SOL    HW113829   1.584   2.815   2.690
 4310SOL    HW213830   1.491   2.690   2.739
 4311SOL     OW13831   1.853   6.192   3.205
 4311SOL    HW113832   1.879   6.099   3.234
 4311SOL    HW213833   1.876   6.204   3.108
 4312SOL     OW13834   1.363   4.629   0.970
 4312SOL    HW113835   1.279   4.658   0.925
 4312SOL    HW213836   1.440   4.637   0.907
 4313SOL     OW13837   4.923   1.533   2.004
 4313SOL    HW113838   4.964   1.441   2.003
 4313SOL    HW213839   4.882   1.551   2.093
 4314SOL     OW13840   6.041   0.861   3.984
 4314SOL    HW113841   6.051   0.805   4.066
 4314SOL    HW213842   6.102   0.828   3.912
 4315SOL     OW13843   2.157   0.125   1.467
 4315SOL    HW113844   2.183   0.220   1.484
 4315SOL    HW213845   2.158   0.108   1.369
 4316SOL     OW13846   5.183   0.411   2.116
 4316SOL    HW113847   5.166   0.463   2.032
 4316SOL    HW213848   5.112   0.342   2.127
 4317SOL     OW13849   4.627   1.730   4.539
 4317SOL    HW113850   4.614   1.661   4.610
 4317SOL    HW213851   4.568   1.710   4.461
 4318SOL     OW13852   0.656   3.932   4.732
 4318SOL    HW113853   0.585   3.888   4.786
 4318SOL    HW213854   0.622   3.948   4.639
 4319SOL     OW13855   2.191   2.625   0.946
 4319SOL    HW113856   2.218   2.556   1.013
 4319SOL    HW213857   2.123   2.686   0.987
 4320SOL     OW13858   6.433   5.956   1.351
 4320SOL    HW113859   6.528   5.975   1.377
 4320SOL    HW213860   6.374   6.031   1.382
 4321SOL     OW13861   6.953   6.871   5.659
 4321SOL    HW113862   0.017   6.821   5.638
 4321SOL    HW213863   6.877   6.806   5.666
 4322SOL     OW13864   6.560   2.619   6.464
 4322SOL    HW113865   6.596   2.535   6.504
 4322SOL    HW213866   6.590   2.697   6.519
 4323SOL     OW13867   4.694   3.880   0.945
 4323SOL    HW113868   4.659   3.834   1.026
 4323SOL    HW213869   4.648   3.969   0.935
 4324SOL     OW13870   5.574   4.323   6.291
 4324SOL    HW113871   5.533   4.343   6.379
 4324SOL    HW213872   5.657   4.269   6.304
 4325SOL     OW13873   2.476   1.434   1.498
 4325SOL    HW113874   2.493   1.516   1.444
 4325SOL    HW213875   2.460   1.459   1.594
 4326SOL     OW13876   4.766   4.915   5.247
 4326SOL    HW113877   4.779   4.859   5.165
 4326SOL    HW213878   4.803   5.006   5.231
 4327SOL     OW13879   5.952   5.818   1.994
 4327SOL    HW113880   6.033   5.830   1.937
 4327SOL    HW213881   5.971   5.851   2.086
 4328SOL     OW13882   4.695   3.686   5.435
 4328SOL    HW113883   4.609   3.733   5.419
 4328SOL    HW213884   4.731   3.652   5.348
 4329SOL     OW13885   4.152   1.358   5.743
 4329SOL    HW113886   4.075   1.341   5.803
 4329SOL    HW213887   4.134   1.438   5.686
 4330SOL     OW13888   2.678   0.157   4.921
 4330SOL    HW113889   2.682   0.189   4.827
 4330SOL    HW213890   2.711   0.228   4.983
 4331SOL     OW13891   5.659   2.288   1.423
 4331SOL    HW113892   5.598   2.230   1.477
 4331SOL    HW213893   5.653   2.262   1.326
 4332SOL     OW13894   5.035   4.296   2.435
 4332SOL    HW113895   4.953   4.312   2.490
 4332SOL    HW213896   5.053   4.198   2.428
 4333SOL     OW13897   3.728   0.256   4.984
 4333SOL    HW113898   3.646   0.227   4.934
 4333SOL    HW213899   3.806   0.199   4.956
 4334SOL     OW13900   1.736   2.822   2.614
 4334SOL    HW113901   1.825   2.807   2.657
 4334SOL    HW213902   1.745   2.890   2.541
 4335SOL     OW13903   3.850   3.437   2.634
 4335SOL    HW113904   3.821   3.359   2.579
 4335SOL    HW213905   3.827   3.522   2.587
 4336SOL     OW13906   2.143   6.445   6.975
 4336SOL    HW113907   2.129   6.529   0.007
 4336SOL    HW213908   2.065   6.428   6.915
 4337SOL     OW13909   0.298   4.227   0.723
 4337SOL    HW113910   0.198   4.225   0.730
 4337SOL    HW213911   0.335   4.291   0.790
 4338SOL     OW13912   5.563   5.752   5.060
 4338SOL    HW113913   5.595   5.671   5.012
 4338SOL    HW213914   5.612   5.760   5.147
 4339SOL     OW13915   5.499   3.408   5.131
 4339SOL    HW113916   5.497   3.448   5.039
 4339SOL    HW213917   5.406   3.393   5.162
 4340SOL     OW13918   6.595   3.486   1.371
 4340SOL    HW113919   6.658   3.408   1.370
 4340SOL    HW213920   6.551   3.495   1.282
 4341SOL     OW13921   0.728   5.887   1.920
 4341SOL    HW113922   0.738   5.876   2.019
 4341SOL    HW213923   0.818   5.889   1.877
 4342SOL     OW13924   6.010   3.579   4.191
 4342SOL    HW113925   6.019   3.678   4.186
 4342SOL    HW213926   5.918   3.556   4.223
 4343SOL     OW13927   2.617   5.884   5.441
 4343SOL    HW113928   2.599   5.794   5.480
 4343SOL    HW213929   2.535   5.918   5.395
 4344SOL     OW13930   1.294   5.308   2.525
 4344SOL    HW113931   1.231   5.251   2.579
 4344SOL    HW213932   1.266   5.404   2.531
 4345SOL     OW13933   3.084   3.214   5.184
 4345SOL    HW113934   3.091   3.205   5.085
 4345SOL    HW213935   3.013   3.153   5.218
 4346SOL     OW13936   1.715   2.974   2.369
 4346SOL    HW113937   1.754   2.972   2.277
 4346SOL    HW213938   1.735   3.062   2.411
 4347SOL     OW13939   6.187   7.000   2.872
 4347SOL    HW113940   6.223   0.034   2.795
 4347SOL    HW213941   6.229   0.012   2.957
 4348SOL     OW13942   6.978   4.474   3.044
 4348SOL    HW113943   7.017   4.382   3.037
 4348SOL    HW213944   6.964   4.512   2.953
 4349SOL     OW13945   0.037   1.625   2.828
 4349SOL    HW113946   0.127   1.669   2.826
 4349SOL    HW213947   6.986   1.693   2.808
 4350SOL     OW13948   5.196   1.418   4.130
 4350SOL    HW113949   5.168   1.511   4.156
 4350SOL    HW213950   5.237   1.372   4.208
 4351SOL     OW13951   2.281   5.451   1.300
 4351SOL    HW113952   2.261   5.549   1.311
 4351SOL    HW213953   2.376   5.440   1.271
 4352SOL     OW13954   0.725   3.179   2.714
 4352SOL    HW113955   0.682   3.243   2.649
 4352SOL    HW213956   0.657   3.113   2.746
 4353SOL     OW13957   3.712   3.485   6.591
 4353SOL    HW113958   3.663   3.447   6.513
 4353SOL    HW213959   3.670   3.453   6.676
 4354SOL     OW13960   2.357   0.001   5.691
 4354SOL    HW113961   2.441   6.980   5.654
 4354SOL    HW213962   2.316   0.061   5.623
 4355SOL     OW13963   2.848   0.150   2.353
 4355SOL    HW113964   2.889   0.204   2.427
 4355SOL    HW213965   2.764   0.107   2.386
 4356SOL     OW13966   5.259   4.190   0.849
 4356SOL    HW113967   5.274   4.254   0.924
 4356SOL    HW213968   5.169   4.147   0.859
 4357SOL     OW13969   6.357   0.828   0.227
 4357SOL    HW113970   6.314   0.869   0.308
 4357SOL    HW213971   6.420   0.894   0.186
 4358SOL     OW13972   0.540   6.338   0.048
 4358SOL    HW113973   0.592   6.294   0.121
 4358SOL    HW213974   0.601   6.360   6.992
 4359SOL     OW13975   2.472   1.946   6.708
 4359SOL    HW113976   2.545   1.972   6.645
 4359SOL    HW213977   2.387   1.933   6.658
 4360SOL     OW13978   1.284   2.120   3.794
 4360SOL    HW113979   1.258   2.024   3.804
 4360SOL    HW213980   1.250   2.172   3.873
 4361SOL     OW13981   2.587   3.150   1.066
 4361SOL    HW113982   2.531   3.095   1.004
 4361SOL    HW213983   2.617   3.093   1.143
 4362SOL     OW13984   5.817   5.519   3.229
 4362SOL    HW113985   5.820   5.524   3.129
 4362SOL    HW213986   5.750   5.450   3.256
 4363SOL     OW13987   5.014   3.137   0.480
 4363SOL    HW113988   4.969   3.049   0.467
 4363SOL    HW213989   4.956   3.210   0.445
 4364SOL     OW13990   2.930   3.759   4.722
 4364SOL    HW113991   2.927   3.828   4.794
 4364SOL    HW213992   2.898   3.672   4.757
 4365SOL     OW13993   2.174   1.567   1.756
 4365SOL    HW113994   2.260   1.531   1.791
 4365SOL    HW213995   2.161   1.660   1.789
 4366SOL     OW13996   6.400   6.911   0.223
 4366SOL    HW113997   6.347   6.944   0.301
 4366SOL    HW213998   6.363   6.823   0.192
 4367SOL     OW13999   2.455   4.576   4.900
 4367SOL    HW114000   2.410   4.504   4.953
 4367SOL    HW214001   2.512   4.631   4.961
 4368SOL     OW14002   3.903   4.214   1.323
 4368SOL    HW114003   3.860   4.209   1.233
 4368SOL    HW214004   4.001   4.202   1.313
 4369SOL     OW14005   4.378   5.381   3.019
 4369SOL    HW114006   4.310   5.440   3.061
 4369SOL    HW214007   4.402   5.417   2.929
 4370SOL     OW14008   4.439   5.330   2.609
 4370SOL    HW114009   4.475   5.245   2.646
 4370SOL    HW214010   4.498   5.363   2.535
 4371SOL     OW14011   1.025   2.177   1.530
 4371SOL    HW114012   1.116   2.134   1.534
 4371SOL    HW214013   0.967   2.137   1.601
 4372SOL     OW14014   3.247   1.584   2.931
 4372SOL    HW114015   3.292   1.509   2.883
 4372SOL    HW214016   3.229   1.557   3.025
 4373SOL     OW14017   6.820   2.396   6.497
 4373SOL    HW114018   6.850   2.319   6.441
 4373SOL    HW214019   6.877   2.476   6.479
 4374SOL     OW14020   1.450   1.898   1.870
 4374SOL    HW114021   1.439   1.996   1.887
 4374SOL    HW214022   1.360   1.854   1.873
 4375SOL     OW14023   4.074   0.042   2.933
 4375SOL    HW114024   4.096   0.051   2.836
 4375SOL    HW214025   4.133   0.102   2.987
 4376SOL     OW14026   0.039   6.312   1.250
 4376SOL    HW114027   0.025   6.404   1.215
 4376SOL    HW214028   0.024   6.246   1.176
 4377SOL     OW14029   5.328   4.321   1.057
 4377SOL    HW114030   5.246   4.357   1.103
 4377SOL    HW214031   5.409   4.366   1.094
 4378SOL     OW14032   2.262   2.051   2.681
 4378SOL    HW114033   2.338   2.052   2.745
 4378SOL    HW214034   2.188   2.109   2.717
 4379SOL     OW14035   2.055   1.283   2.485
 4379SOL    HW114036   2.055   1.382   2.483
 4379SOL    HW214037   2.147   1.249   2.503
 4380SOL     OW14038   0.990   6.832   2.213
 4380SOL    HW114039   0.919   6.886   2.258
 4380SOL    HW214040   0.983   6.737   2.242
 4381SOL     OW14041   0.668   5.386   5.162
 4381SOL    HW114042   0.599   5.407   5.092
 4381SOL    HW214043   0.623   5.380   5.251
 4382SOL     OW14044   0.128   2.848   5.056
 4382SOL    HW114045   0.169   2.872   5.144
 4382SOL    HW214046   0.029   2.850   5.064
 4383SOL     OW14047   0.763   2.687   6.568
 4383SOL    HW114048   0.747   2.786   6.578
 4383SOL    HW214049   0.835   2.658   6.631
 4384SOL     OW14050   5.638   0.335   4.880
 4384SOL    HW114051   5.679   0.367   4.794
 4384SOL    HW214052   5.650   0.405   4.950
 4385SOL     OW14053   5.722   2.225   5.271
 4385SOL    HW114054   5.706   2.314   5.313
 4385SOL    HW214055   5.769   2.239   5.183
 4386SOL     OW14056   1.682   4.194   5.619
 4386SOL    HW114057   1.745   4.197   5.541
 4386SOL    HW214058   1.691   4.279   5.671
 4387SOL     OW14059   0.054   2.208   1.578
 4387SOL    HW114060   0.135   2.235   1.630
 4387SOL    HW214061   0.015   2.288   1.532
 4388SOL     OW14062   4.474   2.292   6.018
 4388SOL    HW114063   4.388   2.297   6.070
 4388SOL    HW214064   4.484   2.200   5.980
 4389SOL     OW14065   6.264   3.335   1.404
 4389SOL    HW114066   6.174   3.352   1.364
 4389SOL    HW214067   6.295   3.416   1.453
 4390SOL     OW14068   3.614   7.009   1.453
 4390SOL    HW114069   3.634   0.085   1.433
 4390SOL    HW214070   3.692   6.969   1.502
 4391SOL     OW14071   2.228   5.614   6.920
 4391SOL    HW114072   2.134   5.623   6.890
 4391SOL    HW214073   2.286   5.590   6.842
 4392SOL     OW14074   6.460   3.290   5.383
 4392SOL    HW114075   6.504   3.202   5.368
 4392SOL    HW214076   6.390   3.282   5.453
 4393SOL     OW14077   6.301   0.884   2.434
 4393SOL    HW114078   6.262   0.894   2.342
 4393SOL    HW214079   6.368   0.956   2.449
 4394SOL     OW14080   6.664   5.434   2.073
 4394SOL    HW114081   6.672   5.529   2.106
 4394SOL    HW214082   6.586   5.390   2.117
 4395SOL     OW14083   1.675   6.993   1.999
 4395SOL    HW114084   1.621   6.917   2.034
 4395SOL    HW214085   1.626   0.016   1.922
 4396SOL     OW14086   2.590   2.138   4.520
 4396SOL    HW114087   2.577   2.040   4.503
 4396SOL    HW214088   2.626   2.182   4.438
 4397SOL     OW14089   1.292   2.353   4.268
 4397SOL    HW114090   1.213   2.407   4.298
 4397SOL    HW214091   1.372   2.378   4.322
 4398SOL     OW14092   0.535   3.858   5.815
 4398SOL    HW114093   0.632   3.848   5.794
 4398SOL    HW214094   0.515   3.819   5.905
 4399SOL     OW14095   2.888   6.725   2.928
 4399SOL    HW114096   2.824   6.759   2.997
 4399SOL    HW214097   2.848   6.736   2.837
 4400SOL     OW14098   2.467   6.432   5.549
 4400SOL    HW114099   2.462   6.528   5.575
 4400SOL    HW214100   2.523   6.382   5.616
 4401SOL     OW14101   2.766   6.871   5.683
 4401SOL    HW114102   2.720   6.900   5.599
 4401SOL    HW214103   2.724   6.917   5.761
 4402SOL     OW14104   1.802   0.955   2.437
 4402SOL    HW114105   1.810   1.043   2.390
 4402SOL    HW214106   1.889   0.905   2.429
 4403SOL     OW14107   1.065   0.869   0.571
 4403SOL    HW114108   1.054   0.934   0.496
 4403SOL    HW214109   0.995   0.797   0.564
 4404SOL     OW14110   1.542   5.935   5.896
 4404SOL    HW114111   1.520   5.873   5.971
 4404SOL    HW214112   1.463   5.944   5.836
 4405SOL     OW14113   1.835   3.946   2.134
 4405SOL    HW114114   1.813   4.004   2.056
 4405SOL    HW214115   1.752   3.901   2.167
 4406SOL     OW14116   0.757   3.003   1.014
 4406SOL    HW114117   0.810   3.028   0.933
 4406SOL    HW214118   0.805   3.036   1.096
 4407SOL     OW14119   6.465   5.522   0.884
 4407SOL    HW114120   6.407   5.495   0.807
 4407SOL    HW214121   6.552   5.556   0.849
 4408SOL     OW14122   2.597   0.199   1.057
 4408SOL    HW114123   2.537   0.141   1.112
 4408SOL    HW214124   2.563   0.293   1.057
 4409SOL     OW14125   4.588   1.388   2.170
 4409SOL    HW114126   4.658   1.322   2.147
 4409SOL    HW214127   4.623   1.452   2.239
 4410SOL     OW14128   1.089   4.769   0.030
 4410SOL    HW114129   1.018   4.699   0.038
 4410SOL    HW214130   1.053   4.848   7.001
 4411SOL     OW14131   3.620   4.260   5.430
 4411SOL    HW114132   3.587   4.166   5.431
 4411SOL    HW214133   3.690   4.271   5.359
 4412SOL     OW14134   4.448   6.225   4.141
 4412SOL    HW114135   4.443   6.320   4.109
 4412SOL    HW214136   4.506   6.221   4.223
 4413SOL     OW14137   5.614   4.529   4.256
 4413SOL    HW114138   5.700   4.511   4.303
 4413SOL    HW214139   5.553   4.450   4.266
 4414SOL     OW14140   3.284   5.735   1.301
 4414SOL    HW114141   3.358   5.791   1.337
 4414SOL    HW214142   3.216   5.721   1.373
 4415SOL     OW14143   5.054   2.764   0.292
 4415SOL    HW114144   5.145   2.723   0.303
 4415SOL    HW214145   5.037   2.781   0.195
 4416SOL     OW14146   3.730   1.846   3.843
 4416SOL    HW114147   3.802   1.787   3.806
 4416SOL    HW214148   3.703   1.913   3.773
 4417SOL     OW14149   5.565   3.807   4.211
 4417SOL    HW114150   5.465   3.801   4.205
 4417SOL    HW214151   5.590   3.876   4.279
 4418SOL     OW14152   5.979   1.981   2.219
 4418SOL    HW114153   5.900   2.043   2.225
 4418SOL    HW214154   6.054   2.027   2.173
 4419SOL     OW14155   5.828   6.566   6.062
 4419SOL    HW114156   5.877   6.616   6.134
 4419SOL    HW214157   5.894   6.519   6.004
 4420SOL     OW14158   4.310   1.333   2.132
 4420SOL    HW114159   4.281   1.266   2.200
 4420SOL    HW214160   4.410   1.341   2.133
 4421SOL     OW14161   1.871   1.557   4.746
 4421SOL    HW114162   1.847   1.628   4.680
 4421SOL    HW214163   1.788   1.526   4.793
 4422SOL     OW14164   1.229   4.070   6.896
 4422SOL    HW114165   1.177   3.986   6.903
 4422SOL    HW214166   1.316   4.053   6.850
 4423SOL     OW14167   0.274   3.537   5.491
 4423SOL    HW114168   0.198   3.474   5.478
 4423SOL    HW214169   0.241   3.620   5.536
 4424SOL     OW14170   5.267   0.658   4.533
 4424SOL    HW114171   5.240   0.754   4.536
 4424SOL    HW214172   5.203   0.607   4.475
 4425SOL     OW14173   2.394   4.527   0.255
 4425SOL    HW114174   2.488   4.558   0.245
 4425SOL    HW214175   2.382   4.485   0.345
 4426SOL     OW14176   0.712   1.111   4.073
 4426SOL    HW114177   0.724   1.019   4.037
 4426SOL    HW214178   0.769   1.175   4.021
 4427SOL     OW14179   6.494   5.933   2.332
 4427SOL    HW114180   6.418   5.933   2.266
 4427SOL    HW214181   6.461   5.903   2.421
 4428SOL     OW14182   4.061   0.937   3.515
 4428SOL    HW114183   4.091   1.032   3.523
 4428SOL    HW214184   4.137   0.876   3.535
 4429SOL     OW14185   3.241   6.992   2.187
 4429SOL    HW114186   3.277   7.002   2.095
 4429SOL    HW214187   3.142   7.006   2.187
 4430SOL     OW14188   4.827   4.862   5.504
 4430SOL    HW114189   4.798   4.878   5.409
 4430SOL    HW214190   4.871   4.944   5.540
 4431SOL     OW14191   2.822   1.444   2.846
 4431SOL    HW114192   2.804   1.542   2.848
 4431SOL    HW214193   2.898   1.422   2.907
 4432SOL     OW14194   2.760   3.504   5.640
 4432SOL    HW114195   2.689   3.526   5.707
 4432SOL    HW214196   2.777   3.584   5.582
 4433SOL     OW14197   5.783   1.794   4.324
 4433SOL    HW114198   5.774   1.769   4.420
 4433SOL    HW214199   5.789   1.711   4.268
 4434SOL     OW14200   5.419   1.200   2.648
 4434SOL    HW114201   5.472   1.130   2.600
 4434SOL    HW214202   5.422   1.183   2.746
 4435SOL     OW14203   4.285   4.044   1.094
 4435SOL    HW114204   4.224   3.965   1.083
 4435SOL    HW214205   4.341   4.054   1.011
 4436SOL     OW14206   4.259   0.741   1.314
 4436SOL    HW114207   4.214   0.664   1.268
 4436SOL    HW214208   4.358   0.731   1.307
 4437SOL     OW14209   1.092   2.970   2.896
 4437SOL    HW114210   1.192   2.971   2.886
 4437SOL    HW214211   1.050   2.981   2.806
 4438SOL     OW14212   4.853   0.140   6.557
 4438SOL    HW114213   4.933   0.081   6.571
 4438SOL    HW214214   4.881   0.235   6.555
 4439SOL     OW14215   6.883   4.012   1.891
 4439SOL    HW114216   6.878   4.111   1.897
 4439SOL    HW214217   6.979   3.984   1.880
 4440SOL     OW14218   2.650   4.595   0.719
 4440SOL    HW114219   2.561   4.634   0.697
 4440SOL    HW214220   2.642   4.532   0.796
 4441SOL     OW14221   0.924   1.525   2.133
 4441SOL    HW114222   0.890   1.518   2.227
 4441SOL    HW214223   0.930   1.622   2.107
 4442SOL     OW14224   1.595   4.926   4.250
 4442SOL    HW114225   1.589   4.829   4.273
 4442SOL    HW214226   1.663   4.970   4.308
 4443SOL     OW14227   1.580   3.202   5.548
 4443SOL    HW114228   1.516   3.185   5.623
 4443SOL    HW214229   1.672   3.214   5.585
 4444SOL     OW14230   3.489   4.039   6.061
 4444SOL    HW114231   3.446   3.983   5.991
 4444SOL    HW214232   3.584   4.010   6.074
 4445SOL     OW14233   1.943   6.376   6.802
 4445SOL    HW114234   1.857   6.332   6.826
 4445SOL    HW214235   1.930   6.436   6.723
 4446SOL     OW14236   5.130   1.865   1.482
 4446SOL    HW114237   5.174   1.777   1.465
 4446SOL    HW214238   5.180   1.937   1.435
 4447SOL     OW14239   5.138   4.800   6.022
 4447SOL    HW114240   5.066   4.748   5.975
 4447SOL    HW214241   5.126   4.897   6.004
 4448SOL     OW14242   2.457   4.502   1.369
 4448SOL    HW114243   2.389   4.459   1.429
 4448SOL    HW214244   2.501   4.577   1.418
 4449SOL     OW14245   5.267   1.165   6.001
 4449SOL    HW114246   5.223   1.117   6.077
 4449SOL    HW214247   5.289   1.099   5.929
 4450SOL     OW14248   4.014   2.485   5.886
 4450SOL    HW114249   3.942   2.517   5.824
 4450SOL    HW214250   4.016   2.385   5.886
 4451SOL     OW14251   5.327   4.433   3.535
 4451SOL    HW114252   5.347   4.374   3.613
 4451SOL    HW214253   5.356   4.388   3.450
 4452SOL     OW14254   5.733   5.918   4.315
 4452SOL    HW114255   5.713   5.821   4.324
 4452SOL    HW214256   5.721   5.946   4.220
 4453SOL     OW14257   1.272   2.631   1.325
 4453SOL    HW114258   1.341   2.559   1.314
 4453SOL    HW214259   1.210   2.629   1.246
 4454SOL     OW14260   1.320   1.570   7.015
 4454SOL    HW114261   1.267   1.516   0.060
 4454SOL    HW214262   1.353   1.653   0.041
 4455SOL     OW14263   5.271   5.767   5.608
 4455SOL    HW114264   5.184   5.810   5.586
 4455SOL    HW214265   5.300   5.794   5.700
 4456SOL     OW14266   2.362   6.224   2.904
 4456SOL    HW114267   2.293   6.230   2.977
 4456SOL    HW214268   2.408   6.136   2.909
 4457SOL     OW14269   3.521   1.456   2.869
 4457SOL    HW114270   3.494   1.421   2.958
 4457SOL    HW214271   3.537   1.555   2.875
 4458SOL     OW14272   2.088   2.862   0.308
 4458SOL    HW114273   2.072   2.951   0.352
 4458SOL    HW214274   2.119   2.797   0.377
 4459SOL     OW14275   3.940   2.015   4.601
 4459SOL    HW114276   3.921   2.057   4.512
 4459SOL    HW214277   3.964   2.087   4.667
 4460SOL     OW14278   1.540   3.176   6.885
 4460SOL    HW114279   1.456   3.202   6.932
 4460SOL    HW214280   1.547   3.229   6.800
 4461SOL     OW14281   2.148   0.786   0.839
 4461SOL    HW114282   2.181   0.706   0.889
 4461SOL    HW214283   2.216   0.813   0.771
 4462SOL     OW14284   6.331   4.604   1.926
 4462SOL    HW114285   6.360   4.608   2.021
 4462SOL    HW214286   6.374   4.678   1.874
 4463SOL     OW14287   4.851   0.761   0.508
 4463SOL    HW114288   4.811   0.827   0.572
 4463SOL    HW214289   4.860   0.672   0.553
 4464SOL     OW14290   6.905   5.463   0.516
 4464SOL    HW114291   6.967   5.454   0.439
 4464SOL    HW214292   6.882   5.559   0.530
 4465SOL     OW14293   4.047   5.110   1.074
 4465SOL    HW114294   4.085   5.126   0.983
 4465SOL    HW214295   4.015   5.196   1.113
 4466SOL     OW14296   1.200   1.669   2.776
 4466SOL    HW114297   1.239   1.584   2.811
 4466SOL    HW214298   1.273   1.726   2.738
 4467SOL     OW14299   1.448   5.838   3.222
 4467SOL    HW114300   1.398   5.793   3.296
 4467SOL    HW214301   1.534   5.789   3.205
 4468SOL     OW14302   1.541   4.032   0.525
 4468SOL    HW114303   1.524   4.058   0.620
 4468SOL    HW214304   1.627   3.982   0.518
 4469SOL     OW14305   3.290   0.580   1.746
 4469SOL    HW114306   3.298   0.539   1.837
 4469SOL    HW214307   3.351   0.659   1.740
 4470SOL     OW14308   0.486   1.592   2.148
 4470SOL    HW114309   0.477   1.492   2.145
 4470SOL    HW214310   0.557   1.617   2.214
 4471SOL     OW14311   1.363   2.400   6.448
 4471SOL    HW114312   1.461   2.377   6.447
 4471SOL    HW214313   1.314   2.335   6.390
 4472SOL     OW14314   0.987   3.122   1.862
 4472SOL    HW114315   1.054   3.055   1.894
 4472SOL    HW214316   1.027   3.178   1.790
 4473SOL     OW14317   5.729   3.051   4.303
 4473SOL    HW114318   5.637   3.015   4.293
 4473SOL    HW214319   5.747   3.072   4.399
 4474SOL     OW14320   2.473   0.062   2.034
 4474SOL    HW114321   2.536   0.133   2.066
 4474SOL    HW214322   2.501   0.030   1.944
 4475SOL     OW14323   1.038   4.294   2.188
 4475SOL    HW114324   1.107   4.256   2.127
 4475SOL    HW214325   1.038   4.394   2.181
 4476SOL     OW14326   5.901   1.095   3.239
 4476SOL    HW114327   5.945   1.011   3.270
 4476SOL    HW214328   5.863   1.144   3.317
 4477SOL     OW14329   1.247   0.263   5.348
 4477SOL    HW114330   1.268   0.361   5.341
 4477SOL    HW214331   1.150   0.252   5.370
 4478SOL     OW14332   3.078   0.434   2.330
 4478SOL    HW114333   3.115   0.380   2.255
 4478SOL    HW214334   3.021   0.508   2.294
 4479SOL     OW14335   0.481   2.147   1.139
 4479SOL    HW114336   0.518   2.151   1.232
 4479SOL    HW214337   0.459   2.239   1.108
 4480SOL     OW14338   0.392   4.550   4.836
 4480SOL    HW114339   0.426   4.470   4.785
 4480SOL    HW214340   0.292   4.548   4.838
 4481SOL     OW14341   3.072   5.044   4.579
 4481SOL    HW114342   3.126   5.126   4.597
 4481SOL    HW214343   3.011   5.061   4.501
 4482SOL     OW14344   1.825   2.944   5.102
 4482SOL    HW114345   1.883   2.939   5.021
 4482SOL    HW214346   1.731   2.921   5.077
 4483SOL     OW14347   6.341   2.609   2.271
 4483SOL    HW114348   6.393   2.532   2.235
 4483SOL    HW214349   6.250   2.577   2.299
 4484SOL     OW14350   3.603   2.137   6.514
 4484SOL    HW114351   3.579   2.227   6.477
 4484SOL    HW214352   3.521   2.094   6.553
 4485SOL     OW14353   5.804   2.516   4.544
 4485SOL    HW114354   5.886   2.572   4.544
 4485SOL    HW214355   5.819   2.435   4.487
 4486SOL     OW14356   6.352   5.721   5.429
 4486SOL    HW114357   6.432   5.782   5.431
 4486SOL    HW214358   6.378   5.631   5.464
 4487SOL     OW14359   2.805   2.752   6.237
 4487SOL    HW114360   2.850   2.696   6.167
 4487SOL    HW214361   2.758   2.828   6.193
 4488SOL     OW14362   0.556   3.578   5.655
 4488SOL    HW114363   0.513   3.656   5.610
 4488SOL    HW214364   0.524   3.573   5.750
 4489SOL     OW14365   5.255   5.586   4.854
 4489SOL    HW114366   5.329   5.603   4.789
 4489SOL    HW214367   5.219   5.673   4.888
 4490SOL     OW14368   5.380   1.829   1.973
 4490SOL    HW114369   5.453   1.762   1.964
 4490SOL    HW214370   5.299   1.785   2.013
 4491SOL     OW14371   0.092   3.516   3.657
 4491SOL    HW114372   7.015   3.531   3.638
 4491SOL    HW214373   0.141   3.604   3.653
 4492SOL     OW14374   5.724   4.695   2.670
 4492SOL    HW114375   5.738   4.599   2.645
 4492SOL    HW214376   5.681   4.744   2.594
 4493SOL     OW14377   5.363   5.830   4.519
 4493SOL    HW114378   5.265   5.815   4.514
 4493SOL    HW214379   5.411   5.752   4.479
 4494SOL     OW14380   0.333   1.138   6.487
 4494SOL    HW114381   0.389   1.063   6.453
 4494SOL    HW214382   0.390   1.203   6.538
 4495SOL     OW14383   4.095   0.257   3.821
 4495SOL    HW114384   4.029   0.279   3.750
 4495SOL    HW214385   4.165   0.328   3.826
 4496SOL     OW14386   5.642   6.560   1.196
 4496SOL    HW114387   5.615   6.634   1.135
 4496SOL    HW214388   5.674   6.599   1.283
 4497SOL     OW14389   4.537   2.241   6.528
 4497SOL    HW114390   4.549   2.243   6.429
 4497SOL    HW214391   4.471   2.169   6.552
 4498SOL     OW14392   0.132   3.740   6.802
 4498SOL    HW114393   0.086   3.781   6.723
 4498SOL    HW214394   0.122   3.641   6.798
 4499SOL     OW14395   6.248   3.278   3.931
 4499SOL    HW114396   6.215   3.317   3.845
 4499SOL    HW214397   6.262   3.352   3.997
 4500SOL     OW14398   3.343   3.262   4.965
 4500SOL    HW114399   3.422   3.268   5.026
 4500SOL    HW214400   3.290   3.180   4.986
 4501SOL     OW14401   6.753   3.814   3.163
 4501SOL    HW114402   6.673   3.812   3.222
 4501SOL    HW214403   6.723   3.812   3.067
 4502SOL     OW14404   0.770   2.813   6.882
 4502SOL    HW114405   0.756   2.781   6.976
 4502SOL    HW214406   0.856   2.777   6.847
 4503SOL     OW14407   3.526   6.980   1.717
 4503SOL    HW114408   3.592   6.915   1.755
 4503SOL    HW214409   3.508   6.957   1.621
 4504SOL     OW14410   0.269   0.787   4.612
 4504SOL    HW114411   0.210   0.868   4.621
 4504SOL    HW214412   0.266   0.754   4.518
 4505SOL     OW14413   6.045   4.809   2.061
 4505SOL    HW114414   5.952   4.845   2.063
 4505SOL    HW214415   6.068   4.780   1.968
 4506SOL     OW14416   4.704   2.776   3.360
 4506SOL    HW114417   4.671   2.701   3.302
 4506SOL    HW214418   4.770   2.831   3.309
 4507SOL     OW14419   6.240   4.193   3.850
 4507SOL    HW114420   6.202   4.211   3.759
 4507SOL    HW214421   6.338   4.211   3.850
 4508SOL     OW14422   1.411   5.237   6.848
 4508SOL    HW114423   1.443   5.143   6.842
 4508SOL    HW214424   1.406   5.264   6.945
 4509SOL     OW14425   4.799   2.198   3.282
 4509SOL    HW114426   4.843   2.264   3.221
 4509SOL    HW214427   4.706   2.182   3.251
 4510SOL     OW14428   4.264   2.291   4.015
 4510SOL    HW114429   4.313   2.350   3.951
 4510SOL    HW214430   4.180   2.259   3.974
 4511SOL     OW14431   5.797   3.549   6.288
 4511SOL    HW114432   5.755   3.488   6.355
 4511SOL    HW214433   5.734   3.625   6.269
 4512SOL     OW14434   2.901   0.897   5.990
 4512SOL    HW114435   2.815   0.846   5.986
 4512SOL    HW214436   2.888   0.987   5.949
 4513SOL     OW14437   0.469   4.801   6.252
 4513SOL    HW114438   0.456   4.895   6.281
 4513SOL    HW214439   0.442   4.739   6.326
 4514SOL     OW14440   3.066   2.372   5.949
 4514SOL    HW114441   3.005   2.431   5.896
 4514SOL    HW214442   3.087   2.290   5.897
 4515SOL     OW14443   6.005   1.886   5.534
 4515SOL    HW114444   5.997   1.985   5.519
 4515SOL    HW214445   6.016   1.868   5.632
 4516SOL     OW14446   2.385   0.156   0.237
 4516SOL    HW114447   2.464   0.100   0.214
 4516SOL    HW214448   2.316   0.099   0.282
 4517SOL     OW14449   4.656   6.334   6.740
 4517SOL    HW114450   4.714   6.299   6.667
 4517SOL    HW214451   4.596   6.406   6.705
 4518SOL     OW14452   6.975   0.056   2.350
 4518SOL    HW114453   7.014   0.132   2.298
 4518SOL    HW214454   6.958   6.999   2.289
 4519SOL     OW14455   5.647   0.157   1.147
 4519SOL    HW114456   5.601   0.245   1.128
 4519SOL    HW214457   5.721   0.143   1.081
 4520SOL     OW14458   3.860   6.467   6.216
 4520SOL    HW114459   3.874   6.401   6.142
 4520SOL    HW214460   3.791   6.431   6.279
 4521SOL     OW14461   5.975   2.190   5.628
 4521SOL    HW114462   5.883   2.177   5.663
 4521SOL    HW214463   6.036   2.216   5.703
 4522SOL     OW14464   5.695   5.508   3.697
 4522SOL    HW114465   5.599   5.487   3.719
 4522SOL    HW214466   5.752   5.484   3.775
 4523SOL     OW14467   1.086   4.244   0.204
 4523SOL    HW114468   1.102   4.276   0.111
 4523SOL    HW214469   1.174   4.226   0.248
 4524SOL     OW14470   6.453   2.967   2.365
 4524SOL    HW114471   6.476   3.024   2.444
 4524SOL    HW214472   6.482   3.013   2.281
 4525SOL     OW14473   4.459   2.514   5.613
 4525SOL    HW114474   4.463   2.533   5.711
 4525SOL    HW214475   4.479   2.597   5.561
 4526SOL     OW14476   6.704   0.162   6.504
 4526SOL    HW114477   6.688   0.222   6.582
 4526SOL    HW214478   6.796   0.123   6.511
 4527SOL     OW14479   6.830   0.581   2.704
 4527SOL    HW114480   6.868   0.495   2.672
 4527SOL    HW214481   6.780   0.626   2.630
 4528SOL     OW14482   4.708   0.489   6.704
 4528SOL    HW114483   4.775   0.425   6.666
 4528SOL    HW214484   4.696   0.471   6.801
 4529SOL     OW14485   1.894   0.592   4.950
 4529SOL    HW114486   1.912   0.610   5.046
 4529SOL    HW214487   1.796   0.606   4.932
 4530SOL     OW14488   2.376   5.727   3.952
 4530SOL    HW114489   2.416   5.676   3.875
 4530SOL    HW214490   2.429   5.710   4.035
 4531SOL     OW14491   0.736   3.123   5.470
 4531SOL    HW114492   0.809   3.132   5.538
 4531SOL    HW214493   0.662   3.187   5.493
 4532SOL     OW14494   6.535   1.745   2.554
 4532SOL    HW114495   6.610   1.765   2.491
 4532SOL    HW214496   6.519   1.647   2.557
 4533SOL     OW14497   1.733   1.019   2.683
 4533SOL    HW114498   1.635   1.001   2.689
 4533SOL    HW214499   1.764   1.001   2.590
 4534SOL     OW14500   5.773   4.348   5.415
 4534SOL    HW114501   5.836   4.380   5.486
 4534SOL    HW214502   5.700   4.294   5.457
 4535SOL     OW14503   3.338   0.713   2.122
 4535SOL    HW114504   3.277   0.781   2.164
 4535SOL    HW214505   3.432   0.733   2.146
 4536SOL     OW14506   3.934   1.632   4.941
 4536SOL    HW114507   3.946   1.542   4.983
 4536SOL    HW214508   3.986   1.700   4.992
 4537SOL     OW14509   3.955   3.693   1.024
 4537SOL    HW114510   3.876   3.634   1.042
 4537SOL    HW214511   3.937   3.751   0.945
 4538SOL     OW14512   2.387   0.611   2.389
 4538SOL    HW114513   2.447   0.623   2.468
 4538SOL    HW214514   2.428   0.655   2.309
 4539SOL     OW14515   3.223   6.080   4.674
 4539SOL    HW114516   3.283   6.145   4.720
 4539SOL    HW214517   3.277   6.024   4.610
 4540SOL     OW14518   2.502   2.346   6.691
 4540SOL    HW114519   2.576   2.292   6.653
 4540SOL    HW214520   2.539   2.424   6.741
 4541SOL     OW14521   5.457   1.851   6.085
 4541SOL    HW114522   5.466   1.782   6.156
 4541SOL    HW214523   5.448   1.807   5.996
 4542SOL     OW14524   0.497   2.566   1.554
 4542SOL    HW114525   0.494   2.474   1.591
 4542SOL    HW214526   0.518   2.631   1.627
 4543SOL     OW14527   4.889   2.583   0.728
 4543SOL    HW114528   4.825   2.595   0.652
 4543SOL    HW214529   4.858   2.507   0.785
 4544SOL     OW14530   3.448   5.911   6.834
 4544SOL    HW114531   3.464   5.815   6.856
 4544SOL    HW214532   3.470   5.967   6.914
 4545SOL     OW14533   6.147   2.975   4.369
 4545SOL    HW114534   6.228   2.935   4.411
 4545SOL    HW214535   6.173   3.022   4.284
 4546SOL     OW14536   2.524   0.445   4.176
 4546SOL    HW114537   2.551   0.381   4.104
 4546SOL    HW214538   2.438   0.490   4.150
 4547SOL     OW14539   6.381   1.974   0.544
 4547SOL    HW114540   6.412   1.889   0.502
 4547SOL    HW214541   6.284   1.989   0.521
 4548SOL     OW14542   1.991   2.221   3.224
 4548SOL    HW114543   1.940   2.303   3.196
 4548SOL    HW214544   2.089   2.242   3.223
 4549SOL     OW14545   5.344   4.055   2.587
 4549SOL    HW114546   5.340   4.125   2.658
 4549SOL    HW214547   5.439   4.042   2.559
 4550SOL     OW14548   0.891   4.858   3.102
 4550SOL    HW114549   0.973   4.802   3.110
 4550SOL    HW214550   0.844   4.862   3.190
 4551SOL     OW14551   0.597   3.378   4.383
 4551SOL    HW114552   0.639   3.437   4.314
 4551SOL    HW214553   0.663   3.362   4.457
 4552SOL     OW14554   5.352   2.028   0.994
 4552SOL    HW114555   5.292   2.091   1.041
 4552SOL    HW214556   5.327   1.934   1.016
 4553SOL     OW14557   4.684   4.194   0.187
 4553SOL    HW114558   4.672   4.095   0.198
 4553SOL    HW214559   4.781   4.217   0.195
 4554SOL     OW14560   6.738   0.037   2.507
 4554SOL    HW114561   6.647   0.001   2.487
 4554SOL    HW214562   6.802   0.009   2.436
 4555SOL     OW14563   1.797   1.743   5.639
 4555SOL    HW114564   1.737   1.664   5.642
 4555SOL    HW214565   1.880   1.724   5.691
 4556SOL     OW14566   5.575   3.980   4.844
 4556SOL    HW114567   5.493   4.001   4.897
 4556SOL    HW214568   5.653   3.965   4.906
 4557SOL     OW14569   4.561   5.505   4.351
 4557SOL    HW114570   4.534   5.417   4.389
 4557SOL    HW214571   4.635   5.544   4.406
 4558SOL     OW14572   0.190   4.659   4.663
 4558SOL    HW114573   0.283   4.675   4.694
 4558SOL    HW214574   0.174   4.560   4.655
 4559SOL     OW14575   7.005   3.410   2.411
 4559SOL    HW114576   6.988   3.395   2.508
 4559SOL    HW214577   6.922   3.447   2.368
 4560SOL     OW14578   5.775   3.760   1.020
 4560SOL    HW114579   5.800   3.766   1.117
 4560SOL    HW214580   5.850   3.716   0.969
 4561SOL     OW14581   3.221   2.184   3.299
 4561SOL    HW114582   3.196   2.153   3.208
 4561SOL    HW214583   3.158   2.256   3.329
 4562SOL     OW14584   1.753   6.913   0.124
 4562SOL    HW114585   1.786   6.843   0.061
 4562SOL    HW214586   1.656   6.899   0.141
 4563SOL     OW14587   0.112   3.193   1.277
 4563SOL    HW114588   0.041   3.124   1.291
 4563SOL    HW214589   0.077   3.267   1.220
 4564SOL     OW14590   0.295   6.299   2.138
 4564SOL    HW114591   0.328   6.363   2.207
 4564SOL    HW214592   0.259   6.217   2.182
 4565SOL     OW14593   1.384   0.636   4.220
 4565SOL    HW114594   1.395   0.538   4.238
 4565SOL    HW214595   1.430   0.660   4.135
 4566SOL     OW14596   0.123   3.261   0.716
 4566SOL    HW114597   0.192   3.332   0.703
 4566SOL    HW214598   0.164   3.171   0.701
 4567SOL     OW14599   6.409   1.497   6.766
 4567SOL    HW114600   6.367   1.586   6.785
 4567SOL    HW214601   6.401   1.478   6.668
 4568SOL     OW14602   1.672   3.936   5.427
 4568SOL    HW114603   1.664   3.982   5.515
 4568SOL    HW214604   1.765   3.902   5.415
 4569SOL     OW14605   2.693   0.391   3.178
 4569SOL    HW114606   2.777   0.444   3.179
 4569SOL    HW214607   2.614   0.453   3.171
 4570SOL     OW14608   6.803   6.306   2.230
 4570SOL    HW114609   6.864   6.338   2.303
 4570SOL    HW214610   6.802   6.374   2.157
 4571SOL     OW14611   4.452   3.869   6.593
 4571SOL    HW114612   4.480   3.964   6.583
 4571SOL    HW214613   4.513   3.811   6.540
 4572SOL     OW14614   1.858   0.866   6.349
 4572SOL    HW114615   1.950   0.904   6.361
 4572SOL    HW214616   1.865   0.774   6.312
 4573SOL     OW14617   6.926   0.139   0.602
 4573SOL    HW114618   6.940   0.205   0.677
 4573SOL    HW214619   6.872   0.182   0.530
 4574SOL     OW14620   5.954   4.024   0.551
 4574SOL    HW114621   5.871   4.044   0.604
 4574SOL    HW214622   6.032   4.068   0.596
 4575SOL     OW14623   5.805   0.229   5.647
 4575SOL    HW114624   5.861   0.308   5.676
 4575SOL    HW214625   5.713   0.260   5.625
 4576SOL     OW14626   3.634   5.735   5.629
 4576SOL    HW114627   3.558   5.763   5.688
 4576SOL    HW214628   3.659   5.641   5.651
 4577SOL     OW14629   0.926   2.323   4.208
 4577SOL    HW114630   0.991   2.370   4.268
 4577SOL    HW214631   0.852   2.385   4.184
 4578SOL     OW14632   0.752   2.198   5.302
 4578SOL    HW114633   0.677   2.159   5.357
 4578SOL    HW214634   0.722   2.207   5.207
 4579SOL     OW14635   4.174   0.246   3.090
 4579SOL    HW114636   4.257   0.239   3.145
 4579SOL    HW214637   4.096   0.210   3.142
 4580SOL     OW14638   5.641   3.654   0.711
 4580SOL    HW114639   5.579   3.643   0.633
 4580SOL    HW214640   5.646   3.751   0.735
 4581SOL     OW14641   1.877   5.925   2.411
 4581SOL    HW114642   1.839   5.954   2.499
 4581SOL    HW214643   1.929   5.840   2.424
 4582SOL     OW14644   4.342   0.602   4.421
 4582SOL    HW114645   4.386   0.623   4.334
 4582SOL    HW214646   4.336   0.685   4.477
 4583SOL     OW14647   3.057   2.124   6.797
 4583SOL    HW114648   3.056   2.130   6.896
 4583SOL    HW214649   2.963   2.112   6.763
 4584SOL     OW14650   1.933   5.102   5.348
 4584SOL    HW114651   1.911   5.021   5.294
 4584SOL    HW214652   1.982   5.168   5.291
 4585SOL     OW14653   1.194   5.498   3.095
 4585SOL    HW114654   1.148   5.475   3.009
 4585SOL    HW214655   1.280   5.449   3.101
 4586SOL     OW14656   4.031   4.584   0.996
 4586SOL    HW114657   4.006   4.661   0.938
 4586SOL    HW214658   3.957   4.516   0.994
 4587SOL     OW14659   3.634   3.964   3.342
 4587SOL    HW114660   3.692   3.945   3.421
 4587SOL    HW214661   3.552   4.012   3.372
 4588SOL     OW14662   2.674   3.352   5.415
 4588SOL    HW114663   2.714   3.422   5.474
 4588SOL    HW214664   2.590   3.317   5.457
 4589SOL     OW14665   5.790   0.889   1.923
 4589SOL    HW114666   5.736   0.919   2.002
 4589SOL    HW214667   5.735   0.896   1.840
 4590SOL     OW14668   4.453   5.252   1.679
 4590SOL    HW114669   4.532   5.307   1.707
 4590SOL    HW214670   4.374   5.311   1.666
 4591SOL     OW14671   1.551   0.481   4.570
 4591SOL    HW114672   1.552   0.575   4.534
 4591SOL    HW214673   1.595   0.420   4.504
 4592SOL     OW14674   2.779   1.448   3.188
 4592SOL    HW114675   2.835   1.376   3.146
 4592SOL    HW214676   2.792   1.447   3.287
 4593SOL     OW14677   5.062   6.215   2.124
 4593SOL    HW114678   5.012   6.128   2.124
 4593SOL    HW214679   5.152   6.202   2.082
 4594SOL     OW14680   2.929   1.027   3.160
 4594SOL    HW114681   2.930   0.933   3.127
 4594SOL    HW214682   2.936   1.027   3.260
 4595SOL     OW14683   4.694   2.767   5.770
 4595SOL    HW114684   4.629   2.780   5.845
 4595SOL    HW214685   4.770   2.709   5.801
 4596SOL     OW14686   6.794   0.932   2.582
 4596SOL    HW114687   6.844   0.937   2.669
 4596SOL    HW214688   6.834   0.997   2.518
 4597SOL     OW14689   3.104   5.552   6.853
 4597SOL    HW114690   3.172   5.504   6.798
 4597SOL    HW214691   3.140   5.568   6.945
 4598SOL     OW14692   1.238   5.473   1.140
 4598SOL    HW114693   1.153   5.471   1.087
 4598SOL    HW214694   1.291   5.390   1.122
 4599SOL     OW14695   1.502   4.969   0.663
 4599SOL    HW114696   1.418   4.995   0.710
 4599SOL    HW214697   1.501   5.005   0.570
 4600SOL     OW14698   0.289   6.072   5.458
 4600SOL    HW114699   0.234   5.993   5.431
 4600SOL    HW214700   0.373   6.041   5.503
 4601SOL     OW14701   1.358   1.552   5.098
 4601SOL    HW114702   1.376   1.646   5.126
 4601SOL    HW214703   1.270   1.522   5.136
 4602SOL     OW14704   3.396   6.518   0.199
 4602SOL    HW114705   3.411   6.470   0.286
 4602SOL    HW214706   3.441   6.467   0.126
 4603SOL     OW14707   3.898   6.003   1.117
 4603SOL    HW114708   3.924   6.093   1.083
 4603SOL    HW214709   3.826   5.965   1.060
 4604SOL     OW14710   4.398   0.383   6.974
 4604SOL    HW114711   4.368   0.411   6.883
 4604SOL    HW214712   4.403   0.284   6.979
 4605SOL     OW14713   1.355   5.954   2.261
 4605SOL    HW114714   1.277   5.891   2.263
 4605SOL    HW214715   1.384   5.968   2.166
 4606SOL     OW14716   0.639   6.727   2.232
 4606SOL    HW114717   0.733   6.705   2.258
 4606SOL    HW214718   0.639   6.806   2.171
 4607SOL     OW14719   2.063   3.365   3.101
 4607SOL    HW114720   2.091   3.273   3.074
 4607SOL    HW214721   2.128   3.402   3.167
 4608SOL     OW14722   0.334   5.303   3.836
 4608SOL    HW114723   0.420   5.316   3.787
 4608SOL    HW214724   0.326   5.208   3.865
 4609SOL     OW14725   5.227   4.947   6.774
 4609SOL    HW114726   5.207   4.851   6.756
 4609SOL    HW214727   5.173   4.979   6.852
 4610SOL     OW14728   5.184   1.534   0.106
 4610SOL    HW114729   5.102   1.573   0.148
 4610SOL    HW214730   5.264   1.556   0.161
 4611SOL     OW14731   0.842   6.826   6.210
 4611SOL    HW114732   0.744   6.835   6.232
 4611SOL    HW214733   0.854   6.831   6.111
 4612SOL     OW14734   2.021   6.353   0.896
 4612SOL    HW114735   2.060   6.366   0.804
 4612SOL    HW214736   1.940   6.411   0.906
 4613SOL     OW14737   1.241   5.530   2.257
 4613SOL    HW114738   1.159   5.478   2.232
 4613SOL    HW214739   1.308   5.524   2.183
 4614SOL     OW14740   5.899   3.388   3.913
 4614SOL    HW114741   5.941   3.311   3.864
 4614SOL    HW214742   5.956   3.413   3.991
 4615SOL     OW14743   1.083   1.342   0.533
 4615SOL    HW114744   1.086   1.442   0.533
 4615SOL    HW214745   1.175   1.306   0.549
 4616SOL     OW14746   6.589   1.175   4.412
 4616SOL    HW114747   6.658   1.124   4.361
 4616SOL    HW214748   6.631   1.257   4.451
 4617SOL     OW14749   0.958   1.839   2.763
 4617SOL    HW114750   1.044   1.792   2.784
 4617SOL    HW214751   0.901   1.780   2.707
 4618SOL     OW14752   2.312   3.046   5.385
 4618SOL    HW114753   2.224   3.039   5.338
 4618SOL    HW214754   2.385   3.050   5.317
 4619SOL     OW14755   2.859   5.909   3.690
 4619SOL    HW114756   2.902   5.819   3.688
 4619SOL    HW214757   2.760   5.899   3.685
 4620SOL     OW14758   1.099   5.197   0.602
 4620SOL    HW114759   1.157   5.117   0.619
 4620SOL    HW214760   1.035   5.176   0.528
 4621SOL     OW14761   4.889   0.543   2.327
 4621SOL    HW114762   4.817   0.499   2.381
 4621SOL    HW214763   4.847   0.607   2.263
 4622SOL     OW14764   4.263   5.111   0.849
 4622SOL    HW114765   4.327   5.186   0.863
 4622SOL    HW214766   4.307   5.024   0.871
 4623SOL     OW14767   4.947   5.920   1.662
 4623SOL    HW114768   5.027   5.930   1.603
 4623SOL    HW214769   4.936   6.003   1.716
 4624SOL     OW14770   3.326   6.706   2.803
 4624SOL    HW114771   3.355   6.791   2.759
 4624SOL    HW214772   3.258   6.726   2.873
 4625SOL     OW14773   1.735   5.054   1.868
 4625SOL    HW114774   1.672   4.977   1.862
 4625SOL    HW214775   1.693   5.129   1.919
 4626SOL     OW14776   4.599   3.657   1.700
 4626SOL    HW114777   4.505   3.666   1.733
 4626SOL    HW214778   4.598   3.617   1.608
 4627SOL     OW14779   1.967   5.300   4.986
 4627SOL    HW114780   1.988   5.211   4.945
 4627SOL    HW214781   2.051   5.339   5.024
 4628SOL     OW14782   4.613   4.391   4.938
 4628SOL    HW114783   4.536   4.402   5.001
 4628SOL    HW214784   4.579   4.378   4.846
 4629SOL     OW14785   2.580   5.599   5.440
 4629SOL    HW114786   2.488   5.584   5.477
 4629SOL    HW214787   2.573   5.619   5.343
 4630SOL     OW14788   2.055   5.672   2.420
 4630SOL    HW114789   2.025   5.678   2.515
 4630SOL    HW214790   1.983   5.631   2.364
 4631SOL     OW14791   1.204   5.852   3.373
 4631SOL    HW114792   1.231   5.948   3.388
 4631SOL    HW214793   1.131   5.828   3.437
 4632SOL     OW14794   2.261   4.371   2.469
 4632SOL    HW114795   2.341   4.404   2.419
 4632SOL    HW214796   2.181   4.426   2.443
 4633SOL     OW14797   5.788   0.841   4.129
 4633SOL    HW114798   5.851   0.852   4.052
 4633SOL    HW214799   5.731   0.760   4.114
 4634SOL     OW14800   2.925   3.905   4.950
 4634SOL    HW114801   2.825   3.908   4.946
 4634SOL    HW214802   2.954   3.881   5.043
 4635SOL     OW14803   4.587   4.152   1.657
 4635SOL    HW114804   4.568   4.055   1.673
 4635SOL    HW214805   4.581   4.202   1.743
 4636SOL     OW14806   1.864   4.211   0.700
 4636SOL    HW114807   1.826   4.134   0.647
 4636SOL    HW214808   1.945   4.180   0.749
 4637SOL     OW14809   0.724   6.677   1.108
 4637SOL    HW114810   0.743   6.657   1.012
 4637SOL    HW214811   0.778   6.617   1.166
 4638SOL     OW14812   4.112   5.274   0.048
 4638SOL    HW114813   4.102   5.369   0.016
 4638SOL    HW214814   4.047   5.257   0.121
 4639SOL     OW14815   3.354   3.036   6.641
 4639SOL    HW114816   3.303   3.120   6.652
 4639SOL    HW214817   3.359   2.988   6.728
 4640SOL     OW14818   5.125   4.080   4.580
 4640SOL    HW114819   5.077   4.122   4.657
 4640SOL    HW214820   5.221   4.107   4.582
 4641SOL     OW14821   2.550   0.601   4.911
 4641SOL    HW114822   2.615   0.540   4.866
 4641SOL    HW214823   2.490   0.642   4.842
 4642SOL     OW14824   1.135   7.013   3.008
 4642SOL    HW114825   1.124   0.079   2.958
 4642SOL    HW214826   1.226   6.976   2.990
 4643SOL     OW14827   6.621   1.827   0.301
 4643SOL    HW114828   6.524   1.811   0.316
 4643SOL    HW214829   6.661   1.872   0.382
 4644SOL     OW14830   0.801   0.189   5.220
 4644SOL    HW114831   0.743   0.265   5.190
 4644SOL    HW214832   0.844   0.147   5.140
 4645SOL     OW14833   1.153   0.747   4.311
 4645SOL    HW114834   1.118   0.737   4.404
 4645SOL    HW214835   1.233   0.688   4.300
 4646SOL     OW14836   2.299   5.695   3.436
 4646SOL    HW114837   2.205   5.681   3.404
 4646SOL    HW214838   2.350   5.610   3.427
 4647SOL     OW14839   1.855   0.358   2.780
 4647SOL    HW114840   1.786   0.422   2.814
 4647SOL    HW214841   1.866   0.370   2.681
 4648SOL     OW14842   3.676   0.782   3.111
 4648SOL    HW114843   3.671   0.728   3.195
 4648SOL    HW214844   3.685   0.721   3.033
 4649SOL     OW14845   5.691   0.753   0.378
 4649SOL    HW114846   5.665   0.846   0.352
 4649SOL    HW214847   5.721   0.702   0.297
 4650SOL     OW14848   4.648   5.721   1.915
 4650SOL    HW114849   4.679   5.816   1.914
 4650SOL    HW214850   4.707   5.668   1.977
 4651SOL     OW14851   6.295   3.198   6.085
 4651SOL    HW114852   6.386   3.168   6.113
 4651SOL    HW214853   6.235   3.202   6.166
 4652SOL     OW14854   6.623   6.181   4.719
 4652SOL    HW114855   6.613   6.265   4.666
 4652SOL    HW214856   6.543   6.123   4.705
 4653SOL     OW14857   5.552   6.204   1.248
 4653SOL    HW114858   5.586   6.248   1.332
 4653SOL    HW214859   5.535   6.107   1.266
 4654SOL     OW14860   0.685   5.884   6.181
 4654SOL    HW114861   0.619   5.941   6.230
 4654SOL    HW214862   0.773   5.931   6.178
 4655SOL     OW14863   6.232   3.348   1.104
 4655SOL    HW114864   6.160   3.346   1.034
 4655SOL    HW214865   6.192   3.324   1.193
 4656SOL     OW14866   1.378   0.809   1.567
 4656SOL    HW114867   1.421   0.837   1.653
 4656SOL    HW214868   1.365   0.889   1.508
 4657SOL     OW14869   4.562   6.224   1.854
 4657SOL    HW114870   4.534   6.282   1.930
 4657SOL    HW214871   4.537   6.267   1.767
 4658SOL     OW14872   3.093   0.535   4.630
 4658SOL    HW114873   3.067   0.506   4.722
 4658SOL    HW214874   3.088   0.457   4.568
 4659SOL     OW14875   2.769   4.675   6.353
 4659SOL    HW114876   2.748   4.614   6.277
 4659SOL    HW214877   2.860   4.714   6.341
 4660SOL     OW14878   1.146   6.101   4.560
 4660SOL    HW114879   1.064   6.077   4.508
 4660SOL    HW214880   1.141   6.197   4.588
 4661SOL     OW14881   3.289   4.856   6.729
 4661SOL    HW114882   3.241   4.798   6.795
 4661SOL    HW214883   3.238   4.941   6.716
 4662SOL     OW14884   2.622   0.078   5.568
 4662SOL    HW114885   2.623   0.135   5.650
 4662SOL    HW214886   2.701   0.101   5.511
 4663SOL     OW14887   0.324   0.848   1.587
 4663SOL    HW114888   0.372   0.929   1.553
 4663SOL    HW214889   0.386   0.792   1.641
 4664SOL     OW14890   1.255   0.771   0.272
 4664SOL    HW114891   1.256   0.871   0.268
 4664SOL    HW214892   1.186   0.741   0.338
 4665SOL     OW14893   3.421   6.969   6.112
 4665SOL    HW114894   3.503   6.962   6.055
 4665SOL    HW214895   3.373   6.882   6.112
 4666SOL     OW14896   2.254   2.692   0.129
 4666SOL    HW114897   2.201   2.767   0.167
 4666SOL    HW214898   2.193   2.622   0.093
 4667SOL     OW14899   6.465   3.839   1.821
 4667SOL    HW114900   6.556   3.828   1.781
 4667SOL    HW214901   6.414   3.753   1.815
 4668SOL     OW14902   4.960   1.365   3.778
 4668SOL    HW114903   4.962   1.287   3.840
 4668SOL    HW214904   5.054   1.394   3.758
 4669SOL     OW14905   4.775   6.134   0.333
 4669SOL    HW114906   4.832   6.056   0.356
 4669SOL    HW214907   4.824   6.195   0.271
 4670SOL     OW14908   1.403   2.544   6.198
 4670SOL    HW114909   1.450   2.630   6.174
 4670SOL    HW214910   1.462   2.490   6.258
 4671SOL     OW14911   1.020   3.159   6.562
 4671SOL    HW114912   1.100   3.210   6.530
 4671SOL    HW214913   0.948   3.224   6.587
 4672SOL     OW14914   2.710   4.959   6.330
 4672SOL    HW114915   2.726   4.860   6.338
 4672SOL    HW214916   2.613   4.975   6.309
 4673SOL     OW14917   5.121   6.986   1.593
 4673SOL    HW114918   5.157   0.034   1.657
 4673SOL    HW214919   5.150   7.008   1.500
 4674SOL     OW14920   5.206   1.285   6.979
 4674SOL    HW114921   5.172   1.214   0.020
 4674SOL    HW214922   5.205   1.373   0.007
 4675SOL     OW14923   2.969   1.070   0.380
 4675SOL    HW114924   3.064   1.049   0.357
 4675SOL    HW214925   2.921   0.985   0.402
 4676SOL     OW14926   6.951   6.616   4.331
 4676SOL    HW114927   6.945   6.519   4.355
 4676SOL    HW214928   0.027   6.645   4.332
 4677SOL     OW14929   2.822   0.853   0.185
 4677SOL    HW114930   2.840   0.909   0.104
 4677SOL    HW214931   2.765   0.905   0.250
 4678SOL     OW14932   2.240   4.686   2.797
 4678SOL    HW114933   2.153   4.638   2.783
 4678SOL    HW214934   2.316   4.623   2.781
 4679SOL     OW14935   3.625   1.370   0.137
 4679SOL    HW114936   3.573   1.285   0.143
 4679SOL    HW214937   3.583   1.439   0.195
 4680SOL     OW14938   1.945   0.680   1.915
 4680SOL    HW114939   1.846   0.670   1.917
 4680SOL    HW214940   1.972   0.730   1.833
 4681SOL     OW14941   6.080   5.297   5.804
 4681SOL    HW114942   6.006   5.365   5.811
 4681SOL    HW214943   6.149   5.331   5.740
 4682SOL     OW14944   4.245   3.975   6.198
 4682SOL    HW114945   4.283   4.031   6.124
 4682SOL    HW214946   4.265   4.018   6.286
 4683SOL     OW14947   4.628   4.564   2.604
 4683SOL    HW114948   4.600   4.635   2.668
 4683SOL    HW214949   4.561   4.557   2.530
 4684SOL     OW14950   6.937   1.850   4.428
 4684SOL    HW114951   7.001   1.925   4.445
 4684SOL    HW214952   6.864   1.853   4.496
 4685SOL     OW14953   0.293   6.510   5.081
 4685SOL    HW114954   0.274   6.425   5.130
 4685SOL    HW214955   0.377   6.499   5.028
 4686SOL     OW14956   5.546   5.606   0.509
 4686SOL    HW114957   5.556   5.705   0.513
 4686SOL    HW214958   5.520   5.580   0.416
 4687SOL     OW14959   6.930   4.749   5.429
 4687SOL    HW114960   6.895   4.825   5.375
 4687SOL    HW214961   6.923   4.664   5.376
 4688SOL     OW14962   6.371   3.622   5.477
 4688SOL    HW114963   6.323   3.569   5.547
 4688SOL    HW214964   6.466   3.634   5.505
 4689SOL     OW14965   6.052   0.570   0.259
 4689SOL    HW114966   6.128   0.556   0.195
 4689SOL    HW214967   5.966   0.574   0.208
 4690SOL     OW14968   1.458   0.911   6.987
 4690SOL    HW114969   1.501   0.951   0.049
 4690SOL    HW214970   1.516   0.838   6.952
 4691SOL     OW14971   3.277   4.870   2.145
 4691SOL    HW114972   3.179   4.850   2.153
 4691SOL    HW214973   3.330   4.794   2.182
 4692SOL     OW14974   6.878   5.739   2.430
 4692SOL    HW114975   6.898   5.837   2.432
 4692SOL    HW214976   6.942   5.691   2.490
 4693SOL     OW14977   0.745   1.119   3.537
 4693SOL    HW114978   0.761   1.027   3.573
 4693SOL    HW214979   0.647   1.137   3.533
 4694SOL     OW14980   3.081   0.720   0.140
 4694SOL    HW114981   3.132   0.680   0.216
 4694SOL    HW214982   2.999   0.765   0.174
 4695SOL     OW14983   2.669   3.025   1.627
 4695SOL    HW114984   2.614   3.089   1.682
 4695SOL    HW214985   2.622   3.005   1.542
 4696SOL     OW14986   0.146   4.293   5.726
 4696SOL    HW114987   0.146   4.292   5.626
 4696SOL    HW214988   0.159   4.386   5.759
 4697SOL     OW14989   2.050   2.978   0.848
 4697SOL    HW114990   2.136   3.030   0.845
 4697SOL    HW214991   2.042   2.922   0.766
 4698SOL     OW14992   3.756   5.921   2.526
 4698SOL    HW114993   3.753   5.945   2.623
 4698SOL    HW214994   3.701   5.839   2.510
 4699SOL     OW14995   0.971   5.996   2.076
 4699SOL    HW114996   1.028   6.062   2.029
 4699SOL    HW214997   1.028   5.922   2.113
 4700SOL     OW14998   6.370   1.423   2.702
 4700SOL    HW114999   6.434   1.451   2.773
 4700SOL    HW215000   6.368   1.323   2.696
 4701SOL     OW15001   2.027   2.044   1.186
 4701SOL    HW115002   2.045   1.967   1.125
 4701SOL    HW215003   1.995   2.122   1.133
 4702SOL     OW15004   5.686   4.627   6.545
 4702SOL    HW115005   5.757   4.560   6.567
 4702SOL    HW215006   5.651   4.668   6.630
 4703SOL     OW15007   1.452   2.497   1.841
 4703SOL    HW115008   1.530   2.518   1.783
 4703SOL    HW215009   1.373   2.551   1.813
 4704SOL     OW15010   1.331   6.732   6.955
 4704SOL    HW115011   1.344   6.645   7.003
 4704SOL    HW215012   1.413   6.753   6.902
 4705SOL     OW15013   3.713   3.237   2.481
 4705SOL    HW115014   3.731   3.157   2.424
 4705SOL    HW215015   3.631   3.221   2.536
 4706SOL     OW15016   3.409   6.484   6.496
 4706SOL    HW115017   3.497   6.528   6.479
 4706SOL    HW215018   3.384   6.496   6.592
 4707SOL     OW15019   2.466   5.732   0.731
 4707SOL    HW115020   2.380   5.682   0.717
 4707SOL    HW215021   2.473   5.759   0.827
 4708SOL     OW15022   1.527   2.773   6.428
 4708SOL    HW115023   1.443   2.775   6.373
 4708SOL    HW215024   1.507   2.803   6.521
 4709SOL     OW15025   3.991   5.670   5.338
 4709SOL    HW115026   3.903   5.695   5.297
 4709SOL    HW215027   4.063   5.677   5.269
 4710SOL     OW15028   3.839   1.266   5.724
 4710SOL    HW115029   3.796   1.179   5.746
 4710SOL    HW215030   3.872   1.309   5.808
 4711SOL     OW15031   5.409   0.638   1.901
 4711SOL    HW115032   5.507   0.631   1.918
 4711SOL    HW215033   5.391   0.634   1.803
 4712SOL     OW15034   3.062   4.128   0.283
 4712SOL    HW115035   3.052   4.116   0.184
 4712SOL    HW215036   2.973   4.145   0.324
 4713SOL     OW15037   3.040   3.832   0.991
 4713SOL    HW115038   3.036   3.931   1.010
 4713SOL    HW215039   3.008   3.782   1.071
 4714SOL     OW15040   1.702   2.536   6.799
 4714SOL    HW115041   1.767   2.461   6.812
 4714SOL    HW215042   1.705   2.567   6.704
 4715SOL     OW15043   6.808   3.146   1.775
 4715SOL    HW115044   6.819   3.049   1.753
 4715SOL    HW215045   6.878   3.173   1.841
 4716SOL     OW15046   4.053   6.087   6.274
 4716SOL    HW115047   3.967   6.067   6.321
 4716SOL    HW215048   4.052   6.045   6.183
 4717SOL     OW15049   0.180   6.918   3.364
 4717SOL    HW115050   0.083   6.894   3.357
 4717SOL    HW215051   0.190   7.006   3.410
 4718SOL     OW15052   5.255   2.041   0.087
 4718SOL    HW115053   5.179   2.002   0.139
 4718SOL    HW215054   5.268   1.989   0.003
 4719SOL     OW15055   5.206   3.095   2.432
 4719SOL    HW115056   5.299   3.081   2.398
 4719SOL    HW215057   5.141   3.087   2.356
 4720SOL     OW15058   1.768   6.043   5.746
 4720SOL    HW115059   1.855   5.994   5.756
 4720SOL    HW215060   1.700   6.005   5.808
 4721SOL     OW15061   6.778   2.586   1.001
 4721SOL    HW115062   6.825   2.584   0.913
 4721SOL    HW215063   6.782   2.496   1.044
 4722SOL     OW15064   1.035   5.710   6.747
 4722SOL    HW115065   0.987   5.622   6.740
 4722SOL    HW215066   0.983   5.780   6.699
 4723SOL     OW15067   2.062   4.673   5.889
 4723SOL    HW115068   2.065   4.705   5.983
 4723SOL    HW215069   1.968   4.672   5.857
 4724SOL     OW15070   5.029   6.025   2.982
 4724SOL    HW115071   5.005   6.118   3.009
 4724SOL    HW215072   5.126   6.008   3.002
 4725SOL     OW15073   6.469   6.665   2.248
 4725SOL    HW115074   6.566   6.677   2.230
 4725SOL    HW215075   6.453   6.664   2.346
 4726SOL     OW15076   2.248   3.000   6.443
 4726SOL    HW115077   2.188   2.932   6.400
 4726SOL    HW215078   2.199   3.048   6.515
 4727SOL     OW15079   0.429   6.528   6.814
 4727SOL    HW115080   0.473   6.456   6.867
 4727SOL    HW215081   0.452   6.517   6.717
 4728SOL     OW15082   5.235   0.562   0.060
 4728SOL    HW115083   5.213   0.656   0.034
 4728SOL    HW215084   5.187   0.537   0.143
 4729SOL     OW15085   2.702   1.508   1.808
 4729SOL    HW115086   2.695   1.604   1.837
 4729SOL    HW215087   2.736   1.453   1.884
 4730SOL     OW15088   2.756   5.700   4.895
 4730SOL    HW115089   2.699   5.751   4.830
 4730SOL    HW215090   2.851   5.727   4.885
 4731SOL     OW15091   4.154   0.281   5.962
 4731SOL    HW115092   4.095   0.357   5.988
 4731SOL    HW215093   4.246   0.297   5.998
 4732SOL     OW15094   0.316   3.967   5.679
 4732SOL    HW115095   0.344   4.010   5.593
 4732SOL    HW215096   0.396   3.929   5.725
 4733SOL     OW15097   1.475   4.240   3.613
 4733SOL    HW115098   1.553   4.179   3.632
 4733SOL    HW215099   1.439   4.277   3.698
 4734SOL     OW15100   5.313   2.775   6.649
 4734SOL    HW115101   5.246   2.740   6.715
 4734SOL    HW215102   5.302   2.727   6.562
 4735SOL     OW15103   0.941   5.887   3.974
 4735SOL    HW115104   1.013   5.941   4.017
 4735SOL    HW215105   0.981   5.804   3.935
 4736SOL     OW15106   0.222   1.614   6.287
 4736SOL    HW115107   0.160   1.549   6.331
 4736SOL    HW215108   0.194   1.707   6.309
 4737SOL     OW15109   1.203   4.772   2.693
 4737SOL    HW115110   1.169   4.678   2.687
 4737SOL    HW215111   1.298   4.771   2.722
 4738SOL     OW15112   6.851   6.045   2.716
 4738SOL    HW115113   6.898   6.087   2.794
 4738SOL    HW215114   6.917   6.029   2.642
 4739SOL     OW15115   4.928   6.524   3.294
 4739SOL    HW115116   4.850   6.471   3.261
 4739SOL    HW215117   4.904   6.568   3.380
 4740SOL     OW15118   0.732   1.543   0.571
 4740SOL    HW115119   0.751   1.480   0.496
 4740SOL    HW215120   0.793   1.523   0.647
 4741SOL     OW15121   3.777   2.950   1.360
 4741SOL    HW115122   3.809   2.923   1.451
 4741SOL    HW215123   3.813   2.886   1.292
 4742SOL     OW15124   2.447   6.369   5.063
 4742SOL    HW115125   2.481   6.366   4.969
 4742SOL    HW215126   2.347   6.376   5.063
 4743SOL     OW15127   2.247   4.324   2.962
 4743SOL    HW115128   2.184   4.257   2.922
 4743SOL    HW215129   2.313   4.352   2.892
 4744SOL     OW15130   2.190   4.996   0.891
 4744SOL    HW115131   2.286   5.012   0.866
 4744SOL    HW215132   2.184   4.918   0.952
 4745SOL     OW15133   3.130   4.336   6.537
 4745SOL    HW115134   3.116   4.260   6.473
 4745SOL    HW215135   3.227   4.363   6.535
 4746SOL     OW15136   4.382   6.494   4.040
 4746SOL    HW115137   4.414   6.554   3.966
 4746SOL    HW215138   4.316   6.544   4.097
 4747SOL     OW15139   0.965   3.425   0.255
 4747SOL    HW115140   0.910   3.470   0.184
 4747SOL    HW215141   1.037   3.487   0.285
 4748SOL     OW15142   1.655   5.833   1.065
 4748SOL    HW115143   1.730   5.784   1.109
 4748SOL    HW215144   1.652   5.927   1.099
 4749SOL     OW15145   2.166   6.351   6.480
 4749SOL    HW115146   2.200   6.441   6.505
 4749SOL    HW215147   2.240   6.298   6.437
 4750SOL     OW15148   6.896   3.547   5.268
 4750SOL    HW115149   6.848   3.596   5.195
 4750SOL    HW215150   6.978   3.504   5.232
 4751SOL     OW15151   4.249   2.275   2.800
 4751SOL    HW115152   4.156   2.296   2.771
 4751SOL    HW215153   4.313   2.335   2.752
 4752SOL     OW15154   4.281   1.094   6.989
 4752SOL    HW115155   4.229   1.178   6.975
 4752SOL    HW215156   4.363   1.114   0.022
 4753SOL     OW15157   0.774   0.375   4.007
 4753SOL    HW115158   0.746   0.434   3.930
 4753SOL    HW215159   0.756   0.280   3.984
 4754SOL     OW15160   5.508   3.798   4.652
 4754SOL    HW115161   5.539   3.874   4.709
 4754SOL    HW215162   5.413   3.777   4.673
 4755SOL     OW15163   2.658   1.330   0.418
 4755SOL    HW115164   2.675   1.427   0.434
 4755SOL    HW215165   2.695   1.276   0.494
 4756SOL     OW15166   5.650   3.717   5.702
 4756SOL    HW115167   5.716   3.646   5.677
 4756SOL    HW215168   5.665   3.743   5.798
 4757SOL     OW15169   2.186   2.196   1.358
 4757SOL    HW115170   2.182   2.124   1.289
 4757SOL    HW215171   2.096   2.209   1.399
 4758SOL     OW15172   1.689   6.471   2.869
 4758SOL    HW115173   1.739   6.505   2.948
 4758SOL    HW215174   1.620   6.404   2.898
 4759SOL     OW15175   0.935   4.576   6.042
 4759SOL    HW115176   0.880   4.656   6.067
 4759SOL    HW215177   1.008   4.564   6.110
 4760SOL     OW15178   2.586   1.908   0.372
 4760SOL    HW115179   2.519   1.903   0.298
 4760SOL    HW215180   2.647   1.987   0.357
 4761SOL     OW15181   1.290   0.144   0.702
 4761SOL    HW115182   1.197   0.177   0.719
 4761SOL    HW215183   1.343   0.148   0.787
 4762SOL     OW15184   1.246   5.572   2.533
 4762SOL    HW115185   1.157   5.571   2.579
 4762SOL    HW215186   1.232   5.574   2.434
 4763SOL     OW15187   5.487   0.416   2.612
 4763SOL    HW115188   5.534   0.451   2.531
 4763SOL    HW215189   5.462   0.492   2.672
 4764SOL     OW15190   4.456   3.735   5.314
 4764SOL    HW115191   4.509   3.665   5.266
 4764SOL    HW215192   4.366   3.744   5.271
 4765SOL     OW15193   3.510   0.833   5.299
 4765SOL    HW115194   3.506   0.751   5.242
 4765SOL    HW215195   3.588   0.889   5.270
 4766SOL     OW15196   6.063   5.950   4.276
 4766SOL    HW115197   6.062   5.851   4.291
 4766SOL    HW215198   6.002   5.972   4.199
 4767SOL     OW15199   3.281   4.823   5.136
 4767SOL    HW115200   3.194   4.788   5.171
 4767SOL    HW215201   3.283   4.816   5.037
 4768SOL     OW15202   3.679   2.721   6.326
 4768SOL    HW115203   3.600   2.772   6.361
 4768SOL    HW215204   3.654   2.675   6.241
 4769SOL     OW15205   4.819   5.704   0.748
 4769SOL    HW115206   4.736   5.734   0.702
 4769SOL    HW215207   4.800   5.624   0.805
 4770SOL     OW15208   0.376   2.240   4.463
 4770SOL    HW115209   0.458   2.195   4.427
 4770SOL    HW215210   0.403   2.311   4.528
 4771SOL     OW15211   2.955   6.624   6.329
 4771SOL    HW115212   3.043   6.586   6.301
 4771SOL    HW215213   2.887   6.551   6.335
 4772SOL     OW15214   3.741   4.669   0.280
 4772SOL    HW115215   3.772   4.597   0.219
 4772SOL    HW215216   3.704   4.745   0.227
 4773SOL     OW15217   0.436   5.394   5.777
 4773SOL    HW115218   0.529   5.357   5.776
 4773SOL    HW215219   0.398   5.392   5.685
 4774SOL     OW15220   1.712   3.672   1.211
 4774SOL    HW115221   1.659   3.610   1.154
 4774SOL    HW215222   1.664   3.690   1.296
 4775SOL     OW15223   5.050   6.082   3.364
 4775SOL    HW115224   4.996   6.057   3.444
 4775SOL    HW215225   5.078   6.178   3.372
 4776SOL     OW15226   0.760   1.135   4.995
 4776SOL    HW115227   0.790   1.197   4.923
 4776SOL    HW215228   0.840   1.100   5.044
 4777SOL     OW15229   1.881   5.367   0.809
 4777SOL    HW115230   1.903   5.442   0.872
 4777SOL    HW215231   1.791   5.381   0.770
 4778SOL     OW15232   6.854   2.711   4.591
 4778SOL    HW115233   6.857   2.810   4.585
 4778SOL    HW215234   6.932   2.678   4.645
 4779SOL     OW15235   5.195   0.044   3.597
 4779SOL    HW115236   5.118   0.100   3.569
 4779SOL    HW215237   5.169   6.967   3.594
 4780SOL     OW15238   5.964   2.732   6.591
 4780SOL    HW115239   5.956   2.637   6.559
 4780SOL    HW215240   6.058   2.749   6.620
 4781SOL     OW15241   2.861   5.251   1.735
 4781SOL    HW115242   2.818   5.289   1.817
 4781SOL    HW215243   2.810   5.279   1.654
 4782SOL     OW15244   6.037   5.428   6.730
 4782SOL    HW115245   6.035   5.405   6.632
 4782SOL    HW215246   5.946   5.414   6.769
 4783SOL     OW15247   5.413   3.545   6.688
 4783SOL    HW115248   5.420   3.623   6.751
 4783SOL    HW215249   5.380   3.577   6.599
 4784SOL     OW15250   6.209   2.401   6.341
 4784SOL    HW115251   6.127   2.457   6.331
 4784SOL    HW215252   6.222   2.378   6.438
 4785SOL     OW15253   0.021   6.274   2.885
 4785SOL    HW115254   0.099   6.324   2.922
 4785SOL    HW215255   6.962   6.336   2.877
 4786SOL     OW15256   2.621   0.015   0.167
 4786SOL    HW115257   2.634   6.949   0.118
 4786SOL    HW215258   2.696   0.077   0.146
 4787SOL     OW15259   3.350   1.803   3.241
 4787SOL    HW115260   3.360   1.845   3.151
 4787SOL    HW215261   3.439   1.798   3.285
 4788SOL     OW15262   0.124   6.328   0.831
 4788SOL    HW115263   0.192   6.342   0.759
 4788SOL    HW215264   0.133   6.399   0.900
 4789SOL     OW15265   5.217   1.536   1.674
 4789SOL    HW115266   5.182   1.621   1.714
 4789SOL    HW215267   5.162   1.459   1.708
 4790SOL     OW15268   5.953   1.742   5.801
 4790SOL    HW115269   5.933   1.700   5.712
 4790SOL    HW215270   6.040   1.708   5.835
 4791SOL     OW15271   0.107   2.753   1.885
 4791SOL    HW115272   0.155   2.824   1.937
 4791SOL    HW215273   0.009   2.762   1.899
 4792SOL     OW15274   2.221   4.257   4.669
 4792SOL    HW115275   2.245   4.253   4.766
 4792SOL    HW215276   2.221   4.164   4.631
 4793SOL     OW15277   1.444   3.548   5.346
 4793SOL    HW115278   1.353   3.548   5.386
 4793SOL    HW215279   1.475   3.454   5.332
 4794SOL     OW15280   4.624   6.989   4.709
 4794SOL    HW115281   4.640   0.017   4.796
 4794SOL    HW215282   4.607   6.893   4.727
 4795SOL     OW15283   6.756   1.267   4.101
 4795SOL    HW115284   6.836   1.328   4.097
 4795SOL    HW215285   6.781   1.183   4.148
 4796SOL     OW15286   4.234   0.692   6.032
 4796SOL    HW115287   4.332   0.680   6.042
 4796SOL    HW215288   4.200   0.754   6.103
 4797SOL     OW15289   0.596   6.614   4.351
 4797SOL    HW115290   0.579   6.711   4.367
 4797SOL    HW215291   0.674   6.604   4.289
 4798SOL     OW15292   6.903   5.044   5.792
 4798SOL    HW115293   6.830   4.981   5.819
 4798SOL    HW215294   6.973   4.993   5.741
 4799SOL     OW15295   4.464   1.256   0.836
 4799SOL    HW115296   4.562   1.243   0.820
 4799SOL    HW215297   4.413   1.238   0.752
 4800SOL     OW15298   1.689   4.004   6.781
 4800SOL    HW115299   1.733   3.915   6.793
 4800SOL    HW215300   1.734   4.055   6.708
 4801SOL     OW15301   3.134   2.483   6.928
 4801SOL    HW115302   3.225   2.505   6.962
 4801SOL    HW215303   3.065   2.520   6.991
 4802SOL     OW15304   0.481   6.423   1.642
 4802SOL    HW115305   0.487   6.393   1.737
 4802SOL    HW215306   0.394   6.469   1.627
 4803SOL     OW15307   0.071   4.054   0.908
 4803SOL    HW115308   0.104   4.121   0.975
 4803SOL    HW215309   0.126   3.970   0.915
 4804SOL     OW15310   6.701   6.655   1.475
 4804SOL    HW115311   6.608   6.639   1.509
 4804SOL    HW215312   6.740   6.735   1.520
 4805SOL     OW15313   6.393   1.353   2.345
 4805SOL    HW115314   6.452   1.401   2.410
 4805SOL    HW215315   6.298   1.362   2.376
 4806SOL     OW15316   0.759   4.096   2.901
 4806SOL    HW115317   0.811   4.055   2.826
 4806SOL    HW215318   0.809   4.175   2.936
 4807SOL     OW15319   0.468   4.445   6.065
 4807SOL    HW115320   0.515   4.436   5.977
 4807SOL    HW215321   0.374   4.412   6.055
 4808SOL     OW15322   4.315   5.564   0.972
 4808SOL    HW115323   4.323   5.583   0.874
 4808SOL    HW215324   4.363   5.636   1.024
 4809SOL     OW15325   3.843   4.646   1.358
 4809SOL    HW115326   3.894   4.729   1.380
 4809SOL    HW215327   3.766   4.669   1.299
 4810SOL     OW15328   1.558   4.114   3.142
 4810SOL    HW115329   1.613   4.198   3.150
 4810SOL    HW215330   1.462   4.137   3.151
 4811SOL     OW15331   4.022   3.532   2.826
 4811SOL    HW115332   3.950   3.493   2.768
 4811SOL    HW215333   4.033   3.629   2.805
 4812SOL     OW15334   0.639   0.519   2.705
 4812SOL    HW115335   0.644   0.423   2.731
 4812SOL    HW215336   0.673   0.530   2.611
 4813SOL     OW15337   6.090   1.690   6.693
 4813SOL    HW115338   6.042   1.605   6.715
 4813SOL    HW215339   6.060   1.723   6.604
 4814SOL     OW15340   6.927   3.263   1.513
 4814SOL    HW115341   6.869   3.272   1.594
 4814SOL    HW215342   0.003   3.268   1.541
 4815SOL     OW15343   5.518   4.351   2.984
 4815SOL    HW115344   5.557   4.259   2.996
 4815SOL    HW215345   5.575   4.417   3.033
 4816SOL     OW15346   2.081   5.296   1.233
 4816SOL    HW115347   2.103   5.280   1.136
 4816SOL    HW215348   2.151   5.355   1.273
 4817SOL     OW15349   2.587   0.885   1.427
 4817SOL    HW115350   2.643   0.875   1.509
 4817SOL    HW215351   2.640   0.857   1.347
 4818SOL     OW15352   0.717   1.576   3.881
 4818SOL    HW115353   0.763   1.619   3.959
 4818SOL    HW215354   0.656   1.504   3.914
 4819SOL     OW15355   2.788   2.388   1.571
 4819SOL    HW115356   2.731   2.432   1.640
 4819SOL    HW215357   2.796   2.290   1.591
 4820SOL     OW15358   6.751   1.947   0.524
 4820SOL    HW115359   6.834   1.978   0.478
 4820SOL    HW215360   6.775   1.906   0.612
 4821SOL     OW15361   6.976   0.224   1.026
 4821SOL    HW115362   6.975   0.138   0.976
 4821SOL    HW215363   7.007   0.207   1.120
 4822SOL     OW15364   1.851   2.992   3.802
 4822SOL    HW115365   1.934   2.972   3.854
 4822SOL    HW215366   1.873   2.993   3.704
 4823SOL     OW15367   0.352   1.850   4.120
 4823SOL    HW115368   0.321   1.843   4.215
 4823SOL    HW215369   0.432   1.791   4.107
 4824SOL     OW15370   5.797   2.059   4.214
 4824SOL    HW115371   5.728   2.066   4.142
 4824SOL    HW215372   5.796   1.966   4.252
 4825SOL     OW15373   2.092   2.681   4.372
 4825SOL    HW115374   2.076   2.776   4.345
 4825SOL    HW215375   2.036   2.621   4.314
 4826SOL     OW15376   6.886   0.430   6.322
 4826SOL    HW115377   6.836   0.411   6.238
 4826SOL    HW215378   6.851   0.371   6.395
 4827SOL     OW15379   5.843   1.479   1.108
 4827SOL    HW115380   5.875   1.511   1.197
 4827SOL    HW215381   5.743   1.482   1.105
 4828SOL     OW15382   5.671   2.845   1.071
 4828SOL    HW115383   5.603   2.906   1.031
 4828SOL    HW215384   5.625   2.783   1.135
 4829SOL     OW15385   4.191   6.516   6.739
 4829SOL    HW115386   4.132   6.499   6.818
 4829SOL    HW215387   4.255   6.590   6.760
 4830SOL     OW15388   5.105   6.390   3.743
 4830SOL    HW115389   5.196   6.429   3.729
 4830SOL    HW215390   5.112   6.292   3.762
 4831SOL     OW15391   0.023   5.125   6.112
 4831SOL    HW115392   6.964   5.166   6.159
 4831SOL    HW215393   0.043   5.176   6.029
 4832SOL     OW15394   2.521   2.706   5.542
 4832SOL    HW115395   2.609   2.681   5.502
 4832SOL    HW215396   2.470   2.762   5.476
 4833SOL     OW15397   4.952   0.950   2.881
 4833SOL    HW115398   5.011   0.872   2.905
 4833SOL    HW215399   4.983   1.031   2.931
 4834SOL     OW15400   3.689   0.626   0.523
 4834SOL    HW115401   3.667   0.555   0.590
 4834SOL    HW215402   3.676   0.716   0.565
 4835SOL     OW15403   1.036   1.236   6.305
 4835SOL    HW115404   1.007   1.142   6.325
 4835SOL    HW215405   1.010   1.258   6.211
 4836SOL     OW15406   5.076   3.225   3.745
 4836SOL    HW115407   5.017   3.195   3.671
 4836SOL    HW215408   5.137   3.150   3.772
 4837SOL     OW15409   4.723   3.377   1.515
 4837SOL    HW115410   4.644   3.367   1.454
 4837SOL    HW215411   4.712   3.318   1.594
 4838SOL     OW15412   1.296   4.852   2.010
 4838SOL    HW115413   1.245   4.783   1.958
 4838SOL    HW215414   1.326   4.814   2.097
 4839SOL     OW15415   1.047   3.599   5.686
 4839SOL    HW115416   1.129   3.569   5.735
 4839SOL    HW215417   0.983   3.640   5.749
 4840SOL     OW15418   0.962   6.336   5.233
 4840SOL    HW115419   0.963   6.278   5.314
 4840SOL    HW215420   0.872   6.378   5.223
 4841SOL     OW15421   2.710   6.142   1.589
 4841SOL    HW115422   2.749   6.052   1.611
 4841SOL    HW215423   2.615   6.146   1.621
 4842SOL     OW15424   3.355   4.858   1.874
 4842SOL    HW115425   3.296   4.887   1.950
 4842SOL    HW215426   3.437   4.814   1.911
 4843SOL     OW15427   5.904   3.393   0.473
 4843SOL    HW115428   6.000   3.372   0.487
 4843SOL    HW215429   5.891   3.492   0.475
 4844SOL     OW15430   6.674   3.498   5.764
 4844SOL    HW115431   6.705   3.538   5.678
 4844SOL    HW215432   6.707   3.554   5.841
 4845SOL     OW15433   6.581   5.803   4.506
 4845SOL    HW115434   6.546   5.877   4.563
 4845SOL    HW215435   6.642   5.745   4.560
 4846SOL     OW15436   6.762   3.480   3.319
 4846SOL    HW115437   6.803   3.554   3.373
 4846SOL    HW215438   6.705   3.423   3.378
 4847SOL     OW15439   3.354   1.128   5.406
 4847SOL    HW115440   3.367   1.032   5.380
 4847SOL    HW215441   3.275   1.136   5.466
 4848SOL     OW15442   1.454   1.282   3.924
 4848SOL    HW115443   1.389   1.210   3.898
 4848SOL    HW215444   1.407   1.351   3.979
 4849SOL     OW15445   1.072   6.420   6.157
 4849SOL    HW115446   0.999   6.353   6.148
 4849SOL    HW215447   1.075   6.453   6.252
 4850SOL     OW15448   3.938   1.581   2.818
 4850SOL    HW115449   3.965   1.548   2.908
 4850SOL    HW215450   3.859   1.641   2.826
 4851SOL     OW15451   3.881   6.080   5.047
 4851SOL    HW115452   3.805   6.097   5.110
 4851SOL    HW215453   3.845   6.070   4.954
 4852SOL     OW15454   0.952   0.269   5.426
 4852SOL    HW115455   0.906   0.233   5.345
 4852SOL    HW215456   0.884   0.302   5.491
 4853SOL     OW15457   2.970   1.274   3.073
 4853SOL    HW115458   2.955   1.181   3.106
 4853SOL    HW215459   3.068   1.295   3.075
 4854SOL     OW15460   5.525   6.943   2.254
 4854SOL    HW115461   5.439   6.940   2.305
 4854SOL    HW215462   5.559   0.017   2.251
 4855SOL     OW15463   6.195   2.913   2.444
 4855SOL    HW115464   6.203   2.843   2.515
 4855SOL    HW215465   6.286   2.938   2.411
 4856SOL     OW15466   1.812   4.300   2.693
 4856SOL    HW115467   1.747   4.362   2.737
 4856SOL    HW215468   1.789   4.292   2.596
 4857SOL     OW15469   1.810   2.539   5.834
 4857SOL    HW115470   1.719   2.556   5.873
 4857SOL    HW215471   1.801   2.528   5.735
 4858SOL     OW15472   0.840   1.322   4.760
 4858SOL    HW115473   0.844   1.391   4.688
 4858SOL    HW215474   0.896   1.243   4.734
 4859SOL     OW15475   1.350   0.984   4.259
 4859SOL    HW115476   1.375   0.998   4.355
 4859SOL    HW215477   1.263   0.933   4.255
 4860SOL     OW15478   4.016   4.642   1.678
 4860SOL    HW115479   3.997   4.552   1.639
 4860SOL    HW215480   3.934   4.700   1.668
 4861SOL     OW15481   5.280   4.576   0.269
 4861SOL    HW115482   5.351   4.513   0.299
 4861SOL    HW215483   5.191   4.546   0.302
 4862SOL     OW15484   2.867   4.814   4.825
 4862SOL    HW115485   2.876   4.750   4.901
 4862SOL    HW215486   2.884   4.907   4.857
 4863SOL     OW15487   5.876   3.943   2.300
 4863SOL    HW115488   5.846   4.034   2.273
 4863SOL    HW215489   5.922   3.899   2.223
 4864SOL     OW15490   3.956   1.241   3.483
 4864SOL    HW115491   3.918   1.172   3.544
 4864SOL    HW215492   3.982   1.199   3.396
 4865SOL     OW15493   2.215   0.868   5.448
 4865SOL    HW115494   2.278   0.933   5.492
 4865SOL    HW215495   2.153   0.918   5.387
 4866SOL     OW15496   6.921   2.004   1.078
 4866SOL    HW115497   6.998   2.050   1.121
 4866SOL    HW215498   6.841   2.064   1.080
 4867SOL     OW15499   3.775   4.881   2.844
 4867SOL    HW115500   3.870   4.854   2.860
 4867SOL    HW215501   3.765   4.979   2.859
 4868SOL     OW15502   6.342   4.966   2.490
 4868SOL    HW115503   6.318   4.951   2.394
 4868SOL    HW215504   6.380   4.881   2.529
 4869SOL     OW15505   1.359   1.656   2.396
 4869SOL    HW115506   1.396   1.715   2.325
 4869SOL    HW215507   1.262   1.676   2.409
 4870SOL     OW15508   0.791   6.134   1.366
 4870SOL    HW115509   0.763   6.095   1.454
 4870SOL    HW215510   0.716   6.188   1.328
 4871SOL     OW15511   1.593   1.060   3.846
 4871SOL    HW115512   1.545   1.018   3.769
 4871SOL    HW215513   1.548   1.146   3.871
 4872SOL     OW15514   6.056   6.878   3.364
 4872SOL    HW115515   6.143   6.924   3.379
 4872SOL    HW215516   6.036   6.818   3.441
 4873SOL     OW15517   6.302   5.440   4.038
 4873SOL    HW115518   6.399   5.413   4.037
 4873SOL    HW215519   6.296   5.539   4.052
 4874SOL     OW15520   6.153   3.715   2.227
 4874SOL    HW115521   6.140   3.653   2.305
 4874SOL    HW215522   6.078   3.703   2.162
 4875SOL     OW15523   5.885   1.803   0.804
 4875SOL    HW115524   5.861   1.834   0.712
 4875SOL    HW215525   5.948   1.869   0.846
 4876SOL     OW15526   6.104   2.493   3.133
 4876SOL    HW115527   6.162   2.467   3.056
 4876SOL    HW215528   6.009   2.500   3.103
 4877SOL     OW15529   1.753   2.301   6.092
 4877SOL    HW115530   1.797   2.215   6.115
 4877SOL    HW215531   1.805   2.348   6.021
 4878SOL     OW15532   6.245   0.874   2.150
 4878SOL    HW115533   6.160   0.890   2.101
 4878SOL    HW215534   6.273   0.779   2.138
 4879SOL     OW15535   4.407   1.265   2.879
 4879SOL    HW115536   4.364   1.350   2.850
 4879SOL    HW215537   4.397   1.254   2.978
 4880SOL     OW15538   5.240   3.290   0.070
 4880SOL    HW115539   5.265   3.363   0.132
 4880SOL    HW215540   5.282   3.307   7.000
 4881SOL     OW15541   1.050   1.229   7.008
 4881SOL    HW115542   0.951   1.237   7.017
 4881SOL    HW215543   1.077   1.244   6.913
 4882SOL     OW15544   4.544   0.486   4.581
 4882SOL    HW115545   4.521   0.389   4.591
 4882SOL    HW215546   4.465   0.536   4.546
 4883SOL     OW15547   5.132   4.765   1.462
 4883SOL    HW115548   5.206   4.704   1.491
 4883SOL    HW215549   5.171   4.846   1.417
 4884SOL     OW15550   2.891   6.273   1.781
 4884SOL    HW115551   2.829   6.265   1.703
 4884SOL    HW215552   2.927   6.183   1.804
 4885SOL     OW15553   2.208   5.139   1.433
 4885SOL    HW115554   2.250   5.194   1.505
 4885SOL    HW215555   2.143   5.195   1.381
 4886SOL     OW15556   1.433   5.665   1.379
 4886SOL    HW115557   1.394   5.747   1.421
 4886SOL    HW215558   1.438   5.678   1.279
 4887SOL     OW15559   0.281   0.089   1.559
 4887SOL    HW115560   0.199   0.134   1.523
 4887SOL    HW215561   0.254   0.015   1.620
 4888SOL     OW15562   2.810   0.202   4.585
 4888SOL    HW115563   2.714   0.181   4.603
 4888SOL    HW215564   2.862   0.117   4.581
 4889SOL     OW15565   6.774   1.861   5.239
 4889SOL    HW115566   6.736   1.938   5.188
 4889SOL    HW215567   6.785   1.782   5.179
 4890SOL     OW15568   6.956   0.833   5.971
 4890SOL    HW115569   0.001   0.858   6.042
 4890SOL    HW215570   6.982   0.744   5.932
 4891SOL     OW15571   1.825   4.799   0.084
 4891SOL    HW115572   1.794   4.829   0.175
 4891SOL    HW215573   1.848   4.702   0.088
 4892SOL     OW15574   3.294   5.712   2.134
 4892SOL    HW115575   3.346   5.628   2.145
 4892SOL    HW215576   3.303   5.768   2.216
 4893SOL     OW15577   6.493   2.834   1.716
 4893SOL    HW115578   6.429   2.777   1.666
 4893SOL    HW215579   6.533   2.902   1.654
 4894SOL     OW15580   3.015   0.261   3.086
 4894SOL    HW115581   3.072   0.296   3.160
 4894SOL    HW215582   2.967   0.337   3.043
 4895SOL     OW15583   0.994   5.043   4.513
 4895SOL    HW115584   1.003   5.025   4.415
 4895SOL    HW215585   0.960   4.960   4.559
 4896SOL     OW15586   2.011   4.349   1.865
 4896SOL    HW115587   2.000   4.444   1.833
 4896SOL    HW215588   2.047   4.349   1.958
 4897SOL     OW15589   1.714   4.472   5.713
 4897SOL    HW115590   1.622   4.508   5.731
 4897SOL    HW215591   1.742   4.497   5.621
 4898SOL     OW15592   4.387   0.797   4.607
 4898SOL    HW115593   4.411   0.845   4.691
 4898SOL    HW215594   4.417   0.850   4.528
 4899SOL     OW15595   5.731   5.590   2.955
 4899SOL    HW115596   5.664   5.664   2.948
 4899SOL    HW215597   5.823   5.626   2.936
 4900SOL     OW15598   3.051   6.438   5.372
 4900SOL    HW115599   3.137   6.460   5.418
 4900SOL    HW215600   3.048   6.341   5.351
 4901SOL     OW15601   2.880   1.430   5.331
 4901SOL    HW115602   2.933   1.423   5.246
 4901SOL    HW215603   2.903   1.353   5.390
 4902SOL     OW15604   1.946   2.015   5.164
 4902SOL    HW115605   1.925   1.948   5.235
 4902SOL    HW215606   2.044   2.011   5.143
 4903SOL     OW15607   3.968   5.602   0.544
 4903SOL    HW115608   3.920   5.672   0.596
 4903SOL    HW215609   3.961   5.515   0.592
 4904SOL     OW15610   2.512   0.400   5.221
 4904SOL    HW115611   2.474   0.312   5.252
 4904SOL    HW215612   2.444   0.472   5.234
 4905SOL     OW15613   3.599   1.082   3.349
 4905SOL    HW115614   3.563   1.141   3.277
 4905SOL    HW215615   3.698   1.072   3.338
 4906SOL     OW15616   5.479   1.648   6.649
 4906SOL    HW115617   5.472   1.747   6.633
 4906SOL    HW215618   5.397   1.616   6.697
 4907SOL     OW15619   4.122   6.488   2.270
 4907SOL    HW115620   4.087   6.396   2.253
 4907SOL    HW215621   4.189   6.485   2.343
 4908SOL     OW15622   5.970   6.493   0.185
 4908SOL    HW115623   5.930   6.486   0.094
 4908SOL    HW215624   5.904   6.460   0.253
 4909SOL     OW15625   0.569   6.888   3.986
 4909SOL    HW115626   0.643   6.829   4.017
 4909SOL    HW215627   0.518   6.841   3.914
 4910SOL     OW15628   5.089   1.002   4.915
 4910SOL    HW115629   5.005   0.950   4.899
 4910SOL    HW215630   5.077   1.061   4.995
 4911SOL     OW15631   1.644   4.019   3.445
 4911SOL    HW115632   1.731   4.067   3.457
 4911SOL    HW215633   1.579   4.077   3.396
 4912SOL     OW15634   5.531   1.039   5.668
 4912SOL    HW115635   5.539   1.136   5.647
 4912SOL    HW215636   5.533   0.986   5.583
 4913SOL     OW15637   4.030   3.139   5.189
 4913SOL    HW115638   3.966   3.208   5.223
 4913SOL    HW215639   4.005   3.049   5.226
 4914SOL     OW15640   3.586   0.251   4.741
 4914SOL    HW115641   3.564   0.156   4.766
 4914SOL    HW215642   3.641   0.251   4.657
 4915SOL     OW15643   3.062   6.112   5.732
 4915SOL    HW115644   3.070   6.037   5.797
 4915SOL    HW215645   2.976   6.160   5.747
 4916SOL     OW15646   1.464   0.686   3.965
 4916SOL    HW115647   1.377   0.665   3.921
 4916SOL    HW215648   1.539   0.659   3.904
 4917SOL     OW15649   2.453   5.452   1.578
 4917SOL    HW115650   2.387   5.379   1.595
 4917SOL    HW215651   2.406   5.540   1.581
 4918SOL     OW15652   5.219   6.217   2.623
 4918SOL    HW115653   5.201   6.248   2.530
 4918SOL    HW215654   5.165   6.271   2.688
 4919SOL     OW15655   3.742   2.384   0.712
 4919SOL    HW115656   3.647   2.400   0.736
 4919SOL    HW215657   3.802   2.433   0.775
 4920SOL     OW15658   5.293   0.107   4.402
 4920SOL    HW115659   5.282   0.128   4.305
 4920SOL    HW215660   5.208   0.131   4.450
 4921SOL     OW15661   0.945   5.120   0.359
 4921SOL    HW115662   0.858   5.161   0.384
 4921SOL    HW215663   0.959   5.128   0.260
 4922SOL     OW15664   3.047   2.059   5.183
 4922SOL    HW115665   2.995   2.113   5.249
 4922SOL    HW215666   3.100   2.121   5.125
 4923SOL     OW15667   3.843   1.659   2.480
 4923SOL    HW115668   3.781   1.650   2.402
 4923SOL    HW215669   3.812   1.734   2.538
 4924SOL     OW15670   3.660   1.341   4.683
 4924SOL    HW115671   3.565   1.310   4.681
 4924SOL    HW215672   3.666   1.430   4.636
 4925SOL     OW15673   6.447   6.967   2.490
 4925SOL    HW115674   6.387   0.027   2.478
 4925SOL    HW215675   6.392   6.883   2.485
 4926SOL     OW15676   5.107   0.966   0.538
 4926SOL    HW115677   5.104   0.902   0.615
 4926SOL    HW215678   5.039   0.939   0.470
 4927SOL     OW15679   3.471   3.826   4.544
 4927SOL    HW115680   3.496   3.804   4.639
 4927SOL    HW215681   3.378   3.794   4.526
 4928SOL     OW15682   2.163   0.008   6.718
 4928SOL    HW115683   2.253   7.013   6.758
 4928SOL    HW215684   2.131   0.100   6.743
 4929SOL     OW15685   6.669   6.951   4.682
 4929SOL    HW115686   6.605   0.006   4.667
 4929SOL    HW215687   6.647   6.876   4.619
 4930SOL     OW15688   5.451   1.036   2.878
 4930SOL    HW115689   5.368   1.061   2.927
 4930SOL    HW215690   5.530   1.073   2.926
 4931SOL     OW15691   6.974   6.895   1.069
 4931SOL    HW115692   7.013   6.943   0.990
 4931SOL    HW215693   6.883   6.861   1.045
 4932SOL     OW15694   3.673   2.938   1.965
 4932SOL    HW115695   3.599   2.941   2.032
 4932SOL    HW215696   3.662   2.856   1.908
 4933SOL     OW15697   2.202   6.469   2.200
 4933SOL    HW115698   2.295   6.434   2.211
 4933SOL    HW215699   2.180   6.529   2.278
 4934SOL     OW15700   3.095   5.541   2.948
 4934SOL    HW115701   3.138   5.462   2.992
 4934SOL    HW215702   3.053   5.599   3.018
 4935SOL     OW15703   1.578   2.092   6.403
 4935SOL    HW115704   1.513   2.105   6.479
 4935SOL    HW215705   1.648   2.026   6.430
 4936SOL     OW15706   2.976   4.981   1.376
 4936SOL    HW115707   2.960   5.035   1.294
 4936SOL    HW215708   2.975   4.884   1.353
 4937SOL     OW15709   5.486   3.091   6.033
 4937SOL    HW115710   5.566   3.117   5.978
 4937SOL    HW215711   5.412   3.157   6.018
 4938SOL     OW15712   1.915   5.067   5.794
 4938SOL    HW115713   2.005   5.049   5.834
 4938SOL    HW215714   1.881   4.984   5.748
 4939SOL     OW15715   5.688   2.083   4.855
 4939SOL    HW115716   5.776   2.098   4.811
 4939SOL    HW215717   5.623   2.046   4.788
 4940SOL     OW15718   0.484   1.134   4.723
 4940SOL    HW115719   0.507   1.117   4.627
 4940SOL    HW215720   0.420   1.064   4.755
 4941SOL     OW15721   4.808   1.882   6.076
 4941SOL    HW115722   4.845   1.945   6.144
 4941SOL    HW215723   4.846   1.905   5.986
 4942SOL     OW15724   4.858   2.521   5.776
 4942SOL    HW115725   4.941   2.482   5.736
 4942SOL    HW215726   4.855   2.501   5.874
 4943SOL     OW15727   4.745   3.335   6.827
 4943SOL    HW115728   4.800   3.262   6.784
 4943SOL    HW215729   4.797   3.420   6.826
 4944SOL     OW15730   2.138   4.355   2.136
 4944SOL    HW115731   2.224   4.310   2.160
 4944SOL    HW215732   2.064   4.319   2.192
 4945SOL     OW15733   0.763   0.877   3.917
 4945SOL    HW115734   0.816   0.898   3.835
 4945SOL    HW215735   0.821   0.827   3.982
 4946SOL     OW15736   0.612   3.057   0.279
 4946SOL    HW115737   0.529   3.083   0.328
 4946SOL    HW215738   0.680   3.130   0.289
 4947SOL     OW15739   2.046   1.011   1.323
 4947SOL    HW115740   2.027   0.965   1.237
 4947SOL    HW215741   2.143   0.999   1.347
 4948SOL     OW15742   2.056   1.568   2.507
 4948SOL    HW115743   1.957   1.569   2.494
 4948SOL    HW215744   2.088   1.661   2.522
 4949SOL     OW15745   4.472   6.522   6.645
 4949SOL    HW115746   4.397   6.463   6.675
 4949SOL    HW215747   4.452   6.617   6.668
 4950SOL     OW15748   3.275   5.503   4.262
 4950SOL    HW115749   3.318   5.590   4.235
 4950SOL    HW215750   3.209   5.476   4.193
 4951SOL     OW15751   5.166   1.315   4.909
 4951SOL    HW115752   5.121   1.276   4.989
 4951SOL    HW215753   5.171   1.414   4.919
 4952SOL     OW15754   6.877   0.932   5.074
 4952SOL    HW115755   6.841   0.932   4.981
 4952SOL    HW215756   6.951   0.865   5.081
 4953SOL     OW15757   2.051   6.408   1.989
 4953SOL    HW115758   1.961   6.392   2.030
 4953SOL    HW215759   2.119   6.421   2.061
 4954SOL     OW15760   4.288   3.969   6.769
 4954SOL    HW115761   4.318   3.930   6.683
 4954SOL    HW215762   4.202   4.018   6.756
 4955SOL     OW15763   2.540   6.223   6.855
 4955SOL    HW115764   2.495   6.308   6.825
 4955SOL    HW215765   2.473   6.149   6.855
 4956SOL     OW15766   2.547   6.572   5.238
 4956SOL    HW115767   2.542   6.623   5.151
 4956SOL    HW215768   2.527   6.476   5.221
 4957SOL     OW15769   6.528   1.962   2.739
 4957SOL    HW115770   6.442   1.958   2.789
 4957SOL    HW215771   6.541   1.878   2.687
 4958SOL     OW15772   6.579   5.820   5.117
 4958SOL    HW115773   6.496   5.851   5.162
 4958SOL    HW215774   6.651   5.808   5.185
 4959SOL     OW15775   6.525   1.997   6.547
 4959SOL    HW115776   6.530   2.092   6.575
 4959SOL    HW215777   6.455   1.950   6.602
 4960SOL     OW15778   3.497   5.569   3.328
 4960SOL    HW115779   3.489   5.646   3.264
 4960SOL    HW215780   3.594   5.547   3.341
 4961SOL     OW15781   4.950   1.577   5.949
 4961SOL    HW115782   4.888   1.610   5.879
 4961SOL    HW215783   4.910   1.591   6.039
 4962SOL     OW15784   6.166   2.847   0.869
 4962SOL    HW115785   6.098   2.828   0.940
 4962SOL    HW215786   6.244   2.895   0.909
 4963SOL     OW15787   6.633   5.746   6.786
 4963SOL    HW115788   6.644   5.723   6.883
 4963SOL    HW215789   6.536   5.755   6.764
 4964SOL     OW15790   3.632   0.221   3.925
 4964SOL    HW115791   3.593   0.272   4.001
 4964SOL    HW215792   3.728   0.198   3.946
 4965SOL     OW15793   0.212   0.528   3.540
 4965SOL    HW115794   0.268   0.519   3.622
 4965SOL    HW215795   0.134   0.465   3.546
 4966SOL     OW15796   1.967   0.579   5.218
 4966SOL    HW115797   1.966   0.621   5.309
 4966SOL    HW215798   2.006   0.487   5.224
 4967SOL     OW15799   4.236   3.449   5.892
 4967SOL    HW115800   4.312   3.443   5.827
 4967SOL    HW215801   4.248   3.379   5.963
 4968SOL     OW15802   5.780   2.414   3.363
 4968SOL    HW115803   5.840   2.475   3.312
 4968SOL    HW215804   5.685   2.432   3.339
 4969SOL     OW15805   2.477   0.681   2.055
 4969SOL    HW115806   2.383   0.693   2.025
 4969SOL    HW215807   2.522   0.770   2.064
 4970SOL     OW15808   1.302   2.097   4.390
 4970SOL    HW115809   1.321   2.184   4.345
 4970SOL    HW215810   1.284   2.113   4.487
 4971SOL     OW15811   6.031   6.263   3.466
 4971SOL    HW115812   5.971   6.297   3.393
 4971SOL    HW215813   6.006   6.168   3.488
 4972SOL     OW15814   1.677   3.205   0.151
 4972SOL    HW115815   1.629   3.228   0.236
 4972SOL    HW215816   1.612   3.199   0.076
 4973SOL     OW15817   0.488   0.388   2.138
 4973SOL    HW115818   0.575   0.339   2.130
 4973SOL    HW215819   0.503   0.474   2.186
 4974SOL     OW15820   5.722   4.772   1.389
 4974SOL    HW115821   5.731   4.790   1.487
 4974SOL    HW215822   5.725   4.859   1.339
 4975SOL     OW15823   5.583   5.429   6.248
 4975SOL    HW115824   5.597   5.524   6.220
 4975SOL    HW215825   5.494   5.420   6.292
 4976SOL     OW15826   3.283   0.192   4.704
 4976SOL    HW115827   3.313   0.283   4.733
 4976SOL    HW215828   3.194   0.172   4.744
 4977SOL     OW15829   4.523   4.166   0.458
 4977SOL    HW115830   4.544   4.170   0.360
 4977SOL    HW215831   4.605   4.191   0.510
 4978SOL     OW15832   6.564   4.019   5.368
 4978SOL    HW115833   6.530   4.112   5.358
 4978SOL    HW215834   6.557   3.991   5.464
 4979SOL     OW15835   0.546   0.784   5.206
 4979SOL    HW115836   0.446   0.789   5.210
 4979SOL    HW215837   0.578   0.717   5.273
 4980SOL     OW15838   4.542   6.760   3.353
 4980SOL    HW115839   4.537   6.798   3.446
 4980SOL    HW215840   4.531   6.660   3.357
 4981SOL     OW15841   4.753   5.443   6.228
 4981SOL    HW115842   4.669   5.409   6.271
 4981SOL    HW215843   4.823   5.371   6.231
 4982SOL     OW15844   2.025   2.145   6.837
 4982SOL    HW115845   1.939   2.197   6.846
 4982SOL    HW215846   2.095   2.204   6.797
 4983SOL     OW15847   5.393   2.258   4.346
 4983SOL    HW115848   5.389   2.280   4.444
 4983SOL    HW215849   5.302   2.268   4.306
 4984SOL     OW15850   5.808   3.884   4.362
 4984SOL    HW115851   5.858   3.918   4.442
 4984SOL    HW215852   5.835   3.937   4.281
 4985SOL     OW15853   5.805   6.417   2.929
 4985SOL    HW115854   5.870   6.394   3.002
 4985SOL    HW215855   5.782   6.334   2.878
 4986SOL     OW15856   6.223   4.312   2.765
 4986SOL    HW115857   6.125   4.294   2.775
 4986SOL    HW215858   6.273   4.264   2.837
 4987SOL     OW15859   0.879   1.667   0.892
 4987SOL    HW115860   0.877   1.755   0.846
 4987SOL    HW215861   0.972   1.631   0.892
 4988SOL     OW15862   5.900   1.577   3.493
 4988SOL    HW115863   6.000   1.575   3.493
 4988SOL    HW215864   5.865   1.513   3.425
 4989SOL     OW15865   5.079   0.364   1.355
 4989SOL    HW115866   4.998   0.390   1.302
 4989SOL    HW215867   5.130   0.295   1.304
 4990SOL     OW15868   1.363   1.508   5.569
 4990SOL    HW115869   1.436   1.544   5.628
 4990SOL    HW215870   1.304   1.584   5.541
 4991SOL     OW15871   0.582   3.562   4.111
 4991SOL    HW115872   0.545   3.552   4.019
 4991SOL    HW215873   0.677   3.595   4.106
 4992SOL     OW15874   4.694   0.795   4.639
 4992SOL    HW115875   4.708   0.714   4.695
 4992SOL    HW215876   4.641   0.770   4.558
 4993SOL     OW15877   3.862   5.362   4.190
 4993SOL    HW115878   3.888   5.453   4.224
 4993SOL    HW215879   3.945   5.310   4.169
 4994SOL     OW15880   1.273   0.497   2.583
 4994SOL    HW115881   1.339   0.544   2.525
 4994SOL    HW215882   1.293   0.399   2.583
 4995SOL     OW15883   6.745   2.692   6.079
 4995SOL    HW115884   6.747   2.763   6.150
 4995SOL    HW215885   6.746   2.602   6.122
 4996SOL     OW15886   1.459   1.003   2.731
 4996SOL    HW115887   1.413   0.929   2.682
 4996SOL    HW215888   1.399   1.037   2.804
 4997SOL     OW15889   6.221   1.982   3.126
 4997SOL    HW115890   6.192   1.890   3.100
 4997SOL    HW215891   6.185   2.048   3.061
 4998SOL     OW15892   2.151   3.643   5.217
 4998SOL    HW115893   2.171   3.736   5.249
 4998SOL    HW215894   2.222   3.581   5.249
 4999SOL     OW15895   5.543   5.167   1.313
 4999SOL    HW115896   5.519   5.166   1.410
 4999SOL    HW215897   5.623   5.108   1.298
 5000SOL     OW15898   1.910   0.142   4.335
 5000SOL    HW115899   1.908   0.063   4.396
 5000SOL    HW215900   1.994   0.141   4.281
 5001SOL     OW15901   1.624   4.683   6.460
 5001SOL    HW115902   1.613   4.739   6.377
 5001SOL    HW215903   1.718   4.690   6.493
 5002SOL     OW15904   1.605   3.245   2.811
 5002SOL    HW115905   1.589   3.182   2.887
 5002SOL    HW215906   1.518   3.270   2.769
 5003SOL     OW15907   2.569   6.701   2.919
 5003SOL    HW115908   2.588   6.744   2.831
 5003SOL    HW215909   2.486   6.644   2.911
 5004SOL     OW15910   2.930   4.910   5.845
 5004SOL    HW115911   3.021   4.917   5.888
 5004SOL    HW215912   2.941   4.903   5.746
 5005SOL     OW15913   3.518   2.470   0.885
 5005SOL    HW115914   3.456   2.444   0.959
 5005SOL    HW215915   3.516   2.570   0.874
 5006SOL     OW15916   5.287   6.443   6.798
 5006SOL    HW115917   5.348   6.519   6.821
 5006SOL    HW215918   5.301   6.416   6.703
 5007SOL     OW15919   2.022   0.398   6.515
 5007SOL    HW115920   2.094   0.369   6.451
 5007SOL    HW215921   2.029   0.496   6.530
 5008SOL     OW15922   6.313   0.586   3.280
 5008SOL    HW115923   6.271   0.504   3.318
 5008SOL    HW215924   6.274   0.605   3.190
 5009SOL     OW15925   1.853   6.245   1.819
 5009SOL    HW115926   1.916   6.319   1.792
 5009SOL    HW215927   1.853   6.175   1.749
 5010SOL     OW15928   3.187   2.971   3.145
 5010SOL    HW115929   3.268   2.943   3.196
 5010SOL    HW215930   3.172   2.909   3.068
 5011SOL     OW15931   2.119   3.420   2.257
 5011SOL    HW115932   2.144   3.337   2.306
 5011SOL    HW215933   2.165   3.422   2.169
 5012SOL     OW15934   4.706   3.452   5.888
 5012SOL    HW115935   4.653   3.513   5.829
 5012SOL    HW215936   4.657   3.366   5.900
 5013SOL     OW15937   5.170   1.848   0.263
 5013SOL    HW115938   5.270   1.854   0.261
 5013SOL    HW215939   5.136   1.886   0.348
 5014SOL     OW15940   5.465   4.362   0.692
 5014SOL    HW115941   5.543   4.358   0.754
 5014SOL    HW215942   5.383   4.328   0.739
 5015SOL     OW15943   4.539   2.045   4.234
 5015SOL    HW115944   4.593   2.069   4.315
 5015SOL    HW215945   4.564   2.105   4.158
 5016SOL     OW15946   2.724   1.580   1.283
 5016SOL    HW115947   2.778   1.579   1.367
 5016SOL    HW215948   2.765   1.644   1.218
 5017SOL     OW15949   1.700   2.607   0.065
 5017SOL    HW115950   1.701   2.591   6.986
 5017SOL    HW215951   1.765   2.545   0.109
 5018SOL     OW15952   0.745   4.413   1.226
 5018SOL    HW115953   0.811   4.444   1.294
 5018SOL    HW215954   0.782   4.428   1.134
 5019SOL     OW15955   2.081   4.485   0.273
 5019SOL    HW115956   2.023   4.493   0.193
 5019SOL    HW215957   2.177   4.496   0.247
 5020SOL     OW15958   4.555   6.584   6.104
 5020SOL    HW115959   4.499   6.564   6.184
 5020SOL    HW215960   4.634   6.522   6.102
 5021SOL     OW15961   1.681   1.925   5.851
 5021SOL    HW115962   1.722   1.871   5.777
 5021SOL    HW215963   1.601   1.878   5.886
 5022SOL     OW15964   2.188   0.485   0.293
 5022SOL    HW115965   2.218   0.433   0.213
 5022SOL    HW215966   2.266   0.533   0.333
 5023SOL     OW15967   6.633   2.723   1.296
 5023SOL    HW115968   6.637   2.725   1.196
 5023SOL    HW215969   6.628   2.817   1.331
 5024SOL     OW15970   6.751   4.444   3.188
 5024SOL    HW115971   6.836   4.470   3.141
 5024SOL    HW215972   6.691   4.523   3.195
 5025SOL     OW15973   4.332   2.037   1.951
 5025SOL    HW115974   4.401   2.076   1.890
 5025SOL    HW215975   4.268   2.108   1.980
 5026SOL     OW15976   5.757   5.811   6.347
 5026SOL    HW115977   5.756   5.816   6.447
 5026SOL    HW215978   5.824   5.876   6.311
 5027SOL     OW15979   0.305   0.196   2.107
 5027SOL    HW115980   0.375   0.266   2.123
 5027SOL    HW215981   0.339   0.107   2.136
 5028SOL     OW15982   0.335   6.979   2.941
 5028SOL    HW115983   0.402   6.924   2.892
 5028SOL    HW215984   0.244   6.962   2.904
 5029SOL     OW15985   6.552   3.504   3.944
 5029SOL    HW115986   6.482   3.547   4.001
 5029SOL    HW215987   6.570   3.412   3.978
 5030SOL     OW15988   6.993   0.171   6.964
 5030SOL    HW115989   0.054   0.197   7.017
 5030SOL    HW215990   7.009   0.188   6.867
 5031SOL     OW15991   5.464   0.833   4.790
 5031SOL    HW115992   5.418   0.748   4.814
 5031SOL    HW215993   5.562   0.816   4.779
 5032SOL     OW15994   1.397   3.894   1.506
 5032SOL    HW115995   1.315   3.879   1.452
 5032SOL    HW215996   1.423   3.990   1.502
 5033SOL     OW15997   1.457   4.654   6.710
 5033SOL    HW115998   1.534   4.648   6.647
 5033SOL    HW215999   1.483   4.618   6.800
 5034SOL     OW16000   6.704   2.773   2.998
 5034SOL    HW116001   6.751   2.856   3.027
 5034SOL    HW216002   6.770   2.698   2.988
 5035SOL     OW16003   6.096   3.957   0.893
 5035SOL    HW116004   6.127   3.939   0.987
 5035SOL    HW216005   6.009   4.007   0.896
 5036SOL     OW16006   0.006   4.743   0.185
 5036SOL    HW116007   0.057   4.808   0.241
 5036SOL    HW216008   6.974   4.682   0.245
 5037SOL     OW16009   4.950   2.392   2.344
 5037SOL    HW116010   4.997   2.310   2.375
 5037SOL    HW216011   4.851   2.379   2.352
 5038SOL     OW16012   1.832   5.243   5.564
 5038SOL    HW116013   1.822   5.209   5.657
 5038SOL    HW216014   1.878   5.174   5.508
 5039SOL     OW16015   2.232   3.861   5.554
 5039SOL    HW116016   2.256   3.862   5.457
 5039SOL    HW216017   2.299   3.807   5.605
 5040SOL     OW16018   2.152   4.365   6.100
 5040SOL    HW116019   2.202   4.451   6.085
 5040SOL    HW216020   2.204   4.290   6.058
 5041SOL     OW16021   1.372   3.335   1.283
 5041SOL    HW116022   1.396   3.241   1.304
 5041SOL    HW216023   1.413   3.396   1.351
 5042SOL     OW16024   6.881   2.953   6.707
 5042SOL    HW116025   6.881   2.987   6.802
 5042SOL    HW216026   6.896   2.854   6.708
 5043SOL     OW16027   3.169   0.980   5.600
 5043SOL    HW116028   3.160   1.080   5.595
 5043SOL    HW216029   3.092   0.942   5.652
 5044SOL     OW16030   5.790   0.372   2.860
 5044SOL    HW116031   5.800   0.284   2.907
 5044SOL    HW216032   5.732   0.432   2.915
 5045SOL     OW16033   5.402   2.703   0.038
 5045SOL    HW116034   5.380   2.673   0.131
 5045SOL    HW216035   5.342   2.779   0.012
 5046SOL     OW16036   3.535   4.093   5.065
 5046SOL    HW116037   3.484   4.085   5.151
 5046SOL    HW216038   3.472   4.085   4.988
 5047SOL     OW16039   6.959   2.017   2.468
 5047SOL    HW116040   6.899   2.067   2.405
 5047SOL    HW216041   7.015   1.952   2.417
 5048SOL     OW16042   0.057   2.236   0.866
 5048SOL    HW116043   0.049   2.214   0.768
 5048SOL    HW216044   7.018   2.174   0.918
 5049SOL     OW16045   6.942   1.476   4.018
 5049SOL    HW116046   0.007   1.527   4.029
 5049SOL    HW216047   6.864   1.535   4.040
 5050SOL     OW16048   1.273   1.275   1.924
 5050SOL    HW116049   1.314   1.366   1.934
 5050SOL    HW216050   1.342   1.205   1.945
 5051SOL     OW16051   4.336   3.565   0.689
 5051SOL    HW116052   4.255   3.586   0.743
 5051SOL    HW216053   4.418   3.574   0.746
 5052SOL     OW16054   2.524   4.955   5.864
 5052SOL    HW116055   2.540   4.964   5.766
 5052SOL    HW216056   2.609   4.968   5.914
 5053SOL     OW16057   1.881   4.105   3.575
 5053SOL    HW116058   1.968   4.146   3.551
 5053SOL    HW216059   1.888   4.005   3.568
 5054SOL     OW16060   3.425   5.598   5.060
 5054SOL    HW116061   3.466   5.539   5.130
 5054SOL    HW216062   3.496   5.627   4.995
 5055SOL     OW16063   0.341   1.117   5.035
 5055SOL    HW116064   0.411   1.101   5.104
 5055SOL    HW216065   0.356   1.057   4.956
 5056SOL     OW16066   6.400   4.028   0.536
 5056SOL    HW116067   6.343   3.951   0.507
 5056SOL    HW216068   6.458   4.000   0.612
 5057SOL     OW16069   0.909   5.646   3.708
 5057SOL    HW116070   0.984   5.676   3.767
 5057SOL    HW216071   0.916   5.692   3.620
 5058SOL     OW16072   2.506   4.153   6.416
 5058SOL    HW116073   2.533   4.066   6.457
 5058SOL    HW216074   2.583   4.190   6.363
 5059SOL     OW16075   5.409   3.462   4.195
 5059SOL    HW116076   5.375   3.529   4.129
 5059SOL    HW216077   5.501   3.434   4.168
 5060SOL     OW16078   0.207   2.517   5.335
 5060SOL    HW116079   0.276   2.571   5.287
 5060SOL    HW216080   0.128   2.575   5.357
 5061SOL     OW16081   3.118   3.038   3.938
 5061SOL    HW116082   3.100   3.131   3.969
 5061SOL    HW216083   3.102   3.032   3.839
 5062SOL     OW16084   5.440   1.255   2.276
 5062SOL    HW116085   5.452   1.216   2.367
 5062SOL    HW216086   5.510   1.219   2.215
 5063SOL     OW16087   0.984   6.016   1.758
 5063SOL    HW116088   0.951   5.963   1.679
 5063SOL    HW216089   0.946   6.108   1.755
 5064SOL     OW16090   5.044   5.062   1.272
 5064SOL    HW116091   5.020   5.035   1.365
 5064SOL    HW216092   5.139   5.037   1.253
 5065SOL     OW16093   1.705   1.393   3.059
 5065SOL    HW116094   1.694   1.481   3.013
 5065SOL    HW216095   1.697   1.319   2.992
 5066SOL     OW16096   2.993   4.158   1.797
 5066SOL    HW116097   2.972   4.193   1.705
 5066SOL    HW216098   2.947   4.214   1.865
 5067SOL     OW16099   4.147   1.261   3.096
 5067SOL    HW116100   4.117   1.216   3.011
 5067SOL    HW216101   4.099   1.348   3.106
 5068SOL     OW16102   3.736   5.414   0.420
 5068SOL    HW116103   3.813   5.449   0.365
 5068SOL    HW216104   3.772   5.367   0.501
 5069SOL     OW16105   2.029   2.991   6.074
 5069SOL    HW116106   2.052   3.077   6.119
 5069SOL    HW216107   2.102   2.964   6.012
 5070SOL     OW16108   5.591   4.845   5.095
 5070SOL    HW116109   5.629   4.753   5.091
 5070SOL    HW216110   5.499   4.844   5.056
 5071SOL     OW16111   4.196   2.287   3.553
 5071SOL    HW116112   4.180   2.191   3.576
 5071SOL    HW216113   4.127   2.344   3.599
 5072SOL     OW16114   1.718   1.060   1.423
 5072SOL    HW116115   1.696   1.049   1.520
 5072SOL    HW216116   1.786   1.132   1.412
 5073SOL     OW16117   1.873   5.014   1.342
 5073SOL    HW116118   1.949   5.046   1.287
 5073SOL    HW216119   1.811   4.959   1.286
 5074SOL     OW16120   4.062   2.225   1.870
 5074SOL    HW116121   4.079   2.243   1.967
 5074SOL    HW216122   4.011   2.301   1.830
 5075SOL     OW16123   1.106   2.273   6.886
 5075SOL    HW116124   1.064   2.296   6.798
 5075SOL    HW216125   1.161   2.190   6.876
 5076SOL     OW16126   5.835   6.794   0.503
 5076SOL    HW116127   5.923   6.800   0.550
 5076SOL    HW216128   5.810   6.884   0.467
 5077SOL     OW16129   0.378   3.713   5.994
 5077SOL    HW116130   0.428   3.683   6.075
 5077SOL    HW216131   0.332   3.799   6.014
 5078SOL     OW16132   0.537   1.320   4.207
 5078SOL    HW116133   0.448   1.333   4.163
 5078SOL    HW216134   0.578   1.235   4.175
 5079SOL     OW16135   2.426   2.763   5.287
 5079SOL    HW116136   2.448   2.840   5.227
 5079SOL    HW216137   2.334   2.731   5.267
 5080SOL     OW16138   5.794   5.792   5.559
 5080SOL    HW116139   5.713   5.850   5.548
 5080SOL    HW216140   5.779   5.705   5.514
 5081SOL     OW16141   3.017   4.753   6.388
 5081SOL    HW116142   3.065   4.835   6.357
 5081SOL    HW216143   3.077   4.673   6.380
 5082SOL     OW16144   5.254   0.486   0.380
 5082SOL    HW116145   5.291   0.394   0.372
 5082SOL    HW216146   5.329   0.551   0.389
 5083SOL     OW16147   3.121   0.281   2.091
 5083SOL    HW116148   3.173   0.217   2.147
 5083SOL    HW216149   3.077   0.232   2.016
 5084SOL     OW16150   0.985   4.830   3.997
 5084SOL    HW116151   1.059   4.866   3.941
 5084SOL    HW216152   0.986   4.876   4.086
 5085SOL     OW16153   0.159   2.859   5.490
 5085SOL    HW116154   0.186   2.885   5.397
 5085SOL    HW216155   0.136   2.762   5.492
 5086SOL     OW16156   1.117   4.383   3.033
 5086SOL    HW116157   1.032   4.337   3.007
 5086SOL    HW216158   1.113   4.479   3.004
 5087SOL     OW16159   0.220   5.341   1.508
 5087SOL    HW116160   0.302   5.315   1.457
 5087SOL    HW216161   0.239   5.422   1.563
 5088SOL     OW16162   5.303   6.981   3.316
 5088SOL    HW116163   5.258   0.002   3.237
 5088SOL    HW216164   5.254   6.897   3.341
 5089SOL     OW16165   5.937   4.731   4.146
 5089SOL    HW116166   5.990   4.814   4.129
 5089SOL    HW216167   5.985   4.653   4.104
 5090SOL     OW16168   1.756   1.695   2.181
 5090SOL    HW116169   1.759   1.614   2.123
 5090SOL    HW216170   1.848   1.717   2.213
 5091SOL     OW16171   6.645   0.884   1.698
 5091SOL    HW116172   6.638   0.803   1.756
 5091SOL    HW216173   6.588   0.872   1.616
 5092SOL     OW16174   3.627   3.360   3.680
 5092SOL    HW116175   3.583   3.395   3.597
 5092SOL    HW216176   3.659   3.266   3.664
 5093SOL     OW16177   3.540   1.184   1.083
 5093SOL    HW116178   3.498   1.257   1.029
 5093SOL    HW216179   3.625   1.217   1.124
 5094SOL     OW16180   2.421   5.926   6.534
 5094SOL    HW116181   2.475   5.847   6.565
 5094SOL    HW216182   2.344   5.894   6.479
 5095SOL     OW16183   0.166   2.440   3.147
 5095SOL    HW116184   0.099   2.512   3.168
 5095SOL    HW216185   0.232   2.433   3.221
 5096SOL     OW16186   4.817   4.965   6.703
 5096SOL    HW116187   4.864   4.877   6.694
 5096SOL    HW216188   4.836   5.022   6.623
 5097SOL     OW16189   0.431   6.779   6.971
 5097SOL    HW116190   0.377   6.858   6.942
 5097SOL    HW216191   0.427   6.708   6.901
 5098SOL     OW16192   2.972   1.170   2.132
 5098SOL    HW116193   3.069   1.193   2.142
 5098SOL    HW216194   2.930   1.230   2.064
 5099SOL     OW16195   0.922   6.446   1.681
 5099SOL    HW116196   0.849   6.509   1.708
 5099SOL    HW216197   1.010   6.480   1.714
 5100SOL     OW16198   3.331   5.449   4.538
 5100SOL    HW116199   3.306   5.474   4.444
 5100SOL    HW216200   3.426   5.419   4.541
 5101SOL     OW16201   4.197   0.091   5.759
 5101SOL    HW116202   4.176   0.159   5.829
 5101SOL    HW216203   4.112   0.051   5.725
 5102SOL     OW16204   5.595   6.146   4.434
 5102SOL    HW116205   5.667   6.202   4.474
 5102SOL    HW216206   5.634   6.084   4.366
 5103SOL     OW16207   0.307   1.377   4.102
 5103SOL    HW116208   0.277   1.282   4.092
 5103SOL    HW216209   0.234   1.438   4.070
 5104SOL     OW16210   2.487   6.965   1.792
 5104SOL    HW116211   2.409   6.903   1.788
 5104SOL    HW216212   2.478   0.016   1.722
 5105SOL     OW16213   3.071   2.903   0.279
 5105SOL    HW116214   3.128   2.821   0.277
 5105SOL    HW216215   3.034   2.916   0.372
 5106SOL     OW16216   4.565   1.439   1.411
 5106SOL    HW116217   4.506   1.482   1.343
 5106SOL    HW216218   4.569   1.497   1.493
 5107SOL     OW16219   4.655   2.702   1.531
 5107SOL    HW116220   4.566   2.670   1.499
 5107SOL    HW216221   4.716   2.714   1.453
 5108SOL     OW16222   3.977   3.937   5.066
 5108SOL    HW116223   3.923   4.017   5.038
 5108SOL    HW216224   3.994   3.879   4.986
 5109SOL     OW16225   0.928   2.164   0.503
 5109SOL    HW116226   0.880   2.080   0.476
 5109SOL    HW216227   1.016   2.139   0.543
 5110SOL     OW16228   0.642   0.421   6.195
 5110SOL    HW116229   0.601   0.336   6.229
 5110SOL    HW216230   0.686   0.404   6.107
 5111SOL     OW16231   1.802   1.014   4.291
 5111SOL    HW116232   1.827   1.110   4.274
 5111SOL    HW216233   1.734   0.986   4.224
 5112SOL     OW16234   0.880   0.334   2.885
 5112SOL    HW116235   0.817   0.328   2.808
 5112SOL    HW216236   0.974   0.330   2.852
 5113SOL     OW16237   1.444   5.400   1.405
 5113SOL    HW116238   1.544   5.405   1.406
 5113SOL    HW216239   1.407   5.475   1.351
 5114SOL     OW16240   3.941   6.966   6.772
 5114SOL    HW116241   4.038   6.966   6.795
 5114SOL    HW216242   3.890   7.015   6.843
 5115SOL     OW16243   1.400   5.159   3.204
 5115SOL    HW116244   1.405   5.174   3.303
 5115SOL    HW216245   1.489   5.180   3.162
 5116SOL     OW16246   0.952   6.198   0.694
 5116SOL    HW116247   0.878   6.242   0.642
 5116SOL    HW216248   0.936   6.100   0.698
 5117SOL     OW16249   0.675   3.902   4.111
 5117SOL    HW116250   0.677   3.863   4.203
 5117SOL    HW216251   0.637   3.994   4.115
 5118SOL     OW16252   5.446   0.745   6.652
 5118SOL    HW116253   5.389   0.706   6.580
 5118SOL    HW216254   5.396   0.820   6.696
 5119SOL     OW16255   4.495   1.076   2.699
 5119SOL    HW116256   4.449   1.139   2.763
 5119SOL    HW216257   4.555   1.128   2.639
 5120SOL     OW16258   4.144   7.004   5.206
 5120SOL    HW116259   4.180   6.923   5.253
 5120SOL    HW216260   4.129   6.982   5.110
 5121SOL     OW16261   3.404   2.906   6.897
 5121SOL    HW116262   3.503   2.916   6.893
 5121SOL    HW216263   3.378   2.820   6.852
 5122SOL     OW16264   3.366   6.311   3.592
 5122SOL    HW116265   3.407   6.391   3.549
 5122SOL    HW216266   3.278   6.336   3.632
 5123SOL     OW16267   5.195   1.825   4.454
 5123SOL    HW116268   5.286   1.867   4.445
 5123SOL    HW216269   5.130   1.877   4.398
 5124SOL     OW16270   1.475   5.982   5.106
 5124SOL    HW116271   1.552   6.039   5.135
 5124SOL    HW216272   1.505   5.887   5.098
 5125SOL     OW16273   6.521   3.010   3.526
 5125SOL    HW116274   6.615   3.014   3.560
 5125SOL    HW216275   6.459   3.049   3.594
 5126SOL     OW16276   6.721   5.921   6.587
 5126SOL    HW116277   6.818   5.894   6.581
 5126SOL    HW216278   6.674   5.862   6.652
 5127SOL     OW16279   0.037   3.864   0.325
 5127SOL    HW116280   0.058   3.909   0.238
 5127SOL    HW216281   0.049   3.930   0.399
 5128SOL     OW16282   0.423   0.426   6.987
 5128SOL    HW116283   0.441   0.452   0.062
 5128SOL    HW216284   0.423   0.508   6.929
 5129SOL     OW16285   6.471   6.807   2.933
 5129SOL    HW116286   6.520   6.846   2.855
 5129SOL    HW216287   6.401   6.744   2.900
 5130SOL     OW16288   6.939   5.576   2.926
 5130SOL    HW116289   6.886   5.649   2.883
 5130SOL    HW216290   0.005   5.614   2.961
 5131SOL     OW16291   2.232   4.134   4.005
 5131SOL    HW116292   2.135   4.155   3.986
 5131SOL    HW216293   2.245   4.127   4.104
 5132SOL     OW16294   3.822   2.888   6.621
 5132SOL    HW116295   3.828   2.814   6.554
 5132SOL    HW216296   3.834   2.976   6.574
 5133SOL     OW16297   1.814   5.138   0.122
 5133SOL    HW116298   1.876   5.059   0.118
 5133SOL    HW216299   1.850   5.212   0.065
 5134SOL     OW16300   0.204   3.069   1.946
 5134SOL    HW116301   0.285   3.026   1.904
 5134SOL    HW216302   0.232   3.121   2.026
 5135SOL     OW16303   5.874   2.606   5.136
 5135SOL    HW116304   5.786   2.575   5.172
 5135SOL    HW216305   5.870   2.704   5.118
 5136SOL     OW16306   4.503   0.631   6.086
 5136SOL    HW116307   4.522   0.649   6.182
 5136SOL    HW216308   4.571   0.678   6.029
 5137SOL     OW16309   5.332   3.660   6.047
 5137SOL    HW116310   5.278   3.672   5.963
 5137SOL    HW216311   5.380   3.573   6.044
 5138SOL     OW16312   2.791   2.929   5.833
 5138SOL    HW116313   2.755   3.017   5.801
 5138SOL    HW216314   2.716   2.875   5.872
 5139SOL     OW16315   2.289   0.062   3.157
 5139SOL    HW116316   2.265   6.996   3.111
 5139SOL    HW216317   2.258   0.140   3.102
 5140SOL     OW16318   3.812   2.375   0.136
 5140SOL    HW116319   3.770   2.294   0.094
 5140SOL    HW216320   3.891   2.347   0.190
 5141SOL     OW16321   6.758   3.639   0.349
 5141SOL    HW116322   6.841   3.608   0.395
 5141SOL    HW216323   6.684   3.573   0.364
 5142SOL     OW16324   6.282   0.352   3.968
 5142SOL    HW116325   6.348   0.277   3.967
 5142SOL    HW216326   6.195   0.321   3.931
 5143SOL     OW16327   6.938   4.428   4.404
 5143SOL    HW116328   6.900   4.336   4.387
 5143SOL    HW216329   6.896   4.493   4.340
 5144SOL     OW16330   1.166   4.869   5.963
 5144SOL    HW116331   1.201   4.821   6.044
 5144SOL    HW216332   1.066   4.861   5.961
 5145SOL     OW16333   2.413   4.992   5.394
 5145SOL    HW116334   2.386   4.921   5.330
 5145SOL    HW216335   2.492   4.960   5.447
 5146SOL     OW16336   3.828   4.147   5.176
 5146SOL    HW116337   3.755   4.185   5.120
 5146SOL    HW216338   3.792   4.073   5.232
 5147SOL     OW16339   6.470   4.739   3.012
 5147SOL    HW116340   6.485   4.836   2.993
 5147SOL    HW216341   6.382   4.711   2.974
 5148SOL     OW16342   0.779   6.055   1.020
 5148SOL    HW116343   0.861   6.060   1.077
 5148SOL    HW216344   0.698   6.058   1.079
 5149SOL     OW16345   6.580   6.000   3.182
 5149SOL    HW116346   6.611   5.972   3.273
 5149SOL    HW216347   6.544   5.920   3.134
 5150SOL     OW16348   2.072   4.813   2.584
 5150SOL    HW116349   2.134   4.822   2.662
 5150SOL    HW216350   1.992   4.759   2.611
 5151SOL     OW16351   5.311   2.247   0.698
 5151SOL    HW116352   5.334   2.309   0.622
 5151SOL    HW216353   5.330   2.153   0.670
 5152SOL     OW16354   1.801   4.748   6.850
 5152SOL    HW116355   1.856   4.664   6.847
 5152SOL    HW216356   1.807   4.788   6.942
 5153SOL     OW16357   2.315   0.335   6.722
 5153SOL    HW116358   2.367   0.380   6.794
 5153SOL    HW216359   2.220   0.322   6.751
 5154SOL     OW16360   0.927   3.115   6.183
 5154SOL    HW116361   0.960   3.203   6.217
 5154SOL    HW216362   0.994   3.076   6.120
 5155SOL     OW16363   4.134   7.009   2.495
 5155SOL    HW116364   4.106   0.014   2.402
 5155SOL    HW216365   4.090   6.923   2.521
 5156SOL     OW16366   6.569   3.218   6.190
 5156SOL    HW116367   6.632   3.276   6.242
 5156SOL    HW216368   6.621   3.148   6.141
 5157SOL     OW16369   4.190   2.035   3.650
 5157SOL    HW116370   4.268   2.022   3.711
 5157SOL    HW216371   4.199   1.974   3.571
 5158SOL     OW16372   3.474   0.770   1.730
 5158SOL    HW116373   3.486   0.813   1.819
 5158SOL    HW216374   3.563   0.754   1.688
 5159SOL     OW16375   6.945   3.336   4.000
 5159SOL    HW116376   6.848   3.355   3.983
 5159SOL    HW216377   6.954   3.285   4.086
 5160SOL     OW16378   6.961   4.543   3.407
 5160SOL    HW116379   7.016   4.500   3.478
 5160SOL    HW216380   6.865   4.543   3.435
 5161SOL     OW16381   1.546   3.744   4.958
 5161SOL    HW116382   1.546   3.783   5.051
 5161SOL    HW216383   1.639   3.740   4.924
 5162SOL     OW16384   1.545   5.533   3.485
 5162SOL    HW116385   1.640   5.548   3.457
 5162SOL    HW216386   1.519   5.439   3.465
 5163SOL     OW16387   3.901   5.867   0.648
 5163SOL    HW116388   3.802   5.882   0.642
 5163SOL    HW216389   3.948   5.954   0.631
 5164SOL     OW16390   4.448   2.793   6.549
 5164SOL    HW116391   4.484   2.825   6.461
 5164SOL    HW216392   4.372   2.730   6.532
 5165SOL     OW16393   6.133   4.728   5.537
 5165SOL    HW116394   6.197   4.677   5.595
 5165SOL    HW216395   6.039   4.710   5.567
 5166SOL     OW16396   6.692   5.423   2.877
 5166SOL    HW116397   6.673   5.362   2.953
 5166SOL    HW216398   6.780   5.468   2.891
 5167SOL     OW16399   6.584   5.886   5.710
 5167SOL    HW116400   6.505   5.849   5.759
 5167SOL    HW216401   6.645   5.932   5.775
 5168SOL     OW16402   4.963   3.672   3.165
 5168SOL    HW116403   5.034   3.687   3.096
 5168SOL    HW216404   4.876   3.654   3.119
 5169SOL     OW16405   4.193   1.734   5.414
 5169SOL    HW116406   4.245   1.819   5.426
 5169SOL    HW216407   4.114   1.752   5.355
 5170SOL     OW16408   0.256   4.326   5.025
 5170SOL    HW116409   0.199   4.348   5.103
 5170SOL    HW216410   0.349   4.305   5.056
 5171SOL     OW16411   1.517   5.693   4.014
 5171SOL    HW116412   1.529   5.636   3.932
 5171SOL    HW216413   1.530   5.636   4.095
 5172SOL     OW16414   0.146   2.534   2.572
 5172SOL    HW116415   0.204   2.613   2.592
 5172SOL    HW216416   0.112   2.494   2.657
 5173SOL     OW16417   5.829   4.694   6.274
 5173SOL    HW116418   5.824   4.652   6.365
 5173SOL    HW216419   5.914   4.666   6.230
 5174SOL     OW16420   2.505   4.931   2.923
 5174SOL    HW116421   2.501   5.005   2.990
 5174SOL    HW216422   2.597   4.890   2.925
 5175SOL     OW16423   2.072   3.887   6.604
 5175SOL    HW116424   2.064   3.987   6.603
 5175SOL    HW216425   2.166   3.861   6.584
 5176SOL     OW16426   4.360   3.249   6.620
 5176SOL    HW116427   4.311   3.199   6.692
 5176SOL    HW216428   4.418   3.319   6.661
 5177SOL     OW16429   4.923   0.402   6.526
 5177SOL    HW116430   4.901   0.464   6.450
 5177SOL    HW216431   4.989   0.446   6.586
 5178SOL     OW16432   1.145   3.480   1.409
 5178SOL    HW116433   1.091   3.473   1.325
 5178SOL    HW216434   1.226   3.423   1.401
 5179SOL     OW16435   4.052   5.959   4.813
 5179SOL    HW116436   4.069   5.902   4.894
 5179SOL    HW216437   4.088   6.051   4.829
 5180SOL     OW16438   3.159   2.602   0.245
 5180SOL    HW116439   3.068   2.582   0.279
 5180SOL    HW216440   3.163   2.583   0.147
 5181SOL     OW16441   5.005   2.137   2.417
 5181SOL    HW116442   4.935   2.067   2.436
 5181SOL    HW216443   5.094   2.105   2.450
 5182SOL     OW16444   3.767   4.747   1.670
 5182SOL    HW116445   3.694   4.694   1.713
 5182SOL    HW216446   3.761   4.739   1.571
 5183SOL     OW16447   3.925   1.397   2.456
 5183SOL    HW116448   3.887   1.487   2.477
 5183SOL    HW216449   3.904   1.373   2.361
 5184SOL     OW16450   0.378   2.496   4.264
 5184SOL    HW116451   0.338   2.416   4.309
 5184SOL    HW216452   0.386   2.571   4.330
 5185SOL     OW16453   5.426   0.947   2.318
 5185SOL    HW116454   5.419   0.849   2.305
 5185SOL    HW216455   5.349   0.992   2.274
 5186SOL     OW16456   6.066   3.120   0.873
 5186SOL    HW116457   6.014   3.088   0.794
 5186SOL    HW216458   6.014   3.191   0.921
 5187SOL     OW16459   0.302   0.438   3.997
 5187SOL    HW116460   0.367   0.470   4.065
 5187SOL    HW216461   0.236   0.376   4.040
 5188SOL     OW16462   0.422   5.280   0.449
 5188SOL    HW116463   0.340   5.336   0.462
 5188SOL    HW216464   0.435   5.221   0.528
 5189SOL     OW16465   5.023   4.932   1.036
 5189SOL    HW116466   5.036   4.962   1.131
 5189SOL    HW216467   5.075   4.849   1.020
 5190SOL     OW16468   7.016   3.248   4.319
 5190SOL    HW116469   0.075   3.311   4.317
 5190SOL    HW216470   0.013   3.173   4.256
 5191SOL     OW16471   4.188   0.567   1.773
 5191SOL    HW116472   4.191   0.572   1.873
 5191SOL    HW216473   4.117   0.502   1.745
 5192SOL     OW16474   2.785   5.559   2.958
 5192SOL    HW116475   2.705   5.616   2.937
 5192SOL    HW216476   2.855   5.614   3.003
 5193SOL     OW16477   5.401   4.427   4.618
 5193SOL    HW116478   5.340   4.469   4.685
 5193SOL    HW216479   5.385   4.466   4.528
 5194SOL     OW16480   4.013   0.732   0.100
 5194SOL    HW116481   3.958   0.815   0.088
 5194SOL    HW216482   3.962   0.666   0.156
 5195SOL     OW16483   6.587   5.764   3.965
 5195SOL    HW116484   6.658   5.816   4.012
 5195SOL    HW216485   6.612   5.668   3.962
 5196SOL     OW16486   1.459   3.869   0.886
 5196SOL    HW116487   1.438   3.853   0.790
 5196SOL    HW216488   1.538   3.931   0.892
 5197SOL     OW16489   1.606   5.730   5.075
 5197SOL    HW116490   1.674   5.713   5.003
 5197SOL    HW216491   1.563   5.644   5.101
 5198SOL     OW16492   4.089   6.727   3.825
 5198SOL    HW116493   4.080   6.684   3.915
 5198SOL    HW216494   4.133   6.664   3.762
 5199SOL     OW16495   1.203   6.388   6.918
 5199SOL    HW116496   1.125   6.417   6.862
 5199SOL    HW216497   1.281   6.369   6.859
 5200SOL     OW16498   1.413   1.835   5.486
 5200SOL    HW116499   1.369   1.881   5.563
 5200SOL    HW216500   1.345   1.780   5.437
 5201SOL     OW16501   6.347   6.155   4.040
 5201SOL    HW116502   6.306   6.124   3.955
 5201SOL    HW216503   6.324   6.251   4.055
 5202SOL     OW16504   5.734   4.354   5.853
 5202SOL    HW116505   5.673   4.433   5.843
 5202SOL    HW216506   5.680   4.270   5.852
 5203SOL     OW16507   2.246   0.551   6.942
 5203SOL    HW116508   2.251   0.457   6.974
 5203SOL    HW216509   2.298   0.611   7.003
 5204SOL     OW16510   4.064   6.513   6.979
 5204SOL    HW116511   4.067   6.576   0.036
 5204SOL    HW216512   4.115   6.430   7.002
 5205SOL     OW16513   6.932   5.987   0.170
 5205SOL    HW116514   7.019   6.002   0.124
 5205SOL    HW216515   6.867   6.059   0.143
 5206SOL     OW16516   0.164   5.315   6.399
 5206SOL    HW116517   0.214   5.308   6.313
 5206SOL    HW216518   0.128   5.408   6.409
 5207SOL     OW16519   1.237   0.234   3.499
 5207SOL    HW116520   1.216   0.137   3.509
 5207SOL    HW216521   1.336   0.246   3.492
 5208SOL     OW16522   4.325   2.520   6.675
 5208SOL    HW116523   4.303   2.427   6.704
 5208SOL    HW216524   4.241   2.571   6.657
 5209SOL     OW16525   5.638   0.820   1.226
 5209SOL    HW116526   5.673   0.914   1.224
 5209SOL    HW216527   5.540   0.821   1.245
 5210SOL     OW16528   4.721   3.546   0.905
 5210SOL    HW116529   4.770   3.542   0.992
 5210SOL    HW216530   4.660   3.625   0.904
 5211SOL     OW16531   4.331   1.729   5.080
 5211SOL    HW116532   4.349   1.641   5.036
 5211SOL    HW216533   4.232   1.742   5.088
 5212SOL     OW16534   1.563   3.135   1.340
 5212SOL    HW116535   1.604   3.193   1.411
 5212SOL    HW216536   1.636   3.092   1.286
 5213SOL     OW16537   4.174   3.680   0.864
 5213SOL    HW116538   4.089   3.681   0.917
 5213SOL    HW216539   4.199   3.774   0.840
 5214SOL     OW16540   5.536   2.790   5.976
 5214SOL    HW116541   5.530   2.890   5.970
 5214SOL    HW216542   5.447   2.750   5.955
 5215SOL     OW16543   0.617   4.631   4.100
 5215SOL    HW116544   0.680   4.672   4.033
 5215SOL    HW216545   0.552   4.571   4.052
 5216SOL     OW16546   4.700   5.107   1.379
 5216SOL    HW116547   4.736   5.021   1.343
 5216SOL    HW216548   4.766   5.147   1.442
 5217SOL     OW16549   3.413   5.752   4.264
 5217SOL    HW116550   3.460   5.836   4.293
 5217SOL    HW216551   3.478   5.694   4.214
 5218SOL     OW16552   0.865   1.283   1.476
 5218SOL    HW116553   0.860   1.183   1.469
 5218SOL    HW216554   0.887   1.321   1.386
 5219SOL     OW16555   3.653   1.594   4.572
 5219SOL    HW116556   3.566   1.632   4.604
 5219SOL    HW216557   3.729   1.638   4.621
 5220SOL     OW16558   1.496   5.476   3.129
 5220SOL    HW116559   1.511   5.554   3.189
 5220SOL    HW216560   1.559   5.402   3.152
 5221SOL     OW16561   6.436   1.014   2.982
 5221SOL    HW116562   6.370   1.026   3.056
 5221SOL    HW216563   6.412   0.933   2.929
 5222SOL     OW16564   3.833   6.756   2.076
 5222SOL    HW116565   3.820   6.673   2.131
 5222SOL    HW216566   3.924   6.794   2.095
 5223SOL     OW16567   6.944   2.804   0.004
 5223SOL    HW116568   0.014   2.833   6.990
 5223SOL    HW216569   6.943   2.806   0.104
 5224SOL     OW16570   6.630   2.575   4.644
 5224SOL    HW116571   6.721   2.618   4.638
 5224SOL    HW216572   6.599   2.577   4.740
 5225SOL     OW16573   6.417   1.176   3.327
 5225SOL    HW116574   6.385   1.270   3.337
 5225SOL    HW216575   6.515   1.176   3.310
 5226SOL     OW16576   0.342   6.886   4.135
 5226SOL    HW116577   0.331   6.957   4.205
 5226SOL    HW216578   0.438   6.881   4.108
 5227SOL     OW16579   0.263   4.274   5.975
 5227SOL    HW116580   0.352   4.249   5.936
 5227SOL    HW216581   0.193   4.270   5.903
 5228SOL     OW16582   0.820   2.031   0.261
 5228SOL    HW116583   0.875   2.103   0.220
 5228SOL    HW216584   0.732   2.024   0.213
 5229SOL     OW16585   2.996   6.677   0.276
 5229SOL    HW116586   2.904   6.662   0.311
 5229SOL    HW216587   3.043   6.590   0.264
 5230SOL     OW16588   6.774   5.974   1.917
 5230SOL    HW116589   6.745   6.006   2.007
 5230SOL    HW216590   6.703   5.916   1.877
 5231SOL     OW16591   4.670   2.691   3.671
 5231SOL    HW116592   4.723   2.756   3.616
 5231SOL    HW216593   4.630   2.622   3.611
 5232SOL     OW16594   0.952   3.929   5.724
 5232SOL    HW116595   1.024   3.913   5.791
 5232SOL    HW216596   0.884   3.855   5.730
 5233SOL     OW16597   3.377   1.095   2.608
 5233SOL    HW116598   3.462   1.148   2.608
 5233SOL    HW216599   3.345   1.083   2.702
 5234SOL     OW16600   2.516   2.357   6.190
 5234SOL    HW116601   2.615   2.365   6.187
 5234SOL    HW216602   2.474   2.447   6.177
 5235SOL     OW16603   1.729   2.213   0.774
 5235SOL    HW116604   1.725   2.115   0.759
 5235SOL    HW216605   1.645   2.243   0.821
 5236SOL     OW16606   3.627   5.612   1.810
 5236SOL    HW116607   3.663   5.701   1.838
 5236SOL    HW216608   3.701   5.545   1.808
 5237SOL     OW16609   1.170   0.843   4.808
 5237SOL    HW116610   1.145   0.932   4.846
 5237SOL    HW216611   1.266   0.823   4.830
 5238SOL     OW16612   0.359   5.058   0.206
 5238SOL    HW116613   0.457   5.054   0.187
 5238SOL    HW216614   0.317   5.129   0.150
 5239SOL     OW16615   3.829   2.536   6.490
 5239SOL    HW116616   3.764   2.598   6.447
 5239SOL    HW216617   3.794   2.506   6.579
 5240SOL     OW16618   3.371   2.265   5.333
 5240SOL    HW116619   3.374   2.193   5.264
 5240SOL    HW216620   3.304   2.335   5.306
 5241SOL     OW16621   0.370   6.254   3.891
 5241SOL    HW116622   0.432   6.176   3.901
 5241SOL    HW216623   0.421   6.334   3.860
 5242SOL     OW16624   6.097   6.493   1.187
 5242SOL    HW116625   6.012   6.477   1.137
 5242SOL    HW216626   6.105   6.590   1.211
 5243SOL     OW16627   2.109   5.265   1.812
 5243SOL    HW116628   2.033   5.302   1.759
 5243SOL    HW216629   2.103   5.297   1.906
 5244SOL     OW16630   3.624   4.315   6.984
 5244SOL    HW116631   3.616   4.250   0.040
 5244SOL    HW216632   3.616   4.267   6.897
 5245SOL     OW16633   3.777   4.204   0.406
 5245SOL    HW116634   3.778   4.149   0.489
 5245SOL    HW216635   3.858   4.263   0.403
 5246SOL     OW16636   6.491   2.803   2.005
 5246SOL    HW116637   6.486   2.800   1.905
 5246SOL    HW216638   6.577   2.844   2.033
 5247SOL     OW16639   2.804   0.403   6.338
 5247SOL    HW116640   2.754   0.345   6.403
 5247SOL    HW216641   2.900   0.376   6.337
 5248SOL     OW16642   6.383   2.300   3.284
 5248SOL    HW116643   6.390   2.223   3.221
 5248SOL    HW216644   6.287   2.318   3.305
 5249SOL     OW16645   0.907   5.661   6.323
 5249SOL    HW116646   0.990   5.639   6.374
 5249SOL    HW216647   0.890   5.759   6.327
 5250SOL     OW16648   0.991   6.082   0.380
 5250SOL    HW116649   0.925   6.150   0.412
 5250SOL    HW216650   1.071   6.128   0.343
 5251SOL     OW16651   1.117   2.985   0.022
 5251SOL    HW116652   1.106   2.910   0.088
 5251SOL    HW216653   1.029   3.003   6.998
 5252SOL     OW16654   2.907   6.598   0.653
 5252SOL    HW116655   2.833   6.631   0.712
 5252SOL    HW216656   2.883   6.614   0.557
 5253SOL     OW16657   6.934   3.879   4.914
 5253SOL    HW116658   7.015   3.937   4.907
 5253SOL    HW216659   6.853   3.933   4.894
 5254SOL     OW16660   4.840   0.701   3.163
 5254SOL    HW116661   4.898   0.683   3.083
 5254SOL    HW216662   4.848   0.797   3.188
 5255SOL     OW16663   5.479   2.045   5.245
 5255SOL    HW116664   5.510   1.950   5.242
 5255SOL    HW216665   5.555   2.106   5.226
 5256SOL     OW16666   5.244   1.833   4.013
 5256SOL    HW116667   5.209   1.919   4.048
 5256SOL    HW216668   5.253   1.838   3.913
 5257SOL     OW16669   5.419   6.624   1.487
 5257SOL    HW116670   5.417   6.555   1.416
 5257SOL    HW216671   5.327   6.636   1.525
 5258SOL     OW16672   6.106   3.290   1.938
 5258SOL    HW116673   6.191   3.265   1.983
 5258SOL    HW216674   6.029   3.256   1.992
 5259SOL     OW16675   4.906   6.071   2.485
 5259SOL    HW116676   4.998   6.031   2.475
 5259SOL    HW216677   4.913   6.171   2.485
 5260SOL     OW16678   4.929   3.444   0.759
 5260SOL    HW116679   5.005   3.421   0.820
 5260SOL    HW216680   4.849   3.468   0.814
 5261SOL     OW16681   6.596   4.036   5.694
 5261SOL    HW116682   6.569   3.940   5.698
 5261SOL    HW216683   6.541   4.089   5.759
 5262SOL     OW16684   2.043   1.528   3.654
 5262SOL    HW116685   2.130   1.554   3.611
 5262SOL    HW216686   2.060   1.495   3.747
 5263SOL     OW16687   1.754   1.167   2.914
 5263SOL    HW116688   1.746   1.103   2.837
 5263SOL    HW216689   1.805   1.123   2.988
 5264SOL     OW16690   6.424   2.185   2.159
 5264SOL    HW116691   6.409   2.261   2.095
 5264SOL    HW216692   6.410   2.098   2.112
 5265SOL     OW16693   6.252   3.747   3.902
 5265SOL    HW116694   6.304   3.762   3.817
 5265SOL    HW216695   6.275   3.656   3.938
 5266SOL     OW16696   3.514   5.406   6.930
 5266SOL    HW116697   3.596   5.349   6.930
 5266SOL    HW216698   3.474   5.406   0.002
 5267SOL     OW16699   5.059   1.780   5.184
 5267SOL    HW116700   5.110   1.812   5.264
 5267SOL    HW216701   4.961   1.794   5.198
 5268SOL     OW16702   5.650   0.994   0.076
 5268SOL    HW116703   5.707   0.913   0.095
 5268SOL    HW216704   5.632   1.042   0.162
 5269SOL     OW16705   1.068   6.272   2.337
 5269SOL    HW116706   1.065   6.332   2.417
 5269SOL    HW216707   1.000   6.200   2.347
 5270SOL     OW16708   5.371   0.961   1.733
 5270SOL    HW116709   5.390   0.977   1.830
 5270SOL    HW216710   5.310   0.882   1.723
 5271SOL     OW16711   6.335   5.229   5.355
 5271SOL    HW116712   6.319   5.157   5.422
 5271SOL    HW216713   6.261   5.229   5.287
 5272SOL     OW16714   3.502   6.505   1.688
 5272SOL    HW116715   3.475   6.429   1.747
 5272SOL    HW216716   3.475   6.591   1.731
 5273SOL     OW16717   0.549   3.038   3.365
 5273SOL    HW116718   0.646   3.059   3.353
 5273SOL    HW216719   0.513   3.089   3.443
 5274SOL     OW16720   6.263   0.463   2.840
 5274SOL    HW116721   6.220   0.467   2.750
 5274SOL    HW216722   6.212   0.520   2.904
 5275SOL     OW16723   3.782   2.141   0.597
 5275SOL    HW116724   3.753   2.227   0.640
 5275SOL    HW216725   3.701   2.090   0.568
 5276SOL     OW16726   1.771   0.344   0.604
 5276SOL    HW116727   1.714   0.424   0.621
 5276SOL    HW216728   1.839   0.335   0.677
 5277SOL     OW16729   2.142   1.433   2.120
 5277SOL    HW116730   2.191   1.520   2.122
 5277SOL    HW216731   2.045   1.449   2.104
 5278SOL     OW16732   5.722   6.039   3.362
 5278SOL    HW116733   5.696   6.104   3.433
 5278SOL    HW216734   5.689   5.948   3.387
 5279SOL     OW16735   2.321   5.355   7.006
 5279SOL    HW116736   2.414   5.317   7.011
 5279SOL    HW216737   2.320   5.446   0.027
 5280SOL     OW16738   3.270   5.826   4.910
 5280SOL    HW116739   3.322   5.746   4.941
 5280SOL    HW216740   3.260   5.822   4.810
 5281SOL     OW16741   6.820   1.638   2.222
 5281SOL    HW116742   6.870   1.669   2.142
 5281SOL    HW216743   6.770   1.714   2.262
 5282SOL     OW16744   3.607   1.694   3.616
 5282SOL    HW116745   3.704   1.716   3.623
 5282SOL    HW216746   3.566   1.751   3.545
 5283SOL     OW16747   4.293   6.160   2.001
 5283SOL    HW116748   4.332   6.247   2.029
 5283SOL    HW216749   4.276   6.160   1.902
 5284SOL     OW16750   4.634   4.324   3.388
 5284SOL    HW116751   4.583   4.243   3.417
 5284SOL    HW216752   4.664   4.311   3.293
 5285SOL     OW16753   2.430   4.417   4.170
 5285SOL    HW116754   2.352   4.395   4.229
 5285SOL    HW216755   2.431   4.354   4.093
 5286SOL     OW16756   1.793   4.466   0.611
 5286SOL    HW116757   1.842   4.541   0.654
 5286SOL    HW216758   1.819   4.380   0.656
 5287SOL     OW16759   3.306   0.787   7.008
 5287SOL    HW116760   3.227   0.734   0.020
 5287SOL    HW216761   3.388   0.757   0.037
 5288SOL     OW16762   2.780   0.227   1.644
 5288SOL    HW116763   2.809   0.203   1.551
 5288SOL    HW216764   2.838   0.301   1.678
 5289SOL     OW16765   2.084   5.362   6.268
 5289SOL    HW116766   2.069   5.316   6.181
 5289SOL    HW216767   2.047   5.306   6.343
 5290SOL     OW16768   2.751   5.391   5.286
 5290SOL    HW116769   2.672   5.422   5.339
 5290SOL    HW216770   2.745   5.428   5.193
 5291SOL     OW16771   2.265   6.003   5.735
 5291SOL    HW116772   2.354   6.022   5.776
 5291SOL    HW216773   2.232   6.086   5.688
 5292SOL     OW16774   5.789   2.701   6.823
 5292SOL    HW116775   5.829   2.630   6.880
 5292SOL    HW216776   5.842   2.711   6.739
 5293SOL     OW16777   0.426   0.918   4.865
 5293SOL    HW116778   0.355   0.849   4.885
 5293SOL    HW216779   0.516   0.875   4.871
 5294SOL     OW16780   4.897   3.538   6.072
 5294SOL    HW116781   4.838   3.502   5.999
 5294SOL    HW216782   4.841   3.565   6.150
 5295SOL     OW16783   6.627   1.318   2.742
 5295SOL    HW116784   6.705   1.266   2.707
 5295SOL    HW216785   6.590   1.272   2.823
 5296SOL     OW16786   1.977   5.728   6.785
 5296SOL    HW116787   1.952   5.794   6.856
 5296SOL    HW216788   1.894   5.694   6.741
 5297SOL     OW16789   1.823   1.821   1.427
 5297SOL    HW116790   1.740   1.782   1.387
 5297SOL    HW216791   1.802   1.911   1.466
 5298SOL     OW16792   6.679   6.070   2.159
 5298SOL    HW116793   6.655   6.009   2.234
 5298SOL    HW216794   6.733   6.147   2.194
 5299SOL     OW16795   2.975   1.990   0.711
 5299SOL    HW116796   2.936   2.018   0.799
 5299SOL    HW216797   2.914   1.925   0.667
 5300SOL     OW16798   0.059   5.650   2.590
 5300SOL    HW116799   0.079   5.702   2.673
 5300SOL    HW216800   0.142   5.603   2.559
 5301SOL     OW16801   4.369   1.408   0.318
 5301SOL    HW116802   4.413   1.497   0.334
 5301SOL    HW216803   4.288   1.421   0.261
 5302SOL     OW16804   6.090   5.537   3.331
 5302SOL    HW116805   6.104   5.447   3.374
 5302SOL    HW216806   5.994   5.549   3.309
 5303SOL     OW16807   6.784   6.888   3.723
 5303SOL    HW116808   6.729   6.874   3.805
 5303SOL    HW216809   6.874   6.846   3.736
 5304SOL     OW16810   6.396   2.472   6.122
 5304SOL    HW116811   6.452   2.547   6.158
 5304SOL    HW216812   6.326   2.448   6.189
 5305SOL     OW16813   1.591   0.567   3.758
 5305SOL    HW116814   1.578   0.616   3.671
 5305SOL    HW216815   1.670   0.507   3.751
 5306SOL     OW16816   1.962   6.716   5.221
 5306SOL    HW116817   2.050   6.697   5.178
 5306SOL    HW216818   1.905   6.769   5.159
 5307SOL     OW16819   4.026   6.315   6.598
 5307SOL    HW116820   4.055   6.336   6.505
 5307SOL    HW216821   4.070   6.378   6.662
 5308SOL     OW16822   0.563   0.224   4.321
 5308SOL    HW116823   0.605   0.179   4.243
 5308SOL    HW216824   0.634   0.260   4.381
 5309SOL     OW16825   3.980   3.839   3.374
 5309SOL    HW116826   4.028   3.770   3.429
 5309SOL    HW216827   3.921   3.893   3.434
 5310SOL     OW16828   5.130   2.552   2.028
 5310SOL    HW116829   5.126   2.568   2.127
 5310SOL    HW216830   5.038   2.553   1.990
 5311SOL     OW16831   0.340   5.874   0.133
 5311SOL    HW116832   0.294   5.929   0.203
 5311SOL    HW216833   0.376   5.934   0.062
 5312SOL     OW16834   0.172   5.026   2.360
 5312SOL    HW116835   0.187   5.007   2.263
 5312SOL    HW216836   0.076   5.011   2.383
 5313SOL     OW16837   0.678   5.088   0.078
 5313SOL    HW116838   0.770   5.126   0.089
 5313SOL    HW216839   0.611   5.162   0.073
 5314SOL     OW16840   4.981   5.067   0.813
 5314SOL    HW116841   5.056   5.132   0.807
 5314SOL    HW216842   4.992   5.011   0.895
 5315SOL     OW16843   4.655   4.483   1.783
 5315SOL    HW116844   4.617   4.483   1.690
 5315SOL    HW216845   4.612   4.410   1.836
 5316SOL     OW16846   0.160   5.311   4.368
 5316SOL    HW116847   0.112   5.266   4.293
 5316SOL    HW216848   0.189   5.402   4.340
 5317SOL     OW16849   5.729   1.095   4.245
 5317SOL    HW116850   5.702   1.179   4.199
 5317SOL    HW216851   5.754   1.026   4.177
 5318SOL     OW16852   6.719   1.970   4.757
 5318SOL    HW116853   6.741   2.067   4.756
 5318SOL    HW216854   6.677   1.943   4.671
 5319SOL     OW16855   4.752   6.672   6.688
 5319SOL    HW116856   4.819   6.643   6.756
 5319SOL    HW216857   4.754   6.610   6.610
 5320SOL     OW16858   5.951   4.926   0.268
 5320SOL    HW116859   5.888   4.920   0.190
 5320SOL    HW216860   5.955   5.021   0.300
 5321SOL     OW16861   0.535   4.947   3.387
 5321SOL    HW116862   0.439   4.924   3.408
 5321SOL    HW216863   0.539   5.037   3.343
 5322SOL     OW16864   3.645   6.609   6.589
 5322SOL    HW116865   3.648   6.667   6.671
 5322SOL    HW216866   3.691   6.656   6.514
 5323SOL     OW16867   4.634   2.970   0.984
 5323SOL    HW116868   4.582   3.010   0.908
 5323SOL    HW216869   4.598   3.005   1.071
 5324SOL     OW16870   3.745   2.468   1.709
 5324SOL    HW116871   3.705   2.463   1.618
 5324SOL    HW216872   3.700   2.403   1.770
 5325SOL     OW16873   5.805   0.360   3.252
 5325SOL    HW116874   5.838   0.405   3.169
 5325SOL    HW216875   5.765   0.428   3.313
 5326SOL     OW16876   6.043   5.068   2.418
 5326SOL    HW116877   5.945   5.083   2.414
 5326SOL    HW216878   6.079   5.105   2.504
 5327SOL     OW16879   0.265   6.227   5.688
 5327SOL    HW116880   0.193   6.296   5.699
 5327SOL    HW216881   0.275   6.206   5.591
 5328SOL     OW16882   3.525   2.288   5.769
 5328SOL    HW116883   3.475   2.206   5.799
 5328SOL    HW216884   3.483   2.369   5.809
 5329SOL     OW16885   6.675   3.718   0.864
 5329SOL    HW116886   6.711   3.811   0.879
 5329SOL    HW216887   6.733   3.652   0.913
 5330SOL     OW16888   3.470   4.226   6.767
 5330SOL    HW116889   3.472   4.139   6.717
 5330SOL    HW216890   3.375   4.252   6.784
 5331SOL     OW16891   4.703   1.856   0.958
 5331SOL    HW116892   4.742   1.847   1.050
 5331SOL    HW216893   4.773   1.891   0.896
 5332SOL     OW16894   6.476   4.454   0.132
 5332SOL    HW116895   6.518   4.364   0.135
 5332SOL    HW216896   6.398   4.457   0.196
 5333SOL     OW16897   1.838   0.922   3.584
 5333SOL    HW116898   1.920   0.866   3.573
 5333SOL    HW216899   1.762   0.863   3.614
 5334SOL     OW16900   4.732   5.194   4.720
 5334SOL    HW116901   4.739   5.217   4.817
 5334SOL    HW216902   4.724   5.278   4.666
 5335SOL     OW16903   6.864   4.296   1.863
 5335SOL    HW116904   6.790   4.321   1.800
 5335SOL    HW216905   6.826   4.275   1.953
 5336SOL     OW16906   1.856   1.814   3.831
 5336SOL    HW116907   1.825   1.909   3.835
 5336SOL    HW216908   1.849   1.781   3.736
 5337SOL     OW16909   5.776   4.856   2.046
 5337SOL    HW116910   5.684   4.818   2.042
 5337SOL    HW216911   5.780   4.938   1.989
 5338SOL     OW16912   5.654   2.657   0.148
 5338SOL    HW116913   5.574   2.714   0.127
 5338SOL    HW216914   5.730   2.715   0.178
 5339SOL     OW16915   5.619   1.867   1.652
 5339SOL    HW116916   5.652   1.881   1.745
 5339SOL    HW216917   5.564   1.784   1.648
 5340SOL     OW16918   5.234   3.903   1.677
 5340SOL    HW116919   5.311   3.947   1.721
 5340SOL    HW216920   5.208   3.821   1.728
 5341SOL     OW16921   4.352   4.692   4.473
 5341SOL    HW116922   4.385   4.732   4.558
 5341SOL    HW216923   4.268   4.739   4.444
 5342SOL     OW16924   4.709   6.301   5.219
 5342SOL    HW116925   4.672   6.374   5.277
 5342SOL    HW216926   4.650   6.288   5.139
 5343SOL     OW16927   3.570   3.495   4.697
 5343SOL    HW116928   3.646   3.558   4.714
 5343SOL    HW216929   3.606   3.403   4.686
 5344SOL     OW16930   0.115   1.435   6.443
 5344SOL    HW116931   0.112   1.335   6.436
 5344SOL    HW216932   0.143   1.461   6.535
 5345SOL     OW16933   5.046   1.135   0.119
 5345SOL    HW116934   5.017   1.095   0.206
 5345SOL    HW216935   4.966   1.174   0.072
 5346SOL     OW16936   2.883   4.965   3.934
 5346SOL    HW116937   2.845   4.887   3.983
 5346SOL    HW216938   2.811   5.033   3.918
 5347SOL     OW16939   0.025   3.270   3.604
 5347SOL    HW116940   0.056   3.360   3.634
 5347SOL    HW216941   0.070   3.247   3.518
 5348SOL     OW16942   0.069   1.208   5.000
 5348SOL    HW116943   7.006   1.152   4.997
 5348SOL    HW216944   0.150   1.149   4.992
 5349SOL     OW16945   2.268   2.811   1.827
 5349SOL    HW116946   2.273   2.854   1.917
 5349SOL    HW216947   2.252   2.880   1.757
 5350SOL     OW16948   2.057   6.804   5.656
 5350SOL    HW116949   1.988   6.805   5.583
 5350SOL    HW216950   2.037   6.729   5.719
 5351SOL     OW16951   0.310   4.602   2.188
 5351SOL    HW116952   0.234   4.659   2.219
 5351SOL    HW216953   0.385   4.660   2.157
 5352SOL     OW16954   2.343   4.278   2.699
 5352SOL    HW116955   2.267   4.223   2.734
 5352SOL    HW216956   2.316   4.320   2.612
 5353SOL     OW16957   3.858   5.310   3.330
 5353SOL    HW116958   3.856   5.233   3.267
 5353SOL    HW216959   3.857   5.277   3.424
 5354SOL     OW16960   2.869   4.463   6.960
 5354SOL    HW116961   2.797   4.520   7.000
 5354SOL    HW216962   2.832   4.413   6.882
 5355SOL     OW16963   4.682   5.525   5.448
 5355SOL    HW116964   4.600   5.540   5.393
 5355SOL    HW216965   4.659   5.472   5.529
 5356SOL     OW16966   6.997   3.249   1.966
 5356SOL    HW116967   0.071   3.222   1.942
 5356SOL    HW216968   6.970   3.201   2.049
 5357SOL     OW16969   4.121   4.739   2.034
 5357SOL    HW116970   4.194   4.806   2.017
 5357SOL    HW216971   4.135   4.659   1.975
 5358SOL     OW16972   4.529   1.998   0.423
 5358SOL    HW116973   4.610   1.959   0.378
 5358SOL    HW216974   4.490   1.931   0.486
 5359SOL     OW16975   2.259   2.002   6.536
 5359SOL    HW116976   2.296   2.066   6.469
 5359SOL    HW216977   2.189   1.944   6.493
 5360SOL     OW16978   5.534   5.786   2.903
 5360SOL    HW116979   5.585   5.872   2.901
 5360SOL    HW216980   5.437   5.804   2.892
 5361SOL     OW16981   2.868   6.240   3.046
 5361SOL    HW116982   2.804   6.316   3.033
 5361SOL    HW216983   2.961   6.270   3.027
 5362SOL     OW16984   6.339   6.735   2.523
 5362SOL    HW116985   6.361   6.690   2.609
 5362SOL    HW216986   6.256   6.694   2.485
 5363SOL     OW16987   5.511   6.273   4.677
 5363SOL    HW116988   5.557   6.273   4.587
 5363SOL    HW216989   5.551   6.344   4.734
 5364SOL     OW16990   5.357   0.723   2.151
 5364SOL    HW116991   5.369   0.709   2.053
 5364SOL    HW216992   5.261   0.710   2.176
 5365SOL     OW16993   2.955   3.436   2.426
 5365SOL    HW116994   2.916   3.527   2.416
 5365SOL    HW216995   2.991   3.425   2.519
 5366SOL     OW16996   6.697   0.142   2.112
 5366SOL    HW116997   6.744   0.227   2.086
 5366SOL    HW216998   6.627   0.120   2.043
 5367SOL     OW16999   5.824   0.087   0.935
 5367SOL    HW117000   5.912   0.043   0.916
 5367SOL    HW217001   5.773   0.097   0.849
 5368SOL     OW17002   0.120   5.837   2.309
 5368SOL    HW117003   0.101   5.825   2.211
 5368SOL    HW217004   0.077   5.921   2.341
 5369SOL     OW17005   2.796   5.875   1.586
 5369SOL    HW117006   2.739   5.798   1.558
 5369SOL    HW217007   2.881   5.875   1.533
 5370SOL     OW17008   4.236   3.213   1.776
 5370SOL    HW117009   4.241   3.113   1.772
 5370SOL    HW217010   4.301   3.252   1.711
 5371SOL     OW17011   0.256   5.118   5.326
 5371SOL    HW117012   0.162   5.151   5.312
 5371SOL    HW217013   0.308   5.131   5.241
 5372SOL     OW17014   0.965   0.175   2.603
 5372SOL    HW117015   0.982   0.084   2.641
 5372SOL    HW217016   0.888   0.217   2.651
 5373SOL     OW17017   3.706   7.003   6.052
 5373SOL    HW117018   3.776   0.004   6.120
 5373SOL    HW217019   3.749   6.957   5.974
 5374SOL     OW17020   2.392   4.273   0.995
 5374SOL    HW117021   2.357   4.361   1.025
 5374SOL    HW217022   2.448   4.233   1.068
 5375SOL     OW17023   0.740   6.023   5.508
 5375SOL    HW117024   0.823   5.970   5.494
 5375SOL    HW217025   0.755   6.117   5.477
 5376SOL     OW17026   1.213   2.466   2.168
 5376SOL    HW117027   1.139   2.399   2.165
 5376SOL    HW217028   1.297   2.425   2.131
 5377SOL     OW17029   2.187   0.972   3.033
 5377SOL    HW117030   2.277   0.974   3.076
 5377SOL    HW217031   2.193   1.009   2.940
 5378SOL     OW17032   6.335   0.676   0.958
 5378SOL    HW117033   6.301   0.723   1.040
 5378SOL    HW217034   6.361   0.582   0.982
 5379SOL     OW17035   0.968   3.292   5.626
 5379SOL    HW117036   0.972   3.257   5.719
 5379SOL    HW217037   0.989   3.390   5.627
 5380SOL     OW17038   3.213   0.023   1.245
 5380SOL    HW117039   3.304   7.005   1.263
 5380SOL    HW217040   3.200   0.105   1.300
 5381SOL     OW17041   6.110   6.220   2.286
 5381SOL    HW117042   6.068   6.250   2.372
 5381SOL    HW217043   6.209   6.231   2.292
 5382SOL     OW17044   3.531   2.135   2.839
 5382SOL    HW117045   3.499   2.222   2.878
 5382SOL    HW217046   3.459   2.095   2.783
 5383SOL     OW17047   1.122   3.051   4.692
 5383SOL    HW117048   1.192   3.027   4.759
 5383SOL    HW217049   1.143   3.141   4.653
 5384SOL     OW17050   4.455   5.553   4.914
 5384SOL    HW117051   4.540   5.605   4.919
 5384SOL    HW217052   4.416   5.546   5.006
 5385SOL     OW17053   6.672   2.380   5.705
 5385SOL    HW117054   6.575   2.399   5.687
 5385SOL    HW217055   6.727   2.412   5.629
 5386SOL     OW17056   5.652   2.326   4.074
 5386SOL    HW117057   5.619   2.234   4.092
 5386SOL    HW217058   5.609   2.390   4.138
 5387SOL     OW17059   2.858   6.504   3.222
 5387SOL    HW117060   2.795   6.488   3.146
 5387SOL    HW217061   2.952   6.498   3.189
 5388SOL     OW17062   1.665   6.579   2.638
 5388SOL    HW117063   1.673   6.532   2.727
 5388SOL    HW217064   1.664   6.510   2.565
 5389SOL     OW17065   4.168   2.253   4.328
 5389SOL    HW117066   4.079   2.208   4.326
 5389SOL    HW217067   4.199   2.269   4.234
 5390SOL     OW17068   5.341   3.877   4.396
 5390SOL    HW117069   5.408   3.947   4.419
 5390SOL    HW217070   5.343   3.805   4.465
 5391SOL     OW17071   2.897   2.295   0.075
 5391SOL    HW117072   2.892   2.276   0.173
 5391SOL    HW217073   2.974   2.244   0.036
 5392SOL     OW17074   4.809   2.938   2.535
 5392SOL    HW117075   4.749   2.865   2.503
 5392SOL    HW217076   4.833   2.998   2.458
 5393SOL     OW17077   4.486   0.519   5.362
 5393SOL    HW117078   4.402   0.542   5.313
 5393SOL    HW217079   4.476   0.429   5.405
 5394SOL     OW17080   0.524   6.024   1.184
 5394SOL    HW117081   0.452   5.968   1.142
 5394SOL    HW217082   0.501   6.121   1.173
 5395SOL     OW17083   5.063   0.777   1.430
 5395SOL    HW117084   5.089   0.717   1.354
 5395SOL    HW217085   5.039   0.867   1.395
 5396SOL     OW17086   5.296   6.110   2.019
 5396SOL    HW117087   5.382   6.160   2.020
 5396SOL    HW217088   5.312   6.016   1.987
 5397SOL     OW17089   6.777   1.926   1.929
 5397SOL    HW117090   6.754   1.924   1.832
 5397SOL    HW217091   6.796   2.021   1.957
 5398SOL     OW17092   3.811   1.937   3.504
 5398SOL    HW117093   3.885   1.986   3.457
 5398SOL    HW217094   3.850   1.868   3.564
 5399SOL     OW17095   2.138   6.468   6.149
 5399SOL    HW117096   2.170   6.384   6.194
 5399SOL    HW217097   2.064   6.446   6.086
 5400SOL     OW17098   3.568   3.354   1.147
 5400SOL    HW117099   3.618   3.317   1.068
 5400SOL    HW217100   3.587   3.296   1.227
 5401SOL     OW17101   4.885   4.450   3.429
 5401SOL    HW117102   4.961   4.386   3.439
 5401SOL    HW217103   4.800   4.399   3.415
 5402SOL     OW17104   3.370   6.262   0.802
 5402SOL    HW117105   3.314   6.335   0.763
 5402SOL    HW217106   3.386   6.280   0.899
 5403SOL     OW17107   4.806   2.889   6.334
 5403SOL    HW117108   4.841   2.837   6.411
 5403SOL    HW217109   4.830   2.985   6.345
 5404SOL     OW17110   0.639   0.607   0.876
 5404SOL    HW117111   0.632   0.638   0.781
 5404SOL    HW217112   0.572   0.535   0.893
 5405SOL     OW17113   5.824   4.561   0.398
 5405SOL    HW117114   5.857   4.543   0.306
 5405SOL    HW217115   5.834   4.478   0.453
 5406SOL     OW17116   1.779   0.935   4.779
 5406SOL    HW117117   1.702   0.878   4.810
 5406SOL    HW217118   1.750   0.988   4.699
 5407SOL     OW17119   2.996   1.282   1.634
 5407SOL    HW117120   2.934   1.359   1.619
 5407SOL    HW217121   3.009   1.233   1.548
 5408SOL     OW17122   3.791   1.795   4.732
 5408SOL    HW117123   3.881   1.802   4.775
 5408SOL    HW217124   3.769   1.881   4.686
 5409SOL     OW17125   6.412   1.971   1.951
 5409SOL    HW117126   6.490   1.999   1.895
 5409SOL    HW217127   6.435   1.888   2.001
 5410SOL     OW17128   0.355   2.787   0.603
 5410SOL    HW117129   0.257   2.801   0.591
 5410SOL    HW217130   0.375   2.689   0.604
 5411SOL     OW17131   5.566   4.217   0.228
 5411SOL    HW117132   5.532   4.272   0.305
 5411SOL    HW217133   5.515   4.132   0.222
 5412SOL     OW17134   2.051   1.470   6.196
 5412SOL    HW117135   2.005   1.419   6.268
 5412SOL    HW217136   2.125   1.415   6.157
 5413SOL     OW17137   6.976   0.303   5.787
 5413SOL    HW117138   6.922   0.221   5.773
 5413SOL    HW217139   6.995   0.346   5.698
 5414SOL     OW17140   6.974   4.472   6.125
 5414SOL    HW117141   0.043   4.504   6.091
 5414SOL    HW217142   6.919   4.439   6.048
 5415SOL     OW17143   3.065   5.747   0.328
 5415SOL    HW117144   3.005   5.678   0.288
 5415SOL    HW217145   3.139   5.702   0.378
 5416SOL     OW17146   3.386   4.939   4.612
 5416SOL    HW117147   3.324   5.004   4.655
 5416SOL    HW217148   3.345   4.903   4.528
 5417SOL     OW17149   4.109   6.913   4.124
 5417SOL    HW117150   4.075   6.968   4.200
 5417SOL    HW217151   4.032   6.867   4.079
 5418SOL     OW17152   5.609   4.723   4.695
 5418SOL    HW117153   5.540   4.747   4.763
 5418SOL    HW217154   5.656   4.639   4.723
 5419SOL     OW17155   4.087   6.671   0.174
 5419SOL    HW117156   4.024   6.653   0.250
 5419SOL    HW217157   4.083   6.769   0.151
 5420SOL     OW17158   1.671   1.601   1.596
 5420SOL    HW117159   1.675   1.602   1.496
 5420SOL    HW217160   1.578   1.582   1.625
 5421SOL     OW17161   3.048   5.437   2.390
 5421SOL    HW117162   3.109   5.446   2.310
 5421SOL    HW217163   3.039   5.341   2.414
 5422SOL     OW17164   2.290   5.594   4.306
 5422SOL    HW117165   2.382   5.622   4.276
 5422SOL    HW217166   2.296   5.555   4.398
 5423SOL     OW17167   6.172   5.509   1.780
 5423SOL    HW117168   6.111   5.545   1.710
 5423SOL    HW217169   6.169   5.409   1.779
 5424SOL     OW17170   4.921   3.824   4.730
 5424SOL    HW117171   4.898   3.727   4.724
 5424SOL    HW217172   4.923   3.851   4.826
 5425SOL     OW17173   6.157   2.923   5.102
 5425SOL    HW117174   6.187   3.019   5.108
 5425SOL    HW217175   6.110   2.909   5.015
 5426SOL     OW17176   4.946   5.238   2.062
 5426SOL    HW117177   4.967   5.179   1.984
 5426SOL    HW217178   4.863   5.206   2.107
 5427SOL     OW17179   4.598   3.044   0.357
 5427SOL    HW117180   4.542   3.110   0.307
 5427SOL    HW217181   4.578   3.051   0.455
 5428SOL     OW17182   5.156   5.990   2.381
 5428SOL    HW117183   5.161   6.089   2.377
 5428SOL    HW217184   5.224   5.950   2.319
 5429SOL     OW17185   2.704   6.889   4.604
 5429SOL    HW117186   2.783   6.904   4.544
 5429SOL    HW217187   2.732   6.841   4.686
 5430SOL     OW17188   1.848   3.194   5.579
 5430SOL    HW117189   1.900   3.183   5.494
 5430SOL    HW217190   1.883   3.129   5.647
 5431SOL     OW17191   3.373   4.994   6.384
 5431SOL    HW117192   3.354   4.897   6.370
 5431SOL    HW217193   3.436   5.026   6.314
 5432SOL     OW17194   5.595   5.903   0.575
 5432SOL    HW117195   5.645   5.986   0.599
 5432SOL    HW217196   5.527   5.884   0.646
 5433SOL     OW17197   1.220   6.771   1.117
 5433SOL    HW117198   1.127   6.793   1.147
 5433SOL    HW217199   1.280   6.849   1.137
 5434SOL     OW17200   4.756   1.124   4.755
 5434SOL    HW117201   4.775   1.117   4.657
 5434SOL    HW217202   4.777   1.217   4.786
 5435SOL     OW17203   6.284   3.550   0.832
 5435SOL    HW117204   6.345   3.564   0.910
 5435SOL    HW217205   6.277   3.452   0.813
 5436SOL     OW17206   0.415   5.601   3.851
 5436SOL    HW117207   0.458   5.648   3.774
 5436SOL    HW217208   0.362   5.523   3.818
 5437SOL     OW17209   3.391   4.732   6.275
 5437SOL    HW117210   3.413   4.717   6.372
 5437SOL    HW217211   3.309   4.679   6.252
 5438SOL     OW17212   5.364   4.811   1.904
 5438SOL    HW117213   5.428   4.790   1.978
 5438SOL    HW217214   5.373   4.743   1.832
 5439SOL     OW17215   0.914   3.755   0.213
 5439SOL    HW117216   0.923   3.855   0.215
 5439SOL    HW217217   0.839   3.730   0.152
 5440SOL     OW17218   5.945   0.172   3.103
 5440SOL    HW117219   6.034   0.217   3.094
 5440SOL    HW217220   5.889   0.222   3.169
 5441SOL     OW17221   5.640   3.129   3.515
 5441SOL    HW117222   5.600   3.108   3.604
 5441SOL    HW217223   5.638   3.227   3.500
 5442SOL     OW17224   4.492   0.585   3.885
 5442SOL    HW117225   4.536   0.656   3.830
 5442SOL    HW217226   4.540   0.577   3.973
 5443SOL     OW17227   4.527   6.794   4.038
 5443SOL    HW117228   4.433   6.771   4.063
 5443SOL    HW217229   4.584   6.796   4.120
 5444SOL     OW17230   6.778   2.186   4.211
 5444SOL    HW117231   6.754   2.269   4.159
 5444SOL    HW217232   6.779   2.208   4.309
 5445SOL     OW17233   5.067   4.844   4.728
 5445SOL    HW117234   5.166   4.839   4.744
 5445SOL    HW217235   5.038   4.765   4.674
 5446SOL     OW17236   6.380   4.595   4.455
 5446SOL    HW117237   6.369   4.534   4.533
 5446SOL    HW217238   6.326   4.678   4.470
 5447SOL     OW17239   2.408   1.240   1.316
 5447SOL    HW117240   2.492   1.280   1.278
 5447SOL    HW217241   2.388   1.281   1.405
 5448SOL     OW17242   4.462   5.589   3.846
 5448SOL    HW117243   4.519   5.555   3.921
 5448SOL    HW217244   4.389   5.646   3.883
 5449SOL     OW17245   3.160   1.326   1.854
 5449SOL    HW117246   3.115   1.400   1.906
 5449SOL    HW217247   3.107   1.307   1.772
 5450SOL     OW17248   3.399   6.056   1.523
 5450SOL    HW117249   3.453   6.138   1.541
 5450SOL    HW217250   3.419   5.986   1.591
 5451SOL     OW17251   1.589   6.773   3.120
 5451SOL    HW117252   1.571   6.833   3.198
 5451SOL    HW217253   1.568   6.678   3.145
 5452SOL     OW17254   1.866   4.386   1.208
 5452SOL    HW117255   1.927   4.320   1.251
 5452SOL    HW217256   1.772   4.351   1.209
 5453SOL     OW17257   5.037   3.797   2.183
 5453SOL    HW117258   4.963   3.861   2.204
 5453SOL    HW217259   5.125   3.846   2.186
 5454SOL     OW17260   5.956   6.226   2.069
 5454SOL    HW117261   5.923   6.319   2.059
 5454SOL    HW217262   6.015   6.219   2.149
 5455SOL     OW17263   0.845   1.523   2.800
 5455SOL    HW117264   0.922   1.489   2.746
 5455SOL    HW217265   0.797   1.594   2.748
 5456SOL     OW17266   5.163   0.838   6.734
 5456SOL    HW117267   5.153   0.738   6.733
 5456SOL    HW217268   5.180   0.869   6.827
 5457SOL     OW17269   6.295   1.922   0.142
 5457SOL    HW117270   6.317   2.008   0.096
 5457SOL    HW217271   6.196   1.909   0.145
 5458SOL     OW17272   6.368   5.268   1.079
 5458SOL    HW117273   6.370   5.368   1.076
 5458SOL    HW217274   6.461   5.233   1.064
 5459SOL     OW17275   2.092   4.930   5.545
 5459SOL    HW117276   2.086   4.972   5.455
 5459SOL    HW217277   2.131   4.995   5.610
 5460SOL     OW17278   2.162   1.515   1.362
 5460SOL    HW117279   2.242   1.527   1.421
 5460SOL    HW217280   2.079   1.520   1.417
 5461SOL     OW17281   1.298   1.262   5.820
 5461SOL    HW117282   1.292   1.163   5.831
 5461SOL    HW217283   1.338   1.283   5.731
 5462SOL     OW17284   5.569   5.921   0.004
 5462SOL    HW117285   5.564   5.941   6.926
 5462SOL    HW217286   5.575   6.007   0.056
 5463SOL     OW17287   6.258   1.989   6.375
 5463SOL    HW117288   6.223   2.081   6.360
 5463SOL    HW217289   6.306   1.958   6.293
 5464SOL     OW17290   6.305   5.568   5.178
 5464SOL    HW117291   6.303   5.603   5.271
 5464SOL    HW217292   6.368   5.490   5.172
 5465SOL     OW17293   6.439   6.855   3.187
 5465SOL    HW117294   6.359   6.801   3.212
 5465SOL    HW217295   6.460   6.841   3.090
 5466SOL     OW17296   5.318   3.001   5.598
 5466SOL    HW117297   5.268   3.065   5.657
 5466SOL    HW217298   5.396   3.049   5.557
 5467SOL     OW17299   5.742   3.572   3.809
 5467SOL    HW117300   5.792   3.486   3.823
 5467SOL    HW217301   5.797   3.635   3.755
 5468SOL     OW17302   6.986   2.846   3.579
 5468SOL    HW117303   0.045   2.790   3.604
 5468SOL    HW217304   6.985   2.859   3.480
 5469SOL     OW17305   2.244   6.753   5.908
 5469SOL    HW117306   2.216   6.696   5.831
 5469SOL    HW217307   2.211   6.846   5.894
 5470SOL     OW17308   4.323   5.162   3.798
 5470SOL    HW117309   4.380   5.187   3.720
 5470SOL    HW217310   4.370   5.186   3.883
 5471SOL     OW17311   5.994   0.424   2.379
 5471SOL    HW117312   5.941   0.417   2.463
 5471SOL    HW217313   5.984   0.516   2.341
 5472SOL     OW17314   3.197   2.782   5.899
 5472SOL    HW117315   3.296   2.773   5.889
 5472SOL    HW217316   3.161   2.836   5.822
 5473SOL     OW17317   1.779   4.761   0.363
 5473SOL    HW117318   1.770   4.848   0.413
 5473SOL    HW217319   1.872   4.727   0.373
 5474SOL     OW17320   0.958   5.826   3.511
 5474SOL    HW117321   0.930   5.852   3.419
 5474SOL    HW217322   0.939   5.901   3.575
 5475SOL     OW17323   1.750   1.909   0.835
 5475SOL    HW117324   1.654   1.921   0.808
 5475SOL    HW217325   1.754   1.875   0.929
 5476SOL     OW17326   3.047   5.098   5.154
 5476SOL    HW117327   3.047   4.998   5.156
 5476SOL    HW217328   3.142   5.131   5.157
 5477SOL     OW17329   1.826   4.111   2.989
 5477SOL    HW117330   1.767   4.160   2.924
 5477SOL    HW217331   1.782   4.026   3.015
 5478SOL     OW17332   5.091   5.755   6.093
 5478SOL    HW117333   5.001   5.728   6.127
 5478SOL    HW217334   5.081   5.798   6.004
 5479SOL     OW17335   4.502   0.926   4.386
 5479SOL    HW117336   4.488   0.990   4.310
 5479SOL    HW217337   4.583   0.870   4.369
 5480SOL     OW17338   6.142   5.431   4.927
 5480SOL    HW117339   6.101   5.512   4.885
 5480SOL    HW217340   6.127   5.434   5.026
 5481SOL     OW17341   4.959   0.823   4.543
 5481SOL    HW117342   4.986   0.737   4.500
 5481SOL    HW217343   4.872   0.811   4.592
 5482SOL     OW17344   3.170   3.903   2.326
 5482SOL    HW117345   3.198   3.981   2.270
 5482SOL    HW217346   3.126   3.936   2.410
 5483SOL     OW17347   6.145   2.600   5.441
 5483SOL    HW117348   6.046   2.588   5.443
 5483SOL    HW217349   6.190   2.513   5.460
 5484SOL     OW17350   6.196   0.365   3.406
 5484SOL    HW117351   6.113   0.416   3.432
 5484SOL    HW217352   6.237   0.324   3.487
 5485SOL     OW17353   3.010   0.004   4.670
 5485SOL    HW117354   3.046   6.934   4.643
 5485SOL    HW217355   3.063   0.039   4.747
 5486SOL     OW17356   2.427   6.632   3.846
 5486SOL    HW117357   2.422   6.724   3.885
 5486SOL    HW217358   2.364   6.572   3.895
 5487SOL     OW17359   5.421   3.797   6.828
 5487SOL    HW117360   5.442   3.891   6.857
 5487SOL    HW217361   5.386   3.745   6.906
 5488SOL     OW17362   4.998   1.506   0.499
 5488SOL    HW117363   4.983   1.452   0.416
 5488SOL    HW217364   5.004   1.445   0.578
 5489SOL     OW17365   1.475   3.912   1.889
 5489SOL    HW117366   1.547   3.860   1.843
 5489SOL    HW217367   1.389   3.861   1.886
 5490SOL     OW17368   3.788   0.271   1.007
 5490SOL    HW117369   3.712   0.212   0.977
 5490SOL    HW217370   3.865   0.260   0.944
 5491SOL     OW17371   1.059   4.080   6.117
 5491SOL    HW117372   0.987   4.148   6.122
 5491SOL    HW217373   1.145   4.120   6.150
 5492SOL     OW17374   1.449   1.788   5.953
 5492SOL    HW117375   1.353   1.796   5.926
 5492SOL    HW217376   1.462   1.831   6.042
 5493SOL     OW17377   3.464   3.478   4.444
 5493SOL    HW117378   3.507   3.528   4.520
 5493SOL    HW217379   3.497   3.384   4.444
 5494SOL     OW17380   6.608   2.355   0.421
 5494SOL    HW117381   6.578   2.275   0.368
 5494SOL    HW217382   6.705   2.373   0.401
 5495SOL     OW17383   3.250   2.655   1.744
 5495SOL    HW117384   3.330   2.672   1.686
 5495SOL    HW217385   3.206   2.569   1.715
 5496SOL     OW17386   2.529   6.439   2.552
 5496SOL    HW117387   2.439   6.405   2.579
 5496SOL    HW217388   2.599   6.398   2.612
 5497SOL     OW17389   0.117   2.339   3.514
 5497SOL    HW117390   0.027   2.356   3.473
 5497SOL    HW217391   0.188   2.353   3.446
 5498SOL     OW17392   5.247   0.331   0.766
 5498SOL    HW117393   5.345   0.335   0.751
 5498SOL    HW217394   5.216   0.236   0.762
 5499SOL     OW17395   1.255   1.094   3.891
 5499SOL    HW117396   1.170   1.124   3.846
 5499SOL    HW217397   1.265   0.995   3.880
 5500SOL     OW17398   1.491   6.174   0.008
 5500SOL    HW117399   1.484   6.224   0.095
 5500SOL    HW217400   1.496   6.076   0.027
 5501SOL     OW17401   3.357   0.094   0.988
 5501SOL    HW117402   3.391   0.087   1.082
 5501SOL    HW217403   3.327   0.004   0.956
 5502SOL     OW17404   5.604   4.585   6.152
 5502SOL    HW117405   5.671   4.650   6.188
 5502SOL    HW217406   5.608   4.500   6.205
 5503SOL     OW17407   0.126   4.262   2.988
 5503SOL    HW117408   0.219   4.288   2.963
 5503SOL    HW217409   0.129   4.185   3.052
 5504SOL     OW17410   3.177   1.258   5.555
 5504SOL    HW117411   3.128   1.345   5.554
 5504SOL    HW217412   3.261   1.267   5.610
 5505SOL     OW17413   2.725   5.478   4.607
 5505SOL    HW117414   2.695   5.574   4.602
 5505SOL    HW217415   2.812   5.468   4.558
 5506SOL     OW17416   6.685   0.803   5.685
 5506SOL    HW117417   6.680   0.712   5.728
 5506SOL    HW217418   6.664   0.794   5.588
 5507SOL     OW17419   2.179   0.003   2.687
 5507SOL    HW117420   2.217   6.931   2.692
 5507SOL    HW217421   2.213   0.057   2.765
 5508SOL     OW17422   2.347   1.349   6.954
 5508SOL    HW117423   2.387   1.348   0.025
 5508SOL    HW217424   2.336   1.443   6.923
 5509SOL     OW17425   0.832   6.569   0.310
 5509SOL    HW117426   0.735   6.588   0.291
 5509SOL    HW217427   0.889   6.617   0.244
 5510SOL     OW17428   5.402   6.079   0.805
 5510SOL    HW117429   5.413   6.054   0.901
 5510SOL    HW217430   5.421   6.176   0.793
 5511SOL     OW17431   2.838   0.132   3.972
 5511SOL    HW117432   2.932   0.144   4.005
 5511SOL    HW217433   2.818   0.034   3.965
 5512SOL     OW17434   6.007   2.243   1.162
 5512SOL    HW117435   6.071   2.301   1.213
 5512SOL    HW217436   5.963   2.297   1.091
 5513SOL     OW17437   4.045   4.400   6.145
 5513SOL    HW117438   4.075   4.381   6.238
 5513SOL    HW217439   3.950   4.372   6.134
 5514SOL     OW17440   4.903   5.651   2.606
 5514SOL    HW117441   4.863   5.735   2.569
 5514SOL    HW217442   5.002   5.653   2.593
 5515SOL     OW17443   0.422   4.266   1.734
 5515SOL    HW117444   0.428   4.315   1.647
 5515SOL    HW217445   0.474   4.181   1.728
 5516SOL     OW17446   1.136   2.782   0.237
 5516SOL    HW117447   1.189   2.712   0.188
 5516SOL    HW217448   1.192   2.821   0.310
 5517SOL     OW17449   2.146   2.575   2.317
 5517SOL    HW117450   2.164   2.557   2.414
 5517SOL    HW217451   2.130   2.488   2.270
 5518SOL     OW17452   6.507   6.510   6.359
 5518SOL    HW117453   6.461   6.422   6.376
 5518SOL    HW217454   6.604   6.501   6.382
 5519SOL     OW17455   5.219   3.285   3.204
 5519SOL    HW117456   5.243   3.369   3.156
 5519SOL    HW217457   5.207   3.211   3.138
 5520SOL     OW17458   6.727   4.991   3.002
 5520SOL    HW117459   6.628   4.997   2.990
 5520SOL    HW217460   6.772   4.996   2.913
 5521SOL     OW17461   3.941   6.296   2.703
 5521SOL    HW117462   3.894   6.359   2.641
 5521SOL    HW217463   3.875   6.233   2.743
 5522SOL     OW17464   1.350   4.360   0.878
 5522SOL    HW117465   1.374   4.444   0.927
 5522SOL    HW217466   1.296   4.383   0.797
 5523SOL     OW17467   3.149   6.528   3.138
 5523SOL    HW117468   3.136   6.602   3.071
 5523SOL    HW217469   3.170   6.443   3.089
 5524SOL     OW17470   6.718   5.256   4.666
 5524SOL    HW117471   6.790   5.202   4.624
 5524SOL    HW217472   6.646   5.196   4.701
 5525SOL     OW17473   0.122   3.604   0.278
 5525SOL    HW117474   0.081   3.695   0.278
 5525SOL    HW217475   0.205   3.605   0.335
 5526SOL     OW17476   5.787   4.189   4.886
 5526SOL    HW117477   5.853   4.245   4.936
 5526SOL    HW217478   5.742   4.126   4.949
 5527SOL     OW17479   1.115   4.097   3.817
 5527SOL    HW117480   1.040   4.083   3.882
 5527SOL    HW217481   1.154   4.008   3.791
 5528SOL     OW17482   0.982   1.678   6.498
 5528SOL    HW117483   1.013   1.772   6.510
 5528SOL    HW217484   0.927   1.672   6.415
 5529SOL     OW17485   2.169   0.043   4.471
 5529SOL    HW117486   2.194   0.127   4.422
 5529SOL    HW217487   2.252   7.016   4.502
 5530SOL     OW17488   0.313   2.747   2.609
 5530SOL    HW117489   0.355   2.808   2.542
 5530SOL    HW217490   0.273   2.802   2.683
 5531SOL     OW17491   3.771   3.663   3.232
 5531SOL    HW117492   3.799   3.755   3.263
 5531SOL    HW217493   3.830   3.595   3.276
 5532SOL     OW17494   1.095   1.140   1.216
 5532SOL    HW117495   1.159   1.140   1.293
 5532SOL    HW217496   1.063   1.233   1.198
 5533SOL     OW17497   3.268   1.316   2.808
 5533SOL    HW117498   3.324   1.369   2.744
 5533SOL    HW217499   3.194   1.271   2.757
 5534SOL     OW17500   0.834   3.007   5.737
 5534SOL    HW117501   0.797   2.915   5.751
 5534SOL    HW217502   0.904   3.005   5.667
 5535SOL     OW17503   0.519   3.216   3.594
 5535SOL    HW117504   0.493   3.298   3.644
 5535SOL    HW217505   0.573   3.156   3.653
 5536SOL     OW17506   3.751   1.477   4.015
 5536SOL    HW117507   3.812   1.555   4.031
 5536SOL    HW217508   3.742   1.461   3.917
 5537SOL     OW17509   2.973   1.076   4.432
 5537SOL    HW117510   3.045   1.146   4.439
 5537SOL    HW217511   3.011   0.993   4.392
 5538SOL     OW17512   3.387   0.366   4.896
 5538SOL    HW117513   3.388   0.465   4.906
 5538SOL    HW217514   3.462   0.338   4.836
 5539SOL     OW17515   1.281   2.760   0.644
 5539SOL    HW117516   1.361   2.804   0.605
 5539SOL    HW217517   1.199   2.814   0.622
 5540SOL     OW17518   5.833   3.792   2.576
 5540SOL    HW117519   5.840   3.828   2.482
 5540SOL    HW217520   5.775   3.711   2.576
 5541SOL     OW17521   5.481   2.107   6.377
 5541SOL    HW117522   5.488   2.202   6.405
 5541SOL    HW217523   5.542   2.090   6.299
 5542SOL     OW17524   5.636   6.082   6.130
 5542SOL    HW117525   5.711   6.083   6.064
 5542SOL    HW217526   5.673   6.096   6.222
 5543SOL     OW17527   2.461   5.293   6.290
 5543SOL    HW117528   2.523   5.260   6.219
 5543SOL    HW217529   2.471   5.392   6.300
 5544SOL     OW17530   5.013   5.881   6.367
 5544SOL    HW117531   5.073   5.914   6.294
 5544SOL    HW217532   4.921   5.915   6.353
 5545SOL     OW17533   4.347   1.540   3.348
 5545SOL    HW117534   4.399   1.518   3.430
 5545SOL    HW217535   4.275   1.471   3.335
 5546SOL     OW17536   1.451   6.984   4.049
 5546SOL    HW117537   1.530   6.923   4.047
 5546SOL    HW217538   1.473   0.045   4.104
 5547SOL     OW17539   3.922   0.410   4.750
 5547SOL    HW117540   4.006   0.434   4.799
 5547SOL    HW217541   3.898   0.315   4.769
 5548SOL     OW17542   5.656   3.182   4.956
 5548SOL    HW117543   5.591   3.258   4.965
 5548SOL    HW217544   5.607   3.096   4.955
 5549SOL     OW17545   4.333   4.873   1.003
 5549SOL    HW117546   4.298   4.919   1.085
 5549SOL    HW217547   4.314   4.775   1.009
 5550SOL     OW17548   2.484   4.487   2.362
 5550SOL    HW117549   2.543   4.523   2.434
 5550SOL    HW217550   2.457   4.561   2.301
 5551SOL     OW17551   1.607   6.220   2.931
 5551SOL    HW117552   1.689   6.165   2.912
 5551SOL    HW217553   1.541   6.164   2.980
 5552SOL     OW17554   6.520   6.916   6.501
 5552SOL    HW117555   6.575   6.999   6.492
 5552SOL    HW217556   6.440   6.923   6.441
 5553SOL     OW17557   5.125   6.077   0.010
 5553SOL    HW117558   5.160   6.024   6.952
 5553SOL    HW217559   5.196   6.085   0.080
 5554SOL     OW17560   4.170   2.239   6.704
 5554SOL    HW117561   4.138   2.243   6.609
 5554SOL    HW217562   4.096   2.268   6.765
 5555SOL     OW17563   1.233   4.190   2.832
 5555SOL    HW117564   1.160   4.126   2.857
 5555SOL    HW217565   1.241   4.260   2.902
 5556SOL     OW17566   6.561   2.052   3.300
 5556SOL    HW117567   6.550   1.953   3.291
 5556SOL    HW217568   6.533   2.080   3.392
 5557SOL     OW17569   3.795   6.830   2.823
 5557SOL    HW117570   3.778   6.865   2.915
 5557SOL    HW217571   3.883   6.782   2.821
 5558SOL     OW17572   3.664   3.455   6.061
 5558SOL    HW117573   3.747   3.466   6.117
 5558SOL    HW217574   3.689   3.452   5.964
 5559SOL     OW17575   1.572   0.356   1.206
 5559SOL    HW117576   1.611   0.335   1.296
 5559SOL    HW217577   1.632   0.322   1.134
 5560SOL     OW17578   0.701   4.902   2.198
 5560SOL    HW117579   0.716   4.995   2.162
 5560SOL    HW217580   0.778   4.877   2.257
 5561SOL     OW17581   1.784   1.577   4.231
 5561SOL    HW117582   1.750   1.625   4.150
 5561SOL    HW217583   1.849   1.636   4.279
 5562SOL     OW17584   4.087   2.612   6.568
 5562SOL    HW117585   4.101   2.679   6.495
 5562SOL    HW217586   3.992   2.579   6.565
 5563SOL     OW17587   3.897   4.940   2.461
 5563SOL    HW117588   3.821   4.881   2.487
 5563SOL    HW217589   3.946   4.970   2.543
 5564SOL     OW17590   4.541   0.121   0.809
 5564SOL    HW117591   4.572   0.090   0.899
 5564SOL    HW217592   4.489   0.206   0.818
 5565SOL     OW17593   4.239   1.933   5.836
 5565SOL    HW117594   4.259   1.835   5.829
 5565SOL    HW217595   4.172   1.947   5.909
 5566SOL     OW17596   1.432   3.969   6.427
 5566SOL    HW117597   1.337   3.953   6.397
 5566SOL    HW217598   1.473   4.039   6.369
 5567SOL     OW17599   7.011   2.662   1.136
 5567SOL    HW117600   6.938   2.655   1.069
 5567SOL    HW217601   0.074   2.698   1.092
 5568SOL     OW17602   4.846   2.174   3.970
 5568SOL    HW117603   4.768   2.116   3.948
 5568SOL    HW217604   4.816   2.252   4.024
 5569SOL     OW17605   2.066   2.226   2.706
 5569SOL    HW117606   2.068   2.228   2.606
 5569SOL    HW217607   1.973   2.244   2.737
 5570SOL     OW17608   6.466   4.039   5.112
 5570SOL    HW117609   6.513   3.998   5.190
 5570SOL    HW217610   6.520   4.115   5.077
 5571SOL     OW17611   6.765   5.807   0.649
 5571SOL    HW117612   6.793   5.882   0.589
 5571SOL    HW217613   6.691   5.836   0.708
 5572SOL     OW17614   1.329   2.444   5.006
 5572SOL    HW117615   1.252   2.479   5.060
 5572SOL    HW217616   1.397   2.516   4.994
 5573SOL     OW17617   2.153   5.333   5.358
 5573SOL    HW117618   2.241   5.286   5.352
 5573SOL    HW217619   2.136   5.359   5.453
 5574SOL     OW17620   0.056   1.816   2.360
 5574SOL    HW117621   0.142   1.801   2.410
 5574SOL    HW217622   0.063   1.774   2.269
 5575SOL     OW17623   6.347   1.360   0.863
 5575SOL    HW117624   6.374   1.367   0.767
 5575SOL    HW217625   6.248   1.348   0.868
 5576SOL     OW17626   0.984   4.743   1.738
 5576SOL    HW117627   0.939   4.811   1.797
 5576SOL    HW217628   0.920   4.711   1.668
 5577SOL     OW17629   3.025   3.404   5.424
 5577SOL    HW117630   3.089   3.426   5.349
 5577SOL    HW217631   2.995   3.489   5.468
 5578SOL     OW17632   3.236   3.800   0.789
 5578SOL    HW117633   3.213   3.812   0.885
 5578SOL    HW217634   3.238   3.702   0.767
 5579SOL     OW17635   0.680   2.791   0.134
 5579SOL    HW117636   0.651   2.864   0.196
 5579SOL    HW217637   0.739   2.727   0.184
 5580SOL     OW17638   5.375   2.728   5.631
 5580SOL    HW117639   5.352   2.825   5.617
 5580SOL    HW217640   5.464   2.710   5.590
 5581SOL     OW17641   1.333   6.495   1.475
 5581SOL    HW117642   1.336   6.504   1.574
 5581SOL    HW217643   1.401   6.555   1.433
 5582SOL     OW17644   2.899   3.473   5.121
 5582SOL    HW117645   2.942   3.396   5.169
 5582SOL    HW217646   2.968   3.522   5.068
 5583SOL     OW17647   4.678   0.453   2.546
 5583SOL    HW117648   4.602   0.475   2.484
 5583SOL    HW217649   4.673   0.511   2.627
 5584SOL     OW17650   5.752   5.000   3.991
 5584SOL    HW117651   5.765   4.955   3.903
 5584SOL    HW217652   5.837   5.042   4.021
 5585SOL     OW17653   5.449   6.076   3.734
 5585SOL    HW117654   5.446   6.005   3.805
 5585SOL    HW217655   5.366   6.132   3.740
 5586SOL     OW17656   0.577   2.044   6.739
 5586SOL    HW117657   0.654   2.057   6.676
 5586SOL    HW217658   0.571   2.121   6.801
 5587SOL     OW17659   4.110   6.684   2.082
 5587SOL    HW117660   4.118   6.604   2.142
 5587SOL    HW217661   4.130   6.657   1.988
 5588SOL     OW17662   1.880   5.758   3.052
 5588SOL    HW117663   1.784   5.733   3.047
 5588SOL    HW217664   1.932   5.703   2.986
 5589SOL     OW17665   6.271   3.892   5.542
 5589SOL    HW117666   6.327   3.817   5.577
 5589SOL    HW217667   6.213   3.859   5.468
 5590SOL     OW17668   0.053   6.070   4.259
 5590SOL    HW117669   0.015   6.101   4.171
 5590SOL    HW217670   6.998   6.042   4.319
 5591SOL     OW17671   5.428   1.626   0.210
 5591SOL    HW117672   5.416   1.721   0.239
 5591SOL    HW217673   5.518   1.594   0.239
 5592SOL     OW17674   6.938   5.104   2.154
 5592SOL    HW117675   0.010   5.087   2.190
 5592SOL    HW217676   6.888   5.163   2.217
 5593SOL     OW17677   0.592   3.299   6.919
 5593SOL    HW117678   0.622   3.321   6.826
 5593SOL    HW217679   0.660   3.332   6.984
 5594SOL     OW17680   4.179   1.149   6.160
 5594SOL    HW117681   4.231   1.148   6.075
 5594SOL    HW217682   4.216   1.218   6.222
 5595SOL     OW17683   6.677   0.645   4.691
 5595SOL    HW117684   6.682   0.555   4.648
 5595SOL    HW217685   6.583   0.662   4.722
 5596SOL     OW17686   4.622   0.584   3.237
 5596SOL    HW117687   4.702   0.644   3.238
 5596SOL    HW217688   4.633   0.513   3.307
 5597SOL     OW17689   5.289   2.690   4.778
 5597SOL    HW117690   5.369   2.661   4.726
 5597SOL    HW217691   5.229   2.744   4.719
 5598SOL     OW17692   5.957   3.644   3.612
 5598SOL    HW117693   5.958   3.741   3.590
 5598SOL    HW217694   6.045   3.616   3.649
 5599SOL     OW17695   0.805   2.380   1.500
 5599SOL    HW117696   0.884   2.319   1.506
 5599SOL    HW217697   0.825   2.454   1.436
 5600SOL     OW17698   1.972   0.905   1.599
 5600SOL    HW117699   1.926   0.827   1.556
 5600SOL    HW217700   2.007   0.966   1.528
 5601SOL     OW17701   2.450   0.899   6.333
 5601SOL    HW117702   2.435   0.908   6.431
 5601SOL    HW217703   2.478   0.805   6.312
 5602SOL     OW17704   7.004   1.594   1.352
 5602SOL    HW117705   6.995   1.611   1.254
 5602SOL    HW217706   0.081   1.599   1.378
 5603SOL     OW17707   5.916   2.520   0.521
 5603SOL    HW117708   5.963   2.436   0.549
 5603SOL    HW217709   5.827   2.525   0.565
 5604SOL     OW17710   6.021   1.932   4.617
 5604SOL    HW117711   6.089   1.908   4.687
 5604SOL    HW217712   5.947   1.865   4.619
 5605SOL     OW17713   6.442   1.242   5.182
 5605SOL    HW117714   6.410   1.233   5.276
 5605SOL    HW217715   6.530   1.196   5.171
 5606SOL     OW17716   4.950   6.367   0.274
 5606SOL    HW117717   4.948   6.360   0.174
 5606SOL    HW217718   4.883   6.436   0.304
 5607SOL     OW17719   6.264   1.332   3.065
 5607SOL    HW117720   6.170   1.329   3.032
 5607SOL    HW217721   6.292   1.240   3.094
 5608SOL     OW17722   5.645   0.393   3.926
 5608SOL    HW117723   5.627   0.484   3.887
 5608SOL    HW217724   5.702   0.402   4.008
 5609SOL     OW17725   3.247   6.130   1.306
 5609SOL    HW117726   3.305   6.083   1.372
 5609SOL    HW217727   3.185   6.064   1.263
 5610SOL     OW17728   4.801   5.424   1.324
 5610SOL    HW117729   4.838   5.436   1.416
 5610SOL    HW217730   4.809   5.328   1.297
 5611SOL     OW17731   0.567   5.992   3.050
 5611SOL    HW117732   0.559   5.892   3.047
 5611SOL    HW217733   0.550   6.024   3.143
 5612SOL     OW17734   4.071   2.212   5.871
 5612SOL    HW117735   4.158   2.220   5.823
 5612SOL    HW217736   4.081   2.149   5.948
 5613SOL     OW17737   6.680   5.288   4.099
 5613SOL    HW117738   6.664   5.240   4.185
 5613SOL    HW217739   6.654   5.229   4.022
 5614SOL     OW17740   4.376   2.190   4.537
 5614SOL    HW117741   4.335   2.227   4.621
 5614SOL    HW217742   4.321   2.216   4.458
 5615SOL     OW17743   6.751   1.784   3.875
 5615SOL    HW117744   6.698   1.708   3.837
 5615SOL    HW217745   6.772   1.766   3.971
 5616SOL     OW17746   2.716   2.318   4.950
 5616SOL    HW117747   2.684   2.228   4.921
 5616SOL    HW217748   2.648   2.387   4.925
 5617SOL     OW17749   2.751   6.104   5.361
 5617SOL    HW117750   2.699   6.141   5.285
 5617SOL    HW217751   2.701   6.028   5.402
 5618SOL     OW17752   0.280   4.296   3.643
 5618SOL    HW117753   0.283   4.209   3.693
 5618SOL    HW217754   0.368   4.342   3.652
 5619SOL     OW17755   3.692   3.969   4.872
 5619SOL    HW117756   3.655   4.037   4.935
 5619SOL    HW217757   3.623   3.900   4.852
 5620SOL     OW17758   4.370   3.519   1.196
 5620SOL    HW117759   4.330   3.593   1.142
 5620SOL    HW217760   4.298   3.468   1.241
 5621SOL     OW17761   2.497   2.814   0.261
 5621SOL    HW117762   2.436   2.750   0.214
 5621SOL    HW217763   2.559   2.856   0.194
 5622SOL     OW17764   5.158   0.361   5.765
 5622SOL    HW117765   5.156   0.261   5.771
 5622SOL    HW217766   5.250   0.391   5.739
 5623SOL     OW17767   3.937   5.789   5.040
 5623SOL    HW117768   3.943   5.889   5.046
 5623SOL    HW217769   3.870   5.756   5.106
 5624SOL     OW17770   0.797   4.461   3.400
 5624SOL    HW117771   0.842   4.498   3.481
 5624SOL    HW217772   0.702   4.494   3.396
 5625SOL     OW17773   5.819   6.969   5.273
 5625SOL    HW117774   5.802   0.045   5.297
 5625SOL    HW217775   5.878   6.927   5.342
 5626SOL     OW17776   2.231   6.101   4.835
 5626SOL    HW117777   2.310   6.163   4.832
 5626SOL    HW217778   2.163   6.138   4.899
 5627SOL     OW17779   0.359   5.102   6.701
 5627SOL    HW117780   0.372   5.026   6.765
 5627SOL    HW217781   0.287   5.162   6.736
 5628SOL     OW17782   1.759   2.544   2.659
 5628SOL    HW117783   1.752   2.643   2.658
 5628SOL    HW217784   1.757   2.509   2.565
 5629SOL     OW17785   3.759   3.706   1.844
 5629SOL    HW117786   3.674   3.653   1.842
 5629SOL    HW217787   3.757   3.769   1.922
 5630SOL     OW17788   2.067   3.517   6.145
 5630SOL    HW117789   2.109   3.594   6.193
 5630SOL    HW217790   2.027   3.550   6.059
 5631SOL     OW17791   4.620   2.070   1.815
 5631SOL    HW117792   4.648   1.999   1.880
 5631SOL    HW217793   4.701   2.123   1.788
 5632SOL     OW17794   2.684   2.420   5.876
 5632SOL    HW117795   2.692   2.325   5.905
 5632SOL    HW217796   2.600   2.432   5.823
 5633SOL     OW17797   6.204   4.769   4.541
 5633SOL    HW117798   6.203   4.739   4.636
 5633SOL    HW217799   6.114   4.805   4.516
 5634SOL     OW17800   2.493   4.931   4.079
 5634SOL    HW117801   2.432   4.868   4.127
 5634SOL    HW217802   2.441   4.978   4.008
 5635SOL     OW17803   1.996   5.170   6.090
 5635SOL    HW117804   2.029   5.132   6.003
 5635SOL    HW217805   1.941   5.101   6.137
 5636SOL     OW17806   4.707   6.741   5.003
 5636SOL    HW117807   4.609   6.753   4.994
 5636SOL    HW217808   4.743   6.695   4.922
 5637SOL     OW17809   5.375   0.435   3.038
 5637SOL    HW117810   5.470   0.463   3.049
 5637SOL    HW217811   5.371   0.339   3.012
 5638SOL     OW17812   6.324   3.794   0.726
 5638SOL    HW117813   6.274   3.781   0.640
 5638SOL    HW217814   6.304   3.718   0.788
 5639SOL     OW17815   1.043   0.858   2.851
 5639SOL    HW117816   0.980   0.781   2.841
 5639SOL    HW217817   0.991   0.943   2.860
 5640SOL     OW17818   3.656   0.503   3.873
 5640SOL    HW117819   3.666   0.403   3.871
 5640SOL    HW217820   3.569   0.528   3.832
 5641SOL     OW17821   0.809   5.149   5.152
 5641SOL    HW117822   0.741   5.220   5.167
 5641SOL    HW217823   0.765   5.059   5.161
 5642SOL     OW17824   2.236   6.412   4.594
 5642SOL    HW117825   2.184   6.498   4.595
 5642SOL    HW217826   2.175   6.337   4.568
 5643SOL     OW17827   4.049   1.296   4.679
 5643SOL    HW117828   4.051   1.396   4.679
 5643SOL    HW217829   4.040   1.263   4.585
 5644SOL     OW17830   3.086   0.135   4.921
 5644SOL    HW117831   3.038   0.048   4.933
 5644SOL    HW217832   3.125   0.163   5.008
 5645SOL     OW17833   6.198   4.937   3.622
 5645SOL    HW117834   6.294   4.910   3.611
 5645SOL    HW217835   6.178   5.012   3.559
 5646SOL     OW17836   1.813   5.377   4.198
 5646SOL    HW117837   1.722   5.411   4.223
 5646SOL    HW217838   1.881   5.412   4.263
 5647SOL     OW17839   4.849   5.202   1.125
 5647SOL    HW117840   4.777   5.158   1.071
 5647SOL    HW217841   4.895   5.133   1.182
 5648SOL     OW17842   1.889   6.949   2.932
 5648SOL    HW117843   1.892   6.940   2.832
 5648SOL    HW217844   1.823   0.001   2.957
 5649SOL     OW17845   0.761   0.685   4.247
 5649SOL    HW117846   0.793   0.731   4.329
 5649SOL    HW217847   0.838   0.670   4.185
 5650SOL     OW17848   0.313   5.435   1.068
 5650SOL    HW117849   0.371   5.391   1.000
 5650SOL    HW217850   0.244   5.369   1.100
 5651SOL     OW17851   1.536   0.405   1.729
 5651SOL    HW117852   1.600   0.443   1.662
 5651SOL    HW217853   1.580   0.402   1.819
 5652SOL     OW17854   6.297   0.153   1.760
 5652SOL    HW117855   6.357   0.201   1.696
 5652SOL    HW217856   6.208   0.198   1.764
 5653SOL     OW17857   6.438   6.052   6.451
 5653SOL    HW117858   6.538   6.049   6.454
 5653SOL    HW217859   6.403   5.965   6.415
 5654SOL     OW17860   0.268   6.269   5.264
 5654SOL    HW117861   0.355   6.318   5.272
 5654SOL    HW217862   0.272   6.185   5.319
 5655SOL     OW17863   1.116   3.732   4.069
 5655SOL    HW117864   1.186   3.794   4.033
 5655SOL    HW217865   1.127   3.723   4.168
 5656SOL     OW17866   0.002   3.501   6.377
 5656SOL    HW117867   0.045   3.484   6.288
 5656SOL    HW217868   6.955   3.575   6.368
 5657SOL     OW17869   6.445   2.370   0.068
 5657SOL    HW117870   6.501   2.385   0.150
 5657SOL    HW217871   6.367   2.311   0.091
 5658SOL     OW17872   3.708   4.045   6.658
 5658SOL    HW117873   3.680   3.953   6.633
 5658SOL    HW217874   3.781   4.040   6.726
 5659SOL     OW17875   3.622   3.277   5.105
 5659SOL    HW117876   3.631   3.182   5.076
 5659SOL    HW217877   3.615   3.281   5.205
 5660SOL     OW17878   4.517   0.108   6.907
 5660SOL    HW117879   4.525   0.134   6.810
 5660SOL    HW217880   4.589   0.042   6.929
 5661SOL     OW17881   1.376   6.132   4.900
 5661SOL    HW117882   1.449   6.199   4.883
 5661SOL    HW217883   1.404   6.071   4.974
 5662SOL     OW17884   2.558   5.887   3.729
 5662SOL    HW117885   2.514   5.797   3.736
 5662SOL    HW217886   2.527   5.933   3.647
 5663SOL     OW17887   1.857   2.428   0.190
 5663SOL    HW117888   1.940   2.465   0.147
 5663SOL    HW217889   1.872   2.332   0.212
 5664SOL     OW17890   6.780   3.672   5.057
 5664SOL    HW117891   6.824   3.760   5.040
 5664SOL    HW217892   6.742   3.637   4.972
 5665SOL     OW17893   1.941   1.135   0.486
 5665SOL    HW117894   1.915   1.199   0.558
 5665SOL    HW217895   2.031   1.159   0.451
 5666SOL     OW17896   6.337   0.084   3.094
 5666SOL    HW117897   6.389   7.018   3.096
 5666SOL    HW217898   6.391   0.156   3.138
 5667SOL     OW17899   1.473   5.437   4.554
 5667SOL    HW117900   1.554   5.425   4.611
 5667SOL    HW217901   1.473   5.529   4.515
 5668SOL     OW17902   5.277   2.904   3.550
 5668SOL    HW117903   5.279   2.821   3.496
 5668SOL    HW217904   5.240   2.979   3.495
 5669SOL     OW17905   0.009   3.540   0.811
 5669SOL    HW117906   0.014   3.442   0.791
 5669SOL    HW217907   6.979   3.554   0.897
 5670SOL     OW17908   0.717   3.787   3.833
 5670SOL    HW117909   0.799   3.730   3.822
 5670SOL    HW217910   0.715   3.823   3.927
 5671SOL     OW17911   6.378   5.987   6.050
 5671SOL    HW117912   6.287   6.027   6.036
 5671SOL    HW217913   6.436   6.052   6.099
 5672SOL     OW17914   4.118   3.806   0.230
 5672SOL    HW117915   4.175   3.868   0.284
 5672SOL    HW217916   4.021   3.826   0.247
 5673SOL     OW17917   1.613   6.899   1.288
 5673SOL    HW117918   1.640   6.914   1.193
 5673SOL    HW217919   1.569   6.809   1.297
 5674SOL     OW17920   0.496   4.466   5.085
 5674SOL    HW117921   0.443   4.494   5.004
 5674SOL    HW217922   0.453   4.504   5.167
 5675SOL     OW17923   4.015   2.920   5.688
 5675SOL    HW117924   4.087   2.955   5.629
 5675SOL    HW217925   4.035   2.826   5.715
 5676SOL     OW17926   3.094   2.082   2.754
 5676SOL    HW117927   3.080   1.984   2.766
 5676SOL    HW217928   3.016   2.132   2.793
 5677SOL     OW17929   0.656   1.147   0.654
 5677SOL    HW117930   0.734   1.135   0.716
 5677SOL    HW217931   0.595   1.068   0.663
 5678SOL     OW17932   4.293   6.563   2.762
 5678SOL    HW117933   4.211   6.596   2.809
 5678SOL    HW217934   4.286   6.465   2.748
 5679SOL     OW17935   6.934   1.246   3.849
 5679SOL    HW117936   6.848   1.206   3.881
 5679SOL    HW217937   6.954   1.328   3.902
 5680SOL     OW17938   1.636   5.526   6.484
 5680SOL    HW117939   1.731   5.526   6.452
 5680SOL    HW217940   1.598   5.434   6.471
 5681SOL     OW17941   0.619   3.627   1.301
 5681SOL    HW117942   0.521   3.634   1.281
 5681SOL    HW217943   0.663   3.715   1.281
 5682SOL     OW17944   2.007   5.478   4.754
 5682SOL    HW117945   2.011   5.567   4.800
 5682SOL    HW217946   2.023   5.406   4.821
 5683SOL     OW17947   3.982   1.142   5.519
 5683SOL    HW117948   3.970   1.201   5.599
 5683SOL    HW217949   4.033   1.060   5.545
 5684SOL     OW17950   2.663   3.831   5.795
 5684SOL    HW117951   2.631   3.894   5.866
 5684SOL    HW217952   2.594   3.761   5.779
 5685SOL     OW17953   1.903   1.508   3.193
 5685SOL    HW117954   1.820   1.479   3.146
 5685SOL    HW217955   1.942   1.431   3.244
 5686SOL     OW17956   2.931   1.782   6.410
 5686SOL    HW117957   2.921   1.707   6.345
 5686SOL    HW217958   3.022   1.779   6.450
 5687SOL     OW17959   0.580   4.958   6.874
 5687SOL    HW117960   0.624   5.013   6.945
 5687SOL    HW217961   0.615   4.985   6.784
 5688SOL     OW17962   0.973   2.689   2.061
 5688SOL    HW117963   1.062   2.711   2.100
 5688SOL    HW217964   0.951   2.593   2.079
 5689SOL     OW17965   3.298   1.508   1.239
 5689SOL    HW117966   3.279   1.492   1.336
 5689SOL    HW217967   3.283   1.423   1.188
 5690SOL     OW17968   2.006   6.119   6.999
 5690SOL    HW117969   2.045   6.141   6.909
 5690SOL    HW217970   1.963   6.200   0.018
 5691SOL     OW17971   3.626   0.652   2.226
 5691SOL    HW117972   3.650   0.708   2.305
 5691SOL    HW217973   3.690   0.576   2.218
 5692SOL     OW17974   5.494   3.967   0.470
 5692SOL    HW117975   5.478   3.869   0.465
 5692SOL    HW217976   5.475   4.009   0.381
 5693SOL     OW17977   4.579   1.509   3.151
 5693SOL    HW117978   4.616   1.545   3.065
 5693SOL    HW217979   4.498   1.562   3.176
 5694SOL     OW17980   1.306   1.444   2.878
 5694SOL    HW117981   1.216   1.423   2.915
 5694SOL    HW217982   1.365   1.364   2.887
 5695SOL     OW17983   1.566   1.981   4.258
 5695SOL    HW117984   1.548   1.913   4.186
 5695SOL    HW217985   1.490   1.981   4.323
 5696SOL     OW17986   0.733   1.411   3.476
 5696SOL    HW117987   0.790   1.330   3.487
 5696SOL    HW217988   0.719   1.428   3.378
 5697SOL     OW17989   6.319   2.638   1.631
 5697SOL    HW117990   6.255   2.680   1.566
 5697SOL    HW217991   6.279   2.553   1.667
 5698SOL     OW17992   1.003   5.028   4.228
 5698SOL    HW117993   0.960   5.098   4.172
 5698SOL    HW217994   1.102   5.045   4.233
 5699SOL     OW17995   1.118   2.290   3.182
 5699SOL    HW117996   1.129   2.317   3.278
 5699SOL    HW217997   1.069   2.202   3.179
 5700SOL     OW17998   6.276   0.029   3.395
 5700SOL    HW117999   6.319   0.070   3.315
 5700SOL    HW218000   6.267   0.097   3.468
 5701SOL     OW18001   0.630   0.115   1.291
 5701SOL    HW118002   0.627   0.053   1.370
 5701SOL    HW218003   0.614   0.208   1.322
 5702SOL     OW18004   2.722   5.447   4.077
 5702SOL    HW118005   2.779   5.485   4.150
 5702SOL    HW218006   2.716   5.348   4.089
 5703SOL     OW18007   6.569   4.833   1.054
 5703SOL    HW118008   6.584   4.767   0.981
 5703SOL    HW218009   6.564   4.925   1.015
 5704SOL     OW18010   4.887   3.958   3.181
 5704SOL    HW118011   4.915   3.862   3.176
 5704SOL    HW218012   4.859   3.980   3.274
 5705SOL     OW18013   4.940   6.640   6.923
 5705SOL    HW118014   4.957   6.739   6.926
 5705SOL    HW218015   5.018   6.592   6.963
 5706SOL     OW18016   0.256   3.303   2.153
 5706SOL    HW118017   0.216   3.379   2.205
 5706SOL    HW218018   0.275   3.332   2.060
 5707SOL     OW18019   0.202   6.583   0.527
 5707SOL    HW118020   0.289   6.625   0.551
 5707SOL    HW218021   0.201   6.488   0.559
 5708SOL     OW18022   4.985   5.708   1.857
 5708SOL    HW118023   4.942   5.774   1.796
 5708SOL    HW218024   5.084   5.723   1.857
 5709SOL     OW18025   0.927   0.885   2.559
 5709SOL    HW118026   0.928   0.961   2.493
 5709SOL    HW218027   0.919   0.921   2.652
 5710SOL     OW18028   2.947   3.018   1.189
 5710SOL    HW118029   2.995   3.098   1.152
 5710SOL    HW218030   3.000   2.981   1.265
 5711SOL     OW18031   5.290   1.074   3.179
 5711SOL    HW118032   5.344   1.158   3.170
 5711SOL    HW218033   5.345   0.996   3.150
 5712SOL     OW18034   6.701   0.447   0.103
 5712SOL    HW118035   6.684   0.531   0.052
 5712SOL    HW218036   6.682   0.368   0.045
 5713SOL     OW18037   3.441   3.426   1.574
 5713SOL    HW118038   3.400   3.336   1.558
 5713SOL    HW218039   3.457   3.471   1.486
 5714SOL     OW18040   0.432   5.152   0.677
 5714SOL    HW118041   0.438   5.191   0.769
 5714SOL    HW218042   0.491   5.073   0.670
 5715SOL     OW18043   0.742   0.787   2.375
 5715SOL    HW118044   0.812   0.821   2.438
 5715SOL    HW218045   0.761   0.821   2.283
 5716SOL     OW18046   1.653   4.979   6.441
 5716SOL    HW118047   1.699   4.937   6.519
 5716SOL    HW218048   1.665   4.920   6.360
 5717SOL     OW18049   1.865   4.862   0.971
 5717SOL    HW118050   1.866   4.961   0.953
 5717SOL    HW218051   1.819   4.845   1.058
 5718SOL     OW18052   0.392   3.102   6.872
 5718SOL    HW118053   0.445   3.185   6.887
 5718SOL    HW218054   0.309   3.105   6.928
 5719SOL     OW18055   2.148   2.503   6.793
 5719SOL    HW118056   2.100   2.562   6.728
 5719SOL    HW218057   2.197   2.432   6.742
 5720SOL     OW18058   2.305   5.933   5.082
 5720SOL    HW118059   2.363   5.971   5.154
 5720SOL    HW218060   2.276   6.006   5.021
 5721SOL     OW18061   6.452   3.468   1.132
 5721SOL    HW118062   6.518   3.413   1.079
 5721SOL    HW218063   6.363   3.422   1.132
 5722SOL     OW18064   0.044   2.089   5.084
 5722SOL    HW118065   0.010   2.031   5.009
 5722SOL    HW218066   0.122   2.143   5.052
 5723SOL     OW18067   4.312   3.398   0.441
 5723SOL    HW118068   4.316   3.438   0.533
 5723SOL    HW218069   4.278   3.466   0.376
 5724SOL     OW18070   5.286   3.185   4.174
 5724SOL    HW118071   5.314   3.278   4.150
 5724SOL    HW218072   5.259   3.136   4.091
 5725SOL     OW18073   6.001   5.131   4.120
 5725SOL    HW118074   5.930   5.126   4.191
 5725SOL    HW218075   6.059   5.050   4.125
 5726SOL     OW18076   0.030   5.154   4.199
 5726SOL    HW118077   0.066   5.213   4.126
 5726SOL    HW218078   6.980   5.094   4.161
 5727SOL     OW18079   6.486   2.264   4.271
 5727SOL    HW118080   6.541   2.274   4.355
 5727SOL    HW218081   6.390   2.278   4.293
 5728SOL     OW18082   4.325   6.957   5.947
 5728SOL    HW118083   4.385   6.885   5.912
 5728SOL    HW218084   4.285   7.008   5.871
 5729SOL     OW18085   1.945   0.546   0.174
 5729SOL    HW118086   2.041   0.537   0.201
 5729SOL    HW218087   1.889   0.487   0.231
 5730SOL     OW18088   5.150   4.743   6.366
 5730SOL    HW118089   5.107   4.663   6.409
 5730SOL    HW218090   5.227   4.713   6.310
 5731SOL     OW18091   0.700   6.879   2.996
 5731SOL    HW118092   0.614   6.873   3.048
 5731SOL    HW218093   0.771   6.918   3.054
 5732SOL     OW18094   0.171   5.449   4.022
 5732SOL    HW118095   0.228   5.412   3.950
 5732SOL    HW218096   0.083   5.402   4.023
 5733SOL     OW18097   3.813   6.765   5.861
 5733SOL    HW118098   3.746   6.727   5.925
 5733SOL    HW218099   3.905   6.741   5.891
 5734SOL     OW18100   0.918   0.278   4.814
 5734SOL    HW118101   0.854   0.351   4.836
 5734SOL    HW218102   1.008   0.316   4.794
 5735SOL     OW18103   4.130   1.854   1.538
 5735SOL    HW118104   4.063   1.797   1.490
 5735SOL    HW218105   4.199   1.885   1.473
 5736SOL     OW18106   6.158   3.865   0.502
 5736SOL    HW118107   6.136   3.859   0.404
 5736SOL    HW218108   6.079   3.902   0.551
 5737SOL     OW18109   5.628   6.360   0.655
 5737SOL    HW118110   5.628   6.348   0.755
 5737SOL    HW218111   5.652   6.455   0.633
 5738SOL     OW18112   2.131   2.508   5.576
 5738SOL    HW118113   2.180   2.486   5.491
 5738SOL    HW218114   2.148   2.436   5.644
 5739SOL     OW18115   1.441   0.357   5.772
 5739SOL    HW118116   1.358   0.302   5.781
 5739SOL    HW218117   1.417   0.454   5.774
 5740SOL     OW18118   4.456   4.363   0.698
 5740SOL    HW118119   4.445   4.461   0.689
 5740SOL    HW218120   4.509   4.343   0.781
 5741SOL     OW18121   1.105   4.917   4.791
 5741SOL    HW118122   1.107   4.820   4.815
 5741SOL    HW218123   1.193   4.943   4.751
 5742SOL     OW18124   4.926   6.707   2.183
 5742SOL    HW118125   4.975   6.637   2.131
 5742SOL    HW218126   4.981   6.733   2.263
 5743SOL     OW18127   2.673   5.901   5.089
 5743SOL    HW118128   2.679   5.813   5.044
 5743SOL    HW218129   2.672   5.888   5.188
 5744SOL     OW18130   4.772   0.317   1.771
 5744SOL    HW118131   4.762   0.233   1.824
 5744SOL    HW218132   4.689   0.333   1.718
 5745SOL     OW18133   3.246   0.953   3.848
 5745SOL    HW118134   3.183   1.017   3.804
 5745SOL    HW218135   3.207   0.861   3.848
 5746SOL     OW18136   5.700   0.023   1.670
 5746SOL    HW118137   5.737   0.034   1.577
 5746SOL    HW218138   5.607   0.059   1.672
 5747SOL     OW18139   6.871   4.941   2.726
 5747SOL    HW118140   6.810   5.017   2.703
 5747SOL    HW218141   6.896   4.893   2.642
 5748SOL     OW18142   1.783   5.719   0.731
 5748SOL    HW118143   1.688   5.748   0.733
 5748SOL    HW218144   1.804   5.678   0.642
 5749SOL     OW18145   1.840   0.479   4.481
 5749SOL    HW118146   1.786   0.399   4.506
 5749SOL    HW218147   1.819   0.554   4.543
 5750SOL     OW18148   5.656   5.643   4.325
 5750SOL    HW118149   5.703   5.608   4.406
 5750SOL    HW218150   5.560   5.613   4.327
 5751SOL     OW18151   2.230   2.934   4.619
 5751SOL    HW118152   2.280   2.877   4.684
 5751SOL    HW218153   2.133   2.911   4.623
 5752SOL     OW18154   6.648   0.298   6.745
 5752SOL    HW118155   6.656   0.254   6.834
 5752SOL    HW218156   6.559   0.343   6.737
 5753SOL     OW18157   3.201   3.611   5.582
 5753SOL    HW118158   3.165   3.534   5.529
 5753SOL    HW218159   3.202   3.587   5.679
 5754SOL     OW18160   6.101   4.380   1.538
 5754SOL    HW118161   6.181   4.385   1.477
 5754SOL    HW218162   6.068   4.473   1.557
 5755SOL     OW18163   2.876   3.715   5.498
 5755SOL    HW118164   2.954   3.775   5.511
 5755SOL    HW218165   2.855   3.707   5.401
 5756SOL     OW18166   6.017   6.364   3.081
 5756SOL    HW118167   6.064   6.450   3.101
 5756SOL    HW218168   6.067   6.288   3.124
 5757SOL     OW18169   6.687   6.858   2.742
 5757SOL    HW118170   6.690   6.758   2.737
 5757SOL    HW218171   6.703   6.897   2.652
 5758SOL     OW18172   3.186   1.373   4.125
 5758SOL    HW118173   3.272   1.423   4.126
 5758SOL    HW218174   3.203   1.276   4.114
 5759SOL     OW18175   4.565   1.857   6.735
 5759SOL    HW118176   4.531   1.876   6.827
 5759SOL    HW218177   4.503   1.898   6.668
 5760SOL     OW18178   1.062   4.948   1.385
 5760SOL    HW118179   1.115   4.938   1.469
 5760SOL    HW218180   1.080   4.871   1.324
 5761SOL     OW18181   5.707   6.984   6.249
 5761SOL    HW118182   5.650   6.902   6.241
 5761SOL    HW218183   5.793   6.969   6.201
 5762SOL     OW18184   4.946   6.602   0.589
 5762SOL    HW118185   4.922   6.525   0.649
 5762SOL    HW218186   5.014   6.659   0.634
 5763SOL     OW18187   0.135   0.299   0.353
 5763SOL    HW118188   0.036   0.287   0.355
 5763SOL    HW218189   0.175   0.229   0.294
 5764SOL     OW18190   5.454   4.284   6.550
 5764SOL    HW118191   5.484   4.333   6.632
 5764SOL    HW218192   5.354   4.286   6.544
 5765SOL     OW18193   6.649   4.062   6.528
 5765SOL    HW118194   6.695   4.031   6.611
 5765SOL    HW218195   6.570   4.118   6.552
 5766SOL     OW18196   2.078   2.339   0.503
 5766SOL    HW118197   2.092   2.428   0.546
 5766SOL    HW218198   2.141   2.329   0.426
 5767SOL     OW18199   1.958   6.853   0.571
 5767SOL    HW118200   2.052   6.831   0.597
 5767SOL    HW218201   1.956   6.888   0.478
 5768SOL     OW18202   6.826   6.761   3.023
 5768SOL    HW118203   6.901   6.824   3.039
 5768SOL    HW218204   6.748   6.810   2.983
 5769SOL     OW18205   3.096   6.671   3.834
 5769SOL    HW118206   3.078   6.640   3.927
 5769SOL    HW218207   3.194   6.663   3.814
 5770SOL     OW18208   0.168   6.770   0.886
 5770SOL    HW118209   0.219   6.720   0.816
 5770SOL    HW218210   0.215   6.763   0.974
 5771SOL     OW18211   0.676   5.851   2.192
 5771SOL    HW118212   0.587   5.806   2.203
 5771SOL    HW218213   0.687   5.920   2.264
 5772SOL     OW18214   5.811   2.736   0.713
 5772SOL    HW118215   5.890   2.680   0.688
 5772SOL    HW218216   5.741   2.678   0.755
 5773SOL     OW18217   4.994   0.628   3.897
 5773SOL    HW118218   4.919   0.572   3.863
 5773SOL    HW218219   5.077   0.609   3.844
 5774SOL     OW18220   2.826   5.097   3.638
 5774SOL    HW118221   2.892   5.024   3.656
 5774SOL    HW218222   2.844   5.174   3.699
 5775SOL     OW18223   1.582   6.755   1.697
 5775SOL    HW118224   1.487   6.784   1.687
 5775SOL    HW218225   1.599   6.727   1.791
 5776SOL     OW18226   6.623   1.029   5.805
 5776SOL    HW118227   6.624   0.988   5.896
 5776SOL    HW218228   6.631   0.957   5.736
 5777SOL     OW18229   5.914   0.283   4.397
 5777SOL    HW118230   5.875   0.259   4.308
 5777SOL    HW218231   5.845   0.270   4.468
 5778SOL     OW18232   1.697   6.952   1.027
 5778SOL    HW118233   1.762   6.950   0.951
 5778SOL    HW218234   1.606   6.927   0.993
 5779SOL     OW18235   3.987   0.968   1.190
 5779SOL    HW118236   4.021   0.952   1.282
 5779SOL    HW218237   3.997   1.065   1.166
 5780SOL     OW18238   5.630   5.572   2.648
 5780SOL    HW118239   5.611   5.645   2.714
 5780SOL    HW218240   5.620   5.483   2.693
 5781SOL     OW18241   1.360   4.376   4.506
 5781SOL    HW118242   1.375   4.351   4.410
 5781SOL    HW218243   1.275   4.335   4.538
 5782SOL     OW18244   1.673   0.879   0.928
 5782SOL    HW118245   1.661   0.781   0.942
 5782SOL    HW218246   1.683   0.897   0.830
 5783SOL     OW18247   1.833   1.578   1.153
 5783SOL    HW118248   1.883   1.570   1.067
 5783SOL    HW218249   1.899   1.585   1.229
 5784SOL     OW18250   0.462   6.396   0.375
 5784SOL    HW118251   0.492   6.301   0.384
 5784SOL    HW218252   0.539   6.457   0.395
 5785SOL     OW18253   1.802   2.329   1.201
 5785SOL    HW118254   1.715   2.288   1.173
 5785SOL    HW218255   1.786   2.421   1.237
 5786SOL     OW18256   1.123   3.995   0.848
 5786SOL    HW118257   1.145   4.027   0.756
 5786SOL    HW218258   1.150   3.899   0.857
 5787SOL     OW18259   4.982   2.101   4.634
 5787SOL    HW118260   4.971   2.049   4.549
 5787SOL    HW218261   4.928   2.184   4.628
 5788SOL     OW18262   2.742   0.394   1.342
 5788SOL    HW118263   2.769   0.473   1.398
 5788SOL    HW218264   2.798   0.315   1.366
 5789SOL     OW18265   2.972   2.767   6.715
 5789SOL    HW118266   2.922   2.702   6.657
 5789SOL    HW218267   2.968   2.858   6.674
 5790SOL     OW18268   6.783   5.768   5.327
 5790SOL    HW118269   6.867   5.762   5.273
 5790SOL    HW218270   6.779   5.691   5.391
 5791SOL     OW18271   2.692   1.620   2.593
 5791SOL    HW118272   2.647   1.708   2.608
 5791SOL    HW218273   2.637   1.547   2.634
 5792SOL     OW18274   4.796   3.987   3.435
 5792SOL    HW118275   4.782   4.063   3.499
 5792SOL    HW218276   4.781   3.900   3.481
 5793SOL     OW18277   5.906   1.175   5.615
 5793SOL    HW118278   5.944   1.212   5.700
 5793SOL    HW218279   5.873   1.082   5.631
 5794SOL     OW18280   3.571   0.302   6.937
 5794SOL    HW118281   3.508   0.226   6.929
 5794SOL    HW218282   3.600   0.333   6.846
 5795SOL     OW18283   0.306   6.273   1.173
 5795SOL    HW118284   0.324   6.334   1.096
 5795SOL    HW218285   0.210   6.281   1.200
 5796SOL     OW18286   4.801   0.770   6.658
 5796SOL    HW118287   4.852   0.813   6.733
 5796SOL    HW218288   4.788   0.673   6.677
 5797SOL     OW18289   5.452   1.017   6.877
 5797SOL    HW118290   5.503   0.964   6.946
 5797SOL    HW218291   5.362   1.041   6.914
 5798SOL     OW18292   0.793   3.728   4.615
 5798SOL    HW118293   0.782   3.813   4.666
 5798SOL    HW218294   0.828   3.657   4.677
 5799SOL     OW18295   0.459   0.213   2.869
 5799SOL    HW118296   0.391   0.285   2.886
 5799SOL    HW218297   0.432   0.130   2.918
 5800SOL     OW18298   0.754   0.285   1.601
 5800SOL    HW118299   0.692   0.212   1.630
 5800SOL    HW218300   0.813   0.311   1.677
 5801SOL     OW18301   2.131   2.470   3.966
 5801SOL    HW118302   2.137   2.427   3.875
 5801SOL    HW218303   2.035   2.486   3.989
 5802SOL     OW18304   6.086   3.586   2.507
 5802SOL    HW118305   6.117   3.502   2.463
 5802SOL    HW218306   6.021   3.563   2.579
 5803SOL     OW18307   1.120   5.048   3.605
 5803SOL    HW118308   1.154   5.142   3.603
 5803SOL    HW218309   1.035   5.043   3.553
 5804SOL     OW18310   6.799   6.089   3.823
 5804SOL    HW118311   6.738   6.138   3.885
 5804SOL    HW218312   6.864   6.154   3.783
 5805SOL     OW18313   1.512   3.054   0.718
 5805SOL    HW118314   1.594   3.110   0.705
 5805SOL    HW218315   1.517   2.974   0.657
 5806SOL     OW18316   0.041   4.648   4.936
 5806SOL    HW118317   0.059   4.731   4.989
 5806SOL    HW218318   0.005   4.673   4.846
 5807SOL     OW18319   1.562   5.891   0.777
 5807SOL    HW118320   1.614   5.879   0.861
 5807SOL    HW218321   1.466   5.867   0.793
 5808SOL     OW18322   6.569   6.843   5.203
 5808SOL    HW118323   6.504   6.774   5.235
 5808SOL    HW218324   6.536   6.882   5.117
 5809SOL     OW18325   6.944   2.208   5.735
 5809SOL    HW118326   6.900   2.285   5.780
 5809SOL    HW218327   6.880   2.166   5.671
 5810SOL     OW18328   4.043   0.503   5.158
 5810SOL    HW118329   4.015   0.595   5.186
 5810SOL    HW218330   4.057   0.500   5.059
 5811SOL     OW18331   2.740   2.384   5.453
 5811SOL    HW118332   2.799   2.304   5.465
 5811SOL    HW218333   2.794   2.467   5.460
 5812SOL     OW18334   5.232   3.923   5.942
 5812SOL    HW118335   5.316   3.889   5.983
 5812SOL    HW218336   5.254   3.985   5.866
 5813SOL     OW18337   3.093   6.374   1.317
 5813SOL    HW118338   3.128   6.281   1.325
 5813SOL    HW218339   3.150   6.426   1.254
 5814SOL     OW18340   0.126   2.203   1.963
 5814SOL    HW118341   0.198   2.248   1.911
 5814SOL    HW218342   0.112   2.252   2.049
 5815SOL     OW18343   5.485   1.811   4.480
 5815SOL    HW118344   5.469   1.718   4.514
 5815SOL    HW218345   5.542   1.861   4.545
 5816SOL     OW18346   6.532   5.001   2.087
 5816SOL    HW118347   6.623   4.977   2.053
 5816SOL    HW218348   6.495   4.926   2.141
 5817SOL     OW18349   5.879   4.771   5.608
 5817SOL    HW118350   5.789   4.798   5.575
 5817SOL    HW218351   5.913   4.840   5.672
 5818SOL     OW18352   0.398   5.784   4.972
 5818SOL    HW118353   0.374   5.878   4.997
 5818SOL    HW218354   0.484   5.785   4.921
 5819SOL     OW18355   2.840   5.207   6.339
 5819SOL    HW118356   2.939   5.222   6.342
 5819SOL    HW218357   2.821   5.109   6.336
 5820SOL     OW18358   4.559   4.779   2.194
 5820SOL    HW118359   4.632   4.806   2.257
 5820SOL    HW218360   4.548   4.680   2.198
 5821SOL     OW18361   6.239   1.097   1.689
 5821SOL    HW118362   6.191   1.138   1.766
 5821SOL    HW218363   6.313   1.039   1.723
 5822SOL     OW18364   1.475   2.538   2.713
 5822SOL    HW118365   1.561   2.522   2.665
 5822SOL    HW218366   1.398   2.528   2.649
 5823SOL     OW18367   2.412   6.319   4.783
 5823SOL    HW118368   2.352   6.355   4.712
 5823SOL    HW218369   2.491   6.379   4.794
 5824SOL     OW18370   0.895   0.004   3.130
 5824SOL    HW118371   0.917   0.098   3.158
 5824SOL    HW218372   0.974   6.983   3.085
 5825SOL     OW18373   0.219   5.615   5.078
 5825SOL    HW118374   0.275   5.671   5.017
 5825SOL    HW218375   0.159   5.557   5.024
 5826SOL     OW18376   0.380   6.872   6.074
 5826SOL    HW118377   0.298   6.928   6.059
 5826SOL    HW218378   0.357   6.797   6.135
 5827SOL     OW18379   1.156   3.420   4.752
 5827SOL    HW118380   1.230   3.468   4.798
 5827SOL    HW218381   1.159   3.440   4.654
 5828SOL     OW18382   4.578   0.833   3.410
 5828SOL    HW118383   4.544   0.775   3.336
 5828SOL    HW218384   4.613   0.918   3.372
 5829SOL     OW18385   1.523   0.719   4.443
 5829SOL    HW118386   1.485   0.716   4.351
 5829SOL    HW218387   1.473   0.787   4.497
 5830SOL     OW18388   4.298   6.107   5.902
 5830SOL    HW118389   4.231   6.077   5.970
 5830SOL    HW218390   4.333   6.197   5.927
 5831SOL     OW18391   1.240   1.968   5.672
 5831SOL    HW118392   1.189   2.041   5.717
 5831SOL    HW218393   1.237   1.885   5.728
 5832SOL     OW18394   3.487   4.364   1.133
 5832SOL    HW118395   3.477   4.436   1.064
 5832SOL    HW218396   3.398   4.323   1.151
 5833SOL     OW18397   4.081   3.230   5.690
 5833SOL    HW118398   4.091   3.329   5.696
 5833SOL    HW218399   4.116   3.188   5.774
 5834SOL     OW18400   6.600   3.738   6.583
 5834SOL    HW118401   6.698   3.761   6.588
 5834SOL    HW218402   6.590   3.638   6.583
 5835SOL     OW18403   6.269   2.159   2.404
 5835SOL    HW118404   6.319   2.169   2.319
 5835SOL    HW218405   6.286   2.069   2.443
 5836SOL     OW18406   2.721   6.863   1.724
 5836SOL    HW118407   2.637   6.909   1.753
 5836SOL    HW218408   2.700   6.770   1.695
 5837SOL     OW18409   3.918   3.822   6.802
 5837SOL    HW118410   3.976   3.830   6.884
 5837SOL    HW218411   3.967   3.860   6.723
 5838SOL     OW18412   2.613   1.358   1.174
 5838SOL    HW118413   2.640   1.449   1.205
 5838SOL    HW218414   2.695   1.305   1.152
 5839SOL     OW18415   0.479   2.719   1.002
 5839SOL    HW118416   0.456   2.816   1.014
 5839SOL    HW218417   0.515   2.682   1.087
 5840SOL     OW18418   0.220   3.821   0.927
 5840SOL    HW118419   0.269   3.736   0.908
 5840SOL    HW218420   0.153   3.805   0.999
 5841SOL     OW18421   5.119   0.437   1.625
 5841SOL    HW118422   5.193   0.369   1.623
 5841SOL    HW218423   5.076   0.442   1.535
 5842SOL     OW18424   4.306   1.936   1.351
 5842SOL    HW118425   4.308   1.971   1.257
 5842SOL    HW218426   4.390   1.963   1.397
 5843SOL     OW18427   1.886   3.439   1.227
 5843SOL    HW118428   1.904   3.386   1.310
 5843SOL    HW218429   1.833   3.520   1.250
 5844SOL     OW18430   1.239   6.415   5.190
 5844SOL    HW118431   1.314   6.421   5.256
 5844SOL    HW218432   1.158   6.379   5.235
 5845SOL     OW18433   1.153   0.303   2.310
 5845SOL    HW118434   1.146   0.291   2.409
 5845SOL    HW218435   1.229   0.364   2.289
 5846SOL     OW18436   6.043   3.681   5.672
 5846SOL    HW118437   6.025   3.779   5.678
 5846SOL    HW218438   5.977   3.639   5.608
 5847SOL     OW18439   2.655   2.429   1.822
 5847SOL    HW118440   2.611   2.471   1.902
 5847SOL    HW218441   2.745   2.396   1.847
 5848SOL     OW18442   1.638   5.941   3.929
 5848SOL    HW118443   1.618   5.848   3.961
 5848SOL    HW218444   1.734   5.963   3.950
 5849SOL     OW18445   2.267   6.664   5.249
 5849SOL    HW118446   2.360   6.630   5.253
 5849SOL    HW218447   2.263   6.743   5.188
 5850SOL     OW18448   0.718   3.292   1.529
 5850SOL    HW118449   0.796   3.353   1.518
 5850SOL    HW218450   0.635   3.339   1.500
 5851SOL     OW18451   5.503   3.706   3.781
 5851SOL    HW118452   5.448   3.698   3.864
 5851SOL    HW218453   5.582   3.646   3.788
 5852SOL     OW18454   4.634   6.276   2.673
 5852SOL    HW118455   4.638   6.176   2.667
 5852SOL    HW218456   4.611   6.303   2.767
 5853SOL     OW18457   4.792   5.731   5.589
 5853SOL    HW118458   4.778   5.652   5.529
 5853SOL    HW218459   4.712   5.790   5.585
 5854SOL     OW18460   4.333   4.703   5.474
 5854SOL    HW118461   4.280   4.775   5.428
 5854SOL    HW218462   4.273   4.626   5.496
 5855SOL     OW18463   1.612   2.586   4.347
 5855SOL    HW118464   1.547   2.612   4.275
 5855SOL    HW218465   1.573   2.513   4.403
 5856SOL     OW18466   1.237   6.731   2.746
 5856SOL    HW118467   1.323   6.743   2.696
 5856SOL    HW218468   1.231   6.637   2.779
 5857SOL     OW18469   6.266   3.176   5.177
 5857SOL    HW118470   6.265   3.205   5.081
 5857SOL    HW218471   6.327   3.236   5.229
 5858SOL     OW18472   2.393   2.493   2.701
 5858SOL    HW118473   2.332   2.437   2.757
 5858SOL    HW218474   2.474   2.439   2.676
 5859SOL     OW18475   6.280   6.115   1.496
 5859SOL    HW118476   6.217   6.175   1.448
 5859SOL    HW218477   6.310   6.158   1.581
 5860SOL     OW18478   0.608   4.682   3.504
 5860SOL    HW118479   0.550   4.733   3.567
 5860SOL    HW218480   0.598   4.720   3.412
 5861SOL     OW18481   5.010   0.514   4.736
 5861SOL    HW118482   4.985   0.575   4.811
 5861SOL    HW218483   4.947   0.437   4.733
 5862SOL     OW18484   6.381   5.690   1.678
 5862SOL    HW118485   6.355   5.738   1.594
 5862SOL    HW218486   6.306   5.630   1.706
 5863SOL     OW18487   3.125   1.277   4.395
 5863SOL    HW118488   3.133   1.295   4.297
 5863SOL    HW218489   3.205   1.313   4.442
 5864SOL     OW18490   3.652   3.717   2.757
 5864SOL    HW118491   3.696   3.735   2.670
 5864SOL    HW218492   3.721   3.712   2.829
 5865SOL     OW18493   5.365   0.016   5.619
 5865SOL    HW118494   5.358   0.111   5.588
 5865SOL    HW218495   5.456   7.000   5.599
 5866SOL     OW18496   3.318   2.640   0.616
 5866SOL    HW118497   3.262   2.707   0.664
 5866SOL    HW218498   3.415   2.663   0.629
 5867SOL     OW18499   1.795   2.432   1.793
 5867SOL    HW118500   1.848   2.475   1.866
 5867SOL    HW218501   1.835   2.342   1.771
 5868SOL     OW18502   0.993   2.137   5.761
 5868SOL    HW118503   0.952   2.055   5.800
 5868SOL    HW218504   0.980   2.214   5.824
 5869SOL     OW18505   1.988   4.440   3.471
 5869SOL    HW118506   1.997   4.364   3.407
 5869SOL    HW218507   2.015   4.410   3.563
 5870SOL     OW18508   3.927   5.959   5.789
 5870SOL    HW118509   3.842   6.000   5.824
 5870SOL    HW218510   3.929   5.967   5.689
 5871SOL     OW18511   4.030   3.838   2.222
 5871SOL    HW118512   4.121   3.873   2.243
 5871SOL    HW218513   4.018   3.749   2.267
 5872SOL     OW18514   4.248   6.415   1.165
 5872SOL    HW118515   4.197   6.330   1.164
 5872SOL    HW218516   4.346   6.395   1.161
 5873SOL     OW18517   3.053   6.192   2.511
 5873SOL    HW118518   2.974   6.246   2.481
 5873SOL    HW218519   3.114   6.176   2.433
 5874SOL     OW18520   2.131   4.556   4.931
 5874SOL    HW118521   2.208   4.597   4.882
 5874SOL    HW218522   2.139   4.457   4.928
 5875SOL     OW18523   3.746   1.776   0.496
 5875SOL    HW118524   3.820   1.747   0.436
 5875SOL    HW218525   3.685   1.698   0.513
 5876SOL     OW18526   3.906   3.512   2.082
 5876SOL    HW118527   3.860   3.424   2.067
 5876SOL    HW218528   3.948   3.513   2.173
 5877SOL     OW18529   6.193   6.383   0.293
 5877SOL    HW118530   6.197   6.293   0.337
 5877SOL    HW218531   6.097   6.408   0.278
 5878SOL     OW18532   0.744   6.247   3.822
 5878SOL    HW118533   0.697   6.331   3.797
 5878SOL    HW218534   0.746   6.237   3.921
 5879SOL     OW18535   0.893   3.150   0.253
 5879SOL    HW118536   0.931   3.242   0.256
 5879SOL    HW218537   0.904   3.112   0.161
 5880SOL     OW18538   2.842   4.220   0.487
 5880SOL    HW118539   2.871   4.145   0.546
 5880SOL    HW218540   2.747   4.207   0.459
 5881SOL     OW18541   0.074   5.056   3.357
 5881SOL    HW118542   7.019   5.007   3.402
 5881SOL    HW218543   0.054   5.064   3.259
 5882SOL     OW18544   6.696   6.028   1.406
 5882SOL    HW118545   6.792   6.004   1.392
 5882SOL    HW218546   6.681   6.122   1.377
 5883SOL     OW18547   0.858   1.689   6.900
 5883SOL    HW118548   0.776   1.743   6.918
 5883SOL    HW218549   0.902   1.665   6.987
 5884SOL     OW18550   2.584   1.450   4.196
 5884SOL    HW118551   2.595   1.394   4.113
 5884SOL    HW218552   2.631   1.537   4.184
 5885SOL     OW18553   0.415   0.432   2.508
 5885SOL    HW118554   0.353   0.423   2.429
 5885SOL    HW218555   0.499   0.477   2.479
 5886SOL     OW18556   0.418   1.943   5.086
 5886SOL    HW118557   0.346   1.910   5.148
 5886SOL    HW218558   0.470   1.865   5.051
 5887SOL     OW18559   3.500   1.252   3.712
 5887SOL    HW118560   3.477   1.173   3.655
 5887SOL    HW218561   3.426   1.319   3.708
 5888SOL     OW18562   2.583   0.674   2.642
 5888SOL    HW118563   2.629   0.751   2.688
 5888SOL    HW218564   2.641   0.640   2.568
 5889SOL     OW18565   1.277   5.928   1.143
 5889SOL    HW118566   1.318   5.840   1.122
 5889SOL    HW218567   1.282   5.988   1.063
 5890SOL     OW18568   1.499   0.099   4.875
 5890SOL    HW118569   1.487   0.196   4.852
 5890SOL    HW218570   1.522   0.048   4.793
 5891SOL     OW18571   3.049   3.104   5.934
 5891SOL    HW118572   3.087   3.135   5.847
 5891SOL    HW218573   2.984   3.030   5.918
 5892SOL     OW18574   0.778   5.381   1.286
 5892SOL    HW118575   0.753   5.299   1.236
 5892SOL    HW218576   0.877   5.392   1.285
 5893SOL     OW18577   1.653   3.788   4.128
 5893SOL    HW118578   1.625   3.711   4.070
 5893SOL    HW218579   1.753   3.792   4.131
 5894SOL     OW18580   0.570   5.721   3.646
 5894SOL    HW118581   0.553   5.641   3.588
 5894SOL    HW218582   0.538   5.803   3.599
 5895SOL     OW18583   4.982   3.308   4.211
 5895SOL    HW118584   5.064   3.259   4.241
 5895SOL    HW218585   4.959   3.278   4.118
 5896SOL     OW18586   4.228   1.157   0.984
 5896SOL    HW118587   4.173   1.130   0.904
 5896SOL    HW218588   4.315   1.196   0.952
 5897SOL     OW18589   3.672   0.494   1.507
 5897SOL    HW118590   3.580   0.512   1.542
 5897SOL    HW218591   3.736   0.563   1.543
 5898SOL     OW18592   2.268   6.591   3.206
 5898SOL    HW118593   2.172   6.612   3.220
 5898SOL    HW218594   2.319   6.608   3.291
 5899SOL     OW18595   4.886   6.397   5.889
 5899SOL    HW118596   4.858   6.392   5.794
 5899SOL    HW218597   4.806   6.392   5.948
 5900SOL     OW18598   4.730   5.554   3.347
 5900SOL    HW118599   4.654   5.490   3.337
 5900SOL    HW218600   4.817   5.504   3.337
 5901SOL     OW18601   3.016   0.407   0.154
 5901SOL    HW118602   3.016   0.377   0.249
 5901SOL    HW218603   3.083   0.481   0.142
 5902SOL     OW18604   6.909   2.180   6.327
 5902SOL    HW118605   6.947   2.178   6.234
 5902SOL    HW218606   6.963   2.120   6.386
 5903SOL     OW18607   4.211   3.937   0.797
 5903SOL    HW118608   4.161   4.022   0.782
 5903SOL    HW218609   4.308   3.951   0.778
 5904SOL     OW18610   1.099   3.301   1.653
 5904SOL    HW118611   1.086   3.381   1.594
 5904SOL    HW218612   1.102   3.218   1.597
 5905SOL     OW18613   6.287   6.328   2.735
 5905SOL    HW118614   6.302   6.296   2.641
 5905SOL    HW218615   6.216   6.272   2.778
 5906SOL     OW18616   4.682   1.699   4.130
 5906SOL    HW118617   4.589   1.727   4.151
 5906SOL    HW218618   4.746   1.744   4.192
 5907SOL     OW18619   1.672   5.551   1.809
 5907SOL    HW118620   1.715   5.633   1.849
 5907SOL    HW218621   1.574   5.554   1.825
 5908SOL     OW18622   0.758   2.358   6.667
 5908SOL    HW118623   0.772   2.310   6.753
 5908SOL    HW218624   0.667   2.399   6.665
 5909SOL     OW18625   0.090   4.998   1.140
 5909SOL    HW118626   0.053   4.959   1.055
 5909SOL    HW218627   0.085   5.098   1.136
 5910SOL     OW18628   0.835   3.051   3.325
 5910SOL    HW118629   0.851   2.998   3.242
 5910SOL    HW218630   0.867   3.145   3.311
 5911SOL     OW18631   6.728   6.303   6.400
 5911SOL    HW118632   6.767   6.269   6.486
 5911SOL    HW218633   6.783   6.379   6.366
 5912SOL     OW18634   6.806   0.428   5.295
 5912SOL    HW118635   6.850   0.515   5.318
 5912SOL    HW218636   6.800   0.420   5.195
 5913SOL     OW18637   4.643   3.252   6.544
 5913SOL    HW118638   4.612   3.346   6.525
 5913SOL    HW218639   4.569   3.201   6.587
 5914SOL     OW18640   1.056   5.820   6.992
 5914SOL    HW118641   1.094   5.912   6.979
 5914SOL    HW218642   1.041   5.777   6.904
 5915SOL     OW18643   4.682   6.326   1.391
 5915SOL    HW118644   4.632   6.253   1.343
 5915SOL    HW218645   4.628   6.356   1.470
 5916SOL     OW18646   6.403   6.044   2.769
 5916SOL    HW118647   6.469   6.066   2.698
 5916SOL    HW218648   6.406   6.113   2.841
 5917SOL     OW18649   2.965   3.748   4.445
 5917SOL    HW118650   2.932   3.766   4.538
 5917SOL    HW218651   3.062   3.723   4.450
 5918SOL     OW18652   2.118   4.969   5.929
 5918SOL    HW118653   2.211   5.002   5.909
 5918SOL    HW218654   2.118   4.869   5.927
 5919SOL     OW18655   2.986   3.105   2.711
 5919SOL    HW118656   2.911   3.040   2.720
 5919SOL    HW218657   3.062   3.062   2.661
 5920SOL     OW18658   5.288   0.673   6.019
 5920SOL    HW118659   5.213   0.738   6.031
 5920SOL    HW218660   5.375   0.722   6.020
 5921SOL     OW18661   4.028   5.186   6.399
 5921SOL    HW118662   4.090   5.124   6.449
 5921SOL    HW218663   4.069   5.277   6.394
 5922SOL     OW18664   6.140   4.274   4.386
 5922SOL    HW118665   6.073   4.274   4.311
 5922SOL    HW218666   6.095   4.243   4.470
 5923SOL     OW18667   6.691   1.401   2.056
 5923SOL    HW118668   6.789   1.388   2.046
 5923SOL    HW218669   6.674   1.479   2.116
 5924SOL     OW18670   6.014   0.125   2.596
 5924SOL    HW118671   5.949   0.064   2.551
 5924SOL    HW218672   5.971   0.169   2.675
 5925SOL     OW18673   3.492   6.719   1.847
 5925SOL    HW118674   3.495   6.659   1.927
 5925SOL    HW218675   3.483   6.814   1.876
 5926SOL     OW18676   4.115   4.834   2.320
 5926SOL    HW118677   4.120   4.797   2.227
 5926SOL    HW218678   4.019   4.852   2.343
 5927SOL     OW18679   1.088   5.006   2.405
 5927SOL    HW118680   1.139   5.047   2.329
 5927SOL    HW218681   1.125   5.038   2.492
 5928SOL     OW18682   3.637   6.911   1.047
 5928SOL    HW118683   3.726   6.878   1.079
 5928SOL    HW218684   3.572   6.910   1.123
 5929SOL     OW18685   5.909   0.454   5.740
 5929SOL    HW118686   5.979   0.514   5.702
 5929SOL    HW218687   5.915   0.455   5.840
 5930SOL     OW18688   0.648   3.344   3.231
 5930SOL    HW118689   0.602   3.413   3.287
 5930SOL    HW218690   0.580   3.288   3.185
 5931SOL     OW18691   6.647   6.565   2.674
 5931SOL    HW118692   6.717   6.523   2.733
 5931SOL    HW218693   6.690   6.597   2.590
 5932SOL     OW18694   3.849   0.039   0.404
 5932SOL    HW118695   3.750   0.026   0.402
 5932SOL    HW218696   3.886   7.014   0.485
 5933SOL     OW18697   6.476   4.981   4.301
 5933SOL    HW118698   6.441   4.968   4.394
 5933SOL    HW218699   6.560   5.036   4.304
 5934SOL     OW18700   3.768   2.720   5.308
 5934SOL    HW118701   3.802   2.641   5.359
 5934SOL    HW218702   3.836   2.793   5.309
 5935SOL     OW18703   0.449   5.080   6.407
 5935SOL    HW118704   0.396   5.112   6.328
 5935SOL    HW218705   0.388   5.068   6.485
 5936SOL     OW18706   3.151   3.461   1.559
 5936SOL    HW118707   3.178   3.366   1.544
 5936SOL    HW218708   3.193   3.495   1.643
 5937SOL     OW18709   6.346   3.169   1.995
 5937SOL    HW118710   6.306   3.079   2.007
 5937SOL    HW218711   6.429   3.161   1.940
 5938SOL     OW18712   5.984   5.872   3.984
 5938SOL    HW118713   5.933   5.927   3.918
 5938SOL    HW218714   5.921   5.837   4.053
 5939SOL     OW18715   2.303   5.971   3.865
 5939SOL    HW118716   2.266   5.958   3.773
 5939SOL    HW218717   2.337   5.884   3.900
 5940SOL     OW18718   4.364   5.035   3.290
 5940SOL    HW118719   4.391   4.951   3.243
 5940SOL    HW218720   4.264   5.038   3.298
 5941SOL     OW18721   5.510   3.438   2.356
 5941SOL    HW118722   5.538   3.408   2.264
 5941SOL    HW218723   5.545   3.374   2.424
 5942SOL     OW18724   5.364   3.653   0.063
 5942SOL    HW118725   5.366   3.580   0.131
 5942SOL    HW218726   5.285   3.712   0.080
 5943SOL     OW18727   3.589   3.669   6.287
 5943SOL    HW118728   3.493   3.689   6.265
 5943SOL    HW218729   3.624   3.600   6.224
 5944SOL     OW18730   0.154   2.359   0.083
 5944SOL    HW118731   0.208   2.293   0.135
 5944SOL    HW218732   0.181   2.452   0.110
 5945SOL     OW18733   6.922   5.024   5.144
 5945SOL    HW118734   6.961   5.067   5.225
 5945SOL    HW218735   6.840   4.972   5.170
 5946SOL     OW18736   3.364   3.833   6.745
 5946SOL    HW118737   3.413   3.815   6.830
 5946SOL    HW218738   3.416   3.796   6.668
 5947SOL     OW18739   2.999   3.384   3.190
 5947SOL    HW118740   2.941   3.465   3.203
 5947SOL    HW218741   3.061   3.399   3.113
 5948SOL     OW18742   4.162   4.679   2.630
 5948SOL    HW118743   4.096   4.611   2.600
 5948SOL    HW218744   4.230   4.694   2.558
 5949SOL     OW18745   5.289   4.957   1.227
 5949SOL    HW118746   5.280   4.859   1.209
 5949SOL    HW218747   5.371   4.974   1.281
 5950SOL     OW18748   5.634   1.726   4.803
 5950SOL    HW118749   5.685   1.768   4.878
 5950SOL    HW218750   5.566   1.791   4.769
 5951SOL     OW18751   1.066   5.693   4.660
 5951SOL    HW118752   1.064   5.728   4.754
 5951SOL    HW218753   1.157   5.709   4.621
 5952SOL     OW18754   4.699   6.096   3.419
 5952SOL    HW118755   4.660   6.081   3.328
 5952SOL    HW218756   4.746   6.014   3.449
 5953SOL     OW18757   6.617   4.357   5.098
 5953SOL    HW118758   6.532   4.336   5.050
 5953SOL    HW218759   6.684   4.391   5.032
 5954SOL     OW18760   6.488   5.358   5.188
 5954SOL    HW118761   6.571   5.310   5.160
 5954SOL    HW218762   6.428   5.295   5.237
 5955SOL     OW18763   4.775   5.466   2.012
 5955SOL    HW118764   4.848   5.402   1.987
 5955SOL    HW218765   4.689   5.417   2.022
 5956SOL     OW18766   5.575   2.054   4.064
 5956SOL    HW118767   5.583   1.984   3.993
 5956SOL    HW218768   5.496   2.033   4.122
 5957SOL     OW18769   3.440   1.714   4.716
 5957SOL    HW118770   3.395   1.774   4.782
 5957SOL    HW218771   3.397   1.723   4.627
 5958SOL     OW18772   4.158   0.192   2.710
 5958SOL    HW118773   4.122   0.160   2.622
 5958SOL    HW218774   4.133   0.287   2.725
 5959SOL     OW18775   4.342   3.003   5.814
 5959SOL    HW118776   4.274   2.937   5.780
 5959SOL    HW218777   4.425   2.996   5.759
 5960SOL     OW18778   3.402   5.883   4.579
 5960SOL    HW118779   3.351   5.800   4.600
 5960SOL    HW218780   3.482   5.890   4.639
 5961SOL     OW18781   4.917   1.380   2.764
 5961SOL    HW118782   4.854   1.441   2.717
 5961SOL    HW218783   4.952   1.425   2.846
 5962SOL     OW18784   5.529   5.944   6.745
 5962SOL    HW118785   5.477   5.859   6.757
 5962SOL    HW218786   5.491   5.996   6.669
 5963SOL     OW18787   3.093   3.840   6.416
 5963SOL    HW118788   3.175   3.817   6.362
 5963SOL    HW218789   3.015   3.789   6.380
 5964SOL     OW18790   1.658   6.786   4.589
 5964SOL    HW118791   1.614   6.762   4.676
 5964SOL    HW218792   1.753   6.753   4.590
 5965SOL     OW18793   2.241   1.606   6.877
 5965SOL    HW118794   2.188   1.675   6.926
 5965SOL    HW218795   2.334   1.640   6.863
 5966SOL     OW18796   2.268   6.609   6.498
 5966SOL    HW118797   2.273   6.658   6.586
 5966SOL    HW218798   2.265   6.675   6.424
 5967SOL     OW18799   2.470   0.864   5.618
 5967SOL    HW118800   2.419   0.842   5.701
 5967SOL    HW218801   2.448   0.957   5.589
 5968SOL     OW18802   5.064   2.207   7.012
 5968SOL    HW118803   5.148   2.161   0.023
 5968SOL    HW218804   4.988   2.182   0.053
 5969SOL     OW18805   6.413   0.443   6.731
 5969SOL    HW118806   6.378   0.483   6.646
 5969SOL    HW218807   6.470   0.510   6.778
 5970SOL     OW18808   6.973   4.933   1.655
 5970SOL    HW118809   0.028   4.913   1.591
 5970SOL    HW218810   7.012   4.967   1.741
 5971SOL     OW18811   6.999   0.859   1.377
 5971SOL    HW118812   7.018   0.957   1.375
 5971SOL    HW218813   0.066   0.809   1.371
 5972SOL     OW18814   4.665   5.789   6.250
 5972SOL    HW118815   4.648   5.871   6.195
 5972SOL    HW218816   4.740   5.736   6.209
 5973SOL     OW18817   1.674   2.621   3.019
 5973SOL    HW118818   1.688   2.676   2.937
 5973SOL    HW218819   1.578   2.594   3.025
 5974SOL     OW18820   5.259   6.374   0.214
 5974SOL    HW118821   5.291   6.284   0.186
 5974SOL    HW218822   5.193   6.365   0.289
 5975SOL     OW18823   4.098   0.022   0.815
 5975SOL    HW118824   4.169   0.051   0.751
 5975SOL    HW218825   4.032   6.983   0.767
 5976SOL     OW18826   3.978   2.924   5.357
 5976SOL    HW118827   4.051   2.969   5.407
 5976SOL    HW218828   3.892   2.933   5.407
 5977SOL     OW18829   1.644   5.497   0.968
 5977SOL    HW118830   1.634   5.443   0.884
 5977SOL    HW218831   1.725   5.555   0.961
 5978SOL     OW18832   3.589   5.549   1.513
 5978SOL    HW118833   3.518   5.546   1.583
 5978SOL    HW218834   3.614   5.456   1.488
 5979SOL     OW18835   6.585   0.597   2.279
 5979SOL    HW118836   6.622   0.616   2.370
 5979SOL    HW218837   6.594   0.500   2.259
 5980SOL     OW18838   3.840   3.933   1.363
 5980SOL    HW118839   3.832   3.901   1.457
 5980SOL    HW218840   3.836   4.033   1.362
 5981SOL     OW18841   4.909   1.756   0.571
 5981SOL    HW118842   4.832   1.741   0.633
 5981SOL    HW218843   4.947   1.668   0.543
 5982SOL     OW18844   5.867   2.193   2.766
 5982SOL    HW118845   5.838   2.100   2.745
 5982SOL    HW218846   5.892   2.241   2.682
 5983SOL     OW18847   0.972   1.312   4.405
 5983SOL    HW118848   0.933   1.390   4.454
 5983SOL    HW218849   1.018   1.344   4.323
 5984SOL     OW18850   5.192   6.702   3.369
 5984SOL    HW118851   5.266   6.665   3.314
 5984SOL    HW218852   5.108   6.650   3.352
 5985SOL     OW18853   0.092   3.192   3.343
 5985SOL    HW118854   0.101   3.257   3.267
 5985SOL    HW218855   7.016   3.163   3.351
 5986SOL     OW18856   3.227   3.910   5.043
 5986SOL    HW118857   3.242   3.992   4.987
 5986SOL    HW218858   3.303   3.900   5.108
 5987SOL     OW18859   4.757   0.489   4.133
 5987SOL    HW118860   4.706   0.435   4.067
 5987SOL    HW218861   4.776   0.579   4.094
 5988SOL     OW18862   4.462   0.340   5.807
 5988SOL    HW118863   4.555   0.321   5.776
 5988SOL    HW218864   4.429   0.423   5.762
 5989SOL     OW18865   2.324   5.467   5.938
 5989SOL    HW118866   2.246   5.512   5.895
 5989SOL    HW218867   2.337   5.377   5.897
 5990SOL     OW18868   3.243   3.563   0.633
 5990SOL    HW118869   3.252   3.618   0.550
 5990SOL    HW218870   3.165   3.501   0.625
 5991SOL     OW18871   4.031   5.887   6.572
 5991SOL    HW118872   4.047   5.892   6.670
 5991SOL    HW218873   3.984   5.970   6.541
 5992SOL     OW18874   3.580   0.391   1.914
 5992SOL    HW118875   3.563   0.332   1.835
 5992SOL    HW218876   3.493   0.423   1.952
 5993SOL     OW18877   4.173   4.114   5.818
 5993SOL    HW118878   4.189   4.111   5.719
 5993SOL    HW218879   4.257   4.090   5.866
 5994SOL     OW18880   6.805   2.186   6.892
 5994SOL    HW118881   6.838   2.094   6.872
 5994SOL    HW218882   6.850   2.220   6.975
 5995SOL     OW18883   4.887   3.082   2.290
 5995SOL    HW118884   4.921   3.177   2.289
 5995SOL    HW218885   4.833   3.066   2.207
 5996SOL     OW18886   0.380   5.856   1.018
 5996SOL    HW118887   0.348   5.825   0.928
 5996SOL    HW218888   0.363   5.785   1.086
 5997SOL     OW18889   0.744   5.444   2.734
 5997SOL    HW118890   0.785   5.535   2.737
 5997SOL    HW218891   0.714   5.418   2.826
 5998SOL     OW18892   6.368   1.851   2.360
 5998SOL    HW118893   6.452   1.847   2.307
 5998SOL    HW218894   6.389   1.849   2.457
 5999SOL     OW18895   2.731   3.275   1.463
 5999SOL    HW118896   2.653   3.298   1.404
 5999SOL    HW218897   2.697   3.242   1.551
 6000SOL     OW18898   1.720   6.244   6.862
 6000SOL    HW118899   1.655   6.253   6.787
 6000SOL    HW218900   1.672   6.217   6.945
 6001SOL     OW18901   6.983   5.172   6.529
 6001SOL    HW118902   0.022   5.233   6.474
 6001SOL    HW218903   6.924   5.227   6.588
 6002SOL     OW18904   5.929   6.460   6.614
 6002SOL    HW118905   5.982   6.539   6.584
 6002SOL    HW218906   5.983   6.406   6.678
 6003SOL     OW18907   5.853   1.888   5.266
 6003SOL    HW118908   5.925   1.874   5.197
 6003SOL    HW218909   5.878   1.965   5.325
 6004SOL     OW18910   6.548   3.711   3.549
 6004SOL    HW118911   6.625   3.774   3.562
 6004SOL    HW218912   6.540   3.688   3.452
 6005SOL     OW18913   5.537   5.040   4.771
 6005SOL    HW118914   5.574   4.952   4.741
 6005SOL    HW218915   5.451   5.058   4.723
 6006SOL     OW18916   2.235   0.839   4.901
 6006SOL    HW118917   2.268   0.917   4.955
 6006SOL    HW218918   2.223   0.760   4.961
 6007SOL     OW18919   6.398   3.139   5.847
 6007SOL    HW118920   6.379   3.186   5.934
 6007SOL    HW218921   6.490   3.164   5.816
 6008SOL     OW18922   2.765   4.972   6.046
 6008SOL    HW118923   2.847   4.944   5.997
 6008SOL    HW218924   2.764   4.931   6.137
 6009SOL     OW18925   3.799   0.636   4.074
 6009SOL    HW118926   3.769   0.587   3.993
 6009SOL    HW218927   3.736   0.619   4.149
 6010SOL     OW18928   0.711   4.526   3.765
 6010SOL    HW118929   0.711   4.624   3.784
 6010SOL    HW218930   0.791   4.483   3.809
 6011SOL     OW18931   6.093   3.246   3.425
 6011SOL    HW118932   6.100   3.237   3.326
 6011SOL    HW218933   6.067   3.158   3.465
 6012SOL     OW18934   5.812   0.799   0.629
 6012SOL    HW118935   5.752   0.781   0.551
 6012SOL    HW218936   5.842   0.894   0.628
 6013SOL     OW18937   4.685   0.886   2.841
 6013SOL    HW118938   4.655   0.976   2.808
 6013SOL    HW218939   4.780   0.892   2.871
 6014SOL     OW18940   3.800   3.930   3.561
 6014SOL    HW118941   3.807   3.837   3.596
 6014SOL    HW218942   3.749   3.986   3.626
 6015SOL     OW18943   6.014   4.249   4.649
 6015SOL    HW118944   5.954   4.169   4.650
 6015SOL    HW218945   5.975   4.321   4.706
 6016SOL     OW18946   6.675   1.368   6.268
 6016SOL    HW118947   6.757   1.404   6.313
 6016SOL    HW218948   6.593   1.402   6.315
 6017SOL     OW18949   6.172   4.908   4.150
 6017SOL    HW118950   6.183   4.887   4.053
 6017SOL    HW218951   6.259   4.940   4.187
 6018SOL     OW18952   3.323   1.276   5.788
 6018SOL    HW118953   3.407   1.250   5.835
 6018SOL    HW218954   3.306   1.373   5.802
 6019SOL     OW18955   0.748   3.221   4.924
 6019SOL    HW118956   0.756   3.320   4.930
 6019SOL    HW218957   0.775   3.180   5.011
 6020SOL     OW18958   0.714   4.840   0.205
 6020SOL    HW118959   0.674   4.916   0.154
 6020SOL    HW218960   0.758   4.874   0.288
 6021SOL     OW18961   4.388   0.663   3.180
 6021SOL    HW118962   4.395   0.759   3.151
 6021SOL    HW218963   4.479   0.629   3.204
 6022SOL     OW18964   6.718   1.921   3.654
 6022SOL    HW118965   6.641   1.867   3.620
 6022SOL    HW218966   6.741   1.891   3.747
 6023SOL     OW18967   5.117   1.099   1.824
 6023SOL    HW118968   5.069   1.021   1.865
 6023SOL    HW218969   5.203   1.068   1.784
 6024SOL     OW18970   1.200   4.660   1.582
 6024SOL    HW118971   1.172   4.607   1.502
 6024SOL    HW218972   1.118   4.697   1.627
 6025SOL     OW18973   3.051   2.158   3.535
 6025SOL    HW118974   3.075   2.069   3.497
 6025SOL    HW218975   3.085   2.165   3.628
 6026SOL     OW18976   0.326   5.640   5.356
 6026SOL    HW118977   0.273   5.635   5.271
 6026SOL    HW218978   0.422   5.620   5.336
 6027SOL     OW18979   6.814   3.623   5.973
 6027SOL    HW118980   6.893   3.562   5.979
 6027SOL    HW218981   6.844   3.716   5.951
 6028SOL     OW18982   5.595   4.298   1.392
 6028SOL    HW118983   5.670   4.320   1.330
 6028SOL    HW218984   5.555   4.210   1.367
 6029SOL     OW18985   2.918   6.493   3.716
 6029SOL    HW118986   2.823   6.524   3.707
 6029SOL    HW218987   2.976   6.571   3.740
 6030SOL     OW18988   4.692   5.006   3.682
 6030SOL    HW118989   4.678   5.096   3.721
 6030SOL    HW218990   4.715   4.941   3.754
 6031SOL     OW18991   3.117   5.633   3.855
 6031SOL    HW118992   3.194   5.570   3.868
 6031SOL    HW218993   3.065   5.604   3.774
 6032SOL     OW18994   2.406   5.075   2.545
 6032SOL    HW118995   2.474   5.115   2.483
 6032SOL    HW218996   2.347   5.013   2.493
 6033SOL     OW18997   2.156   3.114   3.046
 6033SOL    HW118998   2.232   3.084   2.989
 6033SOL    HW218999   2.070   3.106   2.995
 6034SOL     OW19000   1.210   0.738   5.423
 6034SOL    HW119001   1.260   0.807   5.475
 6034SOL    HW219002   1.197   0.769   5.329
 6035SOL     OW19003   1.350   1.242   1.675
 6035SOL    HW119004   1.308   1.236   1.765
 6035SOL    HW219005   1.395   1.331   1.665
 6036SOL     OW19006   5.076   5.363   2.288
 6036SOL    HW119007   5.025   5.398   2.367
 6036SOL    HW219008   5.017   5.306   2.232
 6037SOL     OW19009   4.071   0.385   0.640
 6037SOL    HW119010   4.167   0.377   0.667
 6037SOL    HW219011   4.017   0.420   0.717
 6038SOL     OW19012   1.752   2.655   6.241
 6038SOL    HW119013   1.825   2.678   6.176
 6038SOL    HW219014   1.667   2.696   6.211
 6039SOL     OW19015   3.739   3.306   2.841
 6039SOL    HW119016   3.773   3.367   2.769
 6039SOL    HW219017   3.748   3.211   2.811
 6040SOL     OW19018   1.476   1.486   1.201
 6040SOL    HW119019   1.433   1.405   1.162
 6040SOL    HW219020   1.561   1.460   1.248
 6041SOL     OW19021   3.027   1.801   5.012
 6041SOL    HW119022   3.101   1.760   4.959
 6041SOL    HW219023   3.062   1.881   5.062
 6042SOL     OW19024   4.049   6.740   2.885
 6042SOL    HW119025   4.076   6.806   2.955
 6042SOL    HW219026   4.020   6.655   2.929
 6043SOL     OW19027   0.646   6.749   5.123
 6043SOL    HW119028   0.727   6.808   5.125
 6043SOL    HW219029   0.580   6.786   5.058
 6044SOL     OW19030   2.017   2.664   1.281
 6044SOL    HW119031   2.107   2.624   1.294
 6044SOL    HW219032   2.015   2.715   1.195
 6045SOL     OW19033   5.460   3.845   3.314
 6045SOL    HW119034   5.502   3.841   3.224
 6045SOL    HW219035   5.500   3.775   3.373
 6046SOL     OW19036   3.347   2.364   1.431
 6046SOL    HW119037   3.334   2.285   1.372
 6046SOL    HW219038   3.372   2.333   1.523
 6047SOL     OW19039   5.257   2.016   1.696
 6047SOL    HW119040   5.276   2.002   1.793
 6047SOL    HW219041   5.205   1.938   1.660
 6048SOL     OW19042   4.564   5.150   5.220
 6048SOL    HW119043   4.555   5.210   5.140
 6048SOL    HW219044   4.661   5.136   5.240
 6049SOL     OW19045   4.479   4.023   6.991
 6049SOL    HW119046   4.573   4.016   6.958
 6049SOL    HW219047   4.416   4.008   6.915
 6050SOL     OW19048   2.379   5.260   6.549
 6050SOL    HW119049   2.362   5.171   6.590
 6050SOL    HW219050   2.415   5.247   6.456
 6051SOL     OW19051   1.920   0.296   3.058
 6051SOL    HW119052   1.883   0.208   3.090
 6051SOL    HW219053   1.892   0.311   2.963
 6052SOL     OW19054   4.978   1.288   1.168
 6052SOL    HW119055   4.948   1.380   1.143
 6052SOL    HW219056   4.906   1.243   1.222
 6053SOL     OW19057   4.301   1.180   5.906
 6053SOL    HW119058   4.389   1.202   5.863
 6053SOL    HW219059   4.228   1.232   5.862
 6054SOL     OW19060   2.448   3.642   6.930
 6054SOL    HW119061   2.544   3.668   6.920
 6054SOL    HW219062   2.395   3.719   6.965
 6055SOL     OW19063   5.345   6.156   5.437
 6055SOL    HW119064   5.268   6.131   5.495
 6055SOL    HW219065   5.317   6.230   5.375
 6056SOL     OW19066   4.682   3.377   5.362
 6056SOL    HW119067   4.764   3.404   5.412
 6056SOL    HW219068   4.667   3.440   5.286
 6057SOL     OW19069   0.150   1.112   2.373
 6057SOL    HW119070   0.177   1.083   2.281
 6057SOL    HW219071   0.224   1.163   2.416
 6058SOL     OW19072   5.206   3.502   0.997
 6058SOL    HW119073   5.278   3.568   0.976
 6058SOL    HW219074   5.180   3.509   1.093
 6059SOL     OW19075   4.555   5.162   6.230
 6059SOL    HW119076   4.485   5.090   6.229
 6059SOL    HW219077   4.521   5.240   6.283
 6060SOL     OW19078   2.703   3.221   6.032
 6060SOL    HW119079   2.638   3.284   6.073
 6060SOL    HW219080   2.714   3.242   5.935
 6061SOL     OW19081   5.074   3.597   0.337
 6061SOL    HW119082   5.047   3.605   0.433
 6061SOL    HW219083   4.993   3.582   0.280
 6062SOL     OW19084   2.463   1.477   5.783
 6062SOL    HW119085   2.384   1.466   5.723
 6062SOL    HW219086   2.442   1.545   5.854
 6063SOL     OW19087   4.573   2.549   6.159
 6063SOL    HW119088   4.597   2.476   6.095
 6063SOL    HW219089   4.560   2.510   6.250
 6064SOL     OW19090   1.682   0.583   0.992
 6064SOL    HW119091   1.639   0.570   1.081
 6064SOL    HW219092   1.781   0.566   1.000
 6065SOL     OW19093   0.984   5.933   2.520
 6065SOL    HW119094   0.959   5.839   2.497
 6065SOL    HW219095   1.078   5.936   2.554
 6066SOL     OW19096   5.502   1.336   5.263
 6066SOL    HW119097   5.478   1.256   5.317
 6066SOL    HW219098   5.421   1.392   5.248
 6067SOL     OW19099   4.918   0.728   5.711
 6067SOL    HW119100   4.877   0.751   5.622
 6067SOL    HW219101   4.965   0.808   5.747
 6068SOL     OW19102   4.651   2.627   4.467
 6068SOL    HW119103   4.574   2.677   4.428
 6068SOL    HW219104   4.621   2.579   4.549
 6069SOL     OW19105   5.654   3.275   5.301
 6069SOL    HW119106   5.629   3.179   5.285
 6069SOL    HW219107   5.603   3.334   5.239
 6070SOL     OW19108   2.821   2.418   1.304
 6070SOL    HW119109   2.814   2.431   1.403
 6070SOL    HW219110   2.911   2.379   1.282
 6071SOL     OW19111   6.727   5.852   4.854
 6071SOL    HW119112   6.709   5.837   4.952
 6071SOL    HW219113   6.730   5.764   4.807
 6072SOL     OW19114   0.447   0.324   1.769
 6072SOL    HW119115   0.356   0.288   1.789
 6072SOL    HW219116   0.492   0.266   1.701
 6073SOL     OW19117   5.347   2.826   0.600
 6073SOL    HW119118   5.408   2.903   0.581
 6073SOL    HW219119   5.278   2.853   0.666
 6074SOL     OW19120   0.879   5.490   2.438
 6074SOL    HW119121   0.921   5.445   2.359
 6074SOL    HW219122   0.934   5.471   2.520
 6075SOL     OW19123   4.540   6.754   5.864
 6075SOL    HW119124   4.563   6.750   5.961
 6075SOL    HW219125   4.603   6.817   5.817
 6076SOL     OW19126   3.266   5.165   3.449
 6076SOL    HW119127   3.178   5.208   3.427
 6076SOL    HW219128   3.331   5.183   3.375
 6077SOL     OW19129   6.326   5.500   1.396
 6077SOL    HW119130   6.368   5.462   1.313
 6077SOL    HW219131   6.355   5.447   1.476
 6078SOL     OW19132   5.199   5.228   6.979
 6078SOL    HW119133   5.282   5.255   0.008
 6078SOL    HW219134   5.216   5.142   6.930
 6079SOL     OW19135   4.958   3.469   5.421
 6079SOL    HW119136   5.004   3.484   5.509
 6079SOL    HW219137   4.965   3.552   5.366
 6080SOL     OW19138   0.112   5.748   1.267
 6080SOL    HW119139   0.099   5.821   1.201
 6080SOL    HW219140   0.199   5.702   1.250
 6081SOL     OW19141   6.933   2.664   5.665
 6081SOL    HW119142   7.007   2.731   5.669
 6081SOL    HW219143   6.851   2.702   5.708
 6082SOL     OW19144   2.887   0.013   2.963
 6082SOL    HW119145   2.951   0.073   3.011
 6082SOL    HW219146   2.858   0.057   2.878
 6083SOL     OW19147   6.237   6.176   0.461
 6083SOL    HW119148   6.307   6.138   0.401
 6083SOL    HW219149   6.263   6.161   0.557
 6084SOL     OW19150   1.084   6.981   2.726
 6084SOL    HW119151   1.161   6.922   2.700
 6084SOL    HW219152   1.090   7.003   2.823
 6085SOL     OW19153   0.503   6.977   0.179
 6085SOL    HW119154   0.465   0.008   0.103
 6085SOL    HW219155   0.458   6.888   0.186
 6086SOL     OW19156   2.528   1.809   5.658
 6086SOL    HW119157   2.581   1.725   5.670
 6086SOL    HW219158   2.585   1.888   5.680
 6087SOL     OW19159   3.583   6.242   1.593
 6087SOL    HW119160   3.579   6.339   1.616
 6087SOL    HW219161   3.637   6.230   1.509
 6088SOL     OW19162   5.553   6.589   4.466
 6088SOL    HW119163   5.485   6.551   4.402
 6088SOL    HW219164   5.593   6.672   4.426
 6089SOL     OW19165   5.447   2.256   2.847
 6089SOL    HW119166   5.387   2.324   2.805
 6089SOL    HW219167   5.475   2.189   2.778
 6090SOL     OW19168   2.491   5.309   4.562
 6090SOL    HW119169   2.582   5.352   4.570
 6090SOL    HW219170   2.485   5.233   4.626
 6091SOL     OW19171   2.629   1.216   6.578
 6091SOL    HW119172   2.564   1.146   6.607
 6091SOL    HW219173   2.680   1.248   6.658
 6092SOL     OW19174   4.212   0.925   2.920
 6092SOL    HW119175   4.151   0.846   2.914
 6092SOL    HW219176   4.166   1.005   2.882
 6093SOL     OW19177   2.338   2.714   2.160
 6093SOL    HW119178   2.257   2.659   2.181
 6093SOL    HW219179   2.350   2.720   2.061
 6094SOL     OW19180   1.198   5.999   2.702
 6094SOL    HW119181   1.242   5.910   2.700
 6094SOL    HW219182   1.267   6.071   2.710
 6095SOL     OW19183   5.026   4.789   0.149
 6095SOL    HW119184   5.065   4.874   0.113
 6095SOL    HW219185   4.934   4.777   0.112
 6096SOL     OW19186   6.194   0.311   3.129
 6096SOL    HW119187   6.211   0.315   3.227
 6096SOL    HW219188   6.254   0.241   3.088
 6097SOL     OW19189   1.743   5.330   2.424
 6097SOL    HW119190   1.685   5.314   2.504
 6097SOL    HW219191   1.832   5.285   2.438
 6098SOL     OW19192   0.243   1.341   5.298
 6098SOL    HW119193   0.337   1.365   5.320
 6098SOL    HW219194   0.223   1.248   5.330
 6099SOL     OW19195   5.425   5.908   6.144
 6099SOL    HW119196   5.329   5.927   6.161
 6099SOL    HW219197   5.474   5.994   6.130
 6100SOL     OW19198   5.393   6.205   1.560
 6100SOL    HW119199   5.295   6.206   1.577
 6100SOL    HW219200   5.440   6.256   1.632
 6101SOL     OW19201   0.211   2.942   3.220
 6101SOL    HW119202   0.254   2.876   3.281
 6101SOL    HW219203   0.194   3.027   3.269
 6102SOL     OW19204   3.439   5.760   3.123
 6102SOL    HW119205   3.490   5.839   3.159
 6102SOL    HW219206   3.347   5.759   3.162
 6103SOL     OW19207   5.574   1.632   1.955
 6103SOL    HW119208   5.623   1.566   2.012
 6103SOL    HW219209   5.491   1.590   1.919
 6104SOL     OW19210   5.125   6.668   5.693
 6104SOL    HW119211   5.123   6.754   5.643
 6104SOL    HW219212   5.219   6.643   5.713
 6105SOL     OW19213   2.551   5.699   6.578
 6105SOL    HW119214   2.611   5.683   6.500
 6105SOL    HW219215   2.500   5.616   6.599
 6106SOL     OW19216   1.644   4.988   5.993
 6106SOL    HW119217   1.658   5.086   5.980
 6106SOL    HW219218   1.641   4.942   5.904
 6107SOL     OW19219   4.813   5.915   5.049
 6107SOL    HW119220   4.857   5.878   5.131
 6107SOL    HW219221   4.726   5.957   5.073
 6108SOL     OW19222   2.351   2.692   2.524
 6108SOL    HW119223   2.353   2.671   2.426
 6108SOL    HW219224   2.359   2.608   2.577
 6109SOL     OW19225   5.600   1.210   5.011
 6109SOL    HW119226   5.519   1.159   4.983
 6109SOL    HW219227   5.599   1.225   5.110
 6110SOL     OW19228   2.739   3.868   0.788
 6110SOL    HW119229   2.655   3.845   0.740
 6110SOL    HW219230   2.721   3.939   0.857
 6111SOL     OW19231   1.301   3.104   2.327
 6111SOL    HW119232   1.264   3.171   2.263
 6111SOL    HW219233   1.353   3.035   2.276
 6112SOL     OW19234   3.436   0.406   2.752
 6112SOL    HW119235   3.384   0.419   2.667
 6112SOL    HW219236   3.527   0.370   2.730
 6113SOL     OW19237   2.672   2.153   5.944
 6113SOL    HW119238   2.754   2.143   6.001
 6113SOL    HW219239   2.592   2.160   6.004
 6114SOL     OW19240   5.362   4.696   2.626
 6114SOL    HW119241   5.409   4.776   2.664
 6114SOL    HW219242   5.283   4.674   2.682
 6115SOL     OW19243   6.057   0.432   4.587
 6115SOL    HW119244   6.057   0.344   4.635
 6115SOL    HW219245   6.045   0.416   4.489
 6116SOL     OW19246   3.629   2.002   6.013
 6116SOL    HW119247   3.682   2.069   5.962
 6116SOL    HW219248   3.570   2.049   6.078
 6117SOL     OW19249   1.740   1.171   3.521
 6117SOL    HW119250   1.793   1.093   3.554
 6117SOL    HW219251   1.657   1.181   3.576
 6118SOL     OW19252   5.911   0.707   1.103
 6118SOL    HW119253   5.969   0.786   1.082
 6118SOL    HW219254   5.867   0.721   1.192
 6119SOL     OW19255   0.748   3.488   0.085
 6119SOL    HW119256   0.676   3.526   0.143
 6119SOL    HW219257   0.770   3.554   0.013
 6120SOL     OW19258   2.642   6.239   5.670
 6120SOL    HW119259   2.682   6.205   5.585
 6120SOL    HW219260   2.712   6.285   5.724
 6121SOL     OW19261   0.714   3.536   5.008
 6121SOL    HW119262   0.619   3.544   4.977
 6121SOL    HW219263   0.715   3.520   5.107
 6122SOL     OW19264   4.072   4.904   0.398
 6122SOL    HW119265   4.114   4.994   0.409
 6122SOL    HW219266   4.095   4.846   0.477
 6123SOL     OW19267   4.965   6.708   6.386
 6123SOL    HW119268   4.956   6.642   6.461
 6123SOL    HW219269   4.897   6.781   6.399
 6124SOL     OW19270   1.392   6.666   5.809
 6124SOL    HW119271   1.432   6.755   5.788
 6124SOL    HW219272   1.316   6.647   5.747
 6125SOL     OW19273   1.858   3.861   0.383
 6125SOL    HW119274   1.789   3.817   0.440
 6125SOL    HW219275   1.844   3.960   0.385
 6126SOL     OW19276   0.069   0.769   4.053
 6126SOL    HW119277   0.153   0.809   4.090
 6126SOL    HW219278   0.072   0.773   3.953
 6127SOL     OW19279   2.979   6.887   0.842
 6127SOL    HW119280   2.899   6.829   0.827
 6127SOL    HW219281   3.009   6.879   0.937
 6128SOL     OW19282   6.267   5.071   0.553
 6128SOL    HW119283   6.290   5.112   0.465
 6128SOL    HW219284   6.175   5.098   0.580
 6129SOL     OW19285   0.082   2.890   2.272
 6129SOL    HW119286   0.142   2.884   2.351
 6129SOL    HW219287   0.070   2.799   2.232
 6130SOL     OW19288   5.115   2.594   2.307
 6130SOL    HW119289   5.056   2.513   2.301
 6130SOL    HW219290   5.059   2.675   2.320
 6131SOL     OW19291   0.303   1.556   3.429
 6131SOL    HW119292   0.369   1.493   3.472
 6131SOL    HW219293   0.339   1.649   3.431
 6132SOL     OW19294   4.252   2.085   6.903
 6132SOL    HW119295   4.235   2.130   6.815
 6132SOL    HW219296   4.165   2.072   6.951
 6133SOL     OW19297   2.026   3.597   3.340
 6133SOL    HW119298   1.947   3.536   3.330
 6133SOL    HW219299   2.018   3.649   3.425
 6134SOL     OW19300   4.043   5.807   6.941
 6134SOL    HW119301   3.954   5.765   6.925
 6134SOL    HW219302   4.108   5.737   6.968
 6135SOL     OW19303   0.225   6.495   1.027
 6135SOL    HW119304   0.163   6.532   1.096
 6135SOL    HW219305   0.283   6.569   0.991
 6136SOL     OW19306   1.720   2.869   1.763
 6136SOL    HW119307   1.652   2.916   1.708
 6136SOL    HW219308   1.775   2.937   1.812
 6137SOL     OW19309   6.846   3.997   2.176
 6137SOL    HW119310   6.806   4.088   2.189
 6137SOL    HW219311   6.883   3.989   2.084
 6138SOL     OW19312   3.638   7.002   2.660
 6138SOL    HW119313   3.715   6.952   2.700
 6138SOL    HW219314   3.661   0.010   2.567
 6139SOL     OW19315   0.966   6.989   5.847
 6139SOL    HW119316   1.005   6.994   5.755
 6139SOL    HW219317   0.886   0.028   5.853
 6140SOL     OW19318   1.341   0.435   2.055
 6140SOL    HW119319   1.327   0.468   1.962
 6140SOL    HW219320   1.319   0.337   2.060
 6141SOL     OW19321   0.602   6.665   6.214
 6141SOL    HW119322   0.649   6.671   6.126
 6141SOL    HW219323   0.550   6.581   6.218
 6142SOL     OW19324   0.210   6.212   6.057
 6142SOL    HW119325   0.304   6.234   6.084
 6142SOL    HW219326   0.210   6.130   6.001
 6143SOL     OW19327   6.756   3.284   1.320
 6143SOL    HW119328   6.809   3.289   1.404
 6143SOL    HW219329   6.727   3.190   1.304
 6144SOL     OW19330   5.336   4.920   4.386
 6144SOL    HW119331   5.397   4.843   4.370
 6144SOL    HW219332   5.336   4.980   4.306
 6145SOL     OW19333   5.283   5.070   4.112
 6145SOL    HW119334   5.185   5.058   4.095
 6145SOL    HW219335   5.332   5.076   4.025
 6146SOL     OW19336   3.710   5.407   3.700
 6146SOL    HW119337   3.710   5.363   3.790
 6146SOL    HW219338   3.630   5.466   3.693
 6147SOL     OW19339   2.209   2.257   5.172
 6147SOL    HW119340   2.298   2.294   5.146
 6147SOL    HW219341   2.138   2.325   5.155
 6148SOL     OW19342   4.120   6.618   5.032
 6148SOL    HW119343   4.094   6.534   5.080
 6148SOL    HW219344   4.121   6.601   4.933
 6149SOL     OW19345   2.275   6.737   1.433
 6149SOL    HW119346   2.177   6.749   1.418
 6149SOL    HW219347   2.296   6.639   1.439
 6150SOL     OW19348   6.112   4.385   0.740
 6150SOL    HW119349   6.185   4.422   0.683
 6150SOL    HW219350   6.097   4.289   0.717
 6151SOL     OW19351   6.098   5.057   6.393
 6151SOL    HW119352   6.093   5.128   6.323
 6151SOL    HW219353   6.010   5.011   6.401
 6152SOL     OW19354   0.428   5.538   4.500
 6152SOL    HW119355   0.519   5.546   4.461
 6152SOL    HW219356   0.360   5.543   4.427
 6153SOL     OW19357   5.481   4.054   1.283
 6153SOL    HW119358   5.459   4.074   1.188
 6153SOL    HW219359   5.404   4.006   1.325
 6154SOL     OW19360   6.331   2.810   2.761
 6154SOL    HW119361   6.285   2.722   2.749
 6154SOL    HW219362   6.263   2.883   2.767
 6155SOL     OW19363   1.582   1.262   3.261
 6155SOL    HW119364   1.636   1.241   3.342
 6155SOL    HW219365   1.635   1.321   3.200
 6156SOL     OW19366   4.754   4.708   2.402
 6156SOL    HW119367   4.795   4.642   2.338
 6156SOL    HW219368   4.700   4.659   2.470
 6157SOL     OW19369   6.563   2.118   3.578
 6157SOL    HW119370   6.588   2.205   3.620
 6157SOL    HW219371   6.633   2.050   3.600
 6158SOL     OW19372   3.910   2.319   6.819
 6158SOL    HW119373   3.837   2.374   6.858
 6158SOL    HW219374   3.950   2.261   6.890
 6159SOL     OW19375   4.448   1.787   1.047
 6159SOL    HW119376   4.405   1.877   1.060
 6159SOL    HW219377   4.528   1.797   0.988
 6160SOL     OW19378   5.519   0.333   6.820
 6160SOL    HW119379   5.532   0.405   6.752
 6160SOL    HW219380   5.520   0.244   6.774
 6161SOL     OW19381   5.823   2.263   6.297
 6161SOL    HW119382   5.783   2.195   6.235
 6161SOL    HW219383   5.752   2.325   6.329
 6162SOL     OW19384   6.106   6.611   3.865
 6162SOL    HW119385   6.096   6.522   3.822
 6162SOL    HW219386   6.105   6.682   3.795
 6163SOL     OW19387   5.908   6.693   1.621
 6163SOL    HW119388   5.888   6.605   1.663
 6163SOL    HW219389   5.903   6.765   1.690
 6164SOL     OW19390   3.569   3.878   3.753
 6164SOL    HW119391   3.589   3.974   3.733
 6164SOL    HW219392   3.596   3.857   3.847
 6165SOL     OW19393   3.850   1.387   6.381
 6165SOL    HW119394   3.939   1.408   6.423
 6165SOL    HW219395   3.815   1.301   6.417
 6166SOL     OW19396   5.753   1.736   6.718
 6166SOL    HW119397   5.667   1.688   6.705
 6166SOL    HW219398   5.826   1.688   6.670
 6167SOL     OW19399   0.759   5.130   3.105
 6167SOL    HW119400   0.813   5.061   3.154
 6167SOL    HW219401   0.784   5.129   3.008
 6168SOL     OW19402   1.751   3.356   3.114
 6168SOL    HW119403   1.711   3.280   3.063
 6168SOL    HW219404   1.851   3.346   3.117
 6169SOL     OW19405   1.174   1.612   0.316
 6169SOL    HW119406   1.172   1.518   0.280
 6169SOL    HW219407   1.151   1.611   0.413
 6170SOL     OW19408   2.921   4.099   5.572
 6170SOL    HW119409   2.969   4.094   5.485
 6170SOL    HW219410   2.864   4.018   5.584
 6171SOL     OW19411   1.797   3.907   0.728
 6171SOL    HW119412   1.738   3.899   0.808
 6171SOL    HW219413   1.893   3.893   0.755
 6172SOL     OW19414   1.576   1.571   3.899
 6172SOL    HW119415   1.535   1.495   3.950
 6172SOL    HW219416   1.652   1.536   3.843
 6173SOL     OW19417   6.199   5.234   2.242
 6173SOL    HW119418   6.176   5.164   2.310
 6173SOL    HW219419   6.292   5.268   2.258
 6174SOL     OW19420   5.398   5.496   3.472
 6174SOL    HW119421   5.361   5.567   3.532
 6174SOL    HW219422   5.396   5.527   3.378
 6175SOL     OW19423   4.618   0.775   3.706
 6175SOL    HW119424   4.628   0.796   3.609
 6175SOL    HW219425   4.623   0.859   3.759
 6176SOL     OW19426   5.941   3.191   6.801
 6176SOL    HW119427   6.019   3.249   6.822
 6176SOL    HW219428   5.960   3.097   6.829
 6177SOL     OW19429   5.078   1.172   0.943
 6177SOL    HW119430   5.047   1.222   1.023
 6177SOL    HW219431   5.167   1.130   0.963
 6178SOL     OW19432   4.849   4.665   3.212
 6178SOL    HW119433   4.861   4.612   3.296
 6178SOL    HW219434   4.803   4.751   3.233
 6179SOL     OW19435   6.357   5.012   4.542
 6179SOL    HW119436   6.319   5.104   4.545
 6179SOL    HW219437   6.284   4.945   4.545
 6180SOL     OW19438   3.943   5.213   0.270
 6180SOL    HW119439   3.860   5.161   0.288
 6180SOL    HW219440   3.920   5.298   0.222
 6181SOL     OW19441   3.929   6.499   0.782
 6181SOL    HW119442   3.843   6.486   0.832
 6181SOL    HW219443   3.982   6.572   0.826
 6182SOL     OW19444   5.539   3.477   6.081
 6182SOL    HW119445   5.584   3.456   6.168
 6182SOL    HW219446   5.607   3.476   6.008
 6183SOL     OW19447   2.121   0.733   3.192
 6183SOL    HW119448   2.200   0.784   3.158
 6183SOL    HW219449   2.120   0.642   3.150
 6184SOL     OW19450   1.705   6.769   5.973
 6184SOL    HW119451   1.739   6.765   5.879
 6184SOL    HW219452   1.624   6.826   5.977
 6185SOL     OW19453   6.909   3.723   6.509
 6185SOL    HW119454   6.927   3.637   6.557
 6185SOL    HW219455   6.971   3.793   6.543
 6186SOL     OW19456   6.299   6.697   5.637
 6186SOL    HW119457   6.234   6.723   5.707
 6186SOL    HW219458   6.373   6.764   5.632
 6187SOL     OW19459   4.443   4.788   3.189
 6187SOL    HW119460   4.465   4.789   3.091
 6187SOL    HW219461   4.446   4.693   3.222
 6188SOL     OW19462   2.410   0.064   1.190
 6188SOL    HW119463   2.412   0.029   1.284
 6188SOL    HW219464   2.328   0.031   1.144
 6189SOL     OW19465   4.707   4.157   4.268
 6189SOL    HW119466   4.789   4.118   4.310
 6189SOL    HW219467   4.717   4.257   4.263
 6190SOL     OW19468   6.932   3.853   5.941
 6190SOL    HW119469   7.006   3.906   5.899
 6190SOL    HW219470   6.863   3.916   5.977
 6191SOL     OW19471   4.044   2.583   6.829
 6191SOL    HW119472   4.128   2.559   6.879
 6191SOL    HW219473   4.061   2.576   6.731
 6192SOL     OW19474   3.687   3.006   6.861
 6192SOL    HW119475   3.767   3.028   6.916
 6192SOL    HW219476   3.714   2.993   6.766
 6193SOL     OW19477   5.175   1.303   2.360
 6193SOL    HW119478   5.170   1.361   2.441
 6193SOL    HW219479   5.261   1.319   2.312
 6194SOL     OW19480   1.484   6.728   0.508
 6194SOL    HW119481   1.474   6.690   0.600
 6194SOL    HW219482   1.425   6.678   0.444
 6195SOL     OW19483   4.107   6.456   5.706
 6195SOL    HW119484   4.174   6.500   5.765
 6195SOL    HW219485   4.073   6.521   5.639
 6196SOL     OW19486   6.211   2.423   1.736
 6196SOL    HW119487   6.114   2.417   1.711
 6196SOL    HW219488   6.231   2.357   1.808
 6197SOL     OW19489   4.865   4.504   1.064
 6197SOL    HW119490   4.798   4.569   1.099
 6197SOL    HW219491   4.823   4.448   0.993
 6198SOL     OW19492   3.513   6.021   2.011
 6198SOL    HW119493   3.577   5.945   2.001
 6198SOL    HW219494   3.419   5.987   2.001
 6199SOL     OW19495   0.974   0.639   0.659
 6199SOL    HW119496   1.064   0.603   0.681
 6199SOL    HW219497   0.915   0.631   0.739
 6200SOL     OW19498   1.655   1.508   5.280
 6200SOL    HW119499   1.669   1.441   5.353
 6200SOL    HW219500   1.557   1.523   5.266
 6201SOL     OW19501   0.883   3.725   4.957
 6201SOL    HW119502   0.812   3.666   4.995
 6201SOL    HW219503   0.925   3.778   5.031
 6202SOL     OW19504   4.110   1.511   2.172
 6202SOL    HW119505   4.194   1.468   2.140
 6202SOL    HW219506   4.040   1.502   2.101
 6203SOL     OW19507   6.396   6.859   3.541
 6203SOL    HW119508   6.480   6.840   3.490
 6203SOL    HW219509   6.343   6.929   3.493
 6204SOL     OW19510   1.249   5.743   4.307
 6204SOL    HW119511   1.294   5.782   4.226
 6204SOL    HW219512   1.165   5.697   4.279
 6205SOL     OW19513   6.473   6.126   0.340
 6205SOL    HW119514   6.538   6.093   0.409
 6205SOL    HW219515   6.503   6.214   0.305
 6206SOL     OW19516   0.104   0.871   2.525
 6206SOL    HW119517   0.129   0.952   2.473
 6206SOL    HW219518   0.083   0.897   2.619
 6207SOL     OW19519   1.619   5.090   5.139
 6207SOL    HW119520   1.521   5.109   5.137
 6207SOL    HW219521   1.634   4.992   5.126
 6208SOL     OW19522   6.022   1.856   6.472
 6208SOL    HW119523   6.110   1.889   6.440
 6208SOL    HW219524   5.961   1.934   6.488
 6209SOL     OW19525   4.899   5.401   0.414
 6209SOL    HW119526   4.926   5.456   0.335
 6209SOL    HW219527   4.920   5.305   0.396
 6210SOL     OW19528   5.131   3.912   3.573
 6210SOL    HW119529   5.172   3.842   3.631
 6210SOL    HW219530   5.173   3.908   3.482
 6211SOL     OW19531   3.163   6.380   5.656
 6211SOL    HW119532   3.212   6.331   5.728
 6211SOL    HW219533   3.065   6.380   5.677
 6212SOL     OW19534   1.932   5.053   3.705
 6212SOL    HW119535   1.907   5.128   3.644
 6212SOL    HW219536   1.984   5.090   3.782
 6213SOL     OW19537   5.463   7.010   0.029
 6213SOL    HW119538   5.390   0.028   0.085
 6213SOL    HW219539   5.446   0.013   6.953
 6214SOL     OW19540   4.488   4.902   4.839
 6214SOL    HW119541   4.423   4.958   4.788
 6214SOL    HW219542   4.474   4.805   4.816
 6215SOL     OW19543   4.344   1.260   1.410
 6215SOL    HW119544   4.370   1.184   1.351
 6215SOL    HW219545   4.424   1.319   1.426
 6216SOL     OW19546   5.973   1.457   2.264
 6216SOL    HW119547   6.030   1.375   2.255
 6216SOL    HW219548   6.030   1.533   2.295
 6217SOL     OW19549   0.652   3.524   1.850
 6217SOL    HW119550   0.742   3.514   1.893
 6217SOL    HW219551   0.593   3.449   1.879
 6218SOL     OW19552   4.391   5.633   5.654
 6218SOL    HW119553   4.432   5.602   5.740
 6218SOL    HW219554   4.296   5.660   5.670
 6219SOL     OW19555   0.363   2.727   4.415
 6219SOL    HW119556   0.420   2.764   4.488
 6219SOL    HW219557   0.386   2.771   4.328
 6220SOL     OW19558   1.386   2.677   5.241
 6220SOL    HW119559   1.293   2.698   5.271
 6220SOL    HW219560   1.424   2.604   5.298
 6221SOL     OW19561   5.963   5.552   0.164
 6221SOL    HW119562   5.894   5.604   0.114
 6221SOL    HW219563   6.048   5.605   0.168
 6222SOL     OW19564   0.545   6.581   1.272
 6222SOL    HW119565   0.608   6.610   1.201
 6222SOL    HW219566   0.566   6.487   1.299
 6223SOL     OW19567   0.693   5.226   4.443
 6223SOL    HW119568   0.606   5.209   4.490
 6223SOL    HW219569   0.676   5.239   4.345
 6224SOL     OW19570   2.387   1.639   5.986
 6224SOL    HW119571   2.428   1.722   5.949
 6224SOL    HW219572   2.362   1.654   6.082
 6225SOL     OW19573   3.486   3.761   6.958
 6225SOL    HW119574   3.419   3.764   0.013
 6225SOL    HW219575   3.561   3.825   6.978
 6226SOL     OW19576   6.074   1.532   5.041
 6226SOL    HW119577   6.049   1.480   5.123
 6226SOL    HW219578   5.991   1.557   4.991
 6227SOL     OW19579   3.541   6.186   5.562
 6227SOL    HW119580   3.457   6.176   5.509
 6227SOL    HW219581   3.614   6.219   5.502
 6228SOL     OW19582   1.126   2.424   3.449
 6228SOL    HW119583   1.198   2.355   3.461
 6228SOL    HW219584   1.077   2.435   3.536
 6229SOL     OW19585   0.037   2.190   3.124
 6229SOL    HW119586   0.078   2.281   3.121
 6229SOL    HW219587   7.001   2.181   3.207
 6230SOL     OW19588   1.167   1.450   3.897
 6230SOL    HW119589   1.227   1.523   3.864
 6230SOL    HW219590   1.099   1.429   3.826
 6231SOL     OW19591   5.770   5.026   1.315
 6231SOL    HW119592   5.825   5.029   1.232
 6231SOL    HW219593   5.823   5.059   1.392
 6232SOL     OW19594   6.907   0.895   0.746
 6232SOL    HW119595   6.876   0.933   0.659
 6232SOL    HW219596   6.932   0.799   0.734
 6233SOL     OW19597   6.274   0.918   0.464
 6233SOL    HW119598   6.251   1.005   0.508
 6233SOL    HW219599   6.197   0.855   0.475
 6234SOL     OW19600   5.891   1.565   5.591
 6234SOL    HW119601   5.820   1.568   5.520
 6234SOL    HW219602   5.856   1.515   5.671
 6235SOL     OW19603   1.328   6.963   1.604
 6235SOL    HW119604   1.384   6.999   1.529
 6235SOL    HW219605   1.240   6.933   1.568
 6236SOL     OW19606   0.889   3.879   0.694
 6236SOL    HW119607   0.888   3.916   0.787
 6236SOL    HW219608   0.879   3.779   0.699
 6237SOL     OW19609   3.348   6.808   0.041
 6237SOL    HW119610   3.400   6.722   0.045
 6237SOL    HW219611   3.308   6.827   0.131
 6238SOL     OW19612   4.303   4.919   2.502
 6238SOL    HW119613   4.239   4.898   2.428
 6238SOL    HW219614   4.370   4.987   2.471
 6239SOL     OW19615   2.540   0.424   1.996
 6239SOL    HW119616   2.489   0.490   2.050
 6239SOL    HW219617   2.606   0.376   2.054
 6240SOL     OW19618   2.396   3.450   5.973
 6240SOL    HW119619   2.312   3.402   5.949
 6240SOL    HW219620   2.424   3.423   6.065
 6241SOL     OW19621   3.895   0.014   1.811
 6241SOL    HW119622   3.851   0.056   1.890
 6241SOL    HW219623   3.840   0.032   1.729
 6242SOL     OW19624   5.089   1.002   3.360
 6242SOL    HW119625   5.140   1.049   3.288
 6242SOL    HW219626   4.994   1.033   3.360
 6243SOL     OW19627   6.242   6.874   4.251
 6243SOL    HW119628   6.165   6.823   4.288
 6243SOL    HW219629   6.322   6.814   4.246
 6244SOL     OW19630   0.427   2.712   2.153
 6244SOL    HW119631   0.512   2.716   2.206
 6244SOL    HW219632   0.371   2.636   2.185
 6245SOL     OW19633   1.382   3.837   0.221
 6245SOL    HW119634   1.313   3.802   0.158
 6245SOL    HW219635   1.471   3.796   0.199
 6246SOL     OW19636   2.012   1.984   5.773
 6246SOL    HW119637   2.023   1.897   5.821
 6246SOL    HW219638   1.916   2.012   5.776
 6247SOL     OW19639   1.149   6.349   4.654
 6247SOL    HW119640   1.154   6.349   4.754
 6247SOL    HW219641   1.062   6.390   4.625
 6248SOL     OW19642   3.168   3.238   0.453
 6248SOL    HW119643   3.210   3.275   0.371
 6248SOL    HW219644   3.114   3.309   0.499
 6249SOL     OW19645   0.564   3.997   0.573
 6249SOL    HW119646   0.559   4.096   0.557
 6249SOL    HW219647   0.584   3.980   0.670
 6250SOL     OW19648   6.937   6.368   6.941
 6250SOL    HW119649   7.012   6.428   6.913
 6250SOL    HW219650   6.943   6.282   6.891
 6251SOL     OW19651   4.445   5.139   6.938
 6251SOL    HW119652   4.404   5.190   7.014
 6251SOL    HW219653   4.393   5.156   6.854
 6252SOL     OW19654   1.501   6.816   5.354
 6252SOL    HW119655   1.418   6.845   5.307
 6252SOL    HW219656   1.573   6.884   5.338
 6253SOL     OW19657   2.079   4.130   2.857
 6253SOL    HW119658   2.110   4.036   2.872
 6253SOL    HW219659   1.982   4.138   2.880
 6254SOL     OW19660   5.333   1.790   1.116
 6254SOL    HW119661   5.345   1.870   1.175
 6254SOL    HW219662   5.253   1.738   1.146
 6255SOL     OW19663   3.108   0.238   1.023
 6255SOL    HW119664   3.055   0.207   0.944
 6255SOL    HW219665   3.202   0.205   1.015
 6256SOL     OW19666   3.272   5.288   1.868
 6256SOL    HW119667   3.178   5.323   1.870
 6256SOL    HW219668   3.288   5.240   1.781
 6257SOL     OW19669   4.839   2.364   6.802
 6257SOL    HW119670   4.754   2.406   6.835
 6257SOL    HW219671   4.906   2.435   6.784
 6258SOL     OW19672   3.872   6.906   3.689
 6258SOL    HW119673   3.787   6.883   3.735
 6258SOL    HW219674   3.946   6.850   3.726
 6259SOL     OW19675   2.390   2.412   0.424
 6259SOL    HW119676   2.410   2.432   0.328
 6259SOL    HW219677   2.457   2.347   0.458
 6260SOL     OW19678   3.338   5.573   0.449
 6260SOL    HW119679   3.370   5.618   0.532
 6260SOL    HW219680   3.362   5.476   0.452
 6261SOL     OW19681   4.028   0.870   6.666
 6261SOL    HW119682   4.025   0.806   6.743
 6261SOL    HW219683   3.935   0.895   6.639
 6262SOL     OW19684   2.084   6.094   0.639
 6262SOL    HW119685   2.053   6.079   0.545
 6262SOL    HW219686   2.061   6.014   0.695
 6263SOL     OW19687   6.787   0.519   4.976
 6263SOL    HW119688   6.711   0.572   5.015
 6263SOL    HW219689   6.847   0.581   4.925
 6264SOL     OW19690   1.497   6.426   2.195
 6264SOL    HW119691   1.432   6.361   2.235
 6264SOL    HW219692   1.458   6.518   2.198
 6265SOL     OW19693   3.523   3.884   0.214
 6265SOL    HW119694   3.431   3.846   0.216
 6265SOL    HW219695   3.553   3.904   0.308
 6266SOL     OW19696   3.965   0.850   4.714
 6266SOL    HW119697   3.908   0.769   4.727
 6266SOL    HW219698   3.908   0.932   4.715
 6267SOL     OW19699   2.492   0.448   6.517
 6267SOL    HW119700   2.405   0.437   6.564
 6267SOL    HW219701   2.550   0.510   6.569
 6268SOL     OW19702   3.199   6.987   3.576
 6268SOL    HW119703   3.164   0.061   3.572
 6268SOL    HW219704   3.124   6.924   3.597
 6269SOL     OW19705   0.065   6.460   2.015
 6269SOL    HW119706   0.083   6.407   2.098
 6269SOL    HW219707   0.099   6.409   1.936
 6270SOL     OW19708   1.783   0.216   5.572
 6270SOL    HW119709   1.854   0.223   5.502
 6270SOL    HW219710   1.823   0.184   5.657
 6271SOL     OW19711   6.539   2.195   6.893
 6271SOL    HW119712   6.513   2.272   6.952
 6271SOL    HW219713   6.638   2.184   6.895
 6272SOL     OW19714   0.265   2.007   6.893
 6272SOL    HW119715   0.290   1.977   6.801
 6272SOL    HW219716   0.232   2.101   6.890
 6273SOL     OW19717   1.639   6.407   2.439
 6273SOL    HW119718   1.601   6.426   2.349
 6273SOL    HW219719   1.567   6.372   2.499
 6274SOL     OW19720   3.005   5.540   5.968
 6274SOL    HW119721   3.013   5.545   6.067
 6274SOL    HW219722   3.020   5.445   5.939
 6275SOL     OW19723   2.287   6.770   5.512
 6275SOL    HW119724   2.271   6.714   5.430
 6275SOL    HW219725   2.201   6.781   5.562
 6276SOL     OW19726   2.313   4.212   3.195
 6276SOL    HW119727   2.278   4.119   3.204
 6276SOL    HW219728   2.301   4.244   3.101
 6277SOL     OW19729   5.513   3.358   2.085
 6277SOL    HW119730   5.428   3.308   2.099
 6277SOL    HW219731   5.557   3.326   2.001
 6278SOL     OW19732   5.226   6.372   4.598
 6278SOL    HW119733   5.313   6.338   4.633
 6278SOL    HW219734   5.154   6.305   4.614
 6279SOL     OW19735   3.807   0.256   0.056
 6279SOL    HW119736   3.811   0.156   0.048
 6279SOL    HW219737   3.734   0.291   7.017
 6280SOL     OW19738   1.038   2.164   5.384
 6280SOL    HW119739   1.028   2.230   5.459
 6280SOL    HW219740   0.954   2.163   5.329
 6281SOL     OW19741   1.183   5.315   3.590
 6281SOL    HW119742   1.198   5.395   3.532
 6281SOL    HW219743   1.096   5.326   3.639
 6282SOL     OW19744   1.503   6.649   4.781
 6282SOL    HW119745   1.537   6.651   4.875
 6282SOL    HW219746   1.433   6.720   4.770
 6283SOL     OW19747   6.761   3.222   5.503
 6283SOL    HW119748   6.761   3.321   5.486
 6283SOL    HW219749   6.812   3.176   5.431
 6284SOL     OW19750   1.487   5.703   4.435
 6284SOL    HW119751   1.387   5.706   4.435
 6284SOL    HW219752   1.523   5.776   4.493
 6285SOL     OW19753   6.892   3.673   4.520
 6285SOL    HW119754   6.903   3.576   4.540
 6285SOL    HW219755   6.970   3.723   4.557
 6286SOL     OW19756   5.829   1.851   3.874
 6286SOL    HW119757   5.837   1.756   3.903
 6286SOL    HW219758   5.918   1.896   3.879
 6287SOL     OW19759   3.662   4.915   3.908
 6287SOL    HW119760   3.753   4.880   3.887
 6287SOL    HW219761   3.610   4.926   3.824
 6288SOL     OW19762   4.689   4.240   2.859
 6288SOL    HW119763   4.724   4.286   2.777
 6288SOL    HW219764   4.727   4.147   2.864
 6289SOL     OW19765   1.832   4.635   1.319
 6289SOL    HW119766   1.831   4.539   1.290
 6289SOL    HW219767   1.926   4.668   1.323
 6290SOL     OW19768   6.834   4.555   5.250
 6290SOL    HW119769   6.748   4.548   5.300
 6290SOL    HW219770   6.825   4.509   5.161
 6291SOL     OW19771   3.859   3.420   4.830
 6291SOL    HW119772   3.885   3.411   4.734
 6291SOL    HW219773   3.912   3.356   4.885
 6292SOL     OW19774   1.505   2.358   4.442
 6292SOL    HW119775   1.578   2.292   4.425
 6292SOL    HW219776   1.481   2.357   4.539
 6293SOL     OW19777   3.461   1.120   0.216
 6293SOL    HW119778   3.515   1.044   0.178
 6293SOL    HW219779   3.364   1.106   0.195
 6294SOL     OW19780   3.972   5.068   4.507
 6294SOL    HW119781   3.903   5.104   4.445
 6294SOL    HW219782   3.951   5.095   4.601
 6295SOL     OW19783   5.456   5.002   6.106
 6295SOL    HW119784   5.378   5.037   6.054
 6295SOL    HW219785   5.526   5.073   6.113
 6296SOL     OW19786   0.549   0.047   6.009
 6296SOL    HW119787   0.496   0.123   5.972
 6296SOL    HW219788   0.488   6.995   6.041
 6297SOL     OW19789   4.583   6.823   4.392
 6297SOL    HW119790   4.586   6.730   4.355
 6297SOL    HW219791   4.492   6.841   4.429
 6298SOL     OW19792   1.494   2.815   6.701
 6298SOL    HW119793   1.505   2.716   6.698
 6298SOL    HW219794   1.459   2.842   6.791
 6299SOL     OW19795   5.696   1.995   6.851
 6299SOL    HW119796   5.641   2.072   6.820
 6299SOL    HW219797   5.690   1.920   6.785
 6300SOL     OW19798   6.413   0.641   0.692
 6300SOL    HW119799   6.509   0.665   0.707
 6300SOL    HW219800   6.357   0.678   0.765
 6301SOL     OW19801   3.540   0.381   0.183
 6301SOL    HW119802   3.581   0.334   0.262
 6301SOL    HW219803   3.554   0.326   0.101
 6302SOL     OW19804   2.480   0.611   3.066
 6302SOL    HW119805   2.557   0.674   3.072
 6302SOL    HW219806   2.405   0.655   3.016
 6303SOL     OW19807   1.552   1.550   4.351
 6303SOL    HW119808   1.649   1.544   4.327
 6303SOL    HW219809   1.497   1.545   4.268
 6304SOL     OW19810   2.396   0.686   1.462
 6304SOL    HW119811   2.376   0.673   1.559
 6304SOL    HW219812   2.463   0.760   1.451
 6305SOL     OW19813   6.173   6.739   1.280
 6305SOL    HW119814   6.218   6.779   1.200
 6305SOL    HW219815   6.090   6.791   1.300
 6306SOL     OW19816   0.438   4.492   3.951
 6306SOL    HW119817   0.349   4.538   3.958
 6306SOL    HW219818   0.423   4.394   3.935
 6307SOL     OW19819   4.199   4.055   5.549
 6307SOL    HW119820   4.153   4.086   5.465
 6307SOL    HW219821   4.191   3.956   5.556
 6308SOL     OW19822   2.082   2.611   4.650
 6308SOL    HW119823   2.104   2.634   4.555
 6308SOL    HW219824   2.083   2.511   4.662
 6309SOL     OW19825   5.247   4.830   5.706
 6309SOL    HW119826   5.207   4.807   5.796
 6309SOL    HW219827   5.204   4.774   5.636
 6310SOL     OW19828   1.634   5.958   2.835
 6310SOL    HW119829   1.548   5.931   2.792
 6310SOL    HW219830   1.689   5.877   2.853
 6311SOL     OW19831   4.443   1.122   5.496
 6311SOL    HW119832   4.412   1.215   5.512
 6311SOL    HW219833   4.434   1.099   5.399
 6312SOL     OW19834   6.256   5.545   5.740
 6312SOL    HW119835   6.271   5.535   5.838
 6312SOL    HW219836   6.286   5.636   5.711
 6313SOL     OW19837   1.324   6.373   4.349
 6313SOL    HW119838   1.409   6.418   4.376
 6313SOL    HW219839   1.338   6.274   4.346
 6314SOL     OW19840   3.482   6.635   1.453
 6314SOL    HW119841   3.387   6.633   1.424
 6314SOL    HW219842   3.493   6.583   1.538
 6315SOL     OW19843   1.821   2.828   5.626
 6315SOL    HW119844   1.765   2.752   5.656
 6315SOL    HW219845   1.885   2.796   5.556
 6316SOL     OW19846   4.459   1.401   6.806
 6316SOL    HW119847   4.511   1.468   6.752
 6316SOL    HW219848   4.523   1.348   6.862
 6317SOL     OW19849   4.662   5.975   2.363
 6317SOL    HW119850   4.671   5.886   2.318
 6317SOL    HW219851   4.735   5.987   2.430
 6318SOL     OW19852   3.912   1.154   4.851
 6318SOL    HW119853   3.832   1.134   4.795
 6318SOL    HW219854   3.974   1.213   4.800
 6319SOL     OW19855   6.410   1.341   4.300
 6319SOL    HW119856   6.470   1.273   4.343
 6319SOL    HW219857   6.441   1.433   4.326
 6320SOL     OW19858   5.717   5.566   5.381
 6320SOL    HW119859   5.749   5.643   5.325
 6320SOL    HW219860   5.647   5.515   5.330
 6321SOL     OW19861   3.143   3.342   0.829
 6321SOL    HW119862   3.061   3.378   0.872
 6321SOL    HW219863   3.218   3.408   0.840
 6322SOL     OW19864   1.542   2.130   6.938
 6322SOL    HW119865   1.451   2.087   6.938
 6322SOL    HW219866   1.572   2.143   0.012
 6323SOL     OW19867   3.275   2.834   1.945
 6323SOL    HW119868   3.293   2.776   1.865
 6323SOL    HW219869   3.210   2.788   2.006
 6324SOL     OW19870   5.157   6.750   6.769
 6324SOL    HW119871   5.158   6.776   6.673
 6324SOL    HW219872   5.128   6.828   6.825
 6325SOL     OW19873   2.311   1.654   2.110
 6325SOL    HW119874   2.390   1.653   2.172
 6325SOL    HW219875   2.315   1.735   2.052
 6326SOL     OW19876   4.677   4.864   1.935
 6326SOL    HW119877   4.633   4.810   2.007
 6326SOL    HW219878   4.774   4.876   1.957
 6327SOL     OW19879   0.021   0.170   4.703
 6327SOL    HW119880   6.970   0.218   4.754
 6327SOL    HW219881   0.023   0.204   4.608
 6328SOL     OW19882   3.157   2.835   0.742
 6328SOL    HW119883   3.201   2.886   0.816
 6328SOL    HW219884   3.075   2.789   0.777
 6329SOL     OW19885   1.847   2.438   3.993
 6329SOL    HW119886   1.829   2.494   4.073
 6329SOL    HW219887   1.845   2.341   4.019
 6330SOL     OW19888   4.546   0.672   1.089
 6330SOL    HW119889   4.574   0.614   1.012
 6330SOL    HW219890   4.475   0.735   1.058
 6331SOL     OW19891   6.268   2.795   6.021
 6331SOL    HW119892   6.345   2.805   5.957
 6331SOL    HW219893   6.301   2.755   6.106
 6332SOL     OW19894   6.435   3.468   1.585
 6332SOL    HW119895   6.471   3.411   1.659
 6332SOL    HW219896   6.501   3.472   1.510
 6333SOL     OW19897   4.947   5.860   5.304
 6333SOL    HW119898   4.944   5.958   5.285
 6333SOL    HW219899   4.975   5.845   5.398
 6334SOL     OW19900   3.232   0.251   1.668
 6334SOL    HW119901   3.326   0.283   1.677
 6334SOL    HW219902   3.186   0.254   1.757
 6335SOL     OW19903   4.033   0.926   0.335
 6335SOL    HW119904   4.132   0.937   0.323
 6335SOL    HW219905   4.014   0.853   0.400
 6336SOL     OW19906   0.679   2.286   5.624
 6336SOL    HW119907   0.696   2.329   5.712
 6336SOL    HW219908   0.607   2.336   5.576
 6337SOL     OW19909   5.159   4.502   6.103
 6337SOL    HW119910   5.171   4.593   6.065
 6337SOL    HW219911   5.245   4.451   6.094
 6338SOL     OW19912   3.858   1.792   4.376
 6338SOL    HW119913   3.843   1.835   4.287
 6338SOL    HW219914   3.883   1.863   4.442
 6339SOL     OW19915   1.678   3.870   3.063
 6339SOL    HW119916   1.690   3.817   3.147
 6339SOL    HW219917   1.622   3.950   3.081
 6340SOL     OW19918   1.506   5.061   2.785
 6340SOL    HW119919   1.565   5.017   2.718
 6340SOL    HW219920   1.479   4.995   2.855
 6341SOL     OW19921   0.924   4.163   4.474
 6341SOL    HW119922   0.988   4.239   4.488
 6341SOL    HW219923   0.920   4.107   4.557
 6342SOL     OW19924   1.759   1.335   1.666
 6342SOL    HW119925   1.724   1.429   1.658
 6342SOL    HW219926   1.835   1.323   1.603
 6343SOL     OW19927   4.845   1.823   6.678
 6343SOL    HW119928   4.756   1.862   6.702
 6343SOL    HW219929   4.917   1.891   6.696
 6344SOL     OW19930   5.494   2.916   4.953
 6344SOL    HW119931   5.572   2.871   4.911
 6344SOL    HW219932   5.411   2.895   4.901
 6345SOL     OW19933   5.816   2.872   2.567
 6345SOL    HW119934   5.855   2.808   2.633
 6345SOL    HW219935   5.837   2.840   2.474
 6346SOL     OW19936   6.791   4.648   3.681
 6346SOL    HW119937   6.752   4.615   3.595
 6346SOL    HW219938   6.764   4.586   3.755
 6347SOL     OW19939   2.217   0.199   0.535
 6347SOL    HW119940   2.300   0.157   0.499
 6347SOL    HW219941   2.225   0.298   0.530
 6348SOL     OW19942   0.665   3.979   5.451
 6348SOL    HW119943   0.706   3.898   5.409
 6348SOL    HW219944   0.734   4.026   5.506
 6349SOL     OW19945   2.339   0.266   1.826
 6349SOL    HW119946   2.434   0.278   1.856
 6349SOL    HW219947   2.284   0.230   1.901
 6350SOL     OW19948   1.779   5.217   3.997
 6350SOL    HW119949   1.787   5.263   4.086
 6350SOL    HW219950   1.702   5.154   3.999
 6351SOL     OW19951   6.417   3.524   3.711
 6351SOL    HW119952   6.485   3.578   3.661
 6351SOL    HW219953   6.454   3.496   3.800
 6352SOL     OW19954   3.648   5.866   4.712
 6352SOL    HW119955   3.698   5.950   4.732
 6352SOL    HW219956   3.666   5.798   4.783
 6353SOL     OW19957   0.478   0.315   5.937
 6353SOL    HW119958   0.407   0.377   5.971
 6353SOL    HW219959   0.521   0.354   5.856
 6354SOL     OW19960   1.934   5.950   3.243
 6354SOL    HW119961   1.935   5.862   3.196
 6354SOL    HW219962   1.896   5.939   3.335
 6355SOL     OW19963   0.731   5.218   6.460
 6355SOL    HW119964   0.828   5.195   6.452
 6355SOL    HW219965   0.676   5.138   6.435
 6356SOL     OW19966   4.220   5.454   2.161
 6356SOL    HW119967   4.259   5.471   2.071
 6356SOL    HW219968   4.123   5.430   2.152
 6357SOL     OW19969   5.604   3.619   2.602
 6357SOL    HW119970   5.508   3.647   2.603
 6357SOL    HW219971   5.621   3.559   2.524
 6358SOL     OW19972   0.687   2.138   6.246
 6358SOL    HW119973   0.769   2.182   6.211
 6358SOL    HW219974   0.623   2.208   6.277
 6359SOL     OW19975   5.710   6.450   6.356
 6359SOL    HW119976   5.795   6.446   6.409
 6359SOL    HW219977   5.727   6.496   6.269
 6360SOL     OW19978   1.339   3.881   3.980
 6360SOL    HW119979   1.375   3.851   3.892
 6360SOL    HW219980   1.403   3.854   4.053
 6361SOL     OW19981   6.643   0.105   0.973
 6361SOL    HW119982   6.548   0.077   0.986
 6361SOL    HW219983   6.656   0.197   1.011
 6362SOL     OW19984   0.149   6.285   0.176
 6362SOL    HW119985   0.081   6.321   0.240
 6362SOL    HW219986   0.215   6.357   0.154
 6363SOL     OW19987   2.615   4.720   3.397
 6363SOL    HW119988   2.681   4.724   3.471
 6363SOL    HW219989   2.531   4.674   3.428
 6364SOL     OW19990   3.327   1.314   6.095
 6364SOL    HW119991   3.425   1.304   6.077
 6364SOL    HW219992   3.275   1.254   6.034
 6365SOL     OW19993   5.537   6.780   3.832
 6365SOL    HW119994   5.626   6.768   3.788
 6365SOL    HW219995   5.504   6.873   3.814
 6366SOL     OW19996   0.819   6.395   5.680
 6366SOL    HW119997   0.904   6.428   5.722
 6366SOL    HW219998   0.743   6.405   5.745
 6367SOL     OW19999   3.999   0.781   5.166
 6367SOL    HW120000   3.945   0.813   5.244
 6367SOL    HW220001   4.021   0.858   5.106
 6368SOL     OW20002   3.767   4.852   3.434
 6368SOL    HW120003   3.798   4.758   3.418
 6368SOL    HW220004   3.833   4.899   3.492
 6369SOL     OW20005   2.038   5.454   3.966
 6369SOL    HW120006   2.094   5.412   4.038
 6369SOL    HW220007   1.941   5.439   3.987
 6370SOL     OW20008   0.546   3.669   3.305
 6370SOL    HW120009   0.572   3.658   3.401
 6370SOL    HW220010   0.462   3.618   3.288
 6371SOL     OW20011   5.201   4.032   4.179
 6371SOL    HW120012   5.180   4.129   4.172
 6371SOL    HW220013   5.260   4.016   4.258
 6372SOL     OW20014   1.923   0.160   2.403
 6372SOL    HW120015   1.937   0.226   2.476
 6372SOL    HW220016   1.825   0.144   2.391
 6373SOL     OW20017   5.143   4.032   3.030
 6373SOL    HW120018   5.153   4.101   2.958
 6373SOL    HW220019   5.049   4.034   3.064
 6374SOL     OW20020   3.200   4.104   3.594
 6374SOL    HW120021   3.164   4.197   3.592
 6374SOL    HW220022   3.175   4.061   3.681
 6375SOL     OW20023   6.806   2.082   3.885
 6375SOL    HW120024   6.711   2.051   3.881
 6375SOL    HW220025   6.863   2.012   3.927
 6376SOL     OW20026   6.056   2.385   5.124
 6376SOL    HW120027   6.024   2.480   5.132
 6376SOL    HW220028   5.990   2.333   5.070
 6377SOL     OW20029   6.532   1.773   5.806
 6377SOL    HW120030   6.572   1.693   5.761
 6377SOL    HW220031   6.600   1.846   5.811
 6378SOL     OW20032   4.539   5.454   4.063
 6378SOL    HW120033   4.567   5.507   4.142
 6378SOL    HW220034   4.616   5.399   4.031
 6379SOL     OW20035   1.815   3.485   4.244
 6379SOL    HW120036   1.867   3.420   4.300
 6379SOL    HW220037   1.859   3.575   4.248
 6380SOL     OW20038   0.450   1.610   5.633
 6380SOL    HW120039   0.437   1.520   5.675
 6380SOL    HW220040   0.406   1.612   5.544
 6381SOL     OW20041   3.624   3.131   1.769
 6381SOL    HW120042   3.629   3.068   1.847
 6381SOL    HW220043   3.640   3.224   1.801
 6382SOL     OW20044   1.372   1.243   1.108
 6382SOL    HW120045   1.411   1.156   1.079
 6382SOL    HW220046   1.274   1.231   1.125
 6383SOL     OW20047   1.619   1.563   2.850
 6383SOL    HW120048   1.668   1.494   2.798
 6383SOL    HW220049   1.522   1.563   2.824
 6384SOL     OW20050   5.887   3.772   1.686
 6384SOL    HW120051   5.957   3.842   1.691
 6384SOL    HW220052   5.799   3.810   1.714
 6385SOL     OW20053   6.960   4.624   4.170
 6385SOL    HW120054   7.006   4.632   4.081
 6385SOL    HW220055   0.009   4.616   4.242
 6386SOL     OW20056   2.335   4.194   5.902
 6386SOL    HW120057   2.268   4.125   5.873
 6386SOL    HW220058   2.405   4.204   5.832
 6387SOL     OW20059   0.778   1.324   6.443
 6387SOL    HW120060   0.877   1.330   6.430
 6387SOL    HW220061   0.737   1.415   6.433
 6388SOL     OW20062   3.874   4.930   1.246
 6388SOL    HW120063   3.793   4.883   1.211
 6388SOL    HW220064   3.938   4.947   1.171
 6389SOL     OW20065   0.497   5.756   2.596
 6389SOL    HW120066   0.419   5.798   2.550
 6389SOL    HW220067   0.534   5.682   2.539
 6390SOL     OW20068   0.436   1.665   5.330
 6390SOL    HW120069   0.481   1.584   5.367
 6390SOL    HW220070   0.387   1.641   5.246
 6391SOL     OW20071   2.422   0.240   5.885
 6391SOL    HW120072   2.375   0.215   5.970
 6391SOL    HW220073   2.380   0.191   5.808
 6392SOL     OW20074   2.818   6.010   3.182
 6392SOL    HW120075   2.799   6.092   3.129
 6392SOL    HW220076   2.814   6.031   3.280
 6393SOL     OW20077   6.792   6.906   2.039
 6393SOL    HW120078   6.774   6.996   2.078
 6393SOL    HW220079   6.718   6.882   1.975
 6394SOL     OW20080   1.972   4.947   0.693
 6394SOL    HW120081   1.987   5.024   0.755
 6394SOL    HW220082   2.021   4.867   0.727
 6395SOL     OW20083   6.813   2.290   1.156
 6395SOL    HW120084   6.747   2.238   1.102
 6395SOL    HW220085   6.769   2.320   1.241
 6396SOL     OW20086   4.746   3.157   6.027
 6396SOL    HW120087   4.687   3.187   6.102
 6396SOL    HW220088   4.690   3.122   5.953
 6397SOL     OW20089   5.539   2.599   6.853
 6397SOL    HW120090   5.631   2.637   6.844
 6397SOL    HW220091   5.488   2.650   6.922
 6398SOL     OW20092   3.036   0.140   0.774
 6398SOL    HW120093   3.115   0.130   0.714
 6398SOL    HW220094   2.983   0.055   0.775
 6399SOL     OW20095   1.090   6.013   6.385
 6399SOL    HW120096   1.126   6.102   6.414
 6399SOL    HW220097   1.166   5.951   6.366
 6400SOL     OW20098   2.447   6.052   1.721
 6400SOL    HW120099   2.416   5.984   1.655
 6400SOL    HW220100   2.367   6.099   1.760
 6401SOL     OW20101   6.857   4.972   4.019
 6401SOL    HW120102   6.832   4.918   4.100
 6401SOL    HW220103   6.774   4.999   3.971
 6402SOL     OW20104   4.137   1.687   2.429
 6402SOL    HW120105   4.139   1.604   2.373
 6402SOL    HW220106   4.043   1.711   2.451
 6403SOL     OW20107   6.822   6.540   6.322
 6403SOL    HW120108   6.864   6.490   6.246
 6403SOL    HW220109   6.857   6.634   6.323
 6404SOL     OW20110   4.278   1.767   1.913
 6404SOL    HW120111   4.317   1.857   1.932
 6404SOL    HW220112   4.336   1.719   1.847
 6405SOL     OW20113   3.049   0.512   3.740
 6405SOL    HW120114   3.090   0.432   3.785
 6405SOL    HW220115   3.076   0.595   3.789
 6406SOL     OW20116   1.311   2.248   3.002
 6406SOL    HW120117   1.349   2.337   2.974
 6406SOL    HW220118   1.251   2.261   3.081
 6407SOL     OW20119   2.743   5.944   3.931
 6407SOL    HW120120   2.804   6.008   3.886
 6407SOL    HW220121   2.665   5.925   3.871
 6408SOL     OW20122   5.668   2.496   0.618
 6408SOL    HW120123   5.606   2.491   0.696
 6408SOL    HW220124   5.631   2.560   0.550
 6409SOL     OW20125   6.983   4.828   3.470
 6409SOL    HW120126   6.896   4.819   3.422
 6409SOL    HW220127   6.982   4.772   3.553
 6410SOL     OW20128   1.444   1.336   0.552
 6410SOL    HW120129   1.492   1.323   0.639
 6410SOL    HW220130   1.451   1.432   0.525
 6411SOL     OW20131   1.036   2.506   3.067
 6411SOL    HW120132   1.065   2.424   3.116
 6411SOL    HW220133   1.070   2.587   3.116
 6412SOL     OW20134   0.471   2.399   5.029
 6412SOL    HW120135   0.562   2.358   5.027
 6412SOL    HW220136   0.408   2.343   4.975
 6413SOL     OW20137   4.385   4.550   3.787
 6413SOL    HW120138   4.323   4.472   3.790
 6413SOL    HW220139   4.436   4.549   3.701
 6414SOL     OW20140   6.026   1.048   0.438
 6414SOL    HW120141   5.932   1.069   0.465
 6414SOL    HW220142   6.033   0.952   0.412
 6415SOL     OW20143   1.608   3.097   3.044
 6415SOL    HW120144   1.543   3.145   3.102
 6415SOL    HW220145   1.624   3.005   3.080
 6416SOL     OW20146   1.262   1.407   6.330
 6416SOL    HW120147   1.187   1.344   6.314
 6416SOL    HW220148   1.229   1.501   6.322
 6417SOL     OW20149   6.287   5.009   1.903
 6417SOL    HW120150   6.215   4.968   1.959
 6417SOL    HW220151   6.375   4.998   1.949
 6418SOL     OW20152   4.912   4.604   1.811
 6418SOL    HW120153   4.814   4.596   1.797
 6418SOL    HW220154   4.948   4.518   1.847
 6419SOL     OW20155   2.382   4.758   3.096
 6419SOL    HW120156   2.420   4.802   3.015
 6419SOL    HW220157   2.385   4.659   3.086
 6420SOL     OW20158   3.476   4.777   5.368
 6420SOL    HW120159   3.418   4.775   5.286
 6420SOL    HW220160   3.449   4.854   5.426
 6421SOL     OW20161   5.361   0.695   2.937
 6421SOL    HW120162   5.416   0.752   2.999
 6421SOL    HW220163   5.375   0.599   2.959
 6422SOL     OW20164   0.338   0.804   4.094
 6422SOL    HW120165   0.333   0.834   3.999
 6422SOL    HW220166   0.411   0.736   4.104
 6423SOL     OW20167   4.742   5.416   2.534
 6423SOL    HW120168   4.769   5.505   2.570
 6423SOL    HW220169   4.678   5.429   2.458
 6424SOL     OW20170   7.002   6.123   5.795
 6424SOL    HW120171   0.070   6.075   5.802
 6424SOL    HW220172   7.019   6.218   5.766
 6425SOL     OW20173   6.363   5.803   2.559
 6425SOL    HW120174   6.338   5.729   2.497
 6425SOL    HW220175   6.283   5.833   2.611
 6426SOL     OW20176   1.097   5.071   2.932
 6426SOL    HW120177   1.007   5.115   2.933
 6426SOL    HW220178   1.097   4.995   2.996
 6427SOL     OW20179   3.318   3.061   5.261
 6427SOL    HW120180   3.408   3.104   5.260
 6427SOL    HW220181   3.247   3.132   5.259
 6428SOL     OW20182   5.725   3.162   6.655
 6428SOL    HW120183   5.808   3.189   6.703
 6428SOL    HW220184   5.749   3.109   6.574
 6429SOL     OW20185   2.200   1.889   6.083
 6429SOL    HW120186   2.268   1.864   6.015
 6429SOL    HW220187   2.109   1.860   6.052
 6430SOL     OW20188   5.671   0.918   2.170
 6430SOL    HW120189   5.582   0.914   2.215
 6430SOL    HW220190   5.695   1.013   2.152
 6431SOL     OW20191   5.170   6.579   4.066
 6431SOL    HW120192   5.255   6.599   4.114
 6431SOL    HW220193   5.109   6.527   4.127
 6432SOL     OW20194   3.811   4.388   6.408
 6432SOL    HW120195   3.888   4.330   6.383
 6432SOL    HW220196   3.820   4.477   6.363
 6433SOL     OW20197   2.623   4.323   6.859
 6433SOL    HW120198   2.554   4.349   6.926
 6433SOL    HW220199   2.650   4.228   6.874
 6434SOL     OW20200   1.997   3.834   0.120
 6434SOL    HW120201   1.972   3.798   0.210
 6434SOL    HW220202   1.962   3.927   0.110
 6435SOL     OW20203   4.452   6.747   0.119
 6435SOL    HW120204   4.551   6.763   0.119
 6435SOL    HW220205   4.424   6.712   0.208
 6436SOL     OW20206   1.960   3.595   3.620
 6436SOL    HW120207   1.867   3.557   3.624
 6436SOL    HW220208   2.025   3.521   3.604
 6437SOL     OW20209   2.297   1.468   0.929
 6437SOL    HW120210   2.320   1.415   1.011
 6437SOL    HW220211   2.296   1.407   0.850
 6438SOL     OW20212   0.033   3.920   6.615
 6438SOL    HW120213   0.026   3.996   6.678
 6438SOL    HW220214   0.129   3.904   6.592
 6439SOL     OW20215   5.151   0.779   1.701
 6439SOL    HW120216   5.109   0.773   1.611
 6439SOL    HW220217   5.080   0.774   1.772
 6440SOL     OW20218   2.194   1.453   6.636
 6440SOL    HW120219   2.174   1.360   6.664
 6440SOL    HW220220   2.215   1.509   6.716
 6441SOL     OW20221   0.880   6.371   2.026
 6441SOL    HW120222   0.813   6.303   1.997
 6441SOL    HW220223   0.968   6.325   2.044
 6442SOL     OW20224   2.377   0.675   4.718
 6442SOL    HW120225   2.407   0.725   4.637
 6442SOL    HW220226   2.315   0.733   4.771
 6443SOL     OW20227   3.837   2.474   5.447
 6443SOL    HW120228   3.929   2.435   5.443
 6443SOL    HW220229   3.777   2.424   5.385
 6444SOL     OW20230   6.742   2.671   3.894
 6444SOL    HW120231   6.730   2.734   3.970
 6444SOL    HW220232   6.780   2.585   3.928
 6445SOL     OW20233   4.300   3.490   5.473
 6445SOL    HW120234   4.350   3.562   5.423
 6445SOL    HW220235   4.250   3.433   5.408
 6446SOL     OW20236   1.795   1.387   5.916
 6446SOL    HW120237   1.699   1.368   5.936
 6446SOL    HW220238   1.825   1.467   5.967
 6447SOL     OW20239   6.600   4.716   3.335
 6447SOL    HW120240   6.547   4.799   3.352
 6447SOL    HW220241   6.659   4.730   3.256
 6448SOL     OW20242   4.724   5.722   2.258
 6448SOL    HW120243   4.802   5.686   2.207
 6448SOL    HW220244   4.644   5.663   2.243
 6449SOL     OW20245   2.408   4.713   0.742
 6449SOL    HW120246   2.390   4.742   0.836
 6449SOL    HW220247   2.324   4.718   0.689
 6450SOL     OW20248   0.622   3.650   0.856
 6450SOL    HW120249   0.607   3.741   0.896
 6450SOL    HW220250   0.539   3.595   0.865
 6451SOL     OW20251   2.268   0.174   4.794
 6451SOL    HW120252   2.351   0.125   4.818
 6451SOL    HW220253   2.280   0.271   4.813
 6452SOL     OW20254   3.665   6.680   4.478
 6452SOL    HW120255   3.672   6.638   4.568
 6452SOL    HW220256   3.604   6.759   4.482
 6453SOL     OW20257   2.278   6.262   1.314
 6453SOL    HW120258   2.346   6.330   1.339
 6453SOL    HW220259   2.256   6.271   1.217
 6454SOL     OW20260   2.199   2.293   3.706
 6454SOL    HW120261   2.299   2.296   3.695
 6454SOL    HW220262   2.158   2.370   3.657
 6455SOL     OW20263   0.311   2.478   3.669
 6455SOL    HW120264   0.262   2.421   3.604
 6455SOL    HW220265   0.353   2.420   3.739
 6456SOL     OW20266   1.981   0.495   3.534
 6456SOL    HW120267   1.927   0.488   3.450
 6456SOL    HW220268   2.061   0.435   3.527
 6457SOL     OW20269   5.114   1.749   0.871
 6457SOL    HW120270   5.079   1.726   0.962
 6457SOL    HW220271   5.166   1.672   0.835
 6458SOL     OW20272   0.762   6.939   3.660
 6458SOL    HW120273   0.816   6.893   3.730
 6458SOL    HW220274   0.755   0.017   3.681
 6459SOL     OW20275   6.207   4.427   0.258
 6459SOL    HW120276   6.156   4.348   0.223
 6459SOL    HW220277   6.206   4.500   0.190
 6460SOL     OW20278   5.087   5.935   5.852
 6460SOL    HW120279   5.053   5.981   5.934
 6460SOL    HW220280   5.179   5.967   5.832
 6461SOL     OW20281   2.605   4.910   5.603
 6461SOL    HW120282   2.659   4.992   5.586
 6461SOL    HW220283   2.663   4.841   5.646
 6462SOL     OW20284   2.536   2.535   4.968
 6462SOL    HW120285   2.484   2.500   5.046
 6462SOL    HW220286   2.492   2.506   4.883
 6463SOL     OW20287   6.931   3.589   0.124
 6463SOL    HW120288   6.853   3.584   0.186
 6463SOL    HW220289   7.016   3.592   0.178
 6464SOL     OW20290   1.347   5.231   4.484
 6464SOL    HW120291   1.256   5.272   4.492
 6464SOL    HW220292   1.415   5.294   4.521
 6465SOL     OW20293   6.440   2.717   3.004
 6465SOL    HW120294   6.540   2.725   3.014
 6465SOL    HW220295   6.412   2.761   2.919
 6466SOL     OW20296   1.528   1.361   5.938
 6466SOL    HW120297   1.453   1.304   5.906
 6466SOL    HW220298   1.525   1.367   6.038
 6467SOL     OW20299   3.196   0.875   6.598
 6467SOL    HW120300   3.251   0.913   6.672
 6467SOL    HW220301   3.185   0.776   6.613
 6468SOL     OW20302   3.690   6.286   0.809
 6468SOL    HW120303   3.711   6.316   0.902
 6468SOL    HW220304   3.648   6.195   0.812
 6469SOL     OW20305   4.675   0.613   4.845
 6469SOL    HW120306   4.611   0.555   4.796
 6469SOL    HW220307   4.688   0.578   4.938
 6470SOL     OW20308   6.386   4.443   0.488
 6470SOL    HW120309   6.329   4.514   0.530
 6470SOL    HW220310   6.344   4.411   0.404
 6471SOL     OW20311   6.553   6.227   5.745
 6471SOL    HW120312   6.526   6.316   5.709
 6471SOL    HW220313   6.607   6.178   5.676
 6472SOL     OW20314   0.731   5.505   1.047
 6472SOL    HW120315   0.713   5.603   1.050
 6472SOL    HW220316   0.754   5.472   1.138
 6473SOL     OW20317   3.424   1.735   4.245
 6473SOL    HW120318   3.472   1.652   4.273
 6473SOL    HW220319   3.339   1.744   4.297
 6474SOL     OW20320   2.278   4.238   5.450
 6474SOL    HW120321   2.195   4.288   5.426
 6474SOL    HW220322   2.345   4.247   5.376
 6475SOL     OW20323   6.438   5.382   4.458
 6475SOL    HW120324   6.477   5.400   4.549
 6475SOL    HW220325   6.355   5.329   4.468
 6476SOL     OW20326   4.584   3.360   1.202
 6476SOL    HW120327   4.504   3.414   1.174
 6476SOL    HW220328   4.556   3.266   1.218
 6477SOL     OW20329   6.276   4.809   1.056
 6477SOL    HW120330   6.251   4.763   0.971
 6477SOL    HW220331   6.375   4.810   1.066
 6478SOL     OW20332   3.775   6.713   1.814
 6478SOL    HW120333   3.797   6.742   1.907
 6478SOL    HW220334   3.676   6.705   1.803
 6479SOL     OW20335   4.033   5.761   3.838
 6479SOL    HW120336   3.993   5.837   3.786
 6479SOL    HW220337   4.086   5.703   3.777
 6480SOL     OW20338   3.366   2.503   5.814
 6480SOL    HW120339   3.293   2.505   5.745
 6480SOL    HW220340   3.415   2.590   5.813
 6481SOL     OW20341   3.683   2.141   1.635
 6481SOL    HW120342   3.653   2.191   1.717
 6481SOL    HW220343   3.602   2.104   1.588
 6482SOL     OW20344   6.919   0.710   5.349
 6482SOL    HW120345   6.822   0.731   5.359
 6482SOL    HW220346   6.959   0.694   5.439
 6483SOL     OW20347   1.016   6.093   1.180
 6483SOL    HW120348   1.111   6.093   1.211
 6483SOL    HW220349   0.956   6.080   1.259
 6484SOL     OW20350   3.528   0.253   1.692
 6484SOL    HW120351   3.535   0.282   1.597
 6484SOL    HW220352   3.530   0.153   1.697
 6485SOL     OW20353   1.729   4.873   3.594
 6485SOL    HW120354   1.767   4.963   3.614
 6485SOL    HW220355   1.702   4.869   3.498
 6486SOL     OW20356   2.311   4.743   4.183
 6486SOL    HW120357   2.337   4.649   4.202
 6486SOL    HW220358   2.225   4.765   4.229
 6487SOL     OW20359   0.030   6.505   5.001
 6487SOL    HW120360   0.098   6.561   5.047
 6487SOL    HW220361   6.981   6.474   5.067
 6488SOL     OW20362   3.615   6.248   4.949
 6488SOL    HW120363   3.602   6.316   5.021
 6488SOL    HW220364   3.569   6.163   4.975
 6489SOL     OW20365   2.894   2.551   6.579
 6489SOL    HW120366   2.890   2.513   6.672
 6489SOL    HW220367   2.811   2.525   6.530
 6490SOL     OW20368   4.037   1.699   6.290
 6490SOL    HW120369   4.125   1.706   6.243
 6490SOL    HW220370   3.966   1.740   6.232
 6491SOL     OW20371   3.861   1.403   0.274
 6491SOL    HW120372   3.775   1.401   0.223
 6491SOL    HW220373   3.906   1.314   0.266
 6492SOL     OW20374   5.726   4.895   0.508
 6492SOL    HW120375   5.757   4.885   0.602
 6492SOL    HW220376   5.745   4.810   0.458
 6493SOL     OW20377   1.373   5.315   4.814
 6493SOL    HW120378   1.275   5.324   4.832
 6493SOL    HW220379   1.393   5.349   4.723
 6494SOL     OW20380   0.120   1.106   3.453
 6494SOL    HW120381   0.046   1.110   3.386
 6494SOL    HW220382   0.124   1.192   3.504
 6495SOL     OW20383   5.212   6.443   4.339
 6495SOL    HW120384   5.259   6.531   4.333
 6495SOL    HW220385   5.201   6.417   4.435
 6496SOL     OW20386   0.079   0.387   2.634
 6496SOL    HW120387   7.005   0.357   2.649
 6496SOL    HW220388   0.087   0.430   2.544
 6497SOL     OW20389   2.517   2.757   1.098
 6497SOL    HW120390   2.604   2.768   1.146
 6497SOL    HW220391   2.457   2.834   1.119
 6498SOL     OW20392   2.228   3.981   4.635
 6498SOL    HW120393   2.189   3.936   4.715
 6498SOL    HW220394   2.321   3.947   4.619
 6499SOL     OW20395   5.353   2.252   5.102
 6499SOL    HW120396   5.380   2.194   5.179
 6499SOL    HW220397   5.254   2.259   5.099
 6500SOL     OW20398   6.927   4.343   3.804
 6500SOL    HW120399   6.857   4.400   3.847
 6500SOL    HW220400   7.002   4.401   3.773
 6501SOL     OW20401   6.226   2.652   6.660
 6501SOL    HW120402   6.220   2.555   6.636
 6501SOL    HW220403   6.317   2.686   6.637
 6502SOL     OW20404   6.469   3.089   1.573
 6502SOL    HW120405   6.421   3.033   1.506
 6502SOL    HW220406   6.404   3.150   1.619
 6503SOL     OW20407   4.543   1.531   3.570
 6503SOL    HW120408   4.595   1.446   3.573
 6503SOL    HW220409   4.456   1.519   3.618
 6504SOL     OW20410   4.674   6.029   6.105
 6504SOL    HW120411   4.670   6.065   6.198
 6504SOL    HW220412   4.766   6.039   6.069
 6505SOL     OW20413   5.277   5.701   1.570
 6505SOL    HW120414   5.297   5.783   1.623
 6505SOL    HW220415   5.219   5.725   1.492
 6506SOL     OW20416   6.613   3.101   1.945
 6506SOL    HW120417   6.655   3.113   2.035
 6506SOL    HW220418   6.682   3.113   1.874
 6507SOL     OW20419   2.337   5.131   5.837
 6507SOL    HW120420   2.339   5.198   5.763
 6507SOL    HW220421   2.425   5.084   5.841
 6508SOL     OW20422   2.089   0.584   2.792
 6508SOL    HW120423   1.991   0.599   2.783
 6508SOL    HW220424   2.124   0.541   2.708
 6509SOL     OW20425   3.078   1.765   4.681
 6509SOL    HW120426   3.170   1.764   4.642
 6509SOL    HW220427   3.027   1.842   4.643
 6510SOL     OW20428   0.253   4.308   6.874
 6510SOL    HW120429   0.336   4.289   6.927
 6510SOL    HW220430   0.229   4.405   6.884
 6511SOL     OW20431   4.571   1.465   4.641
 6511SOL    HW120432   4.484   1.461   4.690
 6511SOL    HW220433   4.556   1.450   4.544
 6512SOL     OW20434   4.683   6.883   2.150
 6512SOL    HW120435   4.768   6.832   2.161
 6512SOL    HW220436   4.701   6.981   2.154
 6513SOL     OW20437   3.303   4.950   2.906
 6513SOL    HW120438   3.239   4.875   2.928
 6513SOL    HW220439   3.251   5.034   2.891
 6514SOL     OW20440   5.281   0.877   3.712
 6514SOL    HW120441   5.290   0.884   3.811
 6514SOL    HW220442   5.259   0.967   3.674
 6515SOL     OW20443   0.531   5.505   4.105
 6515SOL    HW120444   0.519   5.536   4.011
 6515SOL    HW220445   0.543   5.406   4.107
 6516SOL     OW20446   0.384   3.125   1.665
 6516SOL    HW120447   0.374   3.071   1.749
 6516SOL    HW220448   0.336   3.080   1.590
 6517SOL     OW20449   6.408   0.618   0.416
 6517SOL    HW120450   6.396   0.664   0.504
 6517SOL    HW220451   6.391   0.683   0.342
 6518SOL     OW20452   6.914   6.738   6.499
 6518SOL    HW120453   6.857   6.656   6.497
 6518SOL    HW220454   6.864   6.813   6.543
 6519SOL     OW20455   2.676   1.784   3.385
 6519SOL    HW120456   2.684   1.878   3.353
 6519SOL    HW220457   2.758   1.759   3.436
 6520SOL     OW20458   5.570   5.210   2.126
 6520SOL    HW120459   5.478   5.206   2.165
 6520SOL    HW220460   5.623   5.281   2.174
 6521SOL     OW20461   1.893   3.159   4.626
 6521SOL    HW120462   1.795   3.136   4.621
 6521SOL    HW220463   1.935   3.112   4.703
 6522SOL     OW20464   4.093   4.718   0.153
 6522SOL    HW120465   4.193   4.722   0.157
 6522SOL    HW220466   4.055   4.772   0.229
 6523SOL     OW20467   3.626   1.070   6.874
 6523SOL    HW120468   3.639   1.025   6.962
 6523SOL    HW220469   3.683   1.153   6.870
 6524SOL     OW20470   2.692   3.598   1.703
 6524SOL    HW120471   2.750   3.550   1.637
 6524SOL    HW220472   2.729   3.587   1.795
 6525SOL     OW20473   1.211   4.791   3.205
 6525SOL    HW120474   1.148   4.715   3.218
 6525SOL    HW220475   1.301   4.766   3.242
 6526SOL     OW20476   2.161   0.201   6.361
 6526SOL    HW120477   2.071   0.180   6.399
 6526SOL    HW220478   2.228   0.138   6.400
 6527SOL     OW20479   0.378   2.719   4.771
 6527SOL    HW120480   0.435   2.780   4.715
 6527SOL    HW220481   0.297   2.769   4.802
 6528SOL     OW20482   0.046   1.047   4.298
 6528SOL    HW120483   0.064   1.077   4.391
 6528SOL    HW220484   0.035   0.947   4.297
 6529SOL     OW20485   0.986   1.221   2.553
 6529SOL    HW120486   1.070   1.259   2.515
 6529SOL    HW220487   0.907   1.260   2.506
 6530SOL     OW20488   0.116   3.570   1.411
 6530SOL    HW120489   0.138   3.516   1.492
 6530SOL    HW220490   0.020   3.555   1.387
 6531SOL     OW20491   5.738   3.519   4.827
 6531SOL    HW120492   5.801   3.473   4.764
 6531SOL    HW220493   5.650   3.472   4.827
 6532SOL     OW20494   6.290   0.272   6.944
 6532SOL    HW120495   6.302   0.173   6.951
 6532SOL    HW220496   6.301   0.301   6.849
 6533SOL     OW20497   4.681   6.142   0.677
 6533SOL    HW120498   4.608   6.123   0.743
 6533SOL    HW220499   4.642   6.152   0.586
 6534SOL     OW20500   3.280   4.073   0.895
 6534SOL    HW120501   3.266   3.985   0.851
 6534SOL    HW220502   3.258   4.146   0.831
 6535SOL     OW20503   6.458   3.993   4.344
 6535SOL    HW120504   6.492   4.025   4.256
 6535SOL    HW220505   6.498   4.050   4.417
 6536SOL     OW20506   1.176   1.790   5.887
 6536SOL    HW120507   1.161   1.693   5.869
 6536SOL    HW220508   1.087   1.836   5.895
 6537SOL     OW20509   6.454   5.145   7.010
 6537SOL    HW120510   6.401   5.184   6.935
 6537SOL    HW220511   6.481   5.051   6.988
 6538SOL     OW20512   2.864   4.179   6.729
 6538SOL    HW120513   2.812   4.255   6.688
 6538SOL    HW220514   2.961   4.202   6.730
 6539SOL     OW20515   3.829   0.689   6.406
 6539SOL    HW120516   3.763   0.668   6.479
 6539SOL    HW220517   3.921   0.662   6.435
 6540SOL     OW20518   5.271   1.193   5.636
 6540SOL    HW120519   5.187   1.151   5.603
 6540SOL    HW220520   5.309   1.136   5.709
 6541SOL     OW20521   4.313   1.091   5.249
 6541SOL    HW120522   4.276   1.038   5.173
 6541SOL    HW220523   4.278   1.185   5.245
 6542SOL     OW20524   6.683   4.485   4.591
 6542SOL    HW120525   6.685   4.544   4.510
 6542SOL    HW220526   6.589   4.478   4.625
 6543SOL     OW20527   5.709   3.445   5.871
 6543SOL    HW120528   5.677   3.475   5.781
 6543SOL    HW220529   5.798   3.486   5.890
 6544SOL     OW20530   0.278   6.353   2.941
 6544SOL    HW120531   0.287   6.448   2.910
 6544SOL    HW220532   0.348   6.297   2.897
 6545SOL     OW20533   5.468   2.096   6.727
 6545SOL    HW120534   5.444   2.040   6.648
 6545SOL    HW220535   5.430   2.187   6.716
 6546SOL     OW20536   3.469   4.564   7.003
 6546SOL    HW120537   3.460   4.593   0.078
 6546SOL    HW220538   3.540   4.493   6.997
 6547SOL     OW20539   4.702   1.077   5.859
 6547SOL    HW120540   4.669   1.119   5.943
 6547SOL    HW220541   4.734   1.148   5.796
 6548SOL     OW20542   1.141   3.438   6.773
 6548SOL    HW120543   1.160   3.340   6.765
 6548SOL    HW220544   1.209   3.488   6.720
 6549SOL     OW20545   4.600   1.050   1.294
 6549SOL    HW120546   4.504   1.037   1.317
 6549SOL    HW220547   4.625   0.989   1.219
 6550SOL     OW20548   0.527   6.778   3.703
 6550SOL    HW120549   0.539   6.689   3.658
 6550SOL    HW220550   0.594   6.843   3.667
 6551SOL     OW20551   1.773   5.050   2.893
 6551SOL    HW120552   1.748   5.024   2.800
 6551SOL    HW220553   1.774   4.968   2.952
 6552SOL     OW20554   2.470   0.055   5.303
 6552SOL    HW120555   2.386   0.080   5.351
 6552SOL    HW220556   2.549   0.084   5.356
 6553SOL     OW20557   0.279   1.734   2.953
 6553SOL    HW120558   0.198   1.759   3.006
 6553SOL    HW220559   0.338   1.676   3.009
 6554SOL     OW20560   5.894   0.969   5.234
 6554SOL    HW120561   5.876   0.948   5.138
 6554SOL    HW220562   5.812   1.007   5.276
 6555SOL     OW20563   0.232   1.711   2.142
 6555SOL    HW120564   0.241   1.760   2.054
 6555SOL    HW220565   0.317   1.663   2.162
 6556SOL     OW20566   4.567   4.710   5.210
 6556SOL    HW120567   4.643   4.765   5.245
 6556SOL    HW220568   4.527   4.756   5.131
 6557SOL     OW20569   3.080   5.846   1.020
 6557SOL    HW120570   3.072   5.883   1.112
 6557SOL    HW220571   2.991   5.849   0.975
 6558SOL     OW20572   6.216   4.623   0.611
 6558SOL    HW120573   6.174   4.684   0.544
 6558SOL    HW220574   6.194   4.655   0.704
 6559SOL     OW20575   7.011   4.182   6.716
 6559SOL    HW120576   6.969   4.214   6.632
 6559SOL    HW220577   0.077   4.232   6.732
 6560SOL     OW20578   4.313   4.580   0.986
 6560SOL    HW120579   4.217   4.574   0.959
 6560SOL    HW220580   4.334   4.509   1.053
 6561SOL     OW20581   3.540   4.023   2.432
 6561SOL    HW120582   3.520   3.933   2.394
 6561SOL    HW220583   3.554   4.089   2.357
 6562SOL     OW20584   5.267   4.069   0.562
 6562SOL    HW120585   5.263   4.074   0.662
 6562SOL    HW220586   5.355   4.030   0.534
 6563SOL     OW20587   6.624   6.324   0.222
 6563SOL    HW120588   6.575   6.394   0.169
 6563SOL    HW220589   6.649   6.249   0.162
 6564SOL     OW20590   6.726   4.088   2.727
 6564SOL    HW120591   6.657   4.096   2.799
 6564SOL    HW220592   6.774   4.175   2.717
 6565SOL     OW20593   6.790   2.762   4.282
 6565SOL    HW120594   6.852   2.754   4.360
 6565SOL    HW220595   6.712   2.700   4.295
 6566SOL     OW20596   3.385   6.331   2.619
 6566SOL    HW120597   3.317   6.382   2.672
 6566SOL    HW220598   3.409   6.383   2.537
 6567SOL     OW20599   4.176   1.697   1.044
 6567SOL    HW120600   4.134   1.638   1.112
 6567SOL    HW220601   4.275   1.699   1.057
 6568SOL     OW20602   4.974   0.232   3.820
 6568SOL    HW120603   4.972   0.134   3.801
 6568SOL    HW220604   4.893   0.257   3.873
 6569SOL     OW20605   2.851   3.642   6.437
 6569SOL    HW120606   2.916   3.566   6.433
 6569SOL    HW220607   2.820   3.654   6.531
 6570SOL     OW20608   4.123   6.774   2.593
 6570SOL    HW120609   4.103   6.775   2.691
 6570SOL    HW220610   4.175   6.692   2.570
 6571SOL     OW20611   2.695   5.608   2.168
 6571SOL    HW120612   2.737   5.669   2.235
 6571SOL    HW220613   2.598   5.628   2.161
 6572SOL     OW20614   6.825   5.591   5.518
 6572SOL    HW120615   6.857   5.524   5.451
 6572SOL    HW220616   6.766   5.544   5.585
 6573SOL     OW20617   2.992   1.550   1.913
 6573SOL    HW120618   2.980   1.633   1.967
 6573SOL    HW220619   2.933   1.554   1.832
 6574SOL     OW20620   3.229   6.093   2.668
 6574SOL    HW120621   3.269   6.175   2.709
 6574SOL    HW220622   3.152   6.119   2.610
 6575SOL     OW20623   1.325   0.734   2.190
 6575SOL    HW120624   1.353   0.646   2.151
 6575SOL    HW220625   1.226   0.735   2.202
 6576SOL     OW20626   2.184   6.130   6.218
 6576SOL    HW120627   2.226   6.144   6.128
 6576SOL    HW220628   2.249   6.152   6.290
 6577SOL     OW20629   0.618   1.764   3.645
 6577SOL    HW120630   0.584   1.782   3.737
 6577SOL    HW220631   0.685   1.690   3.647
 6578SOL     OW20632   0.835   4.194   3.310
 6578SOL    HW120633   0.845   4.292   3.329
 6578SOL    HW220634   0.763   4.156   3.367
 6579SOL     OW20635   0.069   3.790   4.651
 6579SOL    HW120636   0.153   3.768   4.602
 6579SOL    HW220637   0.059   3.889   4.658
 6580SOL     OW20638   6.514   1.597   1.197
 6580SOL    HW120639   6.526   1.619   1.101
 6580SOL    HW220640   6.542   1.503   1.214
 6581SOL     OW20641   2.834   1.059   7.010
 6581SOL    HW120642   2.864   1.103   6.926
 6581SOL    HW220643   2.812   1.128   0.059
 6582SOL     OW20644   1.426   0.993   1.361
 6582SOL    HW120645   1.365   1.072   1.371
 6582SOL    HW220646   1.520   1.021   1.377
 6583SOL     OW20647   4.359   0.209   5.181
 6583SOL    HW120648   4.390   0.233   5.273
 6583SOL    HW220649   4.298   0.130   5.186
 6584SOL     OW20650   5.284   1.868   6.894
 6584SOL    HW120651   5.316   1.775   6.912
 6584SOL    HW220652   5.306   1.894   6.800
 6585SOL     OW20653   0.199   6.809   0.275
 6585SOL    HW120654   0.127   6.789   0.341
 6585SOL    HW220655   0.159   6.837   0.188
 6586SOL     OW20656   6.291   1.507   6.129
 6586SOL    HW120657   6.218   1.566   6.095
 6586SOL    HW220658   6.340   1.466   6.052
 6587SOL     OW20659   2.633   6.185   5.127
 6587SOL    HW120660   2.640   6.094   5.087
 6587SOL    HW220661   2.540   6.220   5.114
 6588SOL     OW20662   1.495   3.580   1.978
 6588SOL    HW120663   1.412   3.637   1.978
 6588SOL    HW220664   1.492   3.518   2.056
 6589SOL     OW20665   4.952   0.414   0.363
 6589SOL    HW120666   4.922   0.488   0.303
 6589SOL    HW220667   5.033   0.443   0.413
 6590SOL     OW20668   1.022   1.320   5.584
 6590SOL    HW120669   1.049   1.262   5.660
 6590SOL    HW220670   1.046   1.277   5.497
 6591SOL     OW20671   5.491   6.164   2.331
 6591SOL    HW120672   5.542   6.215   2.401
 6591SOL    HW220673   5.486   6.068   2.357
 6592SOL     OW20674   5.766   6.726   3.719
 6592SOL    HW120675   5.827   6.674   3.659
 6592SOL    HW220676   5.819   6.795   3.770
 6593SOL     OW20677   2.286   1.894   3.952
 6593SOL    HW120678   2.250   1.800   3.956
 6593SOL    HW220679   2.253   1.939   3.869
 6594SOL     OW20680   3.709   1.500   6.908
 6594SOL    HW120681   3.681   1.456   6.993
 6594SOL    HW220682   3.629   1.539   6.863
 6595SOL     OW20683   0.717   2.584   0.608
 6595SOL    HW120684   0.772   2.653   0.656
 6595SOL    HW220685   0.776   2.531   0.548
 6596SOL     OW20686   3.609   6.965   4.507
 6596SOL    HW120687   3.515   6.966   4.541
 6596SOL    HW220688   3.608   6.975   4.408
 6597SOL     OW20689   2.385   5.857   2.417
 6597SOL    HW120690   2.325   5.835   2.339
 6597SOL    HW220691   2.347   5.935   2.466
 6598SOL     OW20692   1.045   6.893   4.199
 6598SOL    HW120693   0.974   6.865   4.264
 6598SOL    HW220694   1.114   6.821   4.192
 6599SOL     OW20695   4.493   6.600   5.652
 6599SOL    HW120696   4.530   6.672   5.711
 6599SOL    HW220697   4.538   6.603   5.563
 6600SOL     OW20698   4.966   5.259   6.250
 6600SOL    HW120699   4.980   5.162   6.228
 6600SOL    HW220700   5.039   5.313   6.208
 6601SOL     OW20701   1.114   1.683   5.461
 6601SOL    HW120702   1.063   1.660   5.544
 6601SOL    HW220703   1.093   1.777   5.434
 6602SOL     OW20704   0.692   1.643   1.676
 6602SOL    HW120705   0.772   1.685   1.633
 6602SOL    HW220706   0.657   1.704   1.748
 6603SOL     OW20707   0.423   2.850   3.759
 6603SOL    HW120708   0.330   2.860   3.722
 6603SOL    HW220709   0.464   2.766   3.724
 6604SOL     OW20710   2.348   6.570   0.712
 6604SOL    HW120711   2.273   6.505   0.701
 6604SOL    HW220712   2.433   6.529   0.679
 6605SOL     OW20713   5.646   3.890   1.692
 6605SOL    HW120714   5.562   3.935   1.724
 6605SOL    HW220715   5.631   3.853   1.601
 6606SOL     OW20716   6.758   6.680   2.190
 6606SOL    HW120717   6.790   6.613   2.123
 6606SOL    HW220718   6.748   6.769   2.146
 6607SOL     OW20719   1.798   2.545   2.390
 6607SOL    HW120720   1.813   2.605   2.311
 6607SOL    HW220721   1.885   2.530   2.437
 6608SOL     OW20722   5.504   6.255   2.089
 6608SOL    HW120723   5.589   6.220   2.051
 6608SOL    HW220724   5.490   6.217   2.181
 6609SOL     OW20725   4.697   0.693   5.915
 6609SOL    HW120726   4.777   0.633   5.906
 6609SOL    HW220727   4.631   0.673   5.843
 6610SOL     OW20728   2.995   1.389   6.207
 6610SOL    HW120729   3.043   1.366   6.123
 6610SOL    HW220730   2.897   1.389   6.191
 6611SOL     OW20731   5.939   2.862   4.173
 6611SOL    HW120732   5.979   2.872   4.264
 6611SOL    HW220733   5.853   2.913   4.169
 6612SOL     OW20734   6.286   2.371   6.616
 6612SOL    HW120735   6.235   2.339   6.696
 6612SOL    HW220736   6.379   2.335   6.620
 6613SOL     OW20737   6.293   0.017   5.114
 6613SOL    HW120738   6.378   0.068   5.101
 6613SOL    HW220739   6.310   6.957   5.172
 6614SOL     OW20740   5.566   6.402   0.302
 6614SOL    HW120741   5.474   6.404   0.264
 6614SOL    HW220742   5.596   6.495   0.323
 6615SOL     OW20743   0.800   4.569   3.069
 6615SOL    HW120744   0.829   4.665   3.065
 6615SOL    HW220745   0.703   4.564   3.045
 6616SOL     OW20746   4.089   0.998   5.720
 6616SOL    HW120747   4.076   1.069   5.789
 6616SOL    HW220748   4.059   0.910   5.756
 6617SOL     OW20749   3.731   5.147   2.845
 6617SOL    HW120750   3.779   5.210   2.784
 6617SOL    HW220751   3.709   5.194   2.931
 6618SOL     OW20752   1.373   3.432   2.772
 6618SOL    HW120753   1.302   3.364   2.791
 6618SOL    HW220754   1.403   3.472   2.858
 6619SOL     OW20755   6.338   0.551   4.181
 6619SOL    HW120756   6.320   0.481   4.112
 6619SOL    HW220757   6.429   0.539   4.219
 6620SOL     OW20758   1.765   2.678   4.994
 6620SOL    HW120759   1.734   2.712   5.083
 6620SOL    HW220760   1.863   2.663   4.997
 6621SOL     OW20761   2.124   3.731   6.341
 6621SOL    HW120762   2.100   3.702   6.433
 6621SOL    HW220763   2.182   3.812   6.345
 6622SOL     OW20764   6.037   0.290   1.750
 6622SOL    HW120765   5.984   0.368   1.783
 6622SOL    HW220766   6.027   0.281   1.651
 6623SOL     OW20767   2.767   3.252   6.443
 6623SOL    HW120768   2.692   3.194   6.412
 6623SOL    HW220769   2.830   3.198   6.498
 6624SOL     OW20770   1.338   6.341   4.029
 6624SOL    HW120771   1.371   6.384   4.113
 6624SOL    HW220772   1.416   6.319   3.971
 6625SOL     OW20773   5.149   1.992   5.824
 6625SOL    HW120774   5.227   2.043   5.862
 6625SOL    HW220775   5.142   1.903   5.869
 6626SOL     OW20776   4.376   5.556   5.387
 6626SOL    HW120777   4.394   5.458   5.389
 6626SOL    HW220778   4.385   5.594   5.479
 6627SOL     OW20779   2.361   0.689   5.280
 6627SOL    HW120780   2.302   0.743   5.339
 6627SOL    HW220781   2.443   0.742   5.256
 6628SOL     OW20782   4.639   4.503   4.665
 6628SOL    HW120783   4.546   4.534   4.680
 6628SOL    HW220784   4.653   4.486   4.567
 6629SOL     OW20785   4.249   6.280   0.007
 6629SOL    HW120786   4.346   6.259   0.003
 6629SOL    HW220787   4.198   6.213   6.973
 6630SOL     OW20788   3.766   1.312   1.717
 6630SOL    HW120789   3.681   1.294   1.766
 6630SOL    HW220790   3.842   1.267   1.764
 6631SOL     OW20791   2.761   6.966   2.537
 6631SOL    HW120792   2.780   6.880   2.586
 6631SOL    HW220793   2.664   6.969   2.512
 6632SOL     OW20794   0.612   5.797   1.668
 6632SOL    HW120795   0.682   5.813   1.737
 6632SOL    HW220796   0.601   5.699   1.653
 6633SOL     OW20797   0.602   4.246   6.330
 6633SOL    HW120798   0.568   4.340   6.324
 6633SOL    HW220799   0.620   4.223   6.425
 6634SOL     OW20800   6.020   2.643   4.453
 6634SOL    HW120801   6.104   2.625   4.504
 6634SOL    HW220802   6.019   2.586   4.370
 6635SOL     OW20803   4.146   4.691   3.051
 6635SOL    HW120804   4.072   4.731   2.996
 6635SOL    HW220805   4.134   4.719   3.146
 6636SOL     OW20806   4.667   1.795   5.640
 6636SOL    HW120807   4.600   1.750   5.581
 6636SOL    HW220808   4.625   1.874   5.684
 6637SOL     OW20809   1.380   6.697   6.511
 6637SOL    HW120810   1.414   6.702   6.605
 6637SOL    HW220811   1.393   6.786   6.466
 6638SOL     OW20812   3.371   4.034   3.976
 6638SOL    HW120813   3.363   4.086   4.061
 6638SOL    HW220814   3.457   4.058   3.930
 6639SOL     OW20815   5.841   5.269   6.560
 6639SOL    HW120816   5.760   5.221   6.526
 6639SOL    HW220817   5.895   5.302   6.483
 6640SOL     OW20818   1.096   1.535   5.250
 6640SOL    HW120819   1.061   1.602   5.185
 6640SOL    HW220820   1.108   1.578   5.339
 6641SOL     OW20821   2.711   2.092   6.962
 6641SOL    HW120822   2.762   2.177   6.976
 6641SOL    HW220823   2.744   2.047   6.879
 6642SOL     OW20824   2.950   5.163   6.969
 6642SOL    HW120825   3.042   5.180   7.006
 6642SOL    HW220826   2.953   5.086   6.905
 6643SOL     OW20827   0.117   5.208   6.801
 6643SOL    HW120828   0.036   5.167   6.844
 6643SOL    HW220829   0.088   5.263   6.722
 6644SOL     OW20830   3.018   4.834   2.182
 6644SOL    HW120831   2.987   4.745   2.151
 6644SOL    HW220832   2.964   4.863   2.261
 6645SOL     OW20833   6.804   4.679   0.802
 6645SOL    HW120834   6.838   4.731   0.724
 6645SOL    HW220835   6.705   4.670   0.796
 6646SOL     OW20836   3.783   6.811   4.884
 6646SOL    HW120837   3.810   6.734   4.825
 6646SOL    HW220838   3.821   6.896   4.847
 6647SOL     OW20839   4.153   0.947   2.060
 6647SOL    HW120840   4.172   1.028   2.116
 6647SOL    HW220841   4.228   0.932   1.996
 6648SOL     OW20842   3.771   6.456   2.574
 6648SOL    HW120843   3.706   6.490   2.641
 6648SOL    HW220844   3.816   6.533   2.529
 6649SOL     OW20845   5.650   0.972   6.474
 6649SOL    HW120846   5.683   0.995   6.566
 6649SOL    HW220847   5.719   0.997   6.406
 6650SOL     OW20848   2.824   1.781   4.836
 6650SOL    HW120849   2.897   1.762   4.770
 6650SOL    HW220850   2.865   1.803   4.925
 6651SOL     OW20851   1.940   1.704   6.657
 6651SOL    HW120852   1.993   1.650   6.591
 6651SOL    HW220853   1.886   1.642   6.714
 6652SOL     OW20854   0.004   4.055   0.601
 6652SOL    HW120855   0.038   4.062   0.695
 6652SOL    HW220856   6.943   3.996   0.599
 6653SOL     OW20857   3.706   2.998   2.292
 6653SOL    HW120858   3.632   2.954   2.242
 6653SOL    HW220859   3.748   3.068   2.234
 6654SOL     OW20860   1.684   3.302   1.542
 6654SOL    HW120861   1.778   3.308   1.508
 6654SOL    HW220862   1.684   3.302   1.642
 6655SOL     OW20863   1.898   0.113   1.552
 6655SOL    HW120864   1.865   0.018   1.550
 6655SOL    HW220865   1.997   0.114   1.536
 6656SOL     OW20866   5.959   2.033   1.830
 6656SOL    HW120867   6.036   2.013   1.769
 6656SOL    HW220868   5.879   1.981   1.800
 6657SOL     OW20869   5.753   5.839   6.619
 6657SOL    HW120870   5.670   5.867   6.667
 6657SOL    HW220871   5.799   5.767   6.671
 6658SOL     OW20872   5.998   1.280   5.158
 6658SOL    HW120873   5.955   1.275   5.248
 6658SOL    HW220874   6.078   1.220   5.155
 6659SOL     OW20875   1.778   2.342   0.527
 6659SOL    HW120876   1.770   2.300   0.618
 6659SOL    HW220877   1.874   2.363   0.509
 6660SOL     OW20878   0.717   5.314   0.325
 6660SOL    HW120879   0.697   5.411   0.337
 6660SOL    HW220880   0.644   5.259   0.364
 6661SOL     OW20881   1.426   6.426   4.615
 6661SOL    HW120882   1.327   6.419   4.605
 6661SOL    HW220883   1.448   6.504   4.673
 6662SOL     OW20884   1.262   1.038   0.274
 6662SOL    HW120885   1.283   1.109   0.207
 6662SOL    HW220886   1.331   1.039   0.346
 6663SOL     OW20887   0.185   5.328   3.491
 6663SOL    HW120888   0.273   5.302   3.530
 6663SOL    HW220889   0.158   5.261   3.422
 6664SOL     OW20890   2.375   6.318   0.138
 6664SOL    HW120891   2.356   6.231   0.184
 6664SOL    HW220892   2.289   6.362   0.111
 6665SOL     OW20893   1.558   0.051   2.895
 6665SOL    HW120894   1.498   6.991   2.905
 6665SOL    HW220895   1.607   0.065   2.981
 6666SOL     OW20896   5.216   6.734   6.490
 6666SOL    HW120897   5.139   6.696   6.438
 6666SOL    HW220898   5.298   6.680   6.472
 6667SOL     OW20899   6.988   5.884   6.576
 6667SOL    HW120900   0.028   5.806   6.555
 6667SOL    HW220901   0.022   5.968   6.577
 6668SOL     OW20902   6.687   5.653   2.242
 6668SOL    HW120903   6.620   5.721   2.270
 6668SOL    HW220904   6.770   5.663   2.297
 6669SOL     OW20905   1.718   2.740   3.793
 6669SOL    HW120906   1.768   2.817   3.832
 6669SOL    HW220907   1.783   2.671   3.761
 6670SOL     OW20908   3.627   2.104   5.567
 6670SOL    HW120909   3.589   2.175   5.626
 6670SOL    HW220910   3.580   2.018   5.585
 6671SOL     OW20911   5.797   5.456   1.446
 6671SOL    HW120912   5.763   5.486   1.357
 6671SOL    HW220913   5.738   5.385   1.483
 6672SOL     OW20914   0.284   2.121   5.705
 6672SOL    HW120915   0.369   2.086   5.744
 6672SOL    HW220916   0.229   2.164   5.777
 6673SOL     OW20917   4.974   6.133   4.009
 6673SOL    HW120918   4.888   6.181   4.028
 6673SOL    HW220919   5.011   6.095   4.094
 6674SOL     OW20920   1.188   5.383   5.531
 6674SOL    HW120921   1.234   5.327   5.600
 6674SOL    HW220922   1.095   5.349   5.517
 6675SOL     OW20923   4.314   3.644   1.728
 6675SOL    HW120924   4.266   3.729   1.711
 6675SOL    HW220925   4.253   3.580   1.775
 6676SOL     OW20926   6.719   4.607   5.762
 6676SOL    HW120927   6.675   4.522   5.732
 6676SOL    HW220928   6.809   4.586   5.800
 6677SOL     OW20929   0.895   1.919   6.191
 6677SOL    HW120930   0.817   1.978   6.210
 6677SOL    HW220931   0.887   1.836   6.246
 6678SOL     OW20932   2.348   3.212   6.851
 6678SOL    HW120933   2.348   3.259   6.939
 6678SOL    HW220934   2.384   3.120   6.862
 6679SOL     OW20935   2.440   2.121   4.007
 6679SOL    HW120936   2.353   2.168   4.023
 6679SOL    HW220937   2.425   2.043   3.946
 6680SOL     OW20938   4.330   0.190   6.332
 6680SOL    HW120939   4.327   0.211   6.429
 6680SOL    HW220940   4.328   0.276   6.280
 6681SOL     OW20941   4.607   5.615   0.899
 6681SOL    HW120942   4.593   5.521   0.929
 6681SOL    HW220943   4.575   5.678   0.971
 6682SOL     OW20944   1.743   4.819   3.081
 6682SOL    HW120945   1.731   4.791   3.176
 6682SOL    HW220946   1.790   4.746   3.030
 6683SOL     OW20947   5.573   3.058   5.482
 6683SOL    HW120948   5.553   3.051   5.384
 6683SOL    HW220949   5.666   3.026   5.500
 6684SOL     OW20950   2.818   6.339   1.108
 6684SOL    HW120951   2.774   6.379   1.027
 6684SOL    HW220952   2.889   6.401   1.142
 6685SOL     OW20953   5.639   3.116   6.241
 6685SOL    HW120954   5.587   3.113   6.156
 6685SOL    HW220955   5.722   3.061   6.231
 6686SOL     OW20956   5.546   5.851   4.806
 6686SOL    HW120957   5.486   5.930   4.798
 6686SOL    HW220958   5.526   5.803   4.891
 6687SOL     OW20959   0.625   2.529   0.889
 6687SOL    HW120960   0.541   2.582   0.902
 6687SOL    HW220961   0.692   2.583   0.838
 6688SOL     OW20962   0.090   4.509   1.883
 6688SOL    HW120963   0.091   4.495   1.784
 6688SOL    HW220964   7.019   4.490   1.918
 6689SOL     OW20965   4.227   3.564   0.168
 6689SOL    HW120966   4.155   3.510   0.125
 6689SOL    HW220967   4.195   3.658   0.180
 6690SOL     OW20968   2.299   1.162   1.082
 6690SOL    HW120969   2.364   1.189   1.154
 6690SOL    HW220970   2.314   1.066   1.058
 6691SOL     OW20971   2.987   6.666   1.193
 6691SOL    HW120972   2.995   6.758   1.154
 6691SOL    HW220973   2.915   6.665   1.262
 6692SOL     OW20974   4.037   3.809   5.577
 6692SOL    HW120975   3.946   3.838   5.607
 6692SOL    HW220976   4.052   3.714   5.603
 6693SOL     OW20977   4.499   3.710   6.074
 6693SOL    HW120978   4.567   3.666   6.132
 6693SOL    HW220979   4.414   3.658   6.077
 6694SOL     OW20980   5.264   5.121   0.469
 6694SOL    HW120981   5.360   5.126   0.496
 6694SOL    HW220982   5.242   5.027   0.443
 6695SOL     OW20983   2.604   1.508   6.599
 6695SOL    HW120984   2.569   1.416   6.581
 6695SOL    HW220985   2.538   1.575   6.565
 6696SOL     OW20986   1.028   2.889   6.511
 6696SOL    HW120987   1.014   2.884   6.412
 6696SOL    HW220988   1.027   2.985   6.539
 6697SOL     OW20989   4.755   2.877   2.812
 6697SOL    HW120990   4.773   2.778   2.806
 6697SOL    HW220991   4.780   2.920   2.726
 6698SOL     OW20992   3.019   2.535   1.033
 6698SOL    HW120993   3.021   2.572   1.127
 6698SOL    HW220994   2.998   2.609   0.969
 6699SOL     OW20995   3.411   5.613   6.236
 6699SOL    HW120996   3.481   5.587   6.169
 6699SOL    HW220997   3.337   5.546   6.234
 6700SOL     OW20998   0.001   6.175   1.021
 6700SOL    HW120999   0.049   6.227   0.950
 6700SOL    HW221000   6.924   6.167   0.998
 6701SOL     OW21001   5.553   2.918   1.384
 6701SOL    HW121002   5.578   3.008   1.348
 6701SOL    HW221003   5.521   2.927   1.478
 6702SOL     OW21004   3.094   2.449   1.706
 6702SOL    HW121005   3.090   2.370   1.644
 6702SOL    HW221006   3.023   2.439   1.776
 6703SOL     OW21007   6.217   2.226   0.109
 6703SOL    HW121008   6.157   2.306   0.111
 6703SOL    HW221009   6.162   2.143   0.115
 6704SOL     OW21010   4.346   1.712   2.630
 6704SOL    HW121011   4.373   1.808   2.636
 6704SOL    HW221012   4.308   1.693   2.539
 6705SOL     OW21013   6.959   2.366   1.401
 6705SOL    HW121014   6.864   2.336   1.404
 6705SOL    HW221015   6.998   2.346   1.311
 6706SOL     OW21016   1.165   4.027   1.687
 6706SOL    HW121017   1.123   3.997   1.773
 6706SOL    HW221018   1.221   3.953   1.650
 6707SOL     OW21019   0.139   6.371   3.370
 6707SOL    HW121020   0.108   6.288   3.417
 6707SOL    HW221021   0.059   6.424   3.340
 6708SOL     OW21022   0.436   5.289   2.393
 6708SOL    HW121023   0.516   5.246   2.435
 6708SOL    HW221024   0.464   5.369   2.340
 6709SOL     OW21025   2.955   6.746   1.844
 6709SOL    HW121026   2.866   6.786   1.824
 6709SOL    HW221027   2.964   6.732   1.943
 6710SOL     OW21028   2.743   0.902   5.547
 6710SOL    HW121029   2.649   0.870   5.561
 6710SOL    HW221030   2.805   0.844   5.601
 6711SOL     OW21031   5.593   4.696   0.062
 6711SOL    HW121032   5.497   4.723   0.064
 6711SOL    HW221033   5.600   4.598   0.042
 6712SOL     OW21034   4.975   5.125   0.416
 6712SOL    HW121035   5.073   5.137   0.397
 6712SOL    HW221036   4.963   5.048   0.478
 6713SOL     OW21037   2.433   1.441   1.766
 6713SOL    HW121038   2.492   1.512   1.807
 6713SOL    HW221039   2.465   1.351   1.794
 6714SOL     OW21040   5.709   0.677   6.673
 6714SOL    HW121041   5.613   0.697   6.658
 6714SOL    HW221042   5.741   0.615   6.602
 6715SOL     OW21043   0.383   0.113   6.669
 6715SOL    HW121044   0.466   0.161   6.696
 6715SOL    HW221045   0.365   0.131   6.572
 6716SOL     OW21046   0.415   5.530   2.148
 6716SOL    HW121047   0.502   5.493   2.116
 6716SOL    HW221048   0.341   5.467   2.124
 6717SOL     OW21049   4.511   3.088   0.658
 6717SOL    HW121050   4.534   3.172   0.708
 6717SOL    HW221051   4.411   3.082   0.647
 6718SOL     OW21052   4.763   6.997   6.124
 6718SOL    HW121053   4.769   7.004   6.024
 6718SOL    HW221054   4.666   6.994   6.151
 6719SOL     OW21055   1.243   6.936   6.019
 6719SOL    HW121056   1.223   6.839   6.029
 6719SOL    HW221057   1.178   6.978   5.957
 6720SOL     OW21058   0.583   5.545   3.337
 6720SOL    HW121059   0.569   5.640   3.310
 6720SOL    HW221060   0.503   5.511   3.386
 6721SOL     OW21061   6.285   0.361   5.338
 6721SOL    HW121062   6.326   0.296   5.401
 6721SOL    HW221063   6.226   0.313   5.273
 6722SOL     OW21064   6.609   3.368   1.784
 6722SOL    HW121065   6.669   3.299   1.743
 6722SOL    HW221066   6.657   3.455   1.791
 6723SOL     OW21067   2.051   6.660   2.662
 6723SOL    HW121068   2.025   6.570   2.696
 6723SOL    HW221069   2.104   6.708   2.731
 6724SOL     OW21070   1.069   3.592   6.020
 6724SOL    HW121071   0.975   3.608   6.049
 6724SOL    HW221072   1.108   3.678   5.986
 6725SOL     OW21073   0.861   3.992   0.944
 6725SOL    HW121074   0.846   4.054   1.021
 6725SOL    HW221075   0.954   4.004   0.908
 6726SOL     OW21076   1.060   2.195   5.020
 6726SOL    HW121077   0.994   2.230   4.953
 6726SOL    HW221078   1.033   2.104   5.049
 6727SOL     OW21079   6.167   3.980   5.776
 6727SOL    HW121080   6.069   3.987   5.758
 6727SOL    HW221081   6.216   3.970   5.690
 6728SOL     OW21082   4.956   1.474   4.318
 6728SOL    HW121083   4.877   1.421   4.348
 6728SOL    HW221084   5.034   1.456   4.378
 6729SOL     OW21085   0.014   1.384   1.972
 6729SOL    HW121086   6.994   1.459   1.919
 6729SOL    HW221087   0.059   1.319   1.910
 6730SOL     OW21088   2.755   6.297   6.539
 6730SOL    HW121089   2.705   6.383   6.538
 6730SOL    HW221090   2.740   6.251   6.627
 6731SOL     OW21091   1.349   4.775   1.225
 6731SOL    HW121092   1.351   4.754   1.127
 6731SOL    HW221093   1.256   4.764   1.260
 6732SOL     OW21094   4.234   5.353   6.199
 6732SOL    HW121095   4.208   5.258   6.183
 6732SOL    HW221096   4.172   5.414   6.150
 6733SOL     OW21097   3.996   5.293   0.654
 6733SOL    HW121098   3.943   5.211   0.633
 6733SOL    HW221099   4.053   5.317   0.576
 6734SOL     OW21100   6.606   2.638   4.977
 6734SOL    HW121101   6.585   2.615   5.072
 6734SOL    HW221102   6.693   2.596   4.951
 6735SOL     OW21103   0.045   5.270   5.237
 6735SOL    HW121104   0.110   5.296   5.165
 6735SOL    HW221105   6.989   5.335   5.239
 6736SOL     OW21106   2.400   3.381   0.041
 6736SOL    HW121107   2.401   3.463   7.004
 6736SOL    HW221108   2.330   3.391   0.112
 6737SOL     OW21109   1.999   2.813   1.062
 6737SOL    HW121110   2.022   2.879   0.990
 6737SOL    HW221111   1.900   2.816   1.079
 6738SOL     OW21112   2.196   4.110   2.362
 6738SOL    HW121113   2.228   4.197   2.400
 6738SOL    HW221114   2.184   4.045   2.437
 6739SOL     OW21115   3.937   5.016   6.020
 6739SOL    HW121116   3.969   5.021   5.925
 6739SOL    HW221117   3.864   4.948   6.027
 6740SOL     OW21118   1.586   1.386   4.571
 6740SOL    HW121119   1.560   1.452   4.501
 6740SOL    HW221120   1.598   1.432   4.658
 6741SOL     OW21121   4.619   1.160   6.089
 6741SOL    HW121122   4.547   1.102   6.130
 6741SOL    HW221123   4.687   1.181   6.159
 6742SOL     OW21124   6.743   5.169   2.713
 6742SOL    HW121125   6.714   5.254   2.756
 6742SOL    HW221126   6.826   5.185   2.659
 6743SOL     OW21127   4.333   4.644   0.559
 6743SOL    HW121128   4.255   4.658   0.620
 6743SOL    HW221129   4.312   4.681   0.468
 6744SOL     OW21130   4.929   5.380   5.393
 6744SOL    HW121131   4.871   5.460   5.407
 6744SOL    HW221132   5.024   5.409   5.386
 6745SOL     OW21133   0.980   6.658   1.936
 6745SOL    HW121134   1.028   6.681   2.021
 6745SOL    HW221135   0.922   6.578   1.951
 6746SOL     OW21136   0.929   1.205   3.331
 6746SOL    HW121137   0.954   1.151   3.251
 6746SOL    HW221138   0.872   1.151   3.392
 6747SOL     OW21139   5.206   6.767   5.063
 6747SOL    HW121140   5.258   6.700   5.011
 6747SOL    HW221141   5.162   6.831   5.001
 6748SOL     OW21142   1.436   0.610   2.883
 6748SOL    HW121143   1.420   0.524   2.835
 6748SOL    HW221144   1.532   0.637   2.871
 6749SOL     OW21145   2.885   5.572   0.224
 6749SOL    HW121146   2.793   5.603   0.198
 6749SOL    HW221147   2.893   5.474   0.209
 6750SOL     OW21148   4.589   0.913   5.043
 6750SOL    HW121149   4.571   0.876   5.134
 6750SOL    HW221150   4.686   0.902   5.021
 6751SOL     OW21151   3.883   1.720   3.661
 6751SOL    HW121152   3.886   1.631   3.707
 6751SOL    HW221153   3.968   1.770   3.679
 6752SOL     OW21154   6.708   3.401   2.591
 6752SOL    HW121155   6.633   3.432   2.649
 6752SOL    HW221156   6.703   3.447   2.503
 6753SOL     OW21157   4.497   0.954   6.302
 6753SOL    HW121158   4.563   0.890   6.339
 6753SOL    HW221159   4.405   0.916   6.310
 6754SOL     OW21160   6.475   1.474   6.489
 6754SOL    HW121161   6.465   1.569   6.461
 6754SOL    HW221162   6.395   1.422   6.459
 6755SOL     OW21163   4.695   1.928   3.332
 6755SOL    HW121164   4.661   1.861   3.398
 6755SOL    HW221165   4.645   2.014   3.343
 6756SOL     OW21166   4.792   4.413   4.443
 6756SOL    HW121167   4.765   4.449   4.354
 6756SOL    HW221168   4.888   4.387   4.442
 6757SOL     OW21169   5.007   6.725   1.021
 6757SOL    HW121170   5.068   6.725   1.099
 6757SOL    HW221171   4.987   6.631   0.993
 6758SOL     OW21172   6.266   3.742   1.452
 6758SOL    HW121173   6.181   3.724   1.404
 6758SOL    HW221174   6.255   3.720   1.549
 6759SOL     OW21175   1.202   3.757   4.897
 6759SOL    HW121176   1.109   3.728   4.920
 6759SOL    HW221177   1.241   3.807   4.974
 6760SOL     OW21178   6.501   4.835   4.691
 6760SOL    HW121179   6.425   4.822   4.755
 6760SOL    HW221180   6.474   4.901   4.621
 6761SOL     OW21181   5.636   2.714   6.551
 6761SOL    HW121182   5.576   2.680   6.623
 6761SOL    HW221183   5.641   2.814   6.557
 6762SOL     OW21184   6.928   5.512   3.668
 6762SOL    HW121185   6.923   5.412   3.665
 6762SOL    HW221186   0.004   5.540   3.664
 6763SOL     OW21187   6.561   5.940   3.491
 6763SOL    HW121188   6.649   5.978   3.519
 6763SOL    HW221189   6.509   5.914   3.573
 6764SOL     OW21190   2.946   4.971   6.771
 6764SOL    HW121191   2.939   4.871   6.774
 6764SOL    HW221192   2.879   5.007   6.707
 6765SOL     OW21193   5.025   5.530   3.546
 6765SOL    HW121194   5.071   5.567   3.465
 6765SOL    HW221195   4.988   5.440   3.524
 6766SOL     OW21196   3.755   6.768   6.771
 6766SOL    HW121197   3.780   6.683   6.816
 6766SOL    HW221198   3.827   6.836   6.785
 6767SOL     OW21199   0.716   2.253   0.924
 6767SOL    HW121200   0.689   2.189   0.852
 6767SOL    HW221201   0.687   2.345   0.899
 6768SOL     OW21202   1.081   6.874   3.766
 6768SOL    HW121203   1.036   6.791   3.799
 6768SOL    HW221204   1.167   6.887   3.816
 6769SOL     OW21205   2.977   0.786   5.290
 6769SOL    HW121206   2.957   0.870   5.239
 6769SOL    HW221207   3.066   0.795   5.335
 6770SOL     OW21208   6.566   2.407   3.611
 6770SOL    HW121209   6.469   2.391   3.629
 6770SOL    HW221210   6.587   2.503   3.628
 6771SOL     OW21211   3.565   2.077   3.204
 6771SOL    HW121212   3.475   2.041   3.180
 6771SOL    HW221213   3.575   2.080   3.303
 6772SOL     OW21214   5.393   1.518   2.569
 6772SOL    HW121215   5.397   1.426   2.607
 6772SOL    HW221216   5.485   1.557   2.566
 6773SOL     OW21217   0.026   6.594   1.231
 6773SOL    HW121218   0.028   6.605   1.330
 6773SOL    HW221219   0.054   6.680   1.187
 6774SOL     OW21220   1.738   2.158   4.816
 6774SOL    HW121221   1.731   2.065   4.852
 6774SOL    HW221222   1.705   2.223   4.884
 6775SOL     OW21223   0.761   2.324   3.471
 6775SOL    HW121224   0.845   2.273   3.454
 6775SOL    HW221225   0.716   2.291   3.554
 6776SOL     OW21226   3.999   3.647   1.640
 6776SOL    HW121227   3.954   3.735   1.654
 6776SOL    HW221228   4.018   3.634   1.542
 6777SOL     OW21229   4.421   5.488   1.229
 6777SOL    HW121230   4.452   5.398   1.257
 6777SOL    HW221231   4.495   5.554   1.237
 6778SOL     OW21232   5.663   3.310   2.597
 6778SOL    HW121233   5.755   3.269   2.598
 6778SOL    HW221234   5.657   3.379   2.669
 6779SOL     OW21235   5.102   4.446   6.394
 6779SOL    HW121236   5.151   4.363   6.421
 6779SOL    HW221237   5.093   4.449   6.294
 6780SOL     OW21238   2.147   3.896   2.573
 6780SOL    HW121239   2.161   3.797   2.578
 6780SOL    HW221240   2.153   3.935   2.665
 6781SOL     OW21241   6.531   1.424   3.560
 6781SOL    HW121242   6.615   1.372   3.574
 6781SOL    HW221243   6.478   1.382   3.486
 6782SOL     OW21244   0.970   1.131   3.717
 6782SOL    HW121245   1.051   1.176   3.680
 6782SOL    HW221246   0.894   1.141   3.653
 6783SOL     OW21247   0.913   4.038   4.749
 6783SOL    HW121248   0.828   3.986   4.745
 6783SOL    HW221249   0.940   4.052   4.844
 6784SOL     OW21250   2.381   4.089   1.787
 6784SOL    HW121251   2.479   4.076   1.772
 6784SOL    HW221252   2.354   4.180   1.755
 6785SOL     OW21253   5.712   5.037   5.736
 6785SOL    HW121254   5.680   4.982   5.814
 6785SOL    HW221255   5.669   5.004   5.652
 6786SOL     OW21256   6.568   2.768   0.192
 6786SOL    HW121257   6.530   2.685   0.232
 6786SOL    HW221258   6.649   2.744   0.138
 6787SOL     OW21259   3.087   2.293   1.315
 6787SOL    HW121260   3.140   2.341   1.384
 6787SOL    HW221261   3.062   2.202   1.350
 6788SOL     OW21262   0.305   3.741   2.713
 6788SOL    HW121263   0.206   3.742   2.698
 6788SOL    HW221264   0.344   3.659   2.670
 6789SOL     OW21265   0.129   5.063   4.802
 6789SOL    HW121266   0.043   5.016   4.781
 6789SOL    HW221267   0.133   5.150   4.752
 6790SOL     OW21268   0.275   4.387   6.525
 6790SOL    HW121269   0.202   4.397   6.593
 6790SOL    HW221270   0.236   4.358   6.438
 6791SOL     OW21271   4.604   1.630   2.884
 6791SOL    HW121272   4.522   1.574   2.882
 6791SOL    HW221273   4.581   1.721   2.918
 6792SOL     OW21274   4.048   6.673   5.512
 6792SOL    HW121275   4.087   6.763   5.491
 6792SOL    HW221276   3.948   6.679   5.512
 6793SOL     OW21277   3.212   1.647   6.972
 6793SOL    HW121278   3.164   1.717   6.918
 6793SOL    HW221279   3.148   1.575   6.997
 6794SOL     OW21280   5.010   1.115   5.607
 6794SOL    HW121281   4.996   1.190   5.672
 6794SOL    HW221282   4.921   1.082   5.575
 6795SOL     OW21283   1.204   6.834   0.775
 6795SOL    HW121284   1.188   6.881   0.862
 6795SOL    HW221285   1.155   6.882   0.702
 6796SOL     OW21286   5.404   1.006   1.987
 6796SOL    HW121287   5.453   1.092   1.969
 6796SOL    HW221288   5.336   1.022   2.058
 6797SOL     OW21289   6.706   2.309   1.409
 6797SOL    HW121290   6.637   2.374   1.439
 6797SOL    HW221291   6.663   2.236   1.357
 6798SOL     OW21292   5.511   0.284   1.790
 6798SOL    HW121293   5.498   0.335   1.705
 6798SOL    HW221294   5.601   0.305   1.828
 6799SOL     OW21295   5.584   0.819   2.715
 6799SOL    HW121296   5.555   0.884   2.786
 6799SOL    HW221297   5.504   0.771   2.679
 6800SOL     OW21298   2.159   2.384   1.635
 6800SOL    HW121299   2.248   2.359   1.596
 6800SOL    HW221300   2.090   2.381   1.563
 6801SOL     OW21301   0.974   6.645   3.865
 6801SOL    HW121302   0.944   6.594   3.784
 6801SOL    HW221303   1.024   6.584   3.927
 6802SOL     OW21304   3.630   6.058   0.598
 6802SOL    HW121305   3.665   6.080   0.507
 6802SOL    HW221306   3.533   6.083   0.603
 6803SOL     OW21307   5.178   3.836   0.111
 6803SOL    HW121308   5.108   3.859   0.180
 6803SOL    HW221309   5.182   3.909   0.043
 6804SOL     OW21310   3.139   5.158   2.856
 6804SOL    HW121311   3.153   5.193   2.763
 6804SOL    HW221312   3.054   5.105   2.859
 6805SOL     OW21313   0.589   4.898   6.594
 6805SOL    HW121314   0.527   4.962   6.548
 6805SOL    HW221315   0.540   4.854   6.669
 6806SOL     OW21316   6.765   1.037   4.251
 6806SOL    HW121317   6.726   0.952   4.216
 6806SOL    HW221318   6.863   1.025   4.266
 6807SOL     OW21319   3.356   3.267   3.472
 6807SOL    HW121320   3.297   3.188   3.484
 6807SOL    HW221321   3.443   3.238   3.432
 6808SOL     OW21322   5.391   1.092   5.361
 6808SOL    HW121323   5.360   1.112   5.454
 6808SOL    HW221324   5.327   1.029   5.318
 6809SOL     OW21325   6.409   3.721   1.047
 6809SOL    HW121326   6.428   3.636   1.095
 6809SOL    HW221327   6.478   3.735   0.975
 6810SOL     OW21328   3.444   1.050   3.561
 6810SOL    HW121329   3.361   1.010   3.523
 6810SOL    HW221330   3.512   1.061   3.489
 6811SOL     OW21331   6.849   2.979   2.595
 6811SOL    HW121332   6.760   2.942   2.618
 6811SOL    HW221333   6.915   2.905   2.582
 6812SOL     OW21334   3.212   3.595   4.311
 6812SOL    HW121335   3.260   3.591   4.399
 6812SOL    HW221336   3.224   3.686   4.271
 6813SOL     OW21337   5.506   3.897   2.346
 6813SOL    HW121338   5.441   3.825   2.370
 6813SOL    HW221339   5.518   3.898   2.247
 6814SOL     OW21340   4.516   1.583   6.570
 6814SOL    HW121341   4.571   1.665   6.587
 6814SOL    HW221342   4.573   1.515   6.524
 6815SOL     OW21343   1.582   5.236   6.497
 6815SOL    HW121344   1.608   5.141   6.482
 6815SOL    HW221345   1.484   5.246   6.485
 6816SOL     OW21346   6.622   1.980   4.148
 6816SOL    HW121347   6.533   2.024   4.135
 6816SOL    HW221348   6.691   2.050   4.166
 6817SOL     OW21349   2.418   2.645   4.229
 6817SOL    HW121350   2.411   2.671   4.325
 6817SOL    HW221351   2.395   2.549   4.219
 6818SOL     OW21352   1.958   6.365   6.001
 6818SOL    HW121353   1.976   6.267   6.010
 6818SOL    HW221354   1.861   6.383   6.016
 6819SOL     OW21355   4.838   6.341   2.437
 6819SOL    HW121356   4.774   6.359   2.511
 6819SOL    HW221357   4.791   6.351   2.349
 6820SOL     OW21358   1.632   6.434   1.403
 6820SOL    HW121359   1.664   6.446   1.497
 6820SOL    HW221360   1.560   6.365   1.401
 6821SOL     OW21361   4.870   2.656   5.492
 6821SOL    HW121362   4.871   2.753   5.516
 6821SOL    HW221363   4.857   2.602   5.575
 6822SOL     OW21364   0.012   2.565   6.463
 6822SOL    HW121365   7.019   2.644   6.403
 6822SOL    HW221366   0.082   2.586   6.531
 6823SOL     OW21367   5.489   3.984   6.397
 6823SOL    HW121368   5.405   4.036   6.412
 6823SOL    HW221369   5.567   4.046   6.394
 6824SOL     OW21370   1.159   1.721   6.830
 6824SOL    HW121371   1.198   1.691   6.918
 6824SOL    HW221372   1.060   1.708   6.832
 6825SOL     OW21373   6.612   6.181   0.731
 6825SOL    HW121374   6.708   6.207   0.740
 6825SOL    HW221375   6.578   6.212   0.642
 6826SOL     OW21376   0.869   3.305   3.370
 6826SOL    HW121377   0.878   3.364   3.450
 6826SOL    HW221378   0.774   3.304   3.339
 6827SOL     OW21379   4.629   5.167   5.776
 6827SOL    HW121380   4.646   5.072   5.804
 6827SOL    HW221381   4.685   5.189   5.696
 6828SOL     OW21382   3.624   1.289   2.654
 6828SOL    HW121383   3.587   1.345   2.580
 6828SOL    HW221384   3.597   1.329   2.742
 6829SOL     OW21385   5.343   6.985   5.189
 6829SOL    HW121386   5.301   6.906   5.143
 6829SOL    HW221387   5.274   0.012   5.244
 6830SOL     OW21388   6.198   1.478   3.628
 6830SOL    HW121389   6.256   1.422   3.688
 6830SOL    HW221390   6.237   1.479   3.536
 6831SOL     OW21391   0.859   1.331   5.875
 6831SOL    HW121392   0.859   1.339   5.776
 6831SOL    HW221393   0.798   1.256   5.902
 6832SOL     OW21394   2.936   3.357   0.028
 6832SOL    HW121395   2.928   3.281   0.093
 6832SOL    HW221396   2.941   3.321   6.955
 6833SOL     OW21397   3.491   5.446   5.825
 6833SOL    HW121398   3.492   5.484   5.917
 6833SOL    HW221399   3.584   5.440   5.790
 6834SOL     OW21400   4.832   0.279   0.746
 6834SOL    HW121401   4.769   0.260   0.671
 6834SOL    HW221402   4.862   0.192   0.787
 6835SOL     OW21403   3.817   1.744   5.179
 6835SOL    HW121404   3.756   1.670   5.204
 6835SOL    HW221405   3.774   1.801   5.109
 6836SOL     OW21406   1.859   4.377   6.570
 6836SOL    HW121407   1.779   4.380   6.630
 6836SOL    HW221408   1.831   4.399   6.477
 6837SOL     OW21409   1.224   1.211   2.692
 6837SOL    HW121410   1.197   1.170   2.605
 6837SOL    HW221411   1.315   1.252   2.683
 6838SOL     OW21412   2.819   4.320   5.355
 6838SOL    HW121413   2.840   4.349   5.449
 6838SOL    HW221414   2.854   4.388   5.291
 6839SOL     OW21415   5.416   2.164   3.684
 6839SOL    HW121416   5.481   2.097   3.721
 6839SOL    HW221417   5.458   2.255   3.686
 6840SOL     OW21418   2.233   6.607   4.927
 6840SOL    HW121419   2.180   6.602   4.843
 6840SOL    HW221420   2.214   6.526   4.983
 6841SOL     OW21421   4.106   4.892   1.758
 6841SOL    HW121422   4.206   4.883   1.750
 6841SOL    HW221423   4.064   4.803   1.743
 6842SOL     OW21424   1.246   2.183   6.316
 6842SOL    HW121425   1.246   2.169   6.415
 6842SOL    HW221426   1.210   2.101   6.271
 6843SOL     OW21427   4.792   1.022   1.729
 6843SOL    HW121428   4.733   1.059   1.800
 6843SOL    HW221429   4.870   0.975   1.771
 6844SOL     OW21430   5.281   5.862   4.132
 6844SOL    HW121431   5.359   5.879   4.072
 6844SOL    HW221432   5.285   5.923   4.211
 6845SOL     OW21433   4.827   3.872   1.953
 6845SOL    HW121434   4.836   3.867   2.052
 6845SOL    HW221435   4.814   3.780   1.916
 6846SOL     OW21436   3.979   3.354   1.165
 6846SOL    HW121437   3.892   3.363   1.214
 6846SOL    HW221438   4.050   3.404   1.215
 6847SOL     OW21439   5.334   4.092   2.205
 6847SOL    HW121440   5.321   4.015   2.267
 6847SOL    HW221441   5.371   4.169   2.256
 6848SOL     OW21442   1.761   5.364   3.753
 6848SOL    HW121443   1.788   5.307   3.676
 6848SOL    HW221444   1.772   5.312   3.838
 6849SOL     OW21445   3.247   5.862   3.955
 6849SOL    HW121446   3.170   5.810   3.919
 6849SOL    HW221447   3.316   5.800   3.992
 6850SOL     OW21448   5.533   2.595   3.111
 6850SOL    HW121449   5.549   2.627   3.204
 6850SOL    HW221450   5.549   2.670   3.047
 6851SOL     OW21451   1.602   4.677   4.752
 6851SOL    HW121452   1.520   4.665   4.695
 6851SOL    HW221453   1.652   4.590   4.758
 6852SOL     OW21454   1.095   4.429   1.153
 6852SOL    HW121455   1.136   4.339   1.161
 6852SOL    HW221456   1.031   4.430   1.076
 6853SOL     OW21457   6.524   4.188   0.142
 6853SOL    HW121458   6.590   4.163   0.072
 6853SOL    HW221459   6.562   4.166   0.232
 6854SOL     OW21460   5.586   0.867   5.905
 6854SOL    HW121461   5.524   0.906   5.973
 6854SOL    HW221462   5.558   0.897   5.814
 6855SOL     OW21463   3.555   6.526   2.959
 6855SOL    HW121464   3.554   6.551   3.056
 6855SOL    HW221465   3.499   6.591   2.908
 6856SOL     OW21466   5.030   4.655   5.530
 6856SOL    HW121467   5.033   4.578   5.593
 6856SOL    HW221468   4.946   4.707   5.543
 6857SOL     OW21469   3.362   1.003   6.393
 6857SOL    HW121470   3.432   0.937   6.365
 6857SOL    HW221471   3.294   0.957   6.450
 6858SOL     OW21472   4.067   3.295   4.960
 6858SOL    HW121473   4.061   3.264   5.055
 6858SOL    HW221474   4.038   3.220   4.899
 6859SOL     OW21475   1.335   6.193   0.740
 6859SOL    HW121476   1.323   6.205   0.839
 6859SOL    HW221477   1.357   6.281   0.699
 6860SOL     OW21478   5.724   4.922   2.385
 6860SOL    HW121479   5.665   4.842   2.398
 6860SOL    HW221480   5.770   4.915   2.297
 6861SOL     OW21481   5.990   3.993   1.273
 6861SOL    HW121482   6.056   3.959   1.206
 6861SOL    HW221483   5.918   3.926   1.287
 6862SOL     OW21484   2.310   4.443   4.513
 6862SOL    HW121485   2.288   4.360   4.565
 6862SOL    HW221486   2.389   4.488   4.553
 6863SOL     OW21487   5.465   1.349   4.794
 6863SOL    HW121488   5.371   1.322   4.816
 6863SOL    HW221489   5.529   1.301   4.854
 6864SOL     OW21490   3.403   6.037   3.799
 6864SOL    HW121491   3.357   6.113   3.753
 6864SOL    HW221492   3.336   5.978   3.843
 6865SOL     OW21493   6.159   5.104   3.416
 6865SOL    HW121494   6.108   5.050   3.349
 6865SOL    HW221495   6.179   5.194   3.378
 6866SOL     OW21496   6.173   4.375   1.924
 6866SOL    HW121497   6.222   4.462   1.933
 6866SOL    HW221498   6.215   4.320   1.852
 6867SOL     OW21499   1.009   4.472   1.427
 6867SOL    HW121500   1.027   4.399   1.494
 6867SOL    HW221501   1.065   4.457   1.346
 6868SOL     OW21502   1.745   5.590   4.885
 6868SOL    HW121503   1.687   5.510   4.902
 6868SOL    HW221504   1.841   5.561   4.883
 6869SOL     OW21505   5.833   2.815   5.483
 6869SOL    HW121506   5.816   2.894   5.425
 6869SOL    HW221507   5.749   2.760   5.489
 6870SOL     OW21508   6.289   3.999   2.618
 6870SOL    HW121509   6.339   3.919   2.585
 6870SOL    HW221510   6.354   4.072   2.640
 6871SOL     OW21511   6.116   4.722   1.811
 6871SOL    HW121512   6.194   4.670   1.845
 6871SOL    HW221513   6.136   4.754   1.718
 6872SOL     OW21514   2.033   3.148   1.067
 6872SOL    HW121515   1.958   3.215   1.074
 6872SOL    HW221516   2.098   3.179   0.998
 6873SOL     OW21517   5.854   3.570   5.516
 6873SOL    HW121518   5.923   3.501   5.495
 6873SOL    HW221519   5.815   3.605   5.431
 6874SOL     OW21520   0.415   4.224   3.411
 6874SOL    HW121521   0.462   4.307   3.380
 6874SOL    HW221522   0.358   4.246   3.491
 6875SOL     OW21523   1.842   2.076   3.470
 6875SOL    HW121524   1.887   2.139   3.406
 6875SOL    HW221525   1.785   2.011   3.419
 6876SOL     OW21526   4.009   4.925   6.575
 6876SOL    HW121527   4.068   4.905   6.497
 6876SOL    HW221528   3.915   4.937   6.542
 6877SOL     OW21529   2.388   4.067   6.858
 6877SOL    HW121530   2.315   4.118   6.904
 6877SOL    HW221531   2.438   4.013   6.925
 6878SOL     OW21532   2.506   2.268   5.529
 6878SOL    HW121533   2.594   2.277   5.482
 6878SOL    HW221534   2.504   2.329   5.608
 6879SOL     OW21535   1.078   1.935   0.059
 6879SOL    HW121536   1.003   1.873   0.037
 6879SOL    HW221537   1.093   1.934   0.158
 6880SOL     OW21538   2.177   3.324   5.172
 6880SOL    HW121539   2.105   3.386   5.140
 6880SOL    HW221540   2.200   3.260   5.099
 6881SOL     OW21541   6.695   4.556   2.194
 6881SOL    HW121542   6.708   4.512   2.283
 6881SOL    HW221543   6.601   4.540   2.163
 6882SOL     OW21544   2.364   0.771   5.864
 6882SOL    HW121545   2.313   0.690   5.834
 6882SOL    HW221546   2.312   0.820   5.934
 6883SOL     OW21547   3.599   0.950   0.946
 6883SOL    HW121548   3.550   1.029   0.983
 6883SOL    HW221549   3.697   0.959   0.966
 6884SOL     OW21550   1.968   3.752   4.598
 6884SOL    HW121551   2.006   3.795   4.680
 6884SOL    HW221552   1.887   3.802   4.568
 6885SOL     OW21553   3.357   5.515   3.915
 6885SOL    HW121554   3.403   5.510   3.826
 6885SOL    HW221555   3.422   5.548   3.983
 6886SOL     OW21556   6.856   1.219   2.644
 6886SOL    HW121557   6.852   1.194   2.547
 6886SOL    HW221558   6.918   1.297   2.655
 6887SOL     OW21559   4.787   6.809   5.658
 6887SOL    HW121560   4.719   6.839   5.591
 6887SOL    HW221561   4.814   6.715   5.638
 6888SOL     OW21562   5.670   6.173   6.387
 6888SOL    HW121563   5.649   6.254   6.333
 6888SOL    HW221564   5.678   6.198   6.484
 6889SOL     OW21565   0.912   2.727   5.637
 6889SOL    HW121566   0.834   2.772   5.680
 6889SOL    HW221567   0.902   2.627   5.644
 6890SOL     OW21568   2.747   6.087   0.927
 6890SOL    HW121569   2.800   6.154   0.875
 6890SOL    HW221570   2.764   6.100   1.025
 6891SOL     OW21571   2.125   3.890   4.854
 6891SOL    HW121572   2.071   3.841   4.922
 6891SOL    HW221573   2.200   3.938   4.899
 6892SOL     OW21574   3.865   0.841   3.705
 6892SOL    HW121575   3.929   0.844   3.629
 6892SOL    HW221576   3.821   0.752   3.709
 6893SOL     OW21577   5.691   6.337   1.429
 6893SOL    HW121578   5.791   6.342   1.420
 6893SOL    HW221579   5.650   6.422   1.399
 6894SOL     OW21580   6.380   5.883   6.859
 6894SOL    HW121581   6.295   5.845   6.895
 6894SOL    HW221582   6.363   5.973   6.820
 6895SOL     OW21583   2.810   5.307   0.209
 6895SOL    HW121584   2.829   5.273   0.116
 6895SOL    HW221585   2.790   5.229   0.269
 6896SOL     OW21586   3.363   6.984   4.083
 6896SOL    HW121587   3.389   6.952   3.992
 6896SOL    HW221588   3.309   0.048   4.076
 6897SOL     OW21589   2.849   3.868   6.755
 6897SOL    HW121590   2.936   3.832   6.722
 6897SOL    HW221591   2.849   3.968   6.749
 6898SOL     OW21592   3.546   1.756   1.821
 6898SOL    HW121593   3.598   1.841   1.829
 6898SOL    HW221594   3.448   1.777   1.822
 6899SOL     OW21595   4.761   0.029   0.271
 6899SOL    HW121596   4.664   0.012   0.253
 6899SOL    HW221597   4.812   6.963   0.267
 6900SOL     OW21598   6.068   0.755   6.146
 6900SOL    HW121599   6.112   0.690   6.208
 6900SOL    HW221600   5.996   0.708   6.094
 6901SOL     OW21601   0.554   0.082   6.274
 6901SOL    HW121602   0.537   7.018   6.327
 6901SOL    HW221603   0.573   0.058   6.179
 6902SOL     OW21604   0.459   5.946   0.676
 6902SOL    HW121605   0.440   6.015   0.746
 6902SOL    HW221606   0.429   5.857   0.709
 6903SOL     OW21607   4.101   4.375   5.871
 6903SOL    HW121608   4.129   4.280   5.855
 6903SOL    HW221609   4.077   4.388   5.967
 6904SOL     OW21610   6.618   1.572   3.770
 6904SOL    HW121611   6.570   1.519   3.840
 6904SOL    HW221612   6.596   1.536   3.680
 6905SOL     OW21613   6.577   6.718   6.911
 6905SOL    HW121614   6.484   6.682   6.918
 6905SOL    HW221615   6.641   6.650   6.946
 6906SOL     OW21616   4.466   1.301   4.104
 6906SOL    HW121617   4.403   1.235   4.145
 6906SOL    HW221618   4.532   1.331   4.173
 6907SOL     OW21619   4.785   1.237   1.349
 6907SOL    HW121620   4.719   1.165   1.323
 6907SOL    HW221621   4.735   1.314   1.389
 6908SOL     OW21622   1.301   6.913   5.195
 6908SOL    HW121623   1.298   6.991   5.132
 6908SOL    HW221624   1.271   6.831   5.147
 6909SOL     OW21625   5.196   4.729   0.953
 6909SOL    HW121626   5.242   4.706   1.039
 6909SOL    HW221627   5.201   4.650   0.891
 6910SOL     OW21628   6.589   2.423   2.955
 6910SOL    HW121629   6.665   2.409   3.018
 6910SOL    HW221630   6.616   2.488   2.884
 6911SOL     OW21631   3.706   6.945   3.059
 6911SOL    HW121632   3.628   6.984   3.011
 6911SOL    HW221633   3.708   6.981   3.153
 6912SOL     OW21634   4.731   4.943   1.677
 6912SOL    HW121635   4.673   4.883   1.622
 6912SOL    HW221636   4.729   4.913   1.773
 6913SOL     OW21637   5.059   5.080   5.374
 6913SOL    HW121638   5.107   5.160   5.411
 6913SOL    HW221639   4.987   5.110   5.312
 6914SOL     OW21640   6.297   4.674   6.860
 6914SOL    HW121641   6.205   4.664   6.821
 6914SOL    HW221642   6.362   4.620   6.807
 6915SOL     OW21643   6.800   4.768   1.820
 6915SOL    HW121644   6.842   4.804   1.737
 6915SOL    HW221645   6.820   4.830   1.897
 6916SOL     OW21646   6.165   3.812   0.186
 6916SOL    HW121647   6.203   3.724   0.160
 6916SOL    HW221648   6.232   3.884   0.168
 6917SOL     OW21649   3.819   5.062   0.655
 6917SOL    HW121650   3.733   5.061   0.706
 6917SOL    HW221651   3.813   4.998   0.578
 6918SOL     OW21652   1.063   4.144   4.237
 6918SOL    HW121653   0.991   4.142   4.306
 6918SOL    HW221654   1.151   4.121   4.280
 6919SOL     OW21655   0.546   5.801   3.315
 6919SOL    HW121656   0.641   5.828   3.328
 6919SOL    HW221657   0.486   5.880   3.329
 6920SOL     OW21658   4.104   5.518   5.756
 6920SOL    HW121659   4.114   5.448   5.686
 6920SOL    HW221660   4.098   5.608   5.713
 6921SOL     OW21661   4.915   5.906   3.211
 6921SOL    HW121662   4.946   5.982   3.268
 6921SOL    HW221663   4.944   5.920   3.117
 6922SOL     OW21664   1.632   5.900   6.763
 6922SOL    HW121665   1.650   5.802   6.775
 6922SOL    HW221666   1.647   5.925   6.667
 6923SOL     OW21667   5.599   0.035   3.192
 6923SOL    HW121668   5.547   0.102   3.141
 6923SOL    HW221669   5.549   6.968   3.196
 6924SOL     OW21670   0.533   4.347   6.612
 6924SOL    HW121671   0.485   4.310   6.691
 6924SOL    HW221672   0.467   4.383   6.546
 6925SOL     OW21673   3.540   6.003   4.321
 6925SOL    HW121674   3.447   6.039   4.336
 6925SOL    HW221675   3.575   5.965   4.406
 6926SOL     OW21676   3.353   3.166   2.296
 6926SOL    HW121677   3.256   3.158   2.320
 6926SOL    HW221678   3.393   3.242   2.347
 6927SOL     OW21679   5.932   3.596   5.973
 6927SOL    HW121680   5.968   3.633   6.059
 6927SOL    HW221681   6.000   3.534   5.933
 6928SOL     OW21682   6.338   6.611   0.946
 6928SOL    HW121683   6.367   6.538   1.008
 6928SOL    HW221684   6.325   6.695   0.998
 6929SOL     OW21685   4.971   5.432   0.824
 6929SOL    HW121686   4.881   5.387   0.821
 6929SOL    HW221687   5.040   5.371   0.785
 6930SOL     OW21688   0.260   6.867   1.701
 6930SOL    HW121689   0.187   6.864   1.769
 6930SOL    HW221690   0.266   6.780   1.653
 6931SOL     OW21691   0.824   0.585   2.170
 6931SOL    HW121692   0.837   0.487   2.156
 6931SOL    HW221693   0.909   0.625   2.203
 6932SOL     OW21694   4.157   1.355   0.743
 6932SOL    HW121695   4.213   1.337   0.662
 6932SOL    HW221696   4.123   1.449   0.739
 6933SOL     OW21697   3.552   6.413   5.159
 6933SOL    HW121698   3.600   6.462   5.232
 6933SOL    HW221699   3.456   6.441   5.158
 6934SOL     OW21700   4.855   4.142   5.805
 6934SOL    HW121701   4.775   4.129   5.863
 6934SOL    HW221702   4.891   4.053   5.777
 6935SOL     OW21703   4.313   6.088   3.288
 6935SOL    HW121704   4.338   6.071   3.383
 6935SOL    HW221705   4.269   6.177   3.281
 6936SOL     OW21706   6.735   2.525   2.377
 6936SOL    HW121707   6.660   2.580   2.413
 6936SOL    HW221708   6.703   2.432   2.361
 6937SOL     OW21709   6.329   6.605   6.847
 6937SOL    HW121710   6.288   6.552   6.922
 6937SOL    HW221711   6.343   6.545   6.768
 6938SOL     OW21712   5.149   4.056   5.307
 6938SOL    HW121713   5.203   4.035   5.388
 6938SOL    HW221714   5.052   4.040   5.327
 6939SOL     OW21715   6.886   4.588   2.027
 6939SOL    HW121716   6.851   4.649   1.956
 6939SOL    HW221717   6.810   4.545   2.075
 6940SOL     OW21718   4.956   1.374   0.265
 6940SOL    HW121719   4.982   1.278   0.256
 6940SOL    HW221720   4.947   1.415   0.174
 6941SOL     OW21721   3.877   3.010   3.133
 6941SOL    HW121722   3.911   2.973   3.047
 6941SOL    HW221723   3.879   3.110   3.130
 6942SOL     OW21724   6.462   3.032   0.680
 6942SOL    HW121725   6.542   2.971   0.679
 6942SOL    HW221726   6.381   2.979   0.655
 6943SOL     OW21727   4.588   6.356   0.176
 6943SOL    HW121728   4.677   6.353   0.132
 6943SOL    HW221729   4.516   6.335   0.110
 6944SOL     OW21730   1.150   4.655   5.583
 6944SOL    HW121731   1.161   4.574   5.524
 6944SOL    HW221732   1.234   4.668   5.636
 6945SOL     OW21733   5.814   2.978   6.488
 6945SOL    HW121734   5.852   2.977   6.395
 6945SOL    HW221735   5.845   2.896   6.537
 6946SOL     OW21736   6.217   5.942   2.305
 6946SOL    HW121737   6.140   5.899   2.352
 6946SOL    HW221738   6.185   6.025   2.258
 6947SOL     OW21739   3.498   0.019   4.878
 6947SOL    HW121740   3.524   6.965   4.940
 6947SOL    HW221741   3.410   7.017   4.836
 6948SOL     OW21742   6.068   0.735   0.485
 6948SOL    HW121743   6.075   0.669   0.410
 6948SOL    HW221744   5.992   0.708   0.545
 6949SOL     OW21745   5.637   0.122   4.138
 6949SOL    HW121746   5.632   0.160   4.231
 6949SOL    HW221747   5.560   0.155   4.084
 6950SOL     OW21748   2.482   0.010   2.868
 6950SOL    HW121749   2.554   0.034   2.933
 6950SOL    HW221750   2.393   0.031   2.909
 6951SOL     OW21751   5.846   6.041   5.944
 6951SOL    HW121752   5.935   6.085   5.946
 6951SOL    HW221753   5.850   5.960   5.885
 6952SOL     OW21754   6.846   5.906   3.620
 6952SOL    HW121755   6.860   5.935   3.525
 6952SOL    HW221756   6.845   5.985   3.680
 6953SOL     OW21757   4.963   6.923   6.926
 6953SOL    HW121758   5.004   7.013   6.911
 6953SOL    HW221759   4.865   6.933   6.941
 6954SOL     OW21760   0.838   3.642   4.117
 6954SOL    HW121761   0.932   3.652   4.085
 6954SOL    HW221762   0.811   3.725   4.166
 6955SOL     OW21763   6.867   0.334   2.527
 6955SOL    HW121764   6.805   0.369   2.456
 6955SOL    HW221765   6.857   0.235   2.534
 6956SOL     OW21766   4.539   6.450   2.458
 6956SOL    HW121767   4.544   6.395   2.541
 6956SOL    HW221768   4.568   6.395   2.380
 6957SOL     OW21769   6.173   4.737   1.548
 6957SOL    HW121770   6.134   4.697   1.465
 6957SOL    HW221771   6.254   4.790   1.525
 6958SOL     OW21772   2.997   3.848   5.198
 6958SOL    HW121773   2.999   3.931   5.254
 6958SOL    HW221774   3.084   3.839   5.149
 6959SOL     OW21775   2.577   0.934   4.643
 6959SOL    HW121776   2.545   0.866   4.577
 6959SOL    HW221777   2.506   1.002   4.658
 6960SOL     OW21778   1.142   5.313   0.834
 6960SOL    HW121779   1.242   5.318   0.844
 6960SOL    HW221780   1.120   5.290   0.739
 6961SOL     OW21781   0.062   2.840   4.426
 6961SOL    HW121782   0.137   2.801   4.479
 6961SOL    HW221783   0.079   2.825   4.328
 6962SOL     OW21784   4.998   5.323   2.621
 6962SOL    HW121785   4.902   5.337   2.596
 6962SOL    HW221786   5.012   5.355   2.715
 6963SOL     OW21787   6.975   5.444   0.834
 6963SOL    HW121788   7.009   5.351   0.848
 6963SOL    HW221789   0.013   5.491   0.767
 6964SOL     OW21790   4.659   4.843   4.207
 6964SOL    HW121791   4.587   4.773   4.207
 6964SOL    HW221792   4.748   4.799   4.219
 6965SOL     OW21793   0.806   3.706   5.791
 6965SOL    HW121794   0.752   3.669   5.716
 6965SOL    HW221795   0.798   3.647   5.872
 6966SOL     OW21796   6.449   2.565   3.248
 6966SOL    HW121797   6.408   2.595   3.162
 6966SOL    HW221798   6.410   2.476   3.274
 6967SOL     OW21799   1.779   1.259   5.438
 6967SOL    HW121800   1.736   1.219   5.519
 6967SOL    HW221801   1.877   1.268   5.452
 6968SOL     OW21802   3.386   6.666   2.485
 6968SOL    HW121803   3.451   6.667   2.561
 6968SOL    HW221804   3.393   6.579   2.436
 6969SOL     OW21805   3.440   2.021   1.505
 6969SOL    HW121806   3.397   2.041   1.593
 6969SOL    HW221807   3.407   1.933   1.471
 6970SOL     OW21808   4.502   3.695   0.505
 6970SOL    HW121809   4.539   3.611   0.545
 6970SOL    HW221810   4.402   3.687   0.497
 6971SOL     OW21811   6.498   4.215   2.140
 6971SOL    HW121812   6.473   4.182   2.231
 6971SOL    HW221813   6.453   4.158   2.071
 6972SOL     OW21814   5.444   5.306   4.411
 6972SOL    HW121815   5.472   5.238   4.343
 6972SOL    HW221816   5.350   5.286   4.440
 6973SOL     OW21817   0.805   3.816   5.295
 6973SOL    HW121818   0.905   3.812   5.302
 6973SOL    HW221819   0.779   3.898   5.244
 6974SOL     OW21820   3.415   3.081   3.055
 6974SOL    HW121821   3.466   3.110   3.135
 6974SOL    HW221822   3.325   3.046   3.083
 6975SOL     OW21823   2.869   0.062   6.133
 6975SOL    HW121824   2.902   0.087   6.042
 6975SOL    HW221825   2.909   6.994   6.160
 6976SOL     OW21826   4.256   4.681   5.807
 6976SOL    HW121827   4.276   4.602   5.750
 6976SOL    HW221828   4.164   4.715   5.787
 6977SOL     OW21829   5.081   2.414   1.675
 6977SOL    HW121830   5.020   2.464   1.613
 6977SOL    HW221831   5.046   2.421   1.769
 6978SOL     OW21832   6.167   2.364   1.336
 6978SOL    HW121833   6.214   2.296   1.393
 6978SOL    HW221834   6.225   2.445   1.326
 6979SOL     OW21835   1.438   5.279   0.775
 6979SOL    HW121836   1.452   5.189   0.733
 6979SOL    HW221837   1.509   5.342   0.744
 6980SOL     OW21838   2.057   0.767   3.488
 6980SOL    HW121839   2.061   0.764   3.389
 6980SOL    HW221840   2.023   0.679   3.522
 6981SOL     OW21841   2.115   3.005   6.977
 6981SOL    HW121842   2.194   3.052   7.017
 6981SOL    HW221843   2.119   3.011   6.877
 6982SOL     OW21844   0.911   1.636   4.117
 6982SOL    HW121845   0.896   1.685   4.203
 6982SOL    HW221846   0.962   1.552   4.136
 6983SOL     OW21847   5.774   2.206   3.541
 6983SOL    HW121848   5.757   2.250   3.629
 6983SOL    HW221849   5.780   2.276   3.470
 6984SOL     OW21850   1.901   2.322   4.679
 6984SOL    HW121851   1.848   2.251   4.726
 6984SOL    HW221852   1.967   2.278   4.618
 6985SOL     OW21853   3.807   5.378   1.881
 6985SOL    HW121854   3.728   5.318   1.871
 6985SOL    HW221855   3.891   5.326   1.865
 6986SOL     OW21856   1.913   6.362   6.333
 6986SOL    HW121857   1.927   6.424   6.256
 6986SOL    HW221858   2.000   6.347   6.379
 6987SOL     OW21859   1.034   1.583   6.114
 6987SOL    HW121860   1.128   1.604   6.140
 6987SOL    HW221861   1.032   1.556   6.017
 6988SOL     OW21862   6.342   0.802   5.165
 6988SOL    HW121863   6.242   0.796   5.161
 6988SOL    HW221864   6.376   0.742   5.237
 6989SOL     OW21865   0.308   3.694   3.649
 6989SOL    HW121866   0.297   3.791   3.629
 6989SOL    HW221867   0.394   3.661   3.612
 6990SOL     OW21868   5.251   1.996   0.516
 6990SOL    HW121869   5.187   2.072   0.504
 6990SOL    HW221870   5.324   2.002   0.449
 6991SOL     OW21871   2.426   4.617   3.755
 6991SOL    HW121872   2.356   4.668   3.806
 6991SOL    HW221873   2.516   4.642   3.788
 6992SOL     OW21874   5.844   6.370   5.023
 6992SOL    HW121875   5.768   6.325   5.070
 6992SOL    HW221876   5.902   6.416   5.091
 6993SOL     OW21877   0.019   0.708   2.306
 6993SOL    HW121878   0.030   0.763   2.389
 6993SOL    HW221879   7.013   0.768   2.230
 6994SOL     OW21880   0.723   3.010   4.753
 6994SOL    HW121881   0.715   3.068   4.835
 6994SOL    HW221882   0.807   2.956   4.759
 6995SOL     OW21883   6.393   5.461   5.527
 6995SOL    HW121884   6.313   5.462   5.587
 6995SOL    HW221885   6.396   5.375   5.476
 6996SOL     OW21886   1.975   1.031   4.955
 6996SOL    HW121887   2.005   1.126   4.950
 6996SOL    HW221888   1.910   1.013   4.880
 6997SOL     OW21889   5.723   5.821   5.256
 6997SOL    HW121890   5.702   5.908   5.301
 6997SOL    HW221891   5.814   5.825   5.216
 6998SOL     OW21892   1.915   2.181   1.792
 6998SOL    HW121893   1.985   2.151   1.727
 6998SOL    HW221894   1.959   2.208   1.877
 6999SOL     OW21895   2.251   2.257   6.677
 6999SOL    HW121896   2.246   2.165   6.639
 6999SOL    HW221897   2.345   2.290   6.673
 7000SOL     OW21898   6.431   5.469   2.726
 7000SOL    HW121899   6.449   5.463   2.627
 7000SOL    HW221900   6.518   5.477   2.774
 7001SOL     OW21901   2.725   3.089   5.305
 7001SOL    HW121902   2.638   3.049   5.277
 7001SOL    HW221903   2.711   3.185   5.331
 7002SOL     OW21904   1.972   5.206   2.784
 7002SOL    HW121905   2.070   5.184   2.782
 7002SOL    HW221906   1.922   5.128   2.820
 7003SOL     OW21907   3.623   5.822   0.263
 7003SOL    HW121908   3.668   5.766   0.333
 7003SOL    HW221909   3.614   5.916   0.298
 7004SOL     OW21910   2.195   4.757   1.857
 7004SOL    HW121911   2.151   4.667   1.848
 7004SOL    HW221912   2.126   4.829   1.856
 7005SOL     OW21913   0.818   6.279   6.091
 7005SOL    HW121914   0.837   6.181   6.092
 7005SOL    HW221915   0.798   6.310   6.185
 7006SOL     OW21916   5.260   4.922   5.095
 7006SOL    HW121917   5.277   5.015   5.129
 7006SOL    HW221918   5.193   4.877   5.153
 7007SOL     OW21919   4.852   6.895   3.464
 7007SOL    HW121920   4.912   6.883   3.544
 7007SOL    HW221921   4.759   6.870   3.489
 7008SOL     OW21922   1.697   5.329   4.669
 7008SOL    HW121923   1.794   5.353   4.660
 7008SOL    HW221924   1.668   5.346   4.763
 7009SOL     OW21925   5.789   5.547   2.439
 7009SOL    HW121926   5.857   5.589   2.499
 7009SOL    HW221927   5.699   5.549   2.483
 7010SOL     OW21928   4.393   3.878   5.847
 7010SOL    HW121929   4.419   3.824   5.927
 7010SOL    HW221930   4.294   3.890   5.845
 7011SOL     OW21931   2.000   0.685   6.526
 7011SOL    HW121932   2.086   0.711   6.570
 7011SOL    HW221933   2.012   0.683   6.427
 7012SOL     OW21934   2.012   0.778   2.248
 7012SOL    HW121935   2.075   0.795   2.323
 7012SOL    HW221936   2.008   0.679   2.230
 7013SOL     OW21937   0.392   6.730   1.056
 7013SOL    HW121938   0.440   6.818   1.049
 7013SOL    HW221939   0.427   6.679   1.134
 7014SOL     OW21940   4.781   2.994   1.475
 7014SOL    HW121941   4.823   3.015   1.387
 7014SOL    HW221942   4.719   2.917   1.466
 7015SOL     OW21943   5.733   5.059   2.638
 7015SOL    HW121944   5.807   5.021   2.695
 7015SOL    HW221945   5.740   5.022   2.546
 7016SOL     OW21946   3.858   4.844   2.090
 7016SOL    HW121947   3.931   4.801   2.037
 7016SOL    HW221948   3.774   4.790   2.082
 7017SOL     OW21949   1.799   6.716   2.170
 7017SOL    HW121950   1.882   6.766   2.143
 7017SOL    HW221951   1.743   6.774   2.228
 7018SOL     OW21952   6.053   4.480   5.283
 7018SOL    HW121953   6.096   4.570   5.288
 7018SOL    HW221954   6.078   4.427   5.364
 7019SOL     OW21955   3.108   4.299   6.796
 7019SOL    HW121956   3.133   4.307   6.700
 7019SOL    HW221957   3.130   4.384   6.843
 7020SOL     OW21958   6.050   6.682   6.523
 7020SOL    HW121959   6.049   6.704   6.620
 7020SOL    HW221960   6.142   6.696   6.486
 7021SOL     OW21961   2.117   1.270   5.253
 7021SOL    HW121962   2.214   1.295   5.244
 7021SOL    HW221963   2.061   1.353   5.248
 7022SOL     OW21964   4.479   5.214   1.234
 7022SOL    HW121965   4.406   5.145   1.233
 7022SOL    HW221966   4.553   5.184   1.294
 7023SOL     OW21967   0.607   2.236   3.677
 7023SOL    HW121968   0.608   2.154   3.735
 7023SOL    HW221969   0.593   2.317   3.734
 7024SOL     OW21970   1.511   5.237   5.834
 7024SOL    HW121971   1.452   5.177   5.888
 7024SOL    HW221972   1.486   5.332   5.851
 7025SOL     OW21973   2.658   0.897   6.751
 7025SOL    HW121974   2.664   0.912   6.653
 7025SOL    HW221975   2.721   0.959   6.799
 7026SOL     OW21976   2.929   1.746   2.074
 7026SOL    HW121977   2.961   1.739   2.168
 7026SOL    HW221978   2.830   1.762   2.074
 7027SOL     OW21979   2.761   4.786   3.165
 7027SOL    HW121980   2.752   4.885   3.162
 7027SOL    HW221981   2.708   4.749   3.241
 7028SOL     OW21982   6.133   0.134   4.463
 7028SOL    HW121983   6.156   0.113   4.368
 7028SOL    HW221984   6.041   0.174   4.467
 7029SOL     OW21985   4.291   6.028   6.683
 7029SOL    HW121986   4.283   6.053   6.779
 7029SOL    HW221987   4.202   6.000   6.648
 7030SOL     OW21988   6.424   2.511   5.663
 7030SOL    HW121989   6.379   2.526   5.751
 7030SOL    HW221990   6.358   2.477   5.596
 7031SOL     OW21991   2.084   6.177   4.583
 7031SOL    HW121992   2.148   6.140   4.650
 7031SOL    HW221993   2.043   6.102   4.531
 7032SOL     OW21994   3.757   6.583   3.820
 7032SOL    HW121995   3.844   6.534   3.815
 7032SOL    HW221996   3.683   6.518   3.839
 7033SOL     OW21997   0.133   2.135   3.744
 7033SOL    HW121998   0.108   2.199   3.672
 7033SOL    HW221999   0.053   2.121   3.804
 7034SOL     OW22000   6.444   0.746   2.908
 7034SOL    HW122001   6.528   0.702   2.938
 7034SOL    HW222002   6.432   0.732   2.809
 7035SOL     OW22003   1.202   6.701   1.769
 7035SOL    HW122004   1.152   6.684   1.854
 7035SOL    HW222005   1.166   6.783   1.725
 7036SOL     OW22006   7.017   0.424   1.854
 7036SOL    HW122007   6.960   0.458   1.779
 7036SOL    HW222008   0.081   0.479   1.861
 7037SOL     OW22009   1.274   0.720   6.250
 7037SOL    HW122010   1.332   0.643   6.278
 7037SOL    HW222011   1.180   0.704   6.281
 7038SOL     OW22012   1.507   3.219   4.318
 7038SOL    HW122013   1.481   3.166   4.399
 7038SOL    HW222014   1.519   3.315   4.343
 7039SOL     OW22015   2.911   5.364   1.288
 7039SOL    HW122016   2.817   5.330   1.286
 7039SOL    HW222017   2.955   5.333   1.373
 7040SOL     OW22018   5.914   1.676   4.874
 7040SOL    HW122019   5.871   1.760   4.908
 7040SOL    HW222020   5.846   1.618   4.832
 7041SOL     OW22021   0.691   1.985   2.679
 7041SOL    HW122022   0.636   2.049   2.625
 7041SOL    HW222023   0.783   2.023   2.691
 7042SOL     OW22024   5.500   5.368   6.841
 7042SOL    HW122025   5.488   5.268   6.843
 7042SOL    HW222026   5.447   5.409   6.915
 7043SOL     OW22027   2.143   2.978   3.594
 7043SOL    HW122028   2.199   2.913   3.646
 7043SOL    HW222029   2.198   3.058   3.570
 7044SOL     OW22030   4.893   4.825   2.661
 7044SOL    HW122031   4.878   4.841   2.759
 7044SOL    HW222032   4.814   4.777   2.623
 7045SOL     OW22033   4.975   5.706   2.151
 7045SOL    HW122034   4.961   5.706   2.052
 7045SOL    HW222035   5.072   5.695   2.171
 7046SOL     OW22036   3.564   1.886   3.419
 7046SOL    HW122037   3.662   1.902   3.434
 7046SOL    HW222038   3.511   1.954   3.469
 7047SOL     OW22039   0.950   2.475   2.591
 7047SOL    HW122040   0.876   2.541   2.577
 7047SOL    HW222041   0.917   2.401   2.650
 7048SOL     OW22042   0.294   5.521   1.745
 7048SOL    HW122043   0.276   5.608   1.698
 7048SOL    HW222044   0.211   5.489   1.790
 7049SOL     OW22045   2.213   1.761   1.154
 7049SOL    HW122046   2.169   1.749   1.243
 7049SOL    HW222047   2.166   1.705   1.086
 7050SOL     OW22048   4.046   3.801   2.799
 7050SOL    HW122049   4.008   3.856   2.874
 7050SOL    HW222050   4.059   3.859   2.719
 7051SOL     OW22051   0.213   1.152   0.712
 7051SOL    HW122052   0.184   1.107   0.627
 7051SOL    HW222053   0.135   1.160   0.774
 7052SOL     OW22054   6.321   2.910   3.834
 7052SOL    HW122055   6.391   2.843   3.810
 7052SOL    HW222056   6.289   2.894   3.928
 7053SOL     OW22057   0.852   3.365   4.504
 7053SOL    HW122058   0.885   3.430   4.573
 7053SOL    HW222059   0.904   3.378   4.420
 7054SOL     OW22060   0.931   5.762   1.255
 7054SOL    HW122061   0.973   5.783   1.167
 7054SOL    HW222062   0.838   5.798   1.257
 7055SOL     OW22063   3.656   6.168   5.228
 7055SOL    HW122064   3.722   6.171   5.304
 7055SOL    HW222065   3.617   6.260   5.215
 7056SOL     OW22066   6.025   5.871   2.513
 7056SOL    HW122067   5.946   5.932   2.505
 7056SOL    HW222068   6.076   5.891   2.596
 7057SOL     OW22069   1.360   5.685   3.622
 7057SOL    HW122070   1.399   5.775   3.606
 7057SOL    HW222071   1.425   5.615   3.591
 7058SOL     OW22072   6.632   5.671   6.321
 7058SOL    HW122073   6.538   5.704   6.323
 7058SOL    HW222074   6.652   5.621   6.405
 7059SOL     OW22075   6.993   1.027   3.190
 7059SOL    HW122076   6.949   0.937   3.186
 7059SOL    HW222077   0.070   1.018   3.168
 7060SOL     OW22078   4.086   0.160   1.551
 7060SOL    HW122079   4.063   0.073   1.508
 7060SOL    HW222080   4.017   0.183   1.620
 7061SOL     OW22081   0.378   3.288   4.023
 7061SOL    HW122082   0.344   3.221   3.957
 7061SOL    HW222083   0.374   3.380   3.983
 7062SOL     OW22084   5.591   1.325   5.655
 7062SOL    HW122085   5.639   1.324   5.742
 7062SOL    HW222086   5.617   1.406   5.603
 7063SOL     OW22087   0.296   0.437   1.099
 7063SOL    HW122088   0.307   0.353   1.153
 7063SOL    HW222089   0.226   0.494   1.141
 7064SOL     OW22090   3.887   1.923   2.102
 7064SOL    HW122091   3.861   1.950   2.009
 7064SOL    HW222092   3.973   1.871   2.098
 7065SOL     OW22093   4.045   3.331   6.507
 7065SOL    HW122094   4.041   3.414   6.452
 7065SOL    HW222095   4.136   3.290   6.500
 7066SOL     OW22096   4.609   0.452   0.597
 7066SOL    HW122097   4.578   0.388   0.527
 7066SOL    HW222098   4.698   0.490   0.571
 7067SOL     OW22099   1.698   1.784   5.200
 7067SOL    HW122100   1.673   1.689   5.178
 7067SOL    HW222101   1.617   1.833   5.232
 7068SOL     OW22102   0.671   4.324   4.339
 7068SOL    HW122103   0.653   4.422   4.346
 7068SOL    HW222104   0.765   4.305   4.368
 7069SOL     OW22105   6.062   2.426   4.207
 7069SOL    HW122106   5.991   2.495   4.197
 7069SOL    HW222107   6.086   2.388   4.118
 7070SOL     OW22108   6.821   6.761   5.081
 7070SOL    HW122109   6.864   6.771   4.992
 7070SOL    HW222110   6.722   6.760   5.070
 7071SOL     OW22111   1.440   6.379   5.962
 7071SOL    HW122112   1.352   6.339   5.988
 7071SOL    HW222113   1.425   6.451   5.894
 7072SOL     OW22114   0.479   6.205   6.098
 7072SOL    HW122115   0.499   6.124   6.153
 7072SOL    HW222116   0.509   6.190   6.004
 7073SOL     OW22117   5.541   6.646   4.748
 7073SOL    HW122118   5.552   6.597   4.662
 7073SOL    HW222119   5.626   6.694   4.771
 7074SOL     OW22120   4.259   2.302   1.330
 7074SOL    HW122121   4.169   2.259   1.321
 7074SOL    HW222122   4.326   2.251   1.276
 7075SOL     OW22123   1.239   5.773   5.323
 7075SOL    HW122124   1.312   5.724   5.276
 7075SOL    HW222125   1.166   5.793   5.259
 7076SOL     OW22126   4.592   2.177   6.263
 7076SOL    HW122127   4.563   2.081   6.258
 7076SOL    HW222128   4.563   2.225   6.180
 7077SOL     OW22129   2.272   4.272   4.938
 7077SOL    HW122130   2.323   4.317   5.012
 7077SOL    HW222131   2.274   4.173   4.952
 7078SOL     OW22132   6.232   0.753   1.287
 7078SOL    HW122133   6.196   0.665   1.319
 7078SOL    HW222134   6.187   0.826   1.338
 7079SOL     OW22135   6.473   6.624   5.328
 7079SOL    HW122136   6.376   6.627   5.353
 7079SOL    HW222137   6.488   6.546   5.267
 7080SOL     OW22138   3.324   1.919   4.559
 7080SOL    HW122139   3.275   1.944   4.475
 7080SOL    HW222140   3.281   1.965   4.637
 7081SOL     OW22141   2.754   1.601   6.837
 7081SOL    HW122142   2.801   1.636   6.755
 7081SOL    HW222143   2.685   1.535   6.810
 7082SOL     OW22144   6.489   4.363   6.860
 7082SOL    HW122145   6.474   4.264   6.870
 7082SOL    HW222146   6.453   4.410   6.940
 7083SOL     OW22147   3.222   0.997   0.134
 7083SOL    HW122148   3.228   0.916   0.076
 7083SOL    HW222149   3.213   0.969   0.230
 7084SOL     OW22150   0.285   6.928   5.462
 7084SOL    HW122151   0.373   6.908   5.419
 7084SOL    HW222152   0.220   6.957   5.392
 7085SOL     OW22153   1.878   1.542   1.947
 7085SOL    HW122154   1.867   1.478   1.871
 7085SOL    HW222155   1.855   1.634   1.917
 7086SOL     OW22156   4.793   1.007   5.275
 7086SOL    HW122157   4.768   1.021   5.371
 7086SOL    HW222158   4.717   0.964   5.227
 7087SOL     OW22159   5.671   4.210   3.915
 7087SOL    HW122160   5.732   4.287   3.898
 7087SOL    HW222161   5.715   4.125   3.885
 7088SOL     OW22162   5.493   2.410   3.551
 7088SOL    HW122163   5.412   2.432   3.605
 7088SOL    HW222164   5.465   2.386   3.458
 7089SOL     OW22165   3.647   2.294   5.340
 7089SOL    HW122166   3.552   2.321   5.325
 7089SOL    HW222167   3.650   2.208   5.390
 7090SOL     OW22168   2.127   1.617   6.429
 7090SOL    HW122169   2.127   1.566   6.343
 7090SOL    HW222170   2.166   1.560   6.501
 7091SOL     OW22171   0.220   1.777   0.022
 7091SOL    HW122172   0.235   1.863   6.993
 7091SOL    HW222173   0.131   1.739   7.016
 7092SOL     OW22174   4.154   2.811   6.393
 7092SOL    HW122175   4.180   2.906   6.379
 7092SOL    HW222176   4.149   2.764   6.305
 7093SOL     OW22177   2.900   3.655   3.149
 7093SOL    HW122178   2.907   3.657   3.049
 7093SOL    HW222179   2.851   3.736   3.181
 7094SOL     OW22180   0.902   5.302   5.451
 7094SOL    HW122181   0.883   5.327   5.356
 7094SOL    HW222182   0.896   5.203   5.461
 7095SOL     OW22183   3.383   4.090   6.329
 7095SOL    HW122184   3.447   4.148   6.379
 7095SOL    HW222185   3.419   4.070   6.238
 7096SOL     OW22186   6.170   0.735   3.767
 7096SOL    HW122187   6.164   0.777   3.676
 7096SOL    HW222188   6.099   0.666   3.777
 7097SOL     OW22189   5.979   1.235   1.178
 7097SOL    HW122190   6.065   1.232   1.228
 7097SOL    HW222191   5.946   1.330   1.173
 7098SOL     OW22192   0.789   0.375   4.425
 7098SOL    HW122193   0.835   0.378   4.337
 7098SOL    HW222194   0.736   0.459   4.438
 7099SOL     OW22195   3.008   0.842   4.972
 7099SOL    HW122196   2.977   0.870   4.881
 7099SOL    HW222197   3.013   0.921   5.032
 7100SOL     OW22198   5.692   3.292   0.952
 7100SOL    HW122199   5.673   3.199   0.920
 7100SOL    HW222200   5.705   3.351   0.872
 7101SOL     OW22201   1.962   0.704   4.707
 7101SOL    HW122202   1.965   0.639   4.784
 7101SOL    HW222203   1.910   0.785   4.734
 7102SOL     OW22204   4.603   0.470   0.895
 7102SOL    HW122205   4.617   0.443   0.800
 7102SOL    HW222206   4.523   0.423   0.932
 7103SOL     OW22207   4.602   4.756   1.508
 7103SOL    HW122208   4.561   4.758   1.417
 7103SOL    HW222209   4.701   4.740   1.500
 7104SOL     OW22210   1.133   3.240   5.055
 7104SOL    HW122211   1.036   3.257   5.043
 7104SOL    HW222212   1.176   3.321   5.095
 7105SOL     OW22213   3.124   2.844   5.204
 7105SOL    HW122214   3.193   2.915   5.205
 7105SOL    HW222215   3.167   2.755   5.218
 7106SOL     OW22216   3.085   3.836   2.849
 7106SOL    HW122217   3.157   3.787   2.898
 7106SOL    HW222218   3.015   3.771   2.819
 7107SOL     OW22219   2.955   1.623   0.983
 7107SOL    HW122220   2.887   1.682   1.026
 7107SOL    HW222221   2.918   1.584   0.899
 7108SOL     OW22222   3.625   6.720   2.619
 7108SOL    HW122223   3.662   6.797   2.567
 7108SOL    HW222224   3.646   6.732   2.716
 7109SOL     OW22225   3.844   0.298   6.501
 7109SOL    HW122226   3.907   0.323   6.427
 7109SOL    HW222227   3.852   0.200   6.519
 7110SOL     OW22228   3.680   6.103   3.728
 7110SOL    HW122229   3.586   6.082   3.701
 7110SOL    HW222230   3.680   6.141   3.821
 7111SOL     OW22231   2.062   2.182   4.479
 7111SOL    HW122232   2.015   2.218   4.398
 7111SOL    HW222233   2.034   2.087   4.494
 7112SOL     OW22234   2.112   5.794   4.221
 7112SOL    HW122235   2.148   5.715   4.271
 7112SOL    HW222236   2.076   5.764   4.133
 7113SOL     OW22237   3.352   4.090   4.851
 7113SOL    HW122238   3.400   4.153   4.790
 7113SOL    HW222239   3.254   4.094   4.832
 7114SOL     OW22240   3.809   6.528   1.459
 7114SOL    HW122241   3.753   6.610   1.451
 7114SOL    HW222242   3.823   6.505   1.555
 7115SOL     OW22243   5.268   3.245   2.153
 7115SOL    HW122244   5.253   3.147   2.166
 7115SOL    HW222245   5.245   3.294   2.238
 7116SOL     OW22246   5.484   4.133   3.564
 7116SOL    HW122247   5.434   4.067   3.620
 7116SOL    HW222248   5.432   4.153   3.481
 7117SOL     OW22249   6.882   6.455   4.753
 7117SOL    HW122250   6.936   6.440   4.836
 7117SOL    HW222251   6.918   6.534   4.704
 7118SOL     OW22252   2.369   4.013   0.815
 7118SOL    HW122253   2.326   4.078   0.878
 7118SOL    HW222254   2.451   4.055   0.776
 7119SOL     OW22255   4.932   1.388   3.137
 7119SOL    HW122256   4.902   1.415   3.229
 7119SOL    HW222257   4.906   1.459   3.072
 7120SOL     OW22258   4.030   2.109   2.260
 7120SOL    HW122259   4.118   2.066   2.243
 7120SOL    HW222260   3.964   2.080   2.192
 7121SOL     OW22261   2.095   6.640   2.395
 7121SOL    HW122262   2.011   6.672   2.352
 7121SOL    HW222263   2.081   6.633   2.494
 7122SOL     OW22264   0.607   0.500   5.786
 7122SOL    HW122265   0.687   0.469   5.734
 7122SOL    HW222266   0.636   0.565   5.856
 7123SOL     OW22267   2.310   4.872   2.364
 7123SOL    HW122268   2.328   4.874   2.266
 7123SOL    HW222269   2.237   4.808   2.384
 7124SOL     OW22270   6.913   2.414   0.475
 7124SOL    HW122271   7.009   2.388   0.465
 7124SOL    HW222272   6.902   2.509   0.445
 7125SOL     OW22273   6.358   6.742   0.722
 7125SOL    HW122274   6.353   6.667   0.655
 7125SOL    HW222275   6.352   6.704   0.814
 7126SOL     OW22276   3.693   4.105   0.132
 7126SOL    HW122277   3.716   4.136   0.225
 7126SOL    HW222278   3.614   4.044   0.136
 7127SOL     OW22279   1.898   6.336   4.704
 7127SOL    HW122280   1.963   6.287   4.646
 7127SOL    HW222281   1.860   6.273   4.772
 7128SOL     OW22282   2.732   4.881   0.219
 7128SOL    HW122283   2.701   4.924   0.134
 7128SOL    HW222284   2.802   4.812   0.198
 7129SOL     OW22285   2.168   1.605   0.521
 7129SOL    HW122286   2.152   1.675   0.452
 7129SOL    HW222287   2.081   1.565   0.549
 7130SOL     OW22288   3.735   4.784   5.297
 7130SOL    HW122289   3.640   4.762   5.320
 7130SOL    HW222290   3.793   4.705   5.315
 7131SOL     OW22291   2.364   1.449   0.423
 7131SOL    HW122292   2.447   1.473   0.472
 7131SOL    HW222293   2.290   1.510   0.451
 7132SOL     OW22294   3.690   3.501   6.972
 7132SOL    HW122295   3.756   3.470   6.905
 7132SOL    HW222296   3.707   3.597   6.995
 7133SOL     OW22297   5.327   6.088   4.661
 7133SOL    HW122298   5.351   6.007   4.607
 7133SOL    HW222299   5.404   6.152   4.660
 7134SOL     OW22300   5.833   6.441   1.727
 7134SOL    HW122301   5.741   6.477   1.711
 7134SOL    HW222302   5.827   6.346   1.757
 7135SOL     OW22303   1.035   2.991   2.483
 7135SOL    HW122304   0.983   3.006   2.399
 7135SOL    HW222305   1.133   2.992   2.463
 7136SOL     OW22306   1.549   2.232   1.124
 7136SOL    HW122307   1.518   2.151   1.073
 7136SOL    HW222308   1.480   2.258   1.191
 7137SOL     OW22309   4.342   0.678   6.924
 7137SOL    HW122310   4.249   0.659   6.892
 7137SOL    HW222311   4.394   0.592   6.928
 7138SOL     OW22312   1.596   2.867   0.091
 7138SOL    HW122313   1.629   2.774   0.079
 7138SOL    HW222314   1.527   2.887   0.022
 7139SOL     OW22315   4.878   3.763   2.594
 7139SOL    HW122316   4.803   3.703   2.623
 7139SOL    HW222317   4.840   3.847   2.555
 7140SOL     OW22318   5.519   4.082   4.402
 7140SOL    HW122319   5.495   4.157   4.340
 7140SOL    HW222320   5.586   4.115   4.469
 7141SOL     OW22321   3.079   5.878   1.519
 7141SOL    HW122322   3.110   5.788   1.550
 7141SOL    HW222323   3.118   5.949   1.578
 7142SOL     OW22324   4.665   6.929   3.843
 7142SOL    HW122325   4.628   6.845   3.883
 7142SOL    HW222326   4.687   6.994   3.915
 7143SOL     OW22327   1.506   3.346   6.261
 7143SOL    HW122328   1.453   3.368   6.343
 7143SOL    HW222329   1.577   3.279   6.285
 7144SOL     OW22330   1.455   1.525   3.484
 7144SOL    HW122331   1.497   1.615   3.475
 7144SOL    HW222332   1.440   1.487   3.392
 7145SOL     OW22333   4.222   6.994   6.824
 7145SOL    HW122334   4.275   6.999   6.909
 7145SOL    HW222335   4.248   6.912   6.773
 7146SOL     OW22336   2.057   0.822   0.159
 7146SOL    HW122337   2.062   0.860   0.067
 7146SOL    HW222338   2.007   0.735   0.156
 7147SOL     OW22339   6.559   6.400   3.333
 7147SOL    HW122340   6.621   6.430   3.406
 7147SOL    HW222341   6.600   6.323   3.284
 7148SOL     OW22342   0.642   6.811   0.420
 7148SOL    HW122343   0.724   6.822   0.363
 7148SOL    HW222344   0.574   6.880   0.394
 7149SOL     OW22345   6.394   6.584   2.773
 7149SOL    HW122346   6.353   6.493   2.763
 7149SOL    HW222347   6.484   6.584   2.731
 7150SOL     OW22348   3.433   1.721   2.381
 7150SOL    HW122349   3.521   1.738   2.337
 7150SOL    HW222350   3.393   1.808   2.412
 7151SOL     OW22351   1.524   6.465   0.383
 7151SOL    HW122352   1.489   6.468   0.476
 7151SOL    HW222353   1.506   6.376   0.343
 7152SOL     OW22354   1.036   1.454   4.913
 7152SOL    HW122355   0.953   1.401   4.893
 7152SOL    HW222356   1.011   1.540   4.956
 7153SOL     OW22357   3.206   5.501   2.593
 7153SOL    HW122358   3.154   5.486   2.509
 7153SOL    HW222359   3.144   5.511   2.670
 7154SOL     OW22360   3.923   0.850   4.233
 7154SOL    HW122361   4.022   0.858   4.222
 7154SOL    HW222362   3.884   0.809   4.150
 7155SOL     OW22363   2.224   4.393   1.536
 7155SOL    HW122364   2.163   4.319   1.566
 7155SOL    HW222365   2.303   4.397   1.597
 7156SOL     OW22366   0.384   4.486   4.469
 7156SOL    HW122367   0.450   4.554   4.438
 7156SOL    HW222368   0.430   4.421   4.530
 7157SOL     OW22369   6.141   4.522   1.051
 7157SOL    HW122370   6.173   4.577   1.128
 7157SOL    HW222371   6.194   4.437   1.046
 7158SOL     OW22372   1.175   0.270   2.909
 7158SOL    HW122373   1.195   0.325   2.990
 7158SOL    HW222374   1.257   0.264   2.852
 7159SOL     OW22375   0.449   3.970   2.773
 7159SOL    HW122376   0.448   4.014   2.863
 7159SOL    HW222377   0.376   3.901   2.770
 7160SOL     OW22378   5.485   0.877   3.148
 7160SOL    HW122379   5.484   0.820   3.231
 7160SOL    HW222380   5.566   0.935   3.149
 7161SOL     OW22381   2.889   3.478   4.772
 7161SOL    HW122382   2.835   3.415   4.828
 7161SOL    HW222383   2.975   3.434   4.746
 7162SOL     OW22384   2.398   5.757   5.666
 7162SOL    HW122385   2.382   5.854   5.649
 7162SOL    HW222386   2.451   5.746   5.750
 7163SOL     OW22387   2.960   6.464   2.605
 7163SOL    HW122388   2.998   6.421   2.523
 7163SOL    HW222389   2.881   6.412   2.636
 7164SOL     OW22390   1.831   1.167   3.932
 7164SOL    HW122391   1.818   1.210   4.021
 7164SOL    HW222392   1.747   1.119   3.906
 7165SOL     OW22393   6.779   1.370   1.374
 7165SOL    HW122394   6.781   1.342   1.277
 7165SOL    HW222395   6.840   1.448   1.387
 7166SOL     OW22396   5.644   3.048   0.104
 7166SOL    HW122397   5.699   2.983   0.158
 7166SOL    HW222398   5.650   3.023   0.007
 7167SOL     OW22399   4.928   3.724   4.404
 7167SOL    HW122400   4.836   3.719   4.366
 7167SOL    HW222401   4.963   3.631   4.419
 7168SOL     OW22402   1.540   2.922   3.593
 7168SOL    HW122403   1.489   2.929   3.679
 7168SOL    HW222404   1.630   2.883   3.611
 7169SOL     OW22405   0.406   3.540   5.069
 7169SOL    HW122406   0.436   3.488   5.149
 7169SOL    HW222407   0.314   3.576   5.085
 7170SOL     OW22408   5.317   6.018   2.985
 7170SOL    HW122409   5.339   6.115   2.997
 7170SOL    HW222410   5.325   5.971   3.073
 7171SOL     OW22411   5.709   4.144   6.571
 7171SOL    HW122412   5.611   4.163   6.584
 7171SOL    HW222413   5.760   4.230   6.572
 7172SOL     OW22414   1.468   0.859   5.179
 7172SOL    HW122415   1.551   0.895   5.221
 7172SOL    HW222416   1.451   0.767   5.214
 7173SOL     OW22417   6.762   4.636   6.177
 7173SOL    HW122418   6.773   4.735   6.172
 7173SOL    HW222419   6.850   4.592   6.159
 7174SOL     OW22420   1.071   4.266   0.486
 7174SOL    HW122421   0.993   4.203   0.486
 7174SOL    HW222422   1.089   4.295   0.392
 7175SOL     OW22423   5.294   3.233   6.657
 7175SOL    HW122424   5.338   3.321   6.638
 7175SOL    HW222425   5.362   3.169   6.692
 7176SOL     OW22426   0.997   6.013   2.917
 7176SOL    HW122427   0.927   5.947   2.891
 7176SOL    HW222428   1.075   6.005   2.855
 7177SOL     OW22429   2.238   6.681   4.140
 7177SOL    HW122430   2.307   6.738   4.097
 7177SOL    HW222431   2.253   6.585   4.115
 7178SOL     OW22432   1.991   3.211   5.320
 7178SOL    HW122433   2.073   3.253   5.280
 7178SOL    HW222434   2.000   3.111   5.317
 7179SOL     OW22435   1.730   3.869   4.465
 7179SOL    HW122436   1.741   3.842   4.369
 7179SOL    HW222437   1.660   3.813   4.508
 7180SOL     OW22438   1.460   4.475   6.408
 7180SOL    HW122439   1.450   4.404   6.479
 7180SOL    HW222440   1.534   4.537   6.434
 7181SOL     OW22441   2.110   5.880   0.430
 7181SOL    HW122442   2.108   5.817   0.353
 7181SOL    HW222443   2.193   5.865   0.483
 7182SOL     OW22444   1.370   2.849   5.523
 7182SOL    HW122445   1.331   2.828   5.433
 7182SOL    HW222446   1.467   2.870   5.513
 7183SOL     OW22447   2.119   6.198   0.330
 7183SOL    HW122448   2.050   6.232   0.267
 7183SOL    HW222449   2.178   6.132   0.284
 7184SOL     OW22450   0.458   0.856   3.090
 7184SOL    HW122451   0.486   0.890   3.000
 7184SOL    HW222452   0.488   0.920   3.160
 7185SOL     OW22453   5.657   0.291   5.291
 7185SOL    HW122454   5.641   0.237   5.209
 7185SOL    HW222455   5.751   0.280   5.321
 7186SOL     OW22456   6.365   6.909   6.757
 7186SOL    HW122457   6.384   6.944   6.665
 7186SOL    HW222458   6.428   6.834   6.778
 7187SOL     OW22459   3.010   3.880   0.003
 7187SOL    HW122460   2.930   3.932   0.035
 7187SOL    HW222461   2.978   3.799   6.973
 7188SOL     OW22462   6.100   6.805   0.607
 7188SOL    HW122463   6.188   6.803   0.654
 7188SOL    HW222464   6.108   6.762   0.518
 7189SOL     OW22465   6.877   1.093   5.888
 7189SOL    HW122466   6.785   1.092   5.851
 7189SOL    HW222467   6.914   1.000   5.889
 7190SOL     OW22468   6.568   4.128   3.205
 7190SOL    HW122469   6.518   4.048   3.170
 7190SOL    HW222470   6.621   4.100   3.286
 7191SOL     OW22471   0.151   4.167   3.321
 7191SOL    HW122472   0.079   4.235   3.339
 7191SOL    HW222473   0.240   4.208   3.340
 7192SOL     OW22474   3.680   5.124   5.885
 7192SOL    HW122475   3.746   5.192   5.853
 7192SOL    HW222476   3.716   5.032   5.868
 7193SOL     OW22477   2.087   2.515   2.594
 7193SOL    HW122478   2.098   2.424   2.634
 7193SOL    HW222479   2.042   2.575   2.660
 7194SOL     OW22480   2.590   2.132   0.743
 7194SOL    HW122481   2.556   2.046   0.782
 7194SOL    HW222482   2.651   2.177   0.808
 7195SOL     OW22483   0.249   4.900   6.906
 7195SOL    HW122484   0.152   4.925   6.915
 7195SOL    HW222485   0.288   4.883   6.996
 7196SOL     OW22486   3.286   4.307   1.611
 7196SOL    HW122487   3.269   4.229   1.671
 7196SOL    HW222488   3.369   4.354   1.641
 7197SOL     OW22489   6.733   1.944   5.863
 7197SOL    HW122490   6.793   1.937   5.784
 7197SOL    HW222491   6.786   1.934   5.947
 7198SOL     OW22492   0.472   0.942   6.359
 7198SOL    HW122493   0.527   0.858   6.351
 7198SOL    HW222494   0.527   1.020   6.329
 7199SOL     OW22495   2.189   0.520   2.547
 7199SOL    HW122496   2.271   0.574   2.526
 7199SOL    HW222497   2.200   0.428   2.510
 7200SOL     OW22498   2.401   2.066   0.517
 7200SOL    HW122499   2.481   2.034   0.467
 7200SOL    HW222500   2.431   2.121   0.595
 7201SOL     OW22501   1.276   5.824   4.012
 7201SOL    HW122502   1.280   5.920   3.987
 7201SOL    HW222503   1.369   5.787   4.018
 7202SOL     OW22504   4.420   0.664   5.797
 7202SOL    HW122505   4.337   0.646   5.850
 7202SOL    HW222506   4.401   0.734   5.728
 7203SOL     OW22507   0.401   2.403   1.164
 7203SOL    HW122508   0.309   2.411   1.202
 7203SOL    HW222509   0.455   2.483   1.191
 7204SOL     OW22510   6.997   0.018   5.425
 7204SOL    HW122511   6.934   0.094   5.408
 7204SOL    HW222512   6.971   6.992   5.510
 7205SOL     OW22513   0.780   5.535   3.139
 7205SOL    HW122514   0.845   5.469   3.176
 7205SOL    HW222515   0.702   5.543   3.202
 7206SOL     OW22516   1.700   0.585   0.722
 7206SOL    HW122517   1.790   0.627   0.719
 7206SOL    HW222518   1.675   0.566   0.817
 7207SOL     OW22519   3.427   0.214   2.099
 7207SOL    HW122520   3.406   0.151   2.023
 7207SOL    HW222521   3.397   0.306   2.074
 7208SOL     OW22522   4.245   6.700   4.187
 7208SOL    HW122523   4.181   6.771   4.156
 7208SOL    HW222524   4.223   6.676   4.281
 7209SOL     OW22525   3.313   3.700   2.205
 7209SOL    HW122526   3.249   3.766   2.244
 7209SOL    HW222527   3.283   3.607   2.229
 7210SOL     OW22528   4.356   0.155   3.957
 7210SOL    HW122529   4.378   0.131   4.052
 7210SOL    HW222530   4.259   0.175   3.949
 7211SOL     OW22531   2.525   5.635   4.165
 7211SOL    HW122532   2.585   5.562   4.132
 7211SOL    HW222533   2.580   5.715   4.190
 7212SOL     OW22534   0.742   6.711   4.022
 7212SOL    HW122535   0.819   6.703   3.959
 7212SOL    HW222536   0.769   6.679   4.113
 7213SOL     OW22537   6.127   0.105   6.426
 7213SOL    HW122538   6.059   0.154   6.371
 7213SOL    HW222539   6.113   0.127   6.523
 7214SOL     OW22540   0.950   6.511   4.902
 7214SOL    HW122541   1.003   6.595   4.894
 7214SOL    HW222542   1.008   6.432   4.885
 7215SOL     OW22543   0.311   3.164   4.747
 7215SOL    HW122544   0.239   3.152   4.678
 7215SOL    HW222545   0.353   3.076   4.768
 7216SOL     OW22546   2.339   6.061   0.239
 7216SOL    HW122547   2.385   5.996   0.180
 7216SOL    HW222548   2.379   6.058   0.331
 7217SOL     OW22549   2.074   4.466   2.720
 7217SOL    HW122550   2.042   4.378   2.756
 7217SOL    HW222551   2.060   4.469   2.621
 7218SOL     OW22552   5.017   2.463   5.335
 7218SOL    HW122553   4.971   2.537   5.386
 7218SOL    HW222554   5.108   2.493   5.309
 7219SOL     OW22555   4.588   6.374   4.593
 7219SOL    HW122556   4.634   6.428   4.665
 7219SOL    HW222557   4.533   6.303   4.636
 7220SOL     OW22558   0.566   6.077   4.246
 7220SOL    HW122559   0.497   6.149   4.246
 7220SOL    HW222560   0.522   5.988   4.257
 7221SOL     OW22561   4.836   4.970   4.464
 7221SOL    HW122562   4.766   5.036   4.435
 7221SOL    HW222563   4.792   4.895   4.514
 7222SOL     OW22564   6.369   0.616   2.090
 7222SOL    HW122565   6.431   0.626   2.167
 7222SOL    HW222566   6.340   0.520   2.083
 7223SOL     OW22567   2.716   2.169   1.304
 7223SOL    HW122568   2.674   2.114   1.232
 7223SOL    HW222569   2.729   2.263   1.271
 7224SOL     OW22570   5.666   2.068   4.516
 7224SOL    HW122571   5.726   2.146   4.534
 7224SOL    HW222572   5.710   2.007   4.450
 7225SOL     OW22573   1.097   5.906   5.998
 7225SOL    HW122574   1.057   5.877   5.911
 7225SOL    HW222575   1.147   5.830   6.039
 7226SOL     OW22576   0.188   0.581   0.381
 7226SOL    HW122577   0.153   0.493   0.351
 7226SOL    HW222578   0.260   0.567   0.450
 7227SOL     OW22579   0.975   2.228   0.816
 7227SOL    HW122580   0.892   2.182   0.849
 7227SOL    HW222581   0.991   2.200   0.721
 7228SOL     OW22582   0.298   0.830   1.927
 7228SOL    HW122583   0.338   0.757   1.871
 7228SOL    HW222584   0.216   0.865   1.882
 7229SOL     OW22585   0.823   6.869   4.813
 7229SOL    HW122586   0.762   6.878   4.735
 7229SOL    HW222587   0.826   6.955   4.864
 7230SOL     OW22588   5.185   5.275   4.469
 7230SOL    HW122589   5.117   5.209   4.438
 7230SOL    HW222590   5.156   5.315   4.556
 7231SOL     OW22591   4.746   6.747   0.124
 7231SOL    HW122592   4.844   6.735   0.108
 7231SOL    HW222593   4.717   6.686   0.197
 7232SOL     OW22594   5.033   5.431   3.235
 7232SOL    HW122595   5.075   5.340   3.239
 7232SOL    HW222596   5.102   5.498   3.208
 7233SOL     OW22597   6.942   2.479   4.373
 7233SOL    HW122598   6.892   2.488   4.287
 7233SOL    HW222599   6.894   2.528   4.446
 7234SOL     OW22600   5.521   3.099   3.753
 7234SOL    HW122601   5.484   3.175   3.808
 7234SOL    HW222602   5.558   3.030   3.815
 7235SOL     OW22603   6.462   4.336   3.386
 7235SOL    HW122604   6.425   4.245   3.373
 7235SOL    HW222605   6.475   4.381   3.298
 7236SOL     OW22606   2.844   1.724   3.069
 7236SOL    HW122607   2.933   1.750   3.106
 7236SOL    HW222608   2.824   1.629   3.095
 7237SOL     OW22609   6.271   6.726   5.048
 7237SOL    HW122610   6.202   6.747   4.978
 7237SOL    HW222611   6.224   6.704   5.134
 7238SOL     OW22612   2.670   2.016   1.089
 7238SOL    HW122613   2.676   2.100   1.035
 7238SOL    HW222614   2.579   1.976   1.079
 7239SOL     OW22615   2.375   1.204   3.148
 7239SOL    HW122616   2.361   1.292   3.194
 7239SOL    HW222617   2.401   1.220   3.053
 7240SOL     OW22618   2.540   4.308   6.066
 7240SOL    HW122619   2.537   4.356   6.154
 7240SOL    HW222620   2.447   4.286   6.037
 7241SOL     OW22621   3.290   0.474   0.061
 7241SOL    HW122622   3.246   0.388   0.088
 7241SOL    HW222623   3.384   0.474   0.094
 7242SOL     OW22624   6.785   5.710   0.086
 7242SOL    HW122625   6.860   5.760   0.129
 7242SOL    HW222626   6.699   5.760   0.099
 7243SOL     OW22627   0.169   4.613   6.054
 7243SOL    HW122628   0.166   4.630   5.955
 7243SOL    HW222629   0.177   4.700   6.102
 7244SOL     OW22630   5.081   0.786   0.746
 7244SOL    HW122631   5.061   0.704   0.692
 7244SOL    HW222632   5.176   0.784   0.775
 7245SOL     OW22633   0.473   2.144   5.320
 7245SOL    HW122634   0.470   2.079   5.245
 7245SOL    HW222635   0.434   2.102   5.402
 7246SOL     OW22636   5.947   6.801   5.066
 7246SOL    HW122637   5.870   6.750   5.027
 7246SOL    HW222638   5.913   6.869   5.130
 7247SOL     OW22639   3.446   6.563   3.514
 7247SOL    HW122640   3.489   6.650   3.538
 7247SOL    HW222641   3.363   6.581   3.461
 7248SOL     OW22642   3.707   1.041   3.019
 7248SOL    HW122643   3.714   1.043   2.919
 7248SOL    HW222644   3.697   0.946   3.050
 7249SOL     OW22645   5.419   5.018   1.527
 7249SOL    HW122646   5.446   4.925   1.502
 7249SOL    HW222647   5.436   5.032   1.625
 7250SOL     OW22648   4.075   5.504   6.014
 7250SOL    HW122649   4.101   5.522   5.919
 7250SOL    HW222650   4.081   5.590   6.066
 7251SOL     OW22651   0.255   6.564   5.433
 7251SOL    HW122652   0.214   6.494   5.375
 7251SOL    HW222653   0.355   6.562   5.424
 7252SOL     OW22654   3.661   3.085   3.663
 7252SOL    HW122655   3.622   3.053   3.750
 7252SOL    HW222656   3.757   3.059   3.658
 7253SOL     OW22657   2.248   6.933   0.358
 7253SOL    HW122658   2.257   6.891   0.448
 7253SOL    HW222659   2.151   6.947   0.338
 7254SOL     OW22660   4.590   5.333   5.042
 7254SOL    HW122661   4.688   5.345   5.024
 7254SOL    HW222662   4.538   5.405   4.996
 7255SOL     OW22663   3.498   3.809   0.731
 7255SOL    HW122664   3.399   3.827   0.732
 7255SOL    HW222665   3.514   3.711   0.719
 7256SOL     OW22666   5.067   4.818   4.403
 7256SOL    HW122667   5.012   4.897   4.429
 7256SOL    HW222668   5.164   4.840   4.415
 7257SOL     OW22669   4.790   2.967   3.933
 7257SOL    HW122670   4.800   2.994   3.837
 7257SOL    HW222671   4.754   2.873   3.937
 7258SOL     OW22672   4.096   1.491   3.534
 7258SOL    HW122673   4.073   1.399   3.503
 7258SOL    HW222674   4.055   1.507   3.624
 7259SOL     OW22675   3.869   3.883   1.654
 7259SOL    HW122676   3.883   3.981   1.673
 7259SOL    HW222677   3.795   3.848   1.712
 7260SOL     OW22678   3.404   1.956   3.007
 7260SOL    HW122679   3.468   2.020   2.965
 7260SOL    HW222680   3.388   1.879   2.945
 7261SOL     OW22681   2.484   2.942   0.837
 7261SOL    HW122682   2.418   2.967   0.907
 7261SOL    HW222683   2.465   2.849   0.804
 7262SOL     OW22684   5.379   1.997   4.260
 7262SOL    HW122685   5.438   1.923   4.293
 7262SOL    HW222686   5.389   2.077   4.320
 7263SOL     OW22687   0.298   5.910   2.524
 7263SOL    HW122688   0.230   5.885   2.455
 7263SOL    HW222689   0.251   5.939   2.608
 7264SOL     OW22690   6.190   1.355   6.923
 7264SOL    HW122691   6.271   1.392   6.968
 7264SOL    HW222692   6.195   1.370   6.825
 7265SOL     OW22693   5.854   5.477   5.815
 7265SOL    HW122694   5.761   5.455   5.786
 7265SOL    HW222695   5.860   5.574   5.837
 7266SOL     OW22696   4.154   0.785   0.679
 7266SOL    HW122697   4.100   0.738   0.608
 7266SOL    HW222698   4.133   0.882   0.678
 7267SOL     OW22699   0.057   4.880   5.625
 7267SOL    HW122700   0.139   4.930   5.600
 7267SOL    HW222701   0.014   4.843   5.543
 7268SOL     OW22702   4.516   4.907   3.496
 7268SOL    HW122703   4.473   4.973   3.435
 7268SOL    HW222704   4.562   4.956   3.571
 7269SOL     OW22705   6.738   6.197   1.065
 7269SOL    HW122706   6.729   6.097   1.059
 7269SOL    HW222707   6.719   6.226   1.159
 7270SOL     OW22708   1.156   2.635   3.679
 7270SOL    HW122709   1.110   2.563   3.731
 7270SOL    HW222710   1.253   2.637   3.704
 7271SOL     OW22711   6.748   4.794   4.219
 7271SOL    HW122712   6.814   4.721   4.203
 7271SOL    HW222713   6.655   4.757   4.212
 7272SOL     OW22714   5.754   4.522   2.417
 7272SOL    HW122715   5.748   4.422   2.426
 7272SOL    HW222716   5.811   4.545   2.339
 7273SOL     OW22717   5.521   4.496   2.134
 7273SOL    HW122718   5.582   4.458   2.064
 7273SOL    HW222719   5.483   4.421   2.189
 7274SOL     OW22720   0.675   6.744   5.904
 7274SOL    HW122721   0.640   6.654   5.879
 7274SOL    HW222722   0.770   6.736   5.933
 7275SOL     OW22723   6.887   0.980   1.655
 7275SOL    HW122724   6.894   1.034   1.570
 7275SOL    HW222725   6.791   0.955   1.670
 7276SOL     OW22726   3.295   1.466   3.715
 7276SOL    HW122727   3.218   1.438   3.772
 7276SOL    HW222728   3.354   1.529   3.766
 7277SOL     OW22729   5.383   1.047   4.950
 7277SOL    HW122730   5.286   1.054   4.927
 7277SOL    HW222731   5.423   0.970   4.900
 7278SOL     OW22732   3.103   2.060   3.066
 7278SOL    HW122733   3.012   2.101   3.063
 7278SOL    HW222734   3.142   2.059   2.974
 7279SOL     OW22735   4.357   3.711   6.863
 7279SOL    HW122736   4.297   3.658   6.803
 7279SOL    HW222737   4.304   3.781   6.910
 7280SOL     OW22738   6.178   2.180   5.244
 7280SOL    HW122739   6.127   2.167   5.329
 7280SOL    HW222740   6.152   2.268   5.203
 7281SOL     OW22741   2.601   0.307   0.307
 7281SOL    HW122742   2.617   0.363   0.225
 7281SOL    HW222743   2.512   0.263   0.300
 7282SOL     OW22744   6.775   6.454   0.935
 7282SOL    HW122745   6.794   6.519   1.007
 7282SOL    HW222746   6.753   6.365   0.975
 7283SOL     OW22747   2.457   6.383   2.247
 7283SOL    HW122748   2.527   6.452   2.268
 7283SOL    HW222749   2.483   6.334   2.164
 7284SOL     OW22750   6.481   3.120   4.405
 7284SOL    HW122751   6.517   3.173   4.327
 7284SOL    HW222752   6.459   3.182   4.480
 7285SOL     OW22753   5.198   3.678   1.863
 7285SOL    HW122754   5.121   3.661   1.925
 7285SOL    HW222755   5.284   3.667   1.913
 7286SOL     OW22756   0.966   1.301   0.783
 7286SOL    HW122757   1.040   1.255   0.831
 7286SOL    HW222758   0.987   1.306   0.685
 7287SOL     OW22759   6.747   3.219   4.279
 7287SOL    HW122760   6.703   3.299   4.320
 7287SOL    HW222761   6.840   3.210   4.316
 7288SOL     OW22762   1.468   2.931   2.176
 7288SOL    HW122763   1.472   2.874   2.093
 7288SOL    HW222764   1.538   2.901   2.240
 7289SOL     OW22765   6.531   2.696   2.433
 7289SOL    HW122766   6.445   2.662   2.395
 7289SOL    HW222767   6.527   2.795   2.441
 7290SOL     OW22768   2.975   1.052   5.129
 7290SOL    HW122769   3.036   1.131   5.122
 7290SOL    HW222770   2.895   1.076   5.183
 7291SOL     OW22771   3.715   6.683   0.581
 7291SOL    HW122772   3.654   6.620   0.628
 7291SOL    HW222773   3.727   6.765   0.636
 7292SOL     OW22774   2.085   0.047   3.334
 7292SOL    HW122775   2.020   6.991   3.324
 7292SOL    HW222776   2.157   0.038   3.266
 7293SOL     OW22777   1.846   1.130   6.137
 7293SOL    HW122778   1.808   1.066   6.205
 7293SOL    HW222779   1.827   1.224   6.166
 7294SOL     OW22780   2.911   4.499   1.232
 7294SOL    HW122781   2.948   4.501   1.139
 7294SOL    HW222782   2.978   4.459   1.294
 7295SOL     OW22783   6.844   4.127   1.388
 7295SOL    HW122784   6.853   4.162   1.295
 7295SOL    HW222785   6.891   4.188   1.451
 7296SOL     OW22786   4.267   5.135   2.893
 7296SOL    HW122787   4.299   5.213   2.946
 7296SOL    HW222788   4.342   5.100   2.836
 7297SOL     OW22789   2.483   6.972   2.434
 7297SOL    HW122790   2.417   6.920   2.379
 7297SOL    HW222791   2.505   0.037   2.385
 7298SOL     OW22792   5.454   5.273   0.150
 7298SOL    HW122793   5.493   5.351   0.199
 7298SOL    HW222794   5.525   5.228   0.096
 7299SOL     OW22795   0.757   1.345   0.958
 7299SOL    HW122796   0.832   1.358   0.894
 7299SOL    HW222797   0.685   1.412   0.939
 7300SOL     OW22798   1.148   5.055   1.643
 7300SOL    HW122799   1.214   4.985   1.670
 7300SOL    HW222800   1.185   5.108   1.567
 7301SOL     OW22801   6.969   0.991   5.319
 7301SOL    HW122802   6.924   0.989   5.229
 7301SOL    HW222803   6.959   0.901   5.362
 7302SOL     OW22804   6.568   1.680   4.830
 7302SOL    HW122805   6.542   1.616   4.757
 7302SOL    HW222806   6.500   1.677   4.902
 7303SOL     OW22807   3.307   1.027   6.857
 7303SOL    HW122808   3.401   1.054   6.836
 7303SOL    HW222809   3.306   0.933   6.893
 7304SOL     OW22810   2.326   5.227   1.651
 7304SOL    HW122811   2.256   5.244   1.720
 7304SOL    HW222812   2.375   5.142   1.672
 7305SOL     OW22813   5.664   2.454   1.635
 7305SOL    HW122814   5.669   2.394   1.555
 7305SOL    HW222815   5.593   2.421   1.697
 7306SOL     OW22816   3.602   1.544   1.944
 7306SOL    HW122817   3.583   1.620   1.881
 7306SOL    HW222818   3.516   1.511   1.983
 7307SOL     OW22819   3.931   6.654   2.442
 7307SOL    HW122820   3.963   6.697   2.526
 7307SOL    HW222821   4.009   6.634   2.383
 7308SOL     OW22822   0.184   1.426   3.214
 7308SOL    HW122823   0.086   1.410   3.207
 7308SOL    HW222824   0.201   1.494   3.285
 7309SOL     OW22825   2.231   6.136   2.131
 7309SOL    HW122826   2.161   6.080   2.087
 7309SOL    HW222827   2.191   6.183   2.210
 7310SOL     OW22828   1.501   3.675   5.607
 7310SOL    HW122829   1.532   3.648   5.516
 7310SOL    HW222830   1.575   3.663   5.673
 7311SOL     OW22831   1.009   0.221   0.461
 7311SOL    HW122832   1.018   0.210   0.362
 7311SOL    HW222833   0.920   0.187   0.490
 7312SOL     OW22834   0.578   1.347   4.826
 7312SOL    HW122835   0.670   1.340   4.787
 7312SOL    HW222836   0.526   1.264   4.805
 7313SOL     OW22837   2.609   1.607   0.888
 7313SOL    HW122838   2.548   1.532   0.912
 7313SOL    HW222839   2.672   1.577   0.816
 7314SOL     OW22840   0.097   3.201   6.421
 7314SOL    HW122841   0.061   3.289   6.392
 7314SOL    HW222842   0.058   3.128   6.364
 7315SOL     OW22843   6.097   5.489   2.227
 7315SOL    HW122844   6.062   5.524   2.314
 7315SOL    HW222845   6.140   5.400   2.242
 7316SOL     OW22846   3.210   2.224   6.108
 7316SOL    HW122847   3.144   2.190   6.174
 7316SOL    HW222848   3.169   2.297   6.054
 7317SOL     OW22849   3.866   1.276   2.218
 7317SOL    HW122850   3.832   1.192   2.260
 7317SOL    HW222851   3.837   1.280   2.122
 7318SOL     OW22852   3.535   6.574   2.087
 7318SOL    HW122853   3.481   6.643   2.134
 7318SOL    HW222854   3.615   6.551   2.142
 7319SOL     OW22855   6.120   3.278   6.361
 7319SOL    HW122856   6.031   3.270   6.318
 7319SOL    HW222857   6.122   3.359   6.420
 7320SOL     OW22858   0.145   3.713   0.629
 7320SOL    HW122859   0.152   3.812   0.642
 7320SOL    HW222860   0.087   3.674   0.701
 7321SOL     OW22861   1.697   6.488   6.034
 7321SOL    HW122862   1.599   6.472   6.025
 7321SOL    HW222863   1.713   6.582   6.064
 7322SOL     OW22864   0.398   3.203   3.198
 7322SOL    HW122865   0.444   3.120   3.229
 7322SOL    HW222866   0.377   3.195   3.100
 7323SOL     OW22867   2.821   1.804   1.139
 7323SOL    HW122868   2.753   1.866   1.099
 7323SOL    HW222869   2.832   1.826   1.236
 7324SOL     OW22870   5.942   4.320   2.635
 7324SOL    HW122871   5.864   4.269   2.673
 7324SOL    HW222872   6.001   4.258   2.584
 7325SOL     OW22873   2.677   0.357   5.581
 7325SOL    HW122874   2.644   0.450   5.566
 7325SOL    HW222875   2.748   0.335   5.514
 7326SOL     OW22876   4.368   0.667   6.517
 7326SOL    HW122877   4.305   0.731   6.561
 7326SOL    HW222878   4.316   0.601   6.462
 7327SOL     OW22879   5.665   3.401   4.087
 7327SOL    HW122880   5.733   3.387   4.015
 7327SOL    HW222881   5.707   3.452   4.162
 7328SOL     OW22882   3.901   6.245   6.064
 7328SOL    HW122883   3.833   6.172   6.064
 7328SOL    HW222884   3.982   6.217   6.116
 7329SOL     OW22885   0.777   2.525   0.019
 7329SOL    HW122886   0.797   2.464   6.962
 7329SOL    HW222887   0.844   2.510   0.092
 7330SOL     OW22888   3.013   2.897   1.426
 7330SOL    HW122889   3.113   2.896   1.434
 7330SOL    HW222890   2.973   2.912   1.517
 7331SOL     OW22891   4.820   0.176   2.317
 7331SOL    HW122892   4.820   0.223   2.405
 7331SOL    HW222893   4.734   0.127   2.304
 7332SOL     OW22894   4.053   4.335   0.087
 7332SOL    HW122895   3.964   4.366   0.053
 7332SOL    HW222896   4.125   4.375   0.031
 7333SOL     OW22897   6.159   3.063   3.079
 7333SOL    HW122898   6.067   3.087   3.108
 7333SOL    HW222899   6.213   3.033   3.158
 7334SOL     OW22900   2.735   5.525   5.637
 7334SOL    HW122901   2.682   5.579   5.572
 7334SOL    HW222902   2.831   5.523   5.608
 7335SOL     OW22903   0.356   3.131   2.908
 7335SOL    HW122904   0.396   3.057   2.853
 7335SOL    HW222905   0.262   3.146   2.880
 7336SOL     OW22906   2.385   6.493   1.416
 7336SOL    HW122907   2.474   6.512   1.376
 7336SOL    HW222908   2.395   6.471   1.513
 7337SOL     OW22909   2.959   2.951   1.685
 7337SOL    HW122910   2.872   2.991   1.654
 7337SOL    HW222911   2.942   2.861   1.725
 7338SOL     OW22912   6.339   2.239   1.497
 7338SOL    HW122913   6.398   2.310   1.536
 7338SOL    HW222914   6.345   2.156   1.552
 7339SOL     OW22915   0.178   6.761   5.635
 7339SOL    HW122916   0.208   6.842   5.585
 7339SOL    HW222917   0.202   6.679   5.584
 7340SOL     OW22918   4.279   1.726   6.617
 7340SOL    HW122919   4.291   1.817   6.576
 7340SOL    HW222920   4.349   1.664   6.582
 7341SOL     OW22921   1.368   5.161   5.060
 7341SOL    HW122922   1.326   5.221   5.128
 7341SOL    HW222923   1.374   5.209   4.972
 7342SOL     OW22924   6.393   0.360   0.392
 7342SOL    HW122925   6.390   0.460   0.401
 7342SOL    HW222926   6.478   0.326   0.432
 7343SOL     OW22927   5.480   3.049   2.370
 7343SOL    HW122928   5.531   3.045   2.456
 7343SOL    HW222929   5.534   3.006   2.297
 7344SOL     OW22930   1.892   0.111   6.430
 7344SOL    HW122931   1.862   0.059   6.350
 7344SOL    HW222932   1.812   0.138   6.484
 7345SOL     OW22933   4.551   5.381   5.663
 7345SOL    HW122934   4.461   5.396   5.623
 7345SOL    HW222935   4.561   5.285   5.689
 7346SOL     OW22936   3.814   3.985   0.985
 7346SOL    HW122937   3.880   4.057   0.963
 7346SOL    HW222938   3.819   3.913   0.916
 7347SOL     OW22939   6.687   2.384   1.914
 7347SOL    HW122940   6.726   2.427   1.833
 7347SOL    HW222941   6.653   2.454   1.977
 7348SOL     OW22942   1.558   3.882   3.659
 7348SOL    HW122943   1.588   3.924   3.573
 7348SOL    HW222944   1.461   3.860   3.653
 7349SOL     OW22945   3.690   1.726   1.565
 7349SOL    HW122946   3.626   1.761   1.633
 7349SOL    HW222947   3.643   1.664   1.502
 7350SOL     OW22948   0.640   3.036   3.822
 7350SOL    HW122949   0.561   2.979   3.798
 7350SOL    HW222950   0.720   2.978   3.837
 7351SOL     OW22951   4.241   5.091   6.525
 7351SOL    HW122952   4.312   5.161   6.537
 7351SOL    HW222953   4.195   5.075   6.612
 7352SOL     OW22954   1.463   2.439   3.480
 7352SOL    HW122955   1.393   2.373   3.508
 7352SOL    HW222956   1.529   2.394   3.420
 7353SOL     OW22957   0.593   1.068   5.197
 7353SOL    HW122958   0.652   1.111   5.128
 7353SOL    HW222959   0.587   0.970   5.180
 7354SOL     OW22960   0.408   0.705   6.559
 7354SOL    HW122961   0.507   0.693   6.573
 7354SOL    HW222962   0.394   0.761   6.478
 7355SOL     OW22963   1.925   6.294   0.160
 7355SOL    HW122964   1.843   6.241   0.181
 7355SOL    HW222965   1.907   6.391   0.173
 7356SOL     OW22966   5.092   2.343   6.466
 7356SOL    HW122967   5.149   2.328   6.546
 7356SOL    HW222968   5.150   2.346   6.384
 7357SOL     OW22969   4.348   1.022   1.286
 7357SOL    HW122970   4.275   0.989   1.347
 7357SOL    HW222971   4.319   1.012   1.191
 7358SOL     OW22972   2.199   2.044   2.244
 7358SOL    HW122973   2.297   2.042   2.263
 7358SOL    HW222974   2.183   2.036   2.146
 7359SOL     OW22975   3.717   2.282   1.022
 7359SOL    HW122976   3.797   2.315   1.071
 7359SOL    HW222977   3.695   2.345   0.948
 7360SOL     OW22978   2.730   2.092   5.464
 7360SOL    HW122979   2.677   2.091   5.379
 7360SOL    HW222980   2.765   2.001   5.483
 7361SOL     OW22981   4.823   6.340   2.069
 7361SOL    HW122982   4.817   6.416   2.005
 7361SOL    HW222983   4.920   6.316   2.083
 7362SOL     OW22984   0.255   6.694   4.622
 7362SOL    HW122985   0.337   6.640   4.603
 7362SOL    HW222986   0.263   6.736   4.713
 7363SOL     OW22987   4.198   1.969   0.397
 7363SOL    HW122988   4.277   1.915   0.368
 7363SOL    HW222989   4.195   1.973   0.497
 7364SOL     OW22990   3.893   6.814   1.132
 7364SOL    HW122991   3.927   6.882   1.197
 7364SOL    HW222992   3.921   6.723   1.161
 7365SOL     OW22993   1.824   5.714   2.019
 7365SOL    HW122994   1.776   5.744   2.102
 7365SOL    HW222995   1.921   5.737   2.026
 7366SOL     OW22996   1.442   5.658   0.692
 7366SOL    HW122997   1.402   5.691   0.606
 7366SOL    HW222998   1.372   5.658   0.763
 7367SOL     OW22999   4.060   3.834   1.252
 7367SOL    HW123000   4.021   3.785   1.174
 7367SOL    HW223001   3.987   3.880   1.303
 7368SOL     OW23002   3.285   2.903   4.096
 7368SOL    HW123003   3.217   2.881   4.026
 7368SOL    HW223004   3.273   2.998   4.126
 7369SOL     OW23005   5.123   3.190   0.755
 7369SOL    HW123006   5.189   3.265   0.755
 7369SOL    HW223007   5.085   3.179   0.663
 7370SOL     OW23008   2.063   0.843   5.690
 7370SOL    HW123009   2.099   0.831   5.597
 7370SOL    HW223010   2.138   0.865   5.752
 7371SOL     OW23011   2.945   5.658   4.263
 7371SOL    HW123012   3.025   5.714   4.281
 7371SOL    HW223013   2.974   5.570   4.224
 7372SOL     OW23014   2.754   0.640   5.337
 7372SOL    HW123015   2.678   0.654   5.273
 7372SOL    HW223016   2.828   0.704   5.314
 7373SOL     OW23017   4.886   1.644   3.747
 7373SOL    HW123018   4.906   1.547   3.759
 7373SOL    HW223019   4.796   1.655   3.707
 7374SOL     OW23020   2.784   2.663   5.451
 7374SOL    HW123021   2.834   2.748   5.434
 7374SOL    HW223022   2.737   2.635   5.367
 7375SOL     OW23023   1.819   2.101   3.756
 7375SOL    HW123024   1.724   2.096   3.788
 7375SOL    HW223025   1.824   2.075   3.660
 7376SOL     OW23026   3.995   2.091   0.258
 7376SOL    HW123027   3.930   2.031   0.305
 7376SOL    HW223028   4.087   2.054   0.267
 7377SOL     OW23029   4.503   5.946   1.750
 7377SOL    HW123030   4.527   5.884   1.825
 7377SOL    HW223031   4.471   6.032   1.788
 7378SOL     OW23032   0.097   2.268   4.046
 7378SOL    HW123033   0.022   2.272   4.112
 7378SOL    HW223034   0.077   2.329   3.969
 7379SOL     OW23035   4.287   2.016   3.196
 7379SOL    HW123036   4.193   2.017   3.163
 7379SOL    HW223037   4.294   1.954   3.274
 7380SOL     OW23038   0.083   3.309   5.485
 7380SOL    HW123039   0.139   3.238   5.444
 7380SOL    HW223040   7.014   3.313   5.439
 7381SOL     OW23041   5.020   3.279   2.550
 7381SOL    HW123042   5.098   3.237   2.503
 7381SOL    HW223043   5.007   3.372   2.516
 7382SOL     OW23044   0.088   5.381   5.632
 7382SOL    HW123045   0.098   5.312   5.704
 7382SOL    HW223046   7.016   5.374   5.592
 7383SOL     OW23047   0.435   6.994   2.441
 7383SOL    HW123048   0.394   0.047   2.496
 7383SOL    HW223049   0.399   6.999   2.348
 7384SOL     OW23050   4.730   0.762   1.939
 7384SOL    HW123051   4.756   0.666   1.944
 7384SOL    HW223052   4.662   0.775   1.867
 7385SOL     OW23053   3.747   6.533   2.256
 7385SOL    HW123054   3.798   6.568   2.334
 7385SOL    HW223055   3.789   6.448   2.224
 7386SOL     OW23056   0.326   2.879   5.250
 7386SOL    HW123057   0.406   2.922   5.292
 7386SOL    HW223058   0.354   2.793   5.208
 7387SOL     OW23059   4.184   6.928   4.910
 7387SOL    HW123060   4.129   6.981   4.846
 7387SOL    HW223061   4.156   6.832   4.906
 7388SOL     OW23062   6.856   5.736   3.819
 7388SOL    HW123063   6.871   5.654   3.764
 7388SOL    HW223064   6.862   5.817   3.761
 7389SOL     OW23065   1.055   4.813   6.498
 7389SOL    HW123066   1.097   4.735   6.451
 7389SOL    HW223067   0.957   4.815   6.478
 7390SOL     OW23068   1.557   1.637   6.581
 7390SOL    HW123069   1.506   1.551   6.589
 7390SOL    HW223070   1.595   1.661   6.670
 7391SOL     OW23071   4.821   4.492   5.039
 7391SOL    HW123072   4.746   4.434   5.007
 7391SOL    HW223073   4.838   4.565   4.973
 7392SOL     OW23074   2.824   6.026   6.476
 7392SOL    HW123075   2.824   6.013   6.377
 7392SOL    HW223076   2.806   6.122   6.497
 7393SOL     OW23077   5.995   5.596   1.596
 7393SOL    HW123078   5.993   5.693   1.573
 7393SOL    HW223079   5.958   5.542   1.520
 7394SOL     OW23080   3.136   2.684   6.188
 7394SOL    HW123081   3.089   2.722   6.108
 7394SOL    HW223082   3.068   2.654   6.254
 7395SOL     OW23083   1.324   1.219   0.037
 7395SOL    HW123084   1.385   1.253   6.985
 7395SOL    HW223085   1.229   1.222   0.005
 7396SOL     OW23086   1.195   0.843   6.984
 7396SOL    HW123087   1.283   0.882   6.957
 7396SOL    HW223088   1.197   0.819   0.061
 7397SOL     OW23089   5.313   5.059   4.638
 7397SOL    HW123090   5.330   5.015   4.550
 7397SOL    HW223091   5.225   5.107   4.634
 7398SOL     OW23092   3.086   4.877   4.154
 7398SOL    HW123093   2.995   4.835   4.149
 7398SOL    HW223094   3.127   4.879   4.063
 7399SOL     OW23095   0.450   3.450   5.308
 7399SOL    HW123096   0.545   3.480   5.311
 7399SOL    HW223097   0.398   3.500   5.377
 7400SOL     OW23098   3.111   3.748   6.741
 7400SOL    HW123099   3.174   3.796   6.801
 7400SOL    HW223100   3.126   3.777   6.646
 7401SOL     OW23101   0.491   1.426   3.606
 7401SOL    HW123102   0.513   1.382   3.694
 7401SOL    HW223103   0.567   1.412   3.542
 7402SOL     OW23104   1.663   6.283   4.565
 7402SOL    HW123105   1.590   6.348   4.587
 7402SOL    HW223106   1.732   6.285   4.637
 7403SOL     OW23107   1.707   3.506   2.724
 7403SOL    HW123108   1.650   3.434   2.764
 7403SOL    HW223109   1.734   3.479   2.632
 7404SOL     OW23110   2.082   5.991   1.654
 7404SOL    HW123111   2.121   5.900   1.663
 7404SOL    HW223112   2.108   6.030   1.565
 7405SOL     OW23113   1.586   5.069   4.717
 7405SOL    HW123114   1.622   5.012   4.643
 7405SOL    HW223115   1.650   5.144   4.736
 7406SOL     OW23116   1.694   3.839   2.421
 7406SOL    HW123117   1.636   3.820   2.342
 7406SOL    HW223118   1.637   3.856   2.501
 7407SOL     OW23119   0.097   6.004   4.749
 7407SOL    HW123120   0.144   6.071   4.692
 7407SOL    HW223121   0.006   5.986   4.711
 7408SOL     OW23122   1.102   4.055   5.461
 7408SOL    HW123123   1.039   4.034   5.536
 7408SOL    HW223124   1.173   3.986   5.456
 7409SOL     OW23125   0.344   0.411   4.346
 7409SOL    HW123126   0.272   0.349   4.316
 7409SOL    HW223127   0.433   0.365   4.339
 7410SOL     OW23128   6.949   4.459   0.866
 7410SOL    HW123129   6.983   4.472   0.959
 7410SOL    HW223130   6.901   4.541   0.836
 7411SOL     OW23131   3.276   6.405   4.562
 7411SOL    HW123132   3.343   6.354   4.508
 7411SOL    HW223133   3.285   6.380   4.658
 7412SOL     OW23134   4.029   1.215   1.776
 7412SOL    HW123135   4.088   1.289   1.809
 7412SOL    HW223136   4.079   1.160   1.710
 7413SOL     OW23137   6.630   5.210   4.352
 7413SOL    HW123138   6.712   5.247   4.395
 7413SOL    HW223139   6.551   5.266   4.377
 7414SOL     OW23140   0.214   0.166   3.076
 7414SOL    HW123141   0.275   0.091   3.048
 7414SOL    HW223142   0.229   0.245   3.016
 7415SOL     OW23143   0.667   4.079   3.504
 7415SOL    HW123144   0.635   4.088   3.598
 7415SOL    HW223145   0.593   4.106   3.441
 7416SOL     OW23146   3.056   0.428   4.234
 7416SOL    HW123147   2.962   0.459   4.220
 7416SOL    HW223148   3.066   0.394   4.328
 7417SOL     OW23149   1.625   0.234   6.425
 7417SOL    HW123150   1.536   0.188   6.419
 7417SOL    HW223151   1.672   0.226   6.338
 7418SOL     OW23152   4.428   4.760   1.278
 7418SOL    HW123153   4.358   4.691   1.300
 7418SOL    HW223154   4.383   4.844   1.248
 7419SOL     OW23155   6.242   2.594   4.608
 7419SOL    HW123156   6.235   2.606   4.707
 7419SOL    HW223157   6.338   2.600   4.580
 7420SOL     OW23158   6.357   6.476   2.044
 7420SOL    HW123159   6.400   6.391   2.071
 7420SOL    HW223160   6.365   6.542   2.119
 7421SOL     OW23161   3.267   3.273   2.015
 7421SOL    HW123162   3.230   3.204   1.952
 7421SOL    HW223163   3.285   3.231   2.104
 7422SOL     OW23164   0.355   3.811   2.292
 7422SOL    HW123165   0.342   3.909   2.301
 7422SOL    HW223166   0.286   3.773   2.231
 7423SOL     OW23167   6.645   3.657   6.182
 7423SOL    HW123168   6.716   3.652   6.112
 7423SOL    HW223169   6.671   3.726   6.250
 7424SOL     OW23170   6.432   1.065   4.170
 7424SOL    HW123171   6.462   1.156   4.199
 7424SOL    HW223172   6.349   1.073   4.116
 7425SOL     OW23173   4.465   5.391   6.339
 7425SOL    HW123174   4.460   5.447   6.422
 7425SOL    HW223175   4.372   5.377   6.303
 7426SOL     OW23176   0.974   2.105   6.451
 7426SOL    HW123177   0.933   2.135   6.364
 7426SOL    HW223178   0.993   2.185   6.508
 7427SOL     OW23179   3.047   6.000   4.477
 7427SOL    HW123180   3.089   6.051   4.552
 7427SOL    HW223181   3.018   5.911   4.510
 7428SOL     OW23182   3.327   1.476   4.888
 7428SOL    HW123183   3.393   1.436   4.952
 7428SOL    HW223184   3.374   1.541   4.828
 7429SOL     OW23185   5.455   0.483   3.401
 7429SOL    HW123186   5.365   0.460   3.366
 7429SOL    HW223187   5.484   0.412   3.466
 7430SOL     OW23188   6.543   4.480   6.260
 7430SOL    HW123189   6.619   4.542   6.240
 7430SOL    HW223190   6.578   4.386   6.267
 7431SOL     OW23191   0.586   3.636   2.343
 7431SOL    HW123192   0.518   3.699   2.308
 7431SOL    HW223193   0.570   3.545   2.305
 7432SOL     OW23194   0.095   6.864   2.784
 7432SOL    HW123195   0.045   6.855   2.870
 7432SOL    HW223196   0.061   6.943   2.733
 7433SOL     OW23197   6.691   5.582   0.784
 7433SOL    HW123198   6.732   5.663   0.743
 7433SOL    HW223199   6.764   5.517   0.808
 7434SOL     OW23200   4.083   1.489   6.474
 7434SOL    HW123201   4.073   1.582   6.439
 7434SOL    HW223202   4.108   1.492   6.571
 7435SOL     OW23203   3.605   6.352   6.712
 7435SOL    HW123204   3.615   6.450   6.692
 7435SOL    HW223205   3.508   6.331   6.725
 7436SOL     OW23206   5.612   3.334   6.405
 7436SOL    HW123207   5.607   3.321   6.504
 7436SOL    HW223208   5.645   3.250   6.363
 7437SOL     OW23209   6.943   6.062   6.859
 7437SOL    HW123210   0.001   6.046   6.919
 7437SOL    HW223211   6.948   5.999   6.781
 7438SOL     OW23212   0.829   4.885   0.438
 7438SOL    HW123213   0.912   4.941   0.440
 7438SOL    HW223214   0.845   4.801   0.489
 7439SOL     OW23215   1.868   6.543   4.502
 7439SOL    HW123216   1.949   6.562   4.446
 7439SOL    HW223217   1.891   6.474   4.570
 7440SOL     OW23218   0.982   3.010   4.385
 7440SOL    HW123219   1.042   3.020   4.464
 7440SOL    HW223220   0.892   3.048   4.406
 7441SOL     OW23221   5.779   5.985   4.748
 7441SOL    HW123222   5.819   5.933   4.673
 7441SOL    HW223223   5.691   5.944   4.774
 7442SOL     OW23224   1.395   0.957   6.338
 7442SOL    HW123225   1.386   1.018   6.259
 7442SOL    HW223226   1.354   0.868   6.316
 7443SOL     OW23227   0.221   1.198   1.308
 7443SOL    HW123228   0.272   1.260   1.368
 7443SOL    HW223229   0.277   1.117   1.288
 7444SOL     OW23230   6.649   3.521   5.433
 7444SOL    HW123231   6.591   3.448   5.395
 7444SOL    HW223232   6.714   3.551   5.363
 7445SOL     OW23233   3.224   0.968   1.363
 7445SOL    HW123234   3.291   1.034   1.329
 7445SOL    HW223235   3.233   0.958   1.462
 7446SOL     OW23236   5.444   4.389   0.407
 7446SOL    HW123237   5.472   4.348   0.493
 7446SOL    HW223238   5.499   4.470   0.388
 7447SOL     OW23239   1.645   2.961   5.435
 7447SOL    HW123240   1.608   3.045   5.476
 7447SOL    HW223241   1.722   2.928   5.490
 7448SOL     OW23242   5.305   6.335   5.720
 7448SOL    HW123243   5.233   6.360   5.654
 7448SOL    HW223244   5.354   6.417   5.748
 7449SOL     OW23245   5.578   2.699   2.513
 7449SOL    HW123246   5.621   2.778   2.556
 7449SOL    HW223247   5.637   2.619   2.521
 7450SOL     OW23248   5.016   2.012   4.093
 7450SOL    HW123249   4.986   1.921   4.064
 7450SOL    HW223250   4.965   2.082   4.043
 7451SOL     OW23251   2.404   0.314   3.082
 7451SOL    HW123252   2.402   0.360   3.170
 7451SOL    HW223253   2.488   0.261   3.074
 7452SOL     OW23254   0.851   6.605   4.535
 7452SOL    HW123255   0.788   6.620   4.612
 7452SOL    HW223256   0.855   6.508   4.514
 7453SOL     OW23257   4.851   5.616   6.447
 7453SOL    HW123258   4.947   5.603   6.469
 7453SOL    HW223259   4.814   5.531   6.408
 7454SOL     OW23260   1.223   2.956   2.028
 7454SOL    HW123261   1.287   2.908   1.968
 7454SOL    HW223262   1.215   2.906   2.114
 7455SOL     OW23263   6.902   1.515   1.775
 7455SOL    HW123264   6.839   1.439   1.762
 7455SOL    HW223265   6.866   1.596   1.730
 7456SOL     OW23266   0.566   2.089   4.289
 7456SOL    HW123267   0.509   2.102   4.207
 7456SOL    HW223268   0.550   1.998   4.326
 7457SOL     OW23269   3.693   0.711   5.895
 7457SOL    HW123270   3.690   0.624   5.847
 7457SOL    HW223271   3.718   0.696   5.991
 7458SOL     OW23272   1.752   0.332   6.160
 7458SOL    HW123273   1.774   0.419   6.204
 7458SOL    HW223274   1.813   0.317   6.083
 7459SOL     OW23275   4.737   0.233   0.477
 7459SOL    HW123276   4.784   0.305   0.426
 7459SOL    HW223277   4.739   0.147   0.425
 7460SOL     OW23278   1.387   4.449   1.272
 7460SOL    HW123279   1.430   4.506   1.342
 7460SOL    HW223280   1.321   4.504   1.222
 7461SOL     OW23281   5.488   1.259   6.185
 7461SOL    HW123282   5.511   1.342   6.134
 7461SOL    HW223283   5.424   1.203   6.132
 7462SOL     OW23284   2.059   2.834   2.214
 7462SOL    HW123285   2.102   2.925   2.209
 7462SOL    HW223286   2.120   2.771   2.261
 7463SOL     OW23287   3.494   4.480   1.379
 7463SOL    HW123288   3.569   4.414   1.388
 7463SOL    HW223289   3.469   4.489   1.283
 7464SOL     OW23290   3.282   6.838   6.630
 7464SOL    HW123291   3.232   6.894   6.565
 7464SOL    HW223292   3.371   6.880   6.650
 7465SOL     OW23293   1.761   0.150   0.123
 7465SOL    HW123294   1.770   0.167   0.025
 7465SOL    HW223295   1.754   0.051   0.139
 7466SOL     OW23296   0.913   0.095   6.879
 7466SOL    HW123297   0.831   0.055   6.920
 7466SOL    HW223298   0.895   0.190   6.854
 7467SOL     OW23299   6.668   1.240   0.564
 7467SOL    HW123300   6.580   1.285   0.550
 7467SOL    HW223301   6.682   1.173   0.491
 7468SOL     OW23302   5.338   3.101   2.705
 7468SOL    HW123303   5.282   3.075   2.627
 7468SOL    HW223304   5.434   3.077   2.687
 7469SOL     OW23305   0.394   0.144   0.538
 7469SOL    HW123306   0.451   0.110   0.612
 7469SOL    HW223307   0.321   0.202   0.576
 7470SOL     OW23308   0.475   3.086   4.416
 7470SOL    HW123309   0.531   3.064   4.337
 7470SOL    HW223310   0.438   3.179   4.405
 7471SOL     OW23311   5.781   6.366   5.443
 7471SOL    HW123312   5.744   6.325   5.360
 7471SOL    HW223313   5.759   6.307   5.522
 7472SOL     OW23314   5.815   6.825   4.360
 7472SOL    HW123315   5.908   6.802   4.330
 7472SOL    HW223316   5.764   6.863   4.284
 7473SOL     OW23317   0.494   4.125   3.025
 7473SOL    HW123318   0.581   4.117   2.977
 7473SOL    HW223319   0.493   4.063   3.103
 7474SOL     OW23320   2.400   1.682   4.986
 7474SOL    HW123321   2.403   1.782   4.986
 7474SOL    HW223322   2.482   1.647   5.031
 7475SOL     OW23323   3.446   1.746   2.812
 7475SOL    HW123324   3.354   1.706   2.821
 7475SOL    HW223325   3.441   1.831   2.759
 7476SOL     OW23326   3.303   6.164   4.324
 7476SOL    HW123327   3.212   6.130   4.349
 7476SOL    HW223328   3.295   6.229   4.248
 7477SOL     OW23329   5.914   1.319   4.134
 7477SOL    HW123330   5.914   1.258   4.213
 7477SOL    HW223331   6.007   1.330   4.100
 7478SOL     OW23332   4.070   4.590   6.732
 7478SOL    HW123333   4.123   4.581   6.816
 7478SOL    HW223334   3.979   4.626   6.752
 7479SOL     OW23335   4.342   2.500   1.001
 7479SOL    HW123336   4.291   2.424   0.962
 7479SOL    HW223337   4.377   2.559   0.928
 7480SOL     OW23338   7.007   4.259   1.608
 7480SOL    HW123339   6.980   4.235   1.702
 7480SOL    HW223340   0.075   4.307   1.610
 7481SOL     OW23341   5.764   5.147   1.949
 7481SOL    HW123342   5.847   5.194   1.978
 7481SOL    HW223343   5.685   5.188   1.995
 7482SOL     OW23344   5.247   1.679   2.902
 7482SOL    HW123345   5.256   1.708   2.807
 7482SOL    HW223346   5.166   1.721   2.942
 7483SOL     OW23347   4.468   2.270   5.016
 7483SOL    HW123348   4.566   2.270   4.999
 7483SOL    HW223349   4.437   2.177   5.033
 7484SOL     OW23350   0.348   0.180   2.609
 7484SOL    HW123351   0.383   0.183   2.702
 7484SOL    HW223352   0.285   0.256   2.594
 7485SOL     OW23353   3.157   6.354   4.964
 7485SOL    HW123354   3.150   6.293   5.043
 7485SOL    HW223355   3.066   6.378   4.932
 7486SOL     OW23356   2.654   0.504   6.108
 7486SOL    HW123357   2.711   0.459   6.177
 7486SOL    HW223358   2.669   0.460   6.019
 7487SOL     OW23359   2.482   6.030   2.138
 7487SOL    HW123360   2.468   5.931   2.142
 7487SOL    HW223361   2.393   6.076   2.135
 7488SOL     OW23362   2.125   6.647   4.670
 7488SOL    HW123363   2.125   6.718   4.599
 7488SOL    HW223364   2.039   6.649   4.719
 7489SOL     OW23365   5.749   1.859   5.000
 7489SOL    HW123366   5.770   1.842   5.096
 7489SOL    HW223367   5.703   1.947   4.991
 7490SOL     OW23368   0.952   1.352   1.132
 7490SOL    HW123369   0.867   1.321   1.089
 7490SOL    HW223370   0.948   1.451   1.146
 7491SOL     OW23371   6.849   4.026   0.083
 7491SOL    HW123372   6.893   3.961   0.020
 7491SOL    HW223373   6.796   3.975   0.150
 7492SOL     OW23374   2.870   1.213   4.640
 7492SOL    HW123375   2.834   1.298   4.602
 7492SOL    HW223376   2.898   1.152   4.566
 7493SOL     OW23377   0.232   4.591   6.912
 7493SOL    HW123378   0.295   4.660   6.878
 7493SOL    HW223379   0.157   4.578   6.847
 7494SOL     OW23380   6.067   1.161   2.225
 7494SOL    HW123381   6.147   1.202   2.181
 7494SOL    HW223382   6.035   1.083   2.171
 7495SOL     OW23383   2.634   1.000   1.024
 7495SOL    HW123384   2.569   1.026   1.095
 7495SOL    HW223385   2.586   0.982   0.939
 7496SOL     OW23386   0.821   3.354   6.433
 7496SOL    HW123387   0.737   3.364   6.378
 7496SOL    HW223388   0.900   3.361   6.373
 7497SOL     OW23389   2.419   4.430   0.503
 7497SOL    HW123390   2.342   4.390   0.552
 7497SOL    HW223391   2.475   4.483   0.568
 7498SOL     OW23392   2.006   1.295   4.959
 7498SOL    HW123393   2.104   1.309   4.972
 7498SOL    HW223394   1.966   1.375   4.914
 7499SOL     OW23395   5.434   0.758   3.391
 7499SOL    HW123396   5.443   0.659   3.381
 7499SOL    HW223397   5.482   0.789   3.473
 7500SOL     OW23398   3.806   5.946   4.158
 7500SOL    HW123399   3.802   6.015   4.085
 7500SOL    HW223400   3.733   5.963   4.224
 7501SOL     OW23401   6.636   4.566   4.341
 7501SOL    HW123402   6.662   4.529   4.252
 7501SOL    HW223403   6.540   4.594   4.339
 7502SOL     OW23404   1.160   0.454   4.754
 7502SOL    HW123405   1.116   0.514   4.686
 7502SOL    HW223406   1.152   0.496   4.845
 7503SOL     OW23407   1.825   1.372   0.283
 7503SOL    HW123408   1.862   1.383   0.190
 7503SOL    HW223409   1.780   1.283   0.291
 7504SOL     OW23410   2.782   0.486   3.835
 7504SOL    HW123411   2.734   0.571   3.814
 7504SOL    HW223412   2.868   0.482   3.784
 7505SOL     OW23413   2.035   1.226   5.534
 7505SOL    HW123414   2.004   1.138   5.570
 7505SOL    HW223415   2.068   1.214   5.440
 7506SOL     OW23416   4.344   6.824   3.074
 7506SOL    HW123417   4.396   6.862   2.997
 7506SOL    HW223418   4.397   6.834   3.158
 7507SOL     OW23419   0.863   0.391   1.132
 7507SOL    HW123420   0.839   0.488   1.128
 7507SOL    HW223421   0.894   0.368   1.225
 7508SOL     OW23422   6.596   6.782   1.893
 7508SOL    HW123423   6.640   6.699   1.927
 7508SOL    HW223424   6.503   6.761   1.864
 7509SOL     OW23425   5.734   3.880   1.286
 7509SOL    HW123426   5.686   3.822   1.351
 7509SOL    HW223427   5.674   3.954   1.256
 7510SOL     OW23428   2.851   4.664   5.382
 7510SOL    HW123429   2.870   4.615   5.297
 7510SOL    HW223430   2.911   4.630   5.454
 7511SOL     OW23431   1.638   0.012   3.556
 7511SOL    HW123432   1.735   0.005   3.578
 7511SOL    HW223433   1.595   0.079   3.617
 7512SOL     OW23434   3.496   4.238   0.442
 7512SOL    HW123435   3.594   4.219   0.446
 7512SOL    HW223436   3.448   4.158   0.408
 7513SOL     OW23437   2.079   1.884   1.391
 7513SOL    HW123438   1.986   1.865   1.421
 7513SOL    HW223439   2.078   1.947   1.314
 7514SOL     OW23440   2.605   5.161   1.924
 7514SOL    HW123441   2.562   5.090   1.867
 7514SOL    HW223442   2.539   5.235   1.940
 7515SOL     OW23443   0.889   5.738   2.334
 7515SOL    HW123444   0.806   5.766   2.287
 7515SOL    HW223445   0.879   5.644   2.367
 7516SOL     OW23446   6.711   6.249   4.307
 7516SOL    HW123447   6.782   6.278   4.371
 7516SOL    HW223448   6.681   6.156   4.329
 7517SOL     OW23449   0.192   3.033   1.023
 7517SOL    HW123450   0.291   3.033   1.017
 7517SOL    HW223451   0.164   3.070   1.112
 7518SOL     OW23452   4.167   5.479   3.732
 7518SOL    HW123453   4.129   5.393   3.767
 7518SOL    HW223454   4.267   5.476   3.739
 7519SOL     OW23455   0.379   6.743   3.399
 7519SOL    HW123456   0.360   6.655   3.443
 7519SOL    HW223457   0.293   6.791   3.384
 7520SOL     OW23458   3.360   7.019   1.921
 7520SOL    HW123459   3.433   0.008   1.853
 7520SOL    HW223460   3.278   6.981   1.877
 7521SOL     OW23461   4.840   4.765   6.230
 7521SOL    HW123462   4.817   4.847   6.283
 7521SOL    HW223463   4.939   4.755   6.224
 7522SOL     OW23464   2.319   6.786   6.710
 7522SOL    HW123465   2.400   6.832   6.746
 7522SOL    HW223466   2.250   6.779   6.781
 7523SOL     OW23467   5.686   0.568   6.192
 7523SOL    HW123468   5.668   0.478   6.152
 7523SOL    HW223469   5.725   0.628   6.122
 7524SOL     OW23470   1.358   2.105   6.576
 7524SOL    HW123471   1.347   2.017   6.623
 7524SOL    HW223472   1.394   2.173   6.641
 7525SOL     OW23473   2.524   6.974   6.785
 7525SOL    HW123474   2.610   0.005   6.778
 7525SOL    HW223475   2.506   6.952   6.881
 7526SOL     OW23476   3.806   2.932   2.534
 7526SOL    HW123477   3.870   2.856   2.520
 7526SOL    HW223478   3.754   2.948   2.450
 7527SOL     OW23479   4.152   5.569   3.325
 7527SOL    HW123480   4.110   5.644   3.375
 7527SOL    HW223481   4.088   5.533   3.257
 7528SOL     OW23482   4.074   1.976   6.642
 7528SOL    HW123483   4.033   1.900   6.591
 7528SOL    HW223484   4.010   2.052   6.646
 7529SOL     OW23485   5.700   0.546   4.417
 7529SOL    HW123486   5.769   0.540   4.345
 7529SOL    HW223487   5.667   0.640   4.425
 7530SOL     OW23488   6.744   4.382   2.416
 7530SOL    HW123489   6.682   4.372   2.494
 7530SOL    HW223490   6.835   4.409   2.449
 7531SOL     OW23491   4.821   2.481   4.055
 7531SOL    HW123492   4.908   2.481   4.006
 7531SOL    HW223493   4.837   2.498   4.152
 7532SOL     OW23494   5.595   5.349   1.572
 7532SOL    HW123495   5.512   5.383   1.528
 7532SOL    HW223496   5.571   5.298   1.655
 7533SOL     OW23497   2.655   0.804   3.024
 7533SOL    HW123498   2.751   0.777   3.036
 7533SOL    HW223499   2.643   0.844   2.933
 7534SOL     OW23500   3.716   6.696   6.122
 7534SOL    HW123501   3.700   6.778   6.176
 7534SOL    HW223502   3.788   6.641   6.165
 7535SOL     OW23503   2.961   0.838   5.690
 7535SOL    HW123504   2.993   0.743   5.689
 7535SOL    HW223505   2.922   0.859   5.780
 7536SOL     OW23506   5.298   5.338   4.957
 7536SOL    HW123507   5.383   5.291   4.931
 7536SOL    HW223508   5.303   5.433   4.928
 7537SOL     OW23509   2.649   5.415   3.811
 7537SOL    HW123510   2.740   5.400   3.771
 7537SOL    HW223511   2.659   5.447   3.905
 7538SOL     OW23512   3.461   2.967   2.142
 7538SOL    HW123513   3.390   2.922   2.089
 7538SOL    HW223514   3.423   3.045   2.191
 7539SOL     OW23515   2.378   2.356   4.285
 7539SOL    HW123516   2.323   2.301   4.223
 7539SOL    HW223517   2.344   2.346   4.378
 7540SOL     OW23518   2.776   0.142   5.360
 7540SOL    HW123519   2.778   0.212   5.289
 7540SOL    HW223520   2.745   0.056   5.322
 7541SOL     OW23521   0.036   4.079   4.587
 7541SOL    HW123522   6.970   4.131   4.581
 7541SOL    HW223523   0.050   4.027   4.503
 7542SOL     OW23524   0.730   5.593   0.394
 7542SOL    HW123525   0.813   5.647   0.379
 7542SOL    HW223526   0.651   5.655   0.402
 7543SOL     OW23527   4.374   2.057   1.099
 7543SOL    HW123528   4.291   2.082   1.050
 7543SOL    HW223529   4.431   2.138   1.113
 7544SOL     OW23530   0.326   2.407   3.351
 7544SOL    HW123531   0.375   2.322   3.370
 7544SOL    HW223532   0.391   2.480   3.330
 7545SOL     OW23533   5.742   6.300   2.386
 7545SOL    HW123534   5.738   6.389   2.432
 7545SOL    HW223535   5.744   6.314   2.287
 7546SOL     OW23536   3.992   0.689   1.579
 7546SOL    HW123537   4.008   0.610   1.520
 7546SOL    HW223538   4.079   0.718   1.620
 7547SOL     OW23539   4.470   0.307   0.414
 7547SOL    HW123540   4.378   0.280   0.442
 7547SOL    HW223541   4.535   0.235   0.439
 7548SOL     OW23542   3.507   2.028   0.217
 7548SOL    HW123543   3.511   2.013   0.315
 7548SOL    HW223544   3.468   1.947   0.172
 7549SOL     OW23545   5.557   1.476   1.035
 7549SOL    HW123546   5.570   1.564   0.989
 7549SOL    HW223547   5.459   1.456   1.042
 7550SOL     OW23548   2.369   4.621   2.110
 7550SOL    HW123549   2.283   4.610   2.160
 7550SOL    HW223550   2.399   4.716   2.117
 7551SOL     OW23551   4.832   4.019   6.949
 7551SOL    HW123552   4.828   3.981   0.022
 7551SOL    HW223553   4.814   3.946   6.882
 7552SOL     OW23554   1.943   5.917   3.919
 7552SOL    HW123555   1.951   5.971   3.835
 7552SOL    HW223556   2.019   5.852   3.924
 7553SOL     OW23557   4.389   4.900   5.735
 7553SOL    HW123558   4.341   4.814   5.754
 7553SOL    HW223559   4.477   4.881   5.694
 7554SOL     OW23560   5.164   7.012   1.299
 7554SOL    HW123561   5.213   6.989   1.215
 7554SOL    HW223562   5.069   0.013   1.277
 7555SOL     OW23563   1.704   5.345   5.321
 7555SOL    HW123564   1.686   5.265   5.264
 7555SOL    HW223565   1.725   5.315   5.415
 7556SOL     OW23566   0.421   2.818   5.631
 7556SOL    HW123567   0.393   2.726   5.607
 7556SOL    HW223568   0.344   2.881   5.617
 7557SOL     OW23569   4.931   2.617   6.203
 7557SOL    HW123570   4.928   2.711   6.169
 7557SOL    HW223571   4.929   2.618   6.303
 7558SOL     OW23572   1.908   2.879   3.541
 7558SOL    HW123573   1.897   2.780   3.553
 7558SOL    HW223574   2.004   2.903   3.557
 7559SOL     OW23575   6.051   5.119   6.999
 7559SOL    HW123576   5.994   5.169   0.045
 7559SOL    HW223577   6.008   5.122   6.909
 7560SOL     OW23578   4.700   6.548   0.322
 7560SOL    HW123579   4.646   6.478   0.275
 7560SOL    HW223580   4.710   6.524   0.418
 7561SOL     OW23581   0.884   2.698   0.339
 7561SOL    HW123582   0.967   2.702   0.283
 7561SOL    HW223583   0.888   2.618   0.399
 7562SOL     OW23584   5.486   6.078   5.080
 7562SOL    HW123585   5.533   6.006   5.028
 7562SOL    HW223586   5.405   6.039   5.124
 7563SOL     OW23587   2.613   6.247   0.675
 7563SOL    HW123588   2.706   6.211   0.688
 7563SOL    HW223589   2.549   6.172   0.660
 7564SOL     OW23590   5.734   1.301   2.772
 7564SOL    HW123591   5.651   1.337   2.816
 7564SOL    HW223592   5.796   1.377   2.752
 7565SOL     OW23593   5.515   4.426   0.063
 7565SOL    HW123594   5.430   4.422   0.011
 7565SOL    HW223595   5.536   4.335   0.099
 7566SOL     OW23596   6.969   5.220   3.673
 7566SOL    HW123597   0.026   5.255   3.619
 7566SOL    HW223598   6.894   5.194   3.612
 7567SOL     OW23599   1.726   2.517   4.756
 7567SOL    HW123600   1.780   2.598   4.731
 7567SOL    HW223601   1.762   2.437   4.708
 7568SOL     OW23602   5.651   6.066   2.879
 7568SOL    HW123603   5.620   6.070   2.974
 7568SOL    HW223604   5.604   6.136   2.826
 7569SOL     OW23605   4.323   4.888   6.965
 7569SOL    HW123606   4.234   4.915   6.929
 7569SOL    HW223607   4.380   4.969   6.979
 7570SOL     OW23608   5.478   4.698   5.391
 7570SOL    HW123609   5.462   4.754   5.309
 7570SOL    HW223610   5.476   4.602   5.366
 7571SOL     OW23611   4.769   5.266   2.860
 7571SOL    HW123612   4.839   5.224   2.918
 7571SOL    HW223613   4.770   5.365   2.874
 7572SOL     OW23614   4.787   0.978   3.121
 7572SOL    HW123615   4.699   0.990   3.075
 7572SOL    HW223616   4.856   1.037   3.079
 7573SOL     OW23617   6.316   6.704   4.622
 7573SOL    HW123618   6.259   6.787   4.619
 7573SOL    HW223619   6.366   6.702   4.709
 7574SOL     OW23620   6.994   0.780   4.315
 7574SOL    HW123621   6.896   0.760   4.321
 7574SOL    HW223622   0.004   0.772   4.220
 7575SOL     OW23623   4.007   0.563   5.907
 7575SOL    HW123624   4.087   0.620   5.927
 7575SOL    HW223625   3.999   0.492   5.976
 7576SOL     OW23626   6.250   5.261   6.858
 7576SOL    HW123627   6.208   5.316   6.786
 7576SOL    HW223628   6.180   5.216   6.912
 7577SOL     OW23629   0.258   6.600   6.138
 7577SOL    HW123630   0.254   6.563   6.045
 7577SOL    HW223631   0.324   6.548   6.192
 7578SOL     OW23632   2.749   5.806   2.768
 7578SOL    HW123633   2.668   5.837   2.720
 7578SOL    HW223634   2.829   5.815   2.708
 7579SOL     OW23635   5.352   2.285   2.361
 7579SOL    HW123636   5.448   2.269   2.338
 7579SOL    HW223637   5.322   2.371   2.321
 7580SOL     OW23638   0.885   4.131   4.008
 7580SOL    HW123639   0.942   4.105   4.087
 7580SOL    HW223640   0.791   4.146   4.038
 7581SOL     OW23641   5.954   6.908   1.344
 7581SOL    HW123642   5.862   6.926   1.377
 7581SOL    HW223643   6.020   6.921   1.419
 7582SOL     OW23644   2.989   1.245   0.743
 7582SOL    HW123645   3.061   1.185   0.707
 7582SOL    HW223646   3.002   1.337   0.705
 7583SOL     OW23647   6.265   2.959   1.787
 7583SOL    HW123648   6.248   3.054   1.762
 7583SOL    HW223649   6.361   2.937   1.774
 7584SOL     OW23650   2.587   6.474   0.564
 7584SOL    HW123651   2.595   6.379   0.595
 7584SOL    HW223652   2.645   6.488   0.484
 7585SOL     OW23653   2.109   3.271   6.175
 7585SOL    HW123654   2.081   3.366   6.162
 7585SOL    HW223655   2.162   3.262   6.259
 7586SOL     OW23656   3.797   0.602   3.489
 7586SOL    HW123657   3.839   0.672   3.431
 7586SOL    HW223658   3.713   0.637   3.529
 7587SOL     OW23659   3.142   1.853   6.824
 7587SOL    HW123660   3.207   1.862   6.748
 7587SOL    HW223661   3.103   1.942   6.845
 7588SOL     OW23662   1.399   3.166   2.579
 7588SOL    HW123663   1.342   3.126   2.650
 7588SOL    HW223664   1.380   3.121   2.492
 7589SOL     OW23665   6.667   0.053   1.349
 7589SOL    HW123666   6.625   7.019   1.276
 7589SOL    HW223667   6.608   0.052   1.429
 7590SOL     OW23668   3.877   2.126   6.624
 7590SOL    HW123669   3.867   2.205   6.685
 7590SOL    HW223670   3.788   2.105   6.583
 7591SOL     OW23671   0.077   4.401   0.258
 7591SOL    HW123672   0.081   4.339   0.180
 7591SOL    HW223673   7.010   4.452   0.256
 7592SOL     OW23674   6.634   4.215   6.302
 7592SOL    HW123675   6.544   4.206   6.259
 7592SOL    HW223676   6.642   4.149   6.376
 7593SOL     OW23677   5.570   2.655   1.261
 7593SOL    HW123678   5.649   2.648   1.321
 7593SOL    HW223679   5.511   2.729   1.291
 7594SOL     OW23680   6.952   4.889   2.427
 7594SOL    HW123681   6.854   4.906   2.415
 7594SOL    HW223682   6.990   4.852   2.342
 7595SOL     OW23683   0.027   2.762   6.000
 7595SOL    HW123684   0.062   2.801   5.915
 7595SOL    HW223685   6.963   2.710   5.981
 7596SOL     OW23686   4.679   5.907   3.008
 7596SOL    HW123687   4.701   5.814   3.038
 7596SOL    HW223688   4.739   5.932   2.932
 7597SOL     OW23689   2.515   6.155   2.377
 7597SOL    HW123690   2.489   6.242   2.334
 7597SOL    HW223691   2.529   6.086   2.305
 7598SOL     OW23692   6.820   1.785   3.205
 7598SOL    HW123693   6.737   1.735   3.227
 7598SOL    HW223694   6.866   1.812   3.290
 7599SOL     OW23695   5.896   1.620   3.016
 7599SOL    HW123696   5.921   1.650   2.924
 7599SOL    HW223697   5.927   1.689   3.083
 7600SOL     OW23698   1.820   1.264   2.340
 7600SOL    HW123699   1.915   1.261   2.371
 7600SOL    HW223700   1.769   1.330   2.395
 7601SOL     OW23701   2.203   5.436   2.435
 7601SOL    HW123702   2.236   5.457   2.527
 7601SOL    HW223703   2.139   5.508   2.406
 7602SOL     OW23704   1.187   4.559   6.426
 7602SOL    HW123705   1.149   4.493   6.361
 7602SOL    HW223706   1.281   4.533   6.449
 7603SOL     OW23707   1.948   5.471   6.032
 7603SOL    HW123708   1.929   5.373   6.025
 7603SOL    HW223709   2.003   5.499   5.953
 7604SOL     OW23710   1.681   4.421   4.333
 7604SOL    HW123711   1.605   4.395   4.275
 7604SOL    HW223712   1.660   4.399   4.428
 7605SOL     OW23713   0.567   0.029   0.735
 7605SOL    HW123714   0.597   0.108   0.788
 7605SOL    HW223715   0.583   6.965   0.788
 7606SOL     OW23716   6.777   3.154   3.634
 7606SOL    HW123717   6.768   3.080   3.701
 7606SOL    HW223718   6.861   3.206   3.653
 7607SOL     OW23719   5.163   5.273   0.697
 7607SOL    HW123720   5.159   5.222   0.611
 7607SOL    HW223721   5.241   5.242   0.751
 7608SOL     OW23722   3.278   4.133   3.174
 7608SOL    HW123723   3.190   4.177   3.155
 7608SOL    HW223724   3.313   4.092   3.089
 7609SOL     OW23725   0.279   4.080   3.776
 7609SOL    HW123726   0.375   4.053   3.778
 7609SOL    HW223727   0.221   3.998   3.787
 7610SOL     OW23728   5.885   6.885   6.884
 7610SOL    HW123729   5.978   6.863   6.855
 7610SOL    HW223730   5.887   6.964   6.945
 7611SOL     OW23731   0.763   1.502   0.251
 7611SOL    HW123732   0.740   1.415   0.296
 7611SOL    HW223733   0.683   1.561   0.250
 7612SOL     OW23734   5.136   3.337   4.864
 7612SOL    HW123735   5.101   3.335   4.958
 7612SOL    HW223736   5.081   3.277   4.807
 7613SOL     OW23737   5.856   3.510   1.401
 7613SOL    HW123738   5.904   3.532   1.486
 7613SOL    HW223739   5.758   3.501   1.419
 7614SOL     OW23740   5.340   3.356   0.809
 7614SOL    HW123741   5.411   3.299   0.850
 7614SOL    HW223742   5.288   3.402   0.882
 7615SOL     OW23743   4.855   4.156   6.531
 7615SOL    HW123744   4.866   4.172   6.629
 7615SOL    HW223745   4.885   4.063   6.509
 7616SOL     OW23746   6.709   4.692   4.837
 7616SOL    HW123747   6.781   4.683   4.768
 7616SOL    HW223748   6.629   4.735   4.795
 7617SOL     OW23749   3.471   5.490   2.550
 7617SOL    HW123750   3.519   5.442   2.623
 7617SOL    HW223751   3.377   5.507   2.578
 7618SOL     OW23752   0.503   1.915   6.177
 7618SOL    HW123753   0.579   1.980   6.174
 7618SOL    HW223754   0.523   1.838   6.116
 7619SOL     OW23755   5.583   3.335   5.568
 7619SOL    HW123756   5.674   3.342   5.526
 7619SOL    HW223757   5.540   3.249   5.541
 7620SOL     OW23758   4.211   5.114   0.550
 7620SOL    HW123759   4.262   5.195   0.521
 7620SOL    HW223760   4.179   5.126   0.644
 7621SOL     OW23761   0.039   1.260   0.097
 7621SOL    HW123762   6.981   1.301   0.049
 7621SOL    HW223763   0.123   1.309   0.072
 7622SOL     OW23764   5.309   5.586   1.841
 7622SOL    HW123765   5.320   5.583   1.742
 7622SOL    HW223766   5.374   5.523   1.884
 7623SOL     OW23767   4.452   4.600   6.728
 7623SOL    HW123768   4.413   4.676   6.676
 7623SOL    HW223769   4.545   4.624   6.757
 7624SOL     OW23770   6.762   2.261   4.812
 7624SOL    HW123771   6.819   2.340   4.793
 7624SOL    HW223772   6.667   2.289   4.822
 7625SOL     OW23773   4.823   0.381   1.272
 7625SOL    HW123774   4.753   0.450   1.289
 7625SOL    HW223775   4.803   0.299   1.326
 7626SOL     OW23776   6.501   6.433   4.276
 7626SOL    HW123777   6.441   6.371   4.226
 7626SOL    HW223778   6.588   6.387   4.294
 7627SOL     OW23779   5.434   3.015   6.735
 7627SOL    HW123780   5.407   2.919   6.730
 7627SOL    HW223781   5.528   3.021   6.768
 7628SOL     OW23782   3.607   0.669   2.646
 7628SOL    HW123783   3.576   0.574   2.635
 7628SOL    HW223784   3.559   0.727   2.581
 7629SOL     OW23785   6.920   0.329   3.160
 7629SOL    HW123786   6.855   0.279   3.102
 7629SOL    HW223787   7.013   0.308   3.131
 7630SOL     OW23788   6.489   0.279   1.600
 7630SOL    HW123789   6.559   0.224   1.644
 7630SOL    HW223790   6.511   0.376   1.610
 7631SOL     OW23791   0.442   0.678   5.440
 7631SOL    HW123792   0.405   0.770   5.429
 7631SOL    HW223793   0.397   0.633   5.518
 7632SOL     OW23794   3.608   2.703   1.817
 7632SOL    HW123795   3.554   2.692   1.733
 7632SOL    HW223796   3.599   2.621   1.873
 7633SOL     OW23797   4.838   1.823   1.215
 7633SOL    HW123798   4.796   1.734   1.231
 7633SOL    HW223799   4.787   1.893   1.265
 7634SOL     OW23800   0.539   1.598   2.438
 7634SOL    HW123801   0.495   1.510   2.415
 7634SOL    HW223802   0.472   1.671   2.431
 7635SOL     OW23803   3.085   5.616   5.114
 7635SOL    HW123804   3.050   5.700   5.073
 7635SOL    HW223805   3.009   5.553   5.131
 7636SOL     OW23806   1.619   2.669   3.450
 7636SOL    HW123807   1.554   2.593   3.451
 7636SOL    HW223808   1.571   2.753   3.426
 7637SOL     OW23809   2.511   5.967   2.931
 7637SOL    HW123810   2.521   5.942   3.027
 7637SOL    HW223811   2.557   5.898   2.874
 7638SOL     OW23812   3.719   6.211   1.360
 7638SOL    HW123813   3.689   6.153   1.285
 7638SOL    HW223814   3.786   6.278   1.325
 7639SOL     OW23815   1.491   1.637   0.512
 7639SOL    HW123816   1.418   1.633   0.443
 7639SOL    HW223817   1.577   1.660   0.467
 7640SOL     OW23818   3.389   1.792   0.111
 7640SOL    HW123819   3.471   1.737   0.126
 7640SOL    HW223820   3.321   1.737   0.063
 7641SOL     OW23821   1.041   4.260   1.679
 7641SOL    HW123822   1.070   4.168   1.703
 7641SOL    HW223823   0.998   4.303   1.759
 7642SOL     OW23824   2.727   0.863   2.272
 7642SOL    HW123825   2.814   0.855   2.224
 7642SOL    HW223826   2.707   0.778   2.320
 7643SOL     OW23827   4.884   3.106   4.450
 7643SOL    HW123828   4.982   3.090   4.437
 7643SOL    HW223829   4.870   3.170   4.526
 7644SOL     OW23830   5.786   2.518   2.551
 7644SOL    HW123831   5.827   2.581   2.617
 7644SOL    HW223832   5.849   2.441   2.535
 7645SOL     OW23833   4.522   4.004   5.317
 7645SOL    HW123834   4.471   3.920   5.300
 7645SOL    HW223835   4.525   4.022   5.415
 7646SOL     OW23836   2.213   2.868   2.691
 7646SOL    HW123837   2.207   2.952   2.638
 7646SOL    HW223838   2.260   2.798   2.637
 7647SOL     OW23839   6.542   3.292   2.333
 7647SOL    HW123840   6.533   3.389   2.354
 7647SOL    HW223841   6.530   3.238   2.417
 7648SOL     OW23842   3.303   1.856   3.709
 7648SOL    HW123843   3.254   1.832   3.625
 7648SOL    HW223844   3.348   1.774   3.746
 7649SOL     OW23845   0.872   1.062   2.773
 7649SOL    HW123846   0.909   1.130   2.710
 7649SOL    HW223847   0.854   1.105   2.862
 7650SOL     OW23848   4.886   2.700   1.685
 7650SOL    HW123849   4.883   2.789   1.731
 7650SOL    HW223850   4.801   2.685   1.636
 7651SOL     OW23851   2.050   6.871   4.851
 7651SOL    HW123852   2.146   6.862   4.828
 7651SOL    HW223853   1.996   6.883   4.768
 7652SOL     OW23854   6.704   4.018   4.796
 7652SOL    HW123855   6.722   3.970   4.710
 7652SOL    HW223856   6.619   3.984   4.836
 7653SOL     OW23857   2.622   1.608   0.493
 7653SOL    HW123858   2.686   1.618   0.569
 7653SOL    HW223859   2.605   1.697   0.451
 7654SOL     OW23860   5.345   2.763   4.041
 7654SOL    HW123861   5.394   2.806   4.117
 7654SOL    HW223862   5.256   2.731   4.073
 7655SOL     OW23863   3.381   0.349   3.563
 7655SOL    HW123864   3.419   0.272   3.614
 7655SOL    HW223865   3.378   0.326   3.466
 7656SOL     OW23866   2.074   4.960   6.334
 7656SOL    HW123867   2.020   5.017   6.395
 7656SOL    HW223868   2.142   5.016   6.286
 7657SOL     OW23869   2.359   2.627   3.933
 7657SOL    HW123870   2.387   2.681   4.013
 7657SOL    HW223871   2.270   2.586   3.950
 7658SOL     OW23872   3.614   0.377   6.141
 7658SOL    HW123873   3.588   0.361   6.236
 7658SOL    HW223874   3.592   0.296   6.087
 7659SOL     OW23875   6.181   5.276   0.238
 7659SOL    HW123876   6.164   5.289   0.141
 7659SOL    HW223877   6.251   5.205   0.251
 7660SOL     OW23878   0.351   6.485   3.500
 7660SOL    HW123879   0.266   6.453   3.459
 7660SOL    HW223880   0.408   6.407   3.526
 7661SOL     OW23881   5.484   2.282   4.857
 7661SOL    HW123882   5.548   2.209   4.832
 7661SOL    HW223883   5.461   2.275   4.954
 7662SOL     OW23884   1.236   2.483   2.589
 7662SOL    HW123885   1.139   2.499   2.571
 7662SOL    HW223886   1.246   2.409   2.656
 7663SOL     OW23887   0.967   6.791   5.465
 7663SOL    HW123888   0.945   6.860   5.533
 7663SOL    HW223889   1.051   6.742   5.493
 7664SOL     OW23890   3.542   0.195   2.342
 7664SOL    HW123891   3.502   0.184   2.251
 7664SOL    HW223892   3.630   0.148   2.346
 7665SOL     OW23893   5.115   0.390   5.101
 7665SOL    HW123894   5.069   0.457   5.160
 7665SOL    HW223895   5.048   0.326   5.064
 7666SOL     OW23896   1.029   6.268   1.433
 7666SOL    HW123897   0.998   6.343   1.492
 7666SOL    HW223898   0.954   6.204   1.417
 7667SOL     OW23899   4.138   6.029   2.179
 7667SOL    HW123900   4.183   6.088   2.112
 7667SOL    HW223901   4.061   6.078   2.220
 7668SOL     OW23902   3.133   4.340   1.362
 7668SOL    HW123903   3.188   4.348   1.445
 7668SOL    HW223904   3.191   4.313   1.286
 7669SOL     OW23905   5.769   1.646   6.039
 7669SOL    HW123906   5.826   1.668   6.118
 7669SOL    HW223907   5.773   1.721   5.973
 7670SOL     OW23908   0.787   4.746   6.464
 7670SOL    HW123909   0.764   4.713   6.373
 7670SOL    HW223910   0.712   4.802   6.499
 7671SOL     OW23911   4.234   0.770   4.022
 7671SOL    HW123912   4.234   0.823   4.107
 7671SOL    HW223913   4.160   0.703   4.025
 7672SOL     OW23914   5.830   6.823   3.117
 7672SOL    HW123915   5.882   6.878   3.183
 7672SOL    HW223916   5.745   6.871   3.094
 7673SOL     OW23917   1.915   5.477   6.966
 7673SOL    HW123918   1.853   5.442   6.895
 7673SOL    HW223919   2.007   5.443   6.949
 7674SOL     OW23920   6.106   1.979   4.340
 7674SOL    HW123921   6.079   1.969   4.436
 7674SOL    HW223922   6.054   1.915   4.284
 7675SOL     OW23923   5.389   6.974   2.727
 7675SOL    HW123924   5.379   6.980   2.627
 7675SOL    HW223925   5.473   0.001   2.754
 7676SOL     OW23926   1.962   2.191   0.176
 7676SOL    HW123927   2.047   2.158   0.216
 7676SOL    HW223928   1.922   2.118   0.119
 7677SOL     OW23929   7.017   4.448   2.386
 7677SOL    HW123930   0.048   4.492   2.459
 7677SOL    HW223931   0.048   4.369   2.352
 7678SOL     OW23932   2.456   1.572   4.697
 7678SOL    HW123933   2.546   1.529   4.691
 7678SOL    HW223934   2.428   1.580   4.792
 7679SOL     OW23935   2.715   5.628   6.396
 7679SOL    HW123936   2.764   5.546   6.424
 7679SOL    HW223937   2.683   5.617   6.302
 7680SOL     OW23938   1.731   1.721   0.428
 7680SOL    HW123939   1.733   1.813   0.467
 7680SOL    HW223940   1.797   1.663   0.475
 7681SOL     OW23941   2.593   6.780   0.298
 7681SOL    HW123942   2.588   6.880   0.294
 7681SOL    HW223943   2.517   6.746   0.353
 7682SOL     OW23944   2.899   0.425   1.771
 7682SOL    HW123945   2.979   0.476   1.740
 7682SOL    HW223946   2.858   0.470   1.850
 7683SOL     OW23947   6.266   1.714   3.763
 7683SOL    HW123948   6.245   1.635   3.706
 7683SOL    HW223949   6.235   1.797   3.717
 7684SOL     OW23950   4.229   2.115   1.638
 7684SOL    HW123951   4.187   2.031   1.603
 7684SOL    HW223952   4.169   2.155   1.707
 7685SOL     OW23953   3.543   2.864   0.196
 7685SOL    HW123954   3.515   2.769   0.213
 7685SOL    HW223955   3.482   2.904   0.127
 7686SOL     OW23956   5.874   0.005   2.885
 7686SOL    HW123957   5.918   0.053   2.961
 7686SOL    HW223958   5.944   7.000   2.817
 7687SOL     OW23959   5.908   5.177   4.938
 7687SOL    HW123960   5.963   5.187   5.022
 7687SOL    HW223961   5.875   5.083   4.931
 7688SOL     OW23962   0.534   6.309   5.184
 7688SOL    HW123963   0.558   6.251   5.106
 7688SOL    HW223964   0.600   6.384   5.190
 7689SOL     OW23965   4.836   6.884   2.765
 7689SOL    HW123966   4.914   6.912   2.709
 7689SOL    HW223967   4.842   6.786   2.785
 7690SOL     OW23968   6.375   4.942   1.412
 7690SOL    HW123969   6.298   4.999   1.383
 7690SOL    HW223970   6.448   5.000   1.447
 7691SOL     OW23971   5.054   2.753   4.015
 7691SOL    HW123972   4.969   2.803   4.030
 7691SOL    HW223973   5.041   2.685   3.943
 7692SOL     OW23974   1.163   6.158   2.002
 7692SOL    HW123975   1.234   6.181   2.068
 7692SOL    HW223976   1.199   6.167   1.909
 7693SOL     OW23977   3.444   6.918   1.262
 7693SOL    HW123978   3.509   6.931   1.338
 7693SOL    HW223979   3.387   6.838   1.281
 7694SOL     OW23980   0.233   4.894   4.476
 7694SOL    HW123981   0.137   4.872   4.492
 7694SOL    HW223982   0.279   4.909   4.563
 7695SOL     OW23983   4.430   6.200   0.761
 7695SOL    HW123984   4.366   6.124   0.750
 7695SOL    HW223985   4.389   6.284   0.726
 7696SOL     OW23986   6.694   1.440   4.504
 7696SOL    HW123987   6.782   1.477   4.476
 7696SOL    HW223988   6.620   1.487   4.456
 7697SOL     OW23989   3.152   6.949   1.519
 7697SOL    HW123990   3.054   6.953   1.501
 7697SOL    HW223991   3.187   0.022   1.535
 7698SOL     OW23992   6.307   2.349   3.646
 7698SOL    HW123993   6.273   2.419   3.708
 7698SOL    HW223994   6.250   2.345   3.564
 7699SOL     OW23995   3.300   6.155   0.358
 7699SOL    HW123996   3.216   6.148   0.304
 7699SOL    HW223997   3.286   6.116   0.449
 7700SOL     OW23998   4.938   6.222   4.660
 7700SOL    HW123999   4.936   6.248   4.757
 7700SOL    HW224000   4.915   6.302   4.604
 7701SOL     OW24001   6.744   1.570   6.864
 7701SOL    HW124002   6.736   1.542   6.769
 7701SOL    HW224003   6.669   1.633   6.886
 7702SOL     OW24004   3.134   6.289   6.450
 7702SOL    HW124005   3.177   6.373   6.418
 7702SOL    HW224006   3.150   6.216   6.384
 7703SOL     OW24007   6.521   0.992   5.100
 7703SOL    HW124008   6.465   0.909   5.108
 7703SOL    HW224009   6.584   0.997   5.178
 7704SOL     OW24010   5.349   4.568   5.622
 7704SOL    HW124011   5.386   4.651   5.664
 7704SOL    HW224012   5.369   4.568   5.524
 7705SOL     OW24013   3.595   5.438   5.455
 7705SOL    HW124014   3.662   5.415   5.525
 7705SOL    HW224015   3.599   5.536   5.435
 7706SOL     OW24016   4.529   2.532   4.696
 7706SOL    HW124017   4.549   2.537   4.794
 7706SOL    HW224018   4.470   2.453   4.678
 7707SOL     OW24019   0.915   5.623   5.841
 7707SOL    HW124020   0.883   5.606   5.748
 7707SOL    HW224021   0.844   5.672   5.892
 7708SOL     OW24022   6.075   6.682   5.856
 7708SOL    HW124023   6.089   6.778   5.880
 7708SOL    HW224024   5.990   6.672   5.805
 7709SOL     OW24025   5.947   4.172   1.665
 7709SOL    HW124026   5.974   4.081   1.636
 7709SOL    HW224027   6.008   4.240   1.625
 7710SOL     OW24028   3.702   0.374   0.700
 7710SOL    HW124029   3.783   0.419   0.738
 7710SOL    HW224030   3.674   0.300   0.761
 7711SOL     OW24031   6.256   6.438   5.121
 7711SOL    HW124032   6.202   6.361   5.087
 7711SOL    HW224033   6.195   6.510   5.154
 7712SOL     OW24034   5.340   5.822   2.182
 7712SOL    HW124035   5.421   5.815   2.240
 7712SOL    HW224036   5.293   5.734   2.180
 7713SOL     OW24037   1.545   4.675   0.506
 7713SOL    HW124038   1.514   4.761   0.546
 7713SOL    HW224039   1.623   4.692   0.446
 7714SOL     OW24040   6.369   4.282   5.638
 7714SOL    HW124041   6.372   4.201   5.579
 7714SOL    HW224042   6.274   4.309   5.652
 7715SOL     OW24043   4.489   1.947   6.987
 7715SOL    HW124044   4.549   2.018   0.002
 7715SOL    HW224045   4.421   1.987   6.925
 7716SOL     OW24046   6.744   4.517   3.925
 7716SOL    HW124047   6.797   4.601   3.937
 7716SOL    HW224048   6.671   4.514   3.992
 7717SOL     OW24049   1.374   0.987   4.557
 7717SOL    HW124050   1.405   1.080   4.575
 7717SOL    HW224051   1.281   0.988   4.522
 7718SOL     OW24052   1.673   1.776   2.997
 7718SOL    HW124053   1.766   1.806   2.975
 7718SOL    HW224054   1.642   1.711   2.927
 7719SOL     OW24055   6.729   3.903   4.541
 7719SOL    HW124056   6.743   3.954   4.456
 7719SOL    HW224057   6.792   3.825   4.543
 7720SOL     OW24058   0.112   0.736   6.967
 7720SOL    HW124059   0.153   0.761   6.879
 7720SOL    HW224060   0.099   0.819   0.003
 7721SOL     OW24061   0.289   4.989   3.020
 7721SOL    HW124062   0.347   4.912   3.047
 7721SOL    HW224063   0.225   4.959   2.949
 7722SOL     OW24064   0.337   6.316   3.204
 7722SOL    HW124065   0.313   6.348   3.113
 7722SOL    HW224066   0.261   6.336   3.267
 7723SOL     OW24067   6.455   3.717   0.066
 7723SOL    HW124068   6.410   3.630   0.083
 7723SOL    HW224069   6.438   3.744   6.991
 7724SOL     OW24070   2.696   4.377   1.631
 7724SOL    HW124071   2.721   4.430   1.550
 7724SOL    HW224072   2.738   4.418   1.712
 7725SOL     OW24073   5.597   3.108   3.191
 7725SOL    HW124074   5.618   3.123   3.288
 7725SOL    HW224075   5.566   3.194   3.151
 7726SOL     OW24076   1.694   6.166   5.122
 7726SOL    HW124077   1.766   6.171   5.192
 7726SOL    HW224078   1.647   6.254   5.116
 7727SOL     OW24079   0.284   0.640   2.679
 7727SOL    HW124080   0.310   0.551   2.642
 7727SOL    HW224081   0.196   0.668   2.640
 7728SOL     OW24082   0.933   5.102   3.402
 7728SOL    HW124083   1.019   5.089   3.353
 7728SOL    HW224084   0.878   5.019   3.396
 7729SOL     OW24085   5.829   3.022   0.728
 7729SOL    HW124086   5.742   3.014   0.777
 7729SOL    HW224087   5.868   2.931   0.713
 7730SOL     OW24088   6.004   6.111   1.218
 7730SOL    HW124089   6.048   6.178   1.278
 7730SOL    HW224090   5.993   6.024   1.267
 7731SOL     OW24091   6.058   1.130   0.878
 7731SOL    HW124092   6.015   1.194   0.942
 7731SOL    HW224093   6.041   1.036   0.910
 7732SOL     OW24094   4.133   6.456   0.585
 7732SOL    HW124095   4.078   6.430   0.664
 7732SOL    HW224096   4.229   6.433   0.602
 7733SOL     OW24097   4.394   6.895   2.468
 7733SOL    HW124098   4.300   6.930   2.461
 7733SOL    HW224099   4.407   6.853   2.558
 7734SOL     OW24100   2.196   5.439   3.692
 7734SOL    HW124101   2.199   5.341   3.673
 7734SOL    HW224102   2.153   5.455   3.781
 7735SOL     OW24103   4.661   6.159   6.332
 7735SOL    HW124104   4.727   6.211   6.385
 7735SOL    HW224105   4.576   6.151   6.384
 7736SOL     OW24106   3.246   4.040   6.904
 7736SOL    HW124107   3.161   3.999   6.939
 7736SOL    HW224108   3.280   3.986   6.827
 7737SOL     OW24109   3.637   0.756   1.955
 7737SOL    HW124110   3.644   0.694   2.033
 7737SOL    HW224111   3.614   0.848   1.987
 7738SOL     OW24112   2.887   5.380   6.792
 7738SOL    HW124113   2.946   5.460   6.802
 7738SOL    HW224114   2.905   5.315   6.866
 7739SOL     OW24115   0.723   2.252   1.844
 7739SOL    HW124116   0.756   2.205   1.762
 7739SOL    HW224117   0.729   2.351   1.830
 7740SOL     OW24118   1.951   0.905   2.808
 7740SOL    HW124119   1.865   0.952   2.790
 7740SOL    HW224120   1.940   0.843   2.886
 7741SOL     OW24121   1.050   5.228   5.068
 7741SOL    HW124122   1.068   5.223   4.970
 7741SOL    HW224123   0.955   5.201   5.086
 7742SOL     OW24124   5.764   2.260   3.834
 7742SOL    HW124125   5.727   2.296   3.920
 7742SOL    HW224126   5.864   2.258   3.839
 7743SOL     OW24127   4.961   1.691   0.187
 7743SOL    HW124128   5.031   1.761   0.203
 7743SOL    HW224129   4.879   1.714   0.239
 7744SOL     OW24130   1.222   6.148   3.363
 7744SOL    HW124131   1.181   6.162   3.273
 7744SOL    HW224132   1.212   6.232   3.417
 7745SOL     OW24133   2.850   1.147   5.500
 7745SOL    HW124134   2.795   1.069   5.530
 7745SOL    HW224135   2.945   1.135   5.529
 7746SOL     OW24136   2.764   5.969   0.286
 7746SOL    HW124137   2.681   5.934   0.243
 7746SOL    HW224138   2.775   5.929   0.377
 7747SOL     OW24139   4.671   6.010   1.560
 7747SOL    HW124140   4.619   6.007   1.645
 7747SOL    HW224141   4.767   6.029   1.580
 7748SOL     OW24142   3.582   3.335   5.371
 7748SOL    HW124143   3.642   3.411   5.396
 7748SOL    HW224144   3.487   3.362   5.384
 7749SOL     OW24145   2.897   2.896   5.358
 7749SOL    HW124146   2.843   2.978   5.337
 7749SOL    HW224147   2.976   2.891   5.296
 7750SOL     OW24148   6.964   6.547   1.523
 7750SOL    HW124149   6.916   6.470   1.564
 7750SOL    HW224150   6.899   6.622   1.508
 7751SOL     OW24151   1.423   2.241   2.406
 7751SOL    HW124152   1.352   2.304   2.436
 7751SOL    HW224153   1.505   2.292   2.382
 7752SOL     OW24154   4.985   0.271   6.111
 7752SOL    HW124155   4.892   0.294   6.140
 7752SOL    HW224156   5.035   0.356   6.090
 7753SOL     OW24157   2.393   1.213   4.419
 7753SOL    HW124158   2.408   1.311   4.410
 7753SOL    HW224159   2.402   1.186   4.515
 7754SOL     OW24160   3.402   6.273   1.085
 7754SOL    HW124161   3.436   6.201   1.145
 7754SOL    HW224162   3.303   6.264   1.074
 7755SOL     OW24163   1.912   2.306   5.861
 7755SOL    HW124164   1.879   2.399   5.871
 7755SOL    HW224165   1.990   2.305   5.798
 7756SOL     OW24166   3.073   6.559   1.668
 7756SOL    HW124167   3.063   6.605   1.756
 7756SOL    HW224168   3.143   6.488   1.675
 7757SOL     OW24169   5.703   4.873   1.641
 7757SOL    HW124170   5.654   4.940   1.697
 7757SOL    HW224171   5.718   4.789   1.695
 7758SOL     OW24172   1.726   6.955   6.214
 7758SOL    HW124173   1.666   6.936   6.136
 7758SOL    HW224174   1.819   6.925   6.193
 7759SOL     OW24175   1.956   1.493   5.192
 7759SOL    HW124176   2.019   1.540   5.130
 7759SOL    HW224177   1.872   1.547   5.202
 7760SOL     OW24178   5.307   2.581   2.501
 7760SOL    HW124179   5.386   2.640   2.487
 7760SOL    HW224180   5.246   2.588   2.422
 7761SOL     OW24181   6.654   6.385   4.917
 7761SOL    HW124182   6.731   6.417   4.861
 7761SOL    HW224183   6.606   6.312   4.868
 7762SOL     OW24184   2.857   0.197   3.711
 7762SOL    HW124185   2.895   0.192   3.803
 7762SOL    HW224186   2.822   0.107   3.684
 7763SOL     OW24187   2.609   0.446   6.891
 7763SOL    HW124188   2.565   0.472   6.977
 7763SOL    HW224189   2.625   0.347   6.890
 7764SOL     OW24190   3.328   3.908   5.888
 7764SOL    HW124191   3.258   3.972   5.856
 7764SOL    HW224192   3.284   3.823   5.917
 7765SOL     OW24193   5.854   2.881   5.107
 7765SOL    HW124194   5.940   2.899   5.059
 7765SOL    HW224195   5.857   2.924   5.197
 7766SOL     OW24196   6.851   3.631   1.049
 7766SOL    HW124197   6.906   3.584   1.117
 7766SOL    HW224198   6.864   3.730   1.057
 7767SOL     OW24199   4.261   6.578   2.486
 7767SOL    HW124200   4.338   6.619   2.437
 7767SOL    HW224201   4.293   6.498   2.537
 7768SOL     OW24202   5.306   4.831   3.791
 7768SOL    HW124203   5.343   4.807   3.881
 7768SOL    HW224204   5.361   4.790   3.720
 7769SOL     OW24205   4.193   1.472   5.030
 7769SOL    HW124206   4.103   1.430   5.024
 7769SOL    HW224207   4.230   1.458   5.122
 7770SOL     OW24208   0.325   3.358   4.300
 7770SOL    HW124209   0.300   3.358   4.204
 7770SOL    HW224210   0.420   3.387   4.310
 7771SOL     OW24211   3.001   1.524   5.592
 7771SOL    HW124212   2.908   1.512   5.627
 7771SOL    HW224213   2.998   1.578   5.508
 7772SOL     OW24214   5.223   0.069   0.822
 7772SOL    HW124215   5.126   0.074   0.845
 7772SOL    HW224216   5.271   0.014   0.891
 7773SOL     OW24217   1.866   5.509   5.595
 7773SOL    HW124218   1.770   5.535   5.606
 7773SOL    HW224219   1.873   5.409   5.589
 7774SOL     OW24220   4.849   2.569   4.308
 7774SOL    HW124221   4.931   2.626   4.311
 7774SOL    HW224222   4.783   2.600   4.377
 7775SOL     OW24223   4.388   6.696   6.872
 7775SOL    HW124224   4.430   6.768   6.817
 7775SOL    HW224225   4.404   6.714   6.969
 7776SOL     OW24226   0.713   5.998   6.622
 7776SOL    HW124227   0.702   5.914   6.569
 7776SOL    HW224228   0.701   5.978   6.720
 7777SOL     OW24229   5.875   5.363   4.732
 7777SOL    HW124230   5.787   5.340   4.691
 7777SOL    HW224231   5.899   5.295   4.801
 7778SOL     OW24232   5.840   4.209   2.179
 7778SOL    HW124233   5.834   4.296   2.131
 7778SOL    HW224234   5.895   4.145   2.126
 7779SOL     OW24235   2.737   1.050   1.863
 7779SOL    HW124236   2.836   1.051   1.853
 7779SOL    HW224237   2.695   1.086   1.780
 7780SOL     OW24238   1.238   5.306   5.237
 7780SOL    HW124239   1.197   5.320   5.327
 7780SOL    HW224240   1.167   5.285   5.170
 7781SOL     OW24241   0.997   3.419   1.149
 7781SOL    HW124242   0.952   3.507   1.133
 7781SOL    HW224243   1.007   3.370   1.063
 7782SOL     OW24244   5.037   5.440   4.204
 7782SOL    HW124245   5.036   5.539   4.216
 7782SOL    HW224246   5.060   5.396   4.291
 7783SOL     OW24247   0.788   0.317   5.644
 7783SOL    HW124248   0.703   0.271   5.618
 7783SOL    HW224249   0.816   0.285   5.735
 7784SOL     OW24250   3.111   2.207   1.582
 7784SOL    HW124251   3.012   2.200   1.570
 7784SOL    HW224252   3.146   2.122   1.621
 7785SOL     OW24253   2.275   6.439   3.988
 7785SOL    HW124254   2.233   6.395   4.067
 7785SOL    HW224255   2.275   6.375   3.911
 7786SOL     OW24256   4.077   0.655   6.528
 7786SOL    HW124257   4.072   0.598   6.610
 7786SOL    HW224258   4.079   0.752   6.554
 7787SOL     OW24259   1.922   3.086   0.251
 7787SOL    HW124260   1.837   3.125   0.215
 7787SOL    HW224261   1.967   3.034   0.178
 7788SOL     OW24262   1.548   5.273   1.690
 7788SOL    HW124263   1.523   5.266   1.593
 7788SOL    HW224264   1.559   5.369   1.714
 7789SOL     OW24265   3.137   0.071   6.452
 7789SOL    HW124266   3.174   0.114   6.534
 7789SOL    HW224267   3.156   0.130   6.373
 7790SOL     OW24268   5.393   5.439   2.356
 7790SOL    HW124269   5.375   5.414   2.451
 7790SOL    HW224270   5.380   5.359   2.297
 7791SOL     OW24271   1.736   4.790   2.173
 7791SOL    HW124272   1.670   4.864   2.188
 7791SOL    HW224273   1.824   4.828   2.147
 7792SOL     OW24274   1.444   6.503   3.383
 7792SOL    HW124275   1.511   6.433   3.358
 7792SOL    HW224276   1.379   6.465   3.449
 7793SOL     OW24277   4.270   0.896   0.155
 7793SOL    HW124278   4.258   0.946   0.069
 7793SOL    HW224279   4.229   0.805   0.146
 7794SOL     OW24280   0.223   4.342   2.218
 7794SOL    HW124281   0.260   4.303   2.134
 7794SOL    HW224282   0.234   4.442   2.217
 7795SOL     OW24283   3.353   5.207   4.925
 7795SOL    HW124284   3.450   5.214   4.904
 7795SOL    HW224285   3.340   5.170   5.017
 7796SOL     OW24286   3.791   2.534   5.742
 7796SOL    HW124287   3.821   2.531   5.647
 7796SOL    HW224288   3.695   2.507   5.747
 7797SOL     OW24289   0.652   5.770   1.058
 7797SOL    HW124290   0.582   5.805   0.995
 7797SOL    HW224291   0.626   5.792   1.152
 7798SOL     OW24292   1.709   1.432   2.560
 7798SOL    HW124293   1.757   1.412   2.646
 7798SOL    HW224294   1.734   1.523   2.528
 7799SOL     OW24295   2.027   5.578   2.908
 7799SOL    HW124296   2.103   5.515   2.927
 7799SOL    HW224297   1.943   5.526   2.894
 7800SOL     OW24298   0.796   6.191   3.013
 7800SOL    HW124299   0.883   6.149   2.987
 7800SOL    HW224300   0.721   6.128   2.994
 7801SOL     OW24301   1.460   1.212   2.933
 7801SOL    HW124302   1.558   1.202   2.916
 7801SOL    HW224303   1.434   1.157   3.012
 7802SOL     OW24304   6.776   3.112   0.214
 7802SOL    HW124305   6.682   3.127   0.245
 7802SOL    HW224306   6.839   3.165   0.271
 7803SOL     OW24307   5.024   1.954   6.879
 7803SOL    HW124308   5.017   2.050   6.906
 7803SOL    HW224309   5.118   1.922   6.892
 7804SOL     OW24310   4.270   2.067   5.216
 7804SOL    HW124311   4.277   2.037   5.120
 7804SOL    HW224312   4.174   2.079   5.239
 7805SOL     OW24313   5.028   3.540   2.429
 7805SOL    HW124314   5.000   3.627   2.469
 7805SOL    HW224315   5.128   3.540   2.417
 7806SOL     OW24316   5.923   1.176   6.655
 7806SOL    HW124317   5.846   1.120   6.686
 7806SOL    HW224318   5.979   1.123   6.592
 7807SOL     OW24319   0.805   4.298   5.214
 7807SOL    HW124320   0.737   4.293   5.141
 7807SOL    HW224321   0.765   4.340   5.295
 7808SOL     OW24322   5.931   3.163   3.169
 7808SOL    HW124323   5.867   3.142   3.243
 7808SOL    HW224324   5.917   3.258   3.139
 7809SOL     OW24325   5.007   5.091   4.681
 7809SOL    HW124326   5.009   4.994   4.704
 7809SOL    HW224327   4.913   5.125   4.688
 7810SOL     OW24328   2.860   6.321   5.772
 7810SOL    HW124329   2.883   6.324   5.870
 7810SOL    HW224330   2.876   6.411   5.731
 7811SOL     OW24331   1.192   5.301   1.810
 7811SOL    HW124332   1.208   5.316   1.712
 7811SOL    HW224333   1.229   5.212   1.836
 7812SOL     OW24334   2.034   2.653   4.904
 7812SOL    HW124335   2.120   2.690   4.941
 7812SOL    HW224336   2.048   2.625   4.809
 7813SOL     OW24337   4.485   2.306   1.162
 7813SOL    HW124338   4.577   2.337   1.187
 7813SOL    HW224339   4.442   2.374   1.103
 7814SOL     OW24340   7.001   3.725   3.103
 7814SOL    HW124341   6.916   3.743   3.152
 7814SOL    HW224342   6.984   3.724   3.005
 7815SOL     OW24343   5.801   1.706   4.584
 7815SOL    HW124344   5.821   1.617   4.543
 7815SOL    HW224345   5.727   1.696   4.650
 7816SOL     OW24346   0.509   2.318   6.307
 7816SOL    HW124347   0.544   2.366   6.388
 7816SOL    HW224348   0.480   2.385   6.238
 7817SOL     OW24349   4.538   4.280   5.218
 7817SOL    HW124350   4.586   4.213   5.274
 7817SOL    HW224351   4.446   4.248   5.197
 7818SOL     OW24352   4.465   0.890   3.021
 7818SOL    HW124353   4.380   0.911   2.974
 7818SOL    HW224354   4.535   0.865   2.954
 7819SOL     OW24355   0.300   3.662   4.188
 7819SOL    HW124356   0.393   3.628   4.174
 7819SOL    HW224357   0.236   3.609   4.134
 7820SOL     OW24358   1.696   0.887   5.686
 7820SOL    HW124359   1.696   0.878   5.786
 7820SOL    HW224360   1.739   0.806   5.646
 7821SOL     OW24361   5.740   6.122   0.617
 7821SOL    HW124362   5.823   6.130   0.673
 7821SOL    HW224363   5.689   6.207   0.621
 7822SOL     OW24364   1.717   1.545   6.338
 7822SOL    HW124365   1.677   1.602   6.409
 7822SOL    HW224366   1.648   1.482   6.302
 7823SOL     OW24367   2.214   4.232   6.357
 7823SOL    HW124368   2.188   4.302   6.291
 7823SOL    HW224369   2.312   4.237   6.374
 7824SOL     OW24370   5.593   0.130   5.096
 7824SOL    HW124371   5.626   0.036   5.093
 7824SOL    HW224372   5.502   0.135   5.055
 7825SOL     OW24373   1.687   2.914   1.180
 7825SOL    HW124374   1.635   2.831   1.163
 7825SOL    HW224375   1.704   2.960   1.093
 7826SOL     OW24376   4.869   2.030   6.285
 7826SOL    HW124377   4.838   2.123   6.265
 7826SOL    HW224378   4.933   2.032   6.362
 7827SOL     OW24379   3.242   4.747   0.954
 7827SOL    HW124380   3.255   4.834   0.906
 7827SOL    HW224381   3.151   4.711   0.934
 7828SOL     OW24382   6.999   5.156   0.847
 7828SOL    HW124383   0.048   5.134   0.777
 7828SOL    HW224384   6.986   5.078   0.908
 7829SOL     OW24385   2.224   2.671   0.481
 7829SOL    HW124386   2.288   2.601   0.451
 7829SOL    HW224387   2.169   2.637   0.558
 7830SOL     OW24388   5.133   3.893   6.238
 7830SOL    HW124389   5.061   3.838   6.194
 7830SOL    HW224390   5.156   3.970   6.178
 7831SOL     OW24391   1.244   5.317   0.395
 7831SOL    HW124392   1.264   5.409   0.429
 7831SOL    HW224393   1.185   5.269   0.460
 7832SOL     OW24394   3.477   1.448   4.042
 7832SOL    HW124395   3.577   1.443   4.046
 7832SOL    HW224396   3.450   1.508   3.967
 7833SOL     OW24397   0.511   0.915   6.898
 7833SOL    HW124398   0.545   1.009   6.889
 7833SOL    HW224399   0.429   0.904   6.842
 7834SOL     OW24400   0.722   1.719   2.639
 7834SOL    HW124401   0.671   1.687   2.559
 7834SOL    HW224402   0.698   1.814   2.657
 7835SOL     OW24403   1.917   2.282   5.119
 7835SOL    HW124404   1.932   2.184   5.108
 7835SOL    HW224405   1.822   2.304   5.098
 7836SOL     OW24406   3.506   1.906   6.347
 7836SOL    HW124407   3.554   1.902   6.435
 7836SOL    HW224408   3.499   2.001   6.317
 7837SOL     OW24409   6.414   6.417   1.423
 7837SOL    HW124410   6.320   6.450   1.436
 7837SOL    HW224411   6.441   6.362   1.502
 7838SOL     OW24412   4.411   5.779   6.695
 7838SOL    HW124413   4.492   5.754   6.642
 7838SOL    HW224414   4.380   5.870   6.668
 7839SOL     OW24415   6.410   4.848   5.525
 7839SOL    HW124416   6.342   4.921   5.529
 7839SOL    HW224417   6.419   4.806   5.615
 7840SOL     OW24418   5.207   3.746   4.176
 7840SOL    HW124419   5.108   3.754   4.166
 7840SOL    HW224420   5.237   3.795   4.257
 7841SOL     OW24421   5.713   1.348   6.812
 7841SOL    HW124422   5.777   1.331   6.737
 7841SOL    HW224423   5.765   1.358   6.897
 7842SOL     OW24424   1.932   1.093   3.119
 7842SOL    HW124425   1.946   1.157   3.194
 7842SOL    HW224426   2.013   1.034   3.110
 7843SOL     OW24427   5.726   4.628   1.775
 7843SOL    HW124428   5.783   4.576   1.838
 7843SOL    HW224429   5.683   4.566   1.709
 7844SOL     OW24430   4.537   0.218   3.768
 7844SOL    HW124431   4.468   0.196   3.837
 7844SOL    HW224432   4.570   0.134   3.725
 7845SOL     OW24433   0.131   1.098   3.800
 7845SOL    HW124434   0.180   1.143   3.726
 7845SOL    HW224435   0.041   1.139   3.810
 7846SOL     OW24436   1.307   0.584   1.808
 7846SOL    HW124437   1.356   0.537   1.734
 7846SOL    HW224438   1.209   0.566   1.799
 7847SOL     OW24439   6.878   1.702   1.581
 7847SOL    HW124440   6.802   1.753   1.541
 7847SOL    HW224441   6.918   1.642   1.512
 7848SOL     OW24442   2.984   4.087   1.102
 7848SOL    HW124443   3.053   4.114   1.170
 7848SOL    HW224444   2.904   4.049   1.149
 7849SOL     OW24445   5.158   3.925   3.909
 7849SOL    HW124446   5.177   3.942   4.005
 7849SOL    HW224447   5.065   3.954   3.887
 7850SOL     OW24448   0.158   1.614   4.008
 7850SOL    HW124449   0.165   1.693   4.069
 7850SOL    HW224450   0.230   1.621   3.938
 7851SOL     OW24451   6.550   0.211   0.592
 7851SOL    HW124452   6.560   0.268   0.674
 7851SOL    HW224453   6.509   0.124   0.617
 7852SOL     OW24454   2.930   0.355   5.862
 7852SOL    HW124455   2.837   0.384   5.884
 7852SOL    HW224456   2.936   0.256   5.868
 7853SOL     OW24457   3.948   1.524   1.933
 7853SOL    HW124458   3.960   1.620   1.906
 7853SOL    HW224459   3.851   1.502   1.936
 7854SOL     OW24460   3.496   4.606   0.993
 7854SOL    HW124461   3.414   4.661   1.007
 7854SOL    HW224462   3.514   4.597   0.895
 7855SOL     OW24463   3.868   5.699   5.908
 7855SOL    HW124464   3.895   5.787   5.869
 7855SOL    HW224465   3.872   5.703   6.007
 7856SOL     OW24466   6.135   4.668   3.702
 7856SOL    HW124467   6.136   4.768   3.703
 7856SOL    HW224468   6.077   4.635   3.628
 7857SOL     OW24469   6.614   2.643   5.506
 7857SOL    HW124470   6.534   2.616   5.560
 7857SOL    HW224471   6.665   2.713   5.555
 7858SOL     OW24472   4.822   5.328   4.022
 7858SOL    HW124473   4.889   5.386   4.068
 7858SOL    HW224474   4.826   5.236   4.061
 7859SOL     OW24475   6.522   4.395   5.827
 7859SOL    HW124476   6.484   4.356   5.743
 7859SOL    HW224477   6.598   4.338   5.858
 7860SOL     OW24478   4.085   6.389   2.944
 7860SOL    HW124479   4.038   6.325   2.883
 7860SOL    HW224480   4.024   6.465   2.967
 7861SOL     OW24481   3.966   5.402   2.163
 7861SOL    HW124482   3.923   5.371   2.078
 7861SOL    HW224483   3.904   5.463   2.212
 7862SOL     OW24484   3.090   4.556   1.670
 7862SOL    HW124485   3.001   4.534   1.708
 7862SOL    HW224486   3.120   4.480   1.612
 7863SOL     OW24487   6.541   6.777   3.833
 7863SOL    HW124488   6.451   6.755   3.870
 7863SOL    HW224489   6.532   6.805   3.737
 7864SOL     OW24490   6.784   6.629   5.704
 7864SOL    HW124491   6.834   6.580   5.633
 7864SOL    HW224492   6.687   6.632   5.680
 7865SOL     OW24493   4.861   6.727   4.076
 7865SOL    HW124494   4.916   6.811   4.069
 7865SOL    HW224495   4.900   6.656   4.017
 7866SOL     OW24496   2.352   2.338   0.696
 7866SOL    HW124497   2.271   2.387   0.728
 7866SOL    HW224498   2.342   2.317   0.599
 7867SOL     OW24499   5.225   5.587   2.150
 7867SOL    HW124500   5.185   5.541   2.229
 7867SOL    HW224501   5.247   5.519   2.080
 7868SOL     OW24502   5.779   6.998   2.529
 7868SOL    HW124503   5.693   0.027   2.547
 7868SOL    HW224504   5.788   6.922   2.594
 7869SOL     OW24505   6.012   3.638   0.581
 7869SOL    HW124506   5.926   3.688   0.571
 7869SOL    HW224507   6.073   3.662   0.505
 7870SOL     OW24508   5.124   5.871   3.784
 7870SOL    HW124509   5.137   5.837   3.878
 7870SOL    HW224510   5.114   5.970   3.786
 7871SOL     OW24511   6.054   3.866   2.739
 7871SOL    HW124512   6.010   3.839   2.653
 7871SOL    HW224513   6.115   3.944   2.722
 7872SOL     OW24514   1.490   4.728   2.741
 7872SOL    HW124515   1.534   4.802   2.690
 7872SOL    HW224516   1.557   4.689   2.806
 7873SOL     OW24517   5.017   6.812   5.308
 7873SOL    HW124518   5.035   6.816   5.406
 7873SOL    HW224519   5.100   6.837   5.258
 7874SOL     OW24520   5.619   1.016   0.388
 7874SOL    HW124521   5.584   1.101   0.348
 7874SOL    HW224522   5.614   1.022   0.488
 7875SOL     OW24523   3.918   3.343   6.847
 7875SOL    HW124524   3.967   3.360   6.761
 7875SOL    HW224525   3.909   3.244   6.861
 7876SOL     OW24526   6.844   0.058   4.987
 7876SOL    HW124527   6.900   7.015   4.932
 7876SOL    HW224528   6.838   0.025   5.081
 7877SOL     OW24529   0.317   3.491   2.449
 7877SOL    HW124530   0.218   3.502   2.460
 7877SOL    HW224531   0.351   3.559   2.384
 7878SOL     OW24532   5.108   4.978   3.858
 7878SOL    HW124533   5.191   4.927   3.839
 7878SOL    HW224534   5.042   4.965   3.784
 7879SOL     OW24535   4.265   5.741   3.609
 7879SOL    HW124536   4.333   5.729   3.537
 7879SOL    HW224537   4.223   5.653   3.630
 7880SOL     OW24538   0.406   5.104   0.954
 7880SOL    HW124539   0.468   5.030   0.980
 7880SOL    HW224540   0.345   5.125   1.031
 7881SOL     OW24541   6.224   3.253   4.903
 7881SOL    HW124542   6.125   3.267   4.910
 7881SOL    HW224543   6.256   3.285   4.814
 7882SOL     OW24544   1.694   2.857   3.168
 7882SOL    HW124545   1.640   2.858   3.252
 7882SOL    HW224546   1.690   2.767   3.126
 7883SOL     OW24547   1.828   6.694   1.098
 7883SOL    HW124548   1.878   6.673   1.182
 7883SOL    HW224549   1.837   6.792   1.078
 7884SOL     OW24550   1.712   4.263   3.788
 7884SOL    HW124551   1.750   4.355   3.789
 7884SOL    HW224552   1.761   4.206   3.722
 7885SOL     OW24553   6.317   6.246   2.492
 7885SOL    HW124554   6.326   6.153   2.457
 7885SOL    HW224555   6.371   6.308   2.434
 7886SOL     OW24556   4.507   3.624   1.441
 7886SOL    HW124557   4.434   3.691   1.426
 7886SOL    HW224558   4.525   3.575   1.356
 7887SOL     OW24559   3.466   2.489   5.529
 7887SOL    HW124560   3.511   2.420   5.585
 7887SOL    HW224561   3.438   2.448   5.442
 7888SOL     OW24562   0.089   0.311   5.059
 7888SOL    HW124563   0.154   0.255   5.007
 7888SOL    HW224564   0.075   0.271   5.150
 7889SOL     OW24565   0.611   4.515   6.908
 7889SOL    HW124566   0.651   4.541   6.821
 7889SOL    HW224567   0.554   4.590   6.943
 7890SOL     OW24568   0.418   3.512   3.856
 7890SOL    HW124569   0.341   3.526   3.793
 7890SOL    HW224570   0.504   3.522   3.806
 7891SOL     OW24571   1.107   3.751   4.383
 7891SOL    HW124572   1.096   3.784   4.477
 7891SOL    HW224573   1.201   3.767   4.353
 7892SOL     OW24574   0.938   2.113   4.056
 7892SOL    HW124575   0.914   2.161   3.971
 7892SOL    HW224576   0.919   2.172   4.134
 7893SOL     OW24577   6.160   0.033   2.091
 7893SOL    HW124578   6.135   0.092   2.168
 7893SOL    HW224579   6.197   6.967   2.126
 7894SOL     OW24580   2.801   0.857   1.167
 7894SOL    HW124581   2.887   0.906   1.183
 7894SOL    HW224582   2.745   0.909   1.102
 7895SOL     OW24583   4.263   6.544   5.390
 7895SOL    HW124584   4.351   6.585   5.414
 7895SOL    HW224585   4.189   6.594   5.434
 7896SOL     OW24586   5.509   3.503   1.200
 7896SOL    HW124587   5.589   3.445   1.219
 7896SOL    HW224588   5.484   3.555   1.281
 7897SOL     OW24589   3.203   3.081   0.897
 7897SOL    HW124590   3.190   3.171   0.853
 7897SOL    HW224591   3.164   3.084   0.989
 7898SOL     OW24592   3.886   0.157   4.024
 7898SOL    HW124593   3.949   0.138   3.949
 7898SOL    HW224594   3.935   0.199   4.100
 7899SOL     OW24595   6.343   6.899   1.733
 7899SOL    HW124596   6.351   6.997   1.746
 7899SOL    HW224597   6.371   6.875   1.640
 7900SOL     OW24598   0.917   4.300   1.922
 7900SOL    HW124599   0.875   4.390   1.915
 7900SOL    HW224600   0.921   4.272   2.018
 7901SOL     OW24601   4.810   0.912   6.049
 7901SOL    HW124602   4.798   0.997   5.999
 7901SOL    HW224603   4.750   0.842   6.010
 7902SOL     OW24604   6.268   5.895   3.198
 7902SOL    HW124605   6.342   5.901   3.131
 7902SOL    HW224606   6.230   5.803   3.197
 7903SOL     OW24607   4.559   1.863   3.029
 7903SOL    HW124608   4.473   1.826   3.065
 7903SOL    HW224609   4.614   1.898   3.105
 7904SOL     OW24610   5.724   0.591   3.398
 7904SOL    HW124611   5.632   0.552   3.407
 7904SOL    HW224612   5.718   0.691   3.395
 7905SOL     OW24613   6.015   2.054   0.932
 7905SOL    HW124614   5.997   2.101   1.019
 7905SOL    HW224615   6.113   2.033   0.926
 7906SOL     OW24616   1.099   5.820   0.609
 7906SOL    HW124617   1.010   5.849   0.573
 7906SOL    HW224618   1.162   5.805   0.534
 7907SOL     OW24619   6.668   1.315   3.233
 7907SOL    HW124620   6.635   1.310   3.139
 7907SOL    HW224621   6.764   1.287   3.235
 7908SOL     OW24622   1.077   1.263   6.031
 7908SOL    HW124623   0.999   1.271   5.970
 7908SOL    HW224624   1.150   1.325   6.000
 7909SOL     OW24625   4.699   4.477   3.699
 7909SOL    HW124626   4.756   4.557   3.718
 7909SOL    HW224627   4.640   4.496   3.621
 7910SOL     OW24628   1.625   3.477   0.628
 7910SOL    HW124629   1.683   3.396   0.620
 7910SOL    HW224630   1.664   3.539   0.696
 7911SOL     OW24631   0.803   4.149   1.168
 7911SOL    HW124632   0.855   4.155   1.253
 7911SOL    HW224633   0.743   4.229   1.160
 7912SOL     OW24634   5.428   4.013   0.989
 7912SOL    HW124635   5.372   3.939   1.028
 7912SOL    HW224636   5.372   4.068   0.927
 7913SOL     OW24637   1.311   4.339   1.633
 7913SOL    HW124638   1.361   4.262   1.674
 7913SOL    HW224639   1.213   4.319   1.635
 7914SOL     OW24640   0.423   4.341   0.956
 7914SOL    HW124641   0.520   4.348   0.933
 7914SOL    HW224642   0.404   4.249   0.991
 7915SOL     OW24643   4.597   1.997   2.803
 7915SOL    HW124644   4.589   1.957   2.894
 7915SOL    HW224645   4.579   2.095   2.808
 7916SOL     OW24646   0.733   6.603   5.507
 7916SOL    HW124647   0.815   6.657   5.489
 7916SOL    HW224648   0.757   6.524   5.563
 7917SOL     OW24649   4.170   3.066   5.481
 7917SOL    HW124650   4.140   3.133   5.549
 7917SOL    HW224651   4.266   3.085   5.456
 7918SOL     OW24652   6.834   1.189   4.656
 7918SOL    HW124653   6.886   1.268   4.690
 7918SOL    HW224654   6.747   1.183   4.705
 7919SOL     OW24655   0.998   4.758   2.362
 7919SOL    HW124656   1.034   4.850   2.351
 7919SOL    HW224657   1.021   4.723   2.453
 7920SOL     OW24658   5.425   0.021   1.759
 7920SOL    HW124659   5.399   7.001   1.847
 7920SOL    HW224660   5.460   0.114   1.773
 7921SOL     OW24661   5.715   6.668   2.362
 7921SOL    HW124662   5.644   6.686   2.430
 7921SOL    HW224663   5.675   6.673   2.271
 7922SOL     OW24664   0.838   5.649   0.020
 7922SOL    HW124665   0.807   5.630   6.947
 7922SOL    HW224666   0.937   5.665   0.020
 7923SOL     OW24667   3.373   1.559   5.597
 7923SOL    HW124668   3.320   1.584   5.677
 7923SOL    HW224669   3.430   1.479   5.617
 7924SOL     OW24670   4.371   0.105   1.186
 7924SOL    HW124671   4.347   0.169   1.259
 7924SOL    HW224672   4.291   0.050   1.162
 7925SOL     OW24673   1.038   0.093   0.917
 7925SOL    HW124674   1.020   0.169   0.854
 7925SOL    HW224675   1.009   0.119   1.009
 7926SOL     OW24676   5.381   1.631   6.940
 7926SOL    HW124677   5.341   1.627   0.012
 7926SOL    HW224678   5.436   1.549   6.924
 7927SOL     OW24679   4.559   0.051   2.348
 7927SOL    HW124680   4.483   7.007   2.351
 7927SOL    HW224681   4.624   0.029   2.421
 7928SOL     OW24682   0.138   1.940   3.960
 7928SOL    HW124683   0.212   1.896   4.010
 7928SOL    HW224684   0.161   2.036   3.944
 7929SOL     OW24685   3.751   3.719   5.674
 7929SOL    HW124686   3.733   3.676   5.763
 7929SOL    HW224687   3.764   3.818   5.687
 7930SOL     OW24688   3.836   5.186   6.227
 7930SOL    HW124689   3.881   5.138   6.152
 7930SOL    HW224690   3.894   5.185   6.308
 7931SOL     OW24691   4.225   2.872   0.893
 7931SOL    HW124692   4.271   2.789   0.862
 7931SOL    HW224693   4.149   2.847   0.953
 7932SOL     OW24694   1.270   5.430   6.679
 7932SOL    HW124695   1.254   5.359   6.611
 7932SOL    HW224696   1.332   5.394   6.750
 7933SOL     OW24697   6.657   0.522   5.810
 7933SOL    HW124698   6.578   0.522   5.871
 7933SOL    HW224699   6.676   0.428   5.781
 7934SOL     OW24700   1.700   5.310   6.745
 7934SOL    HW124701   1.656   5.277   6.661
 7934SOL    HW224702   1.634   5.307   6.820
 7935SOL     OW24703   5.383   6.394   1.340
 7935SOL    HW124704   5.434   6.368   1.258
 7935SOL    HW224705   5.375   6.315   1.401
 7936SOL     OW24706   2.954   5.617   3.333
 7936SOL    HW124707   2.861   5.622   3.370
 7936SOL    HW224708   2.956   5.659   3.243
 7937SOL     OW24709   0.878   6.000   3.721
 7937SOL    HW124710   0.868   6.097   3.703
 7937SOL    HW224711   0.895   5.985   3.818
 7938SOL     OW24712   5.949   6.130   5.235
 7938SOL    HW124713   6.020   6.124   5.166
 7938SOL    HW224714   5.988   6.114   5.325
 7939SOL     OW24715   1.346   2.238   5.638
 7939SOL    HW124716   1.345   2.189   5.725
 7939SOL    HW224717   1.360   2.174   5.563
 7940SOL     OW24718   2.662   2.339   2.928
 7940SOL    HW124719   2.636   2.313   2.835
 7940SOL    HW224720   2.610   2.419   2.956
 7941SOL     OW24721   5.551   6.510   2.666
 7941SOL    HW124722   5.650   6.511   2.650
 7941SOL    HW224723   5.526   6.586   2.726
 7942SOL     OW24724   0.820   3.727   3.206
 7942SOL    HW124725   0.843   3.631   3.188
 7942SOL    HW224726   0.721   3.739   3.199
 7943SOL     OW24727   0.468   4.412   5.613
 7943SOL    HW124728   0.389   4.413   5.551
 7943SOL    HW224729   0.465   4.330   5.671
 7944SOL     OW24730   0.840   2.897   1.369
 7944SOL    HW124731   0.891   2.968   1.321
 7944SOL    HW224732   0.802   2.934   1.454
 7945SOL     OW24733   6.146   5.898   1.837
 7945SOL    HW124734   6.228   5.847   1.866
 7945SOL    HW224735   6.140   5.897   1.738
 7946SOL     OW24736   3.432   0.690   5.774
 7946SOL    HW124737   3.521   0.685   5.820
 7946SOL    HW224738   3.446   0.703   5.676
 7947SOL     OW24739   2.577   1.853   5.338
 7947SOL    HW124740   2.481   1.828   5.324
 7947SOL    HW224741   2.628   1.773   5.368
 7948SOL     OW24742   1.011   5.515   0.990
 7948SOL    HW124743   1.056   5.444   0.937
 7948SOL    HW224744   0.915   5.490   1.005
 7949SOL     OW24745   4.381   4.140   6.006
 7949SOL    HW124746   4.427   4.060   6.044
 7949SOL    HW224747   4.448   4.211   5.985
 7950SOL     OW24748   4.424   5.791   4.595
 7950SOL    HW124749   4.345   5.801   4.535
 7950SOL    HW224750   4.436   5.695   4.619
 7951SOL     OW24751   1.590   5.018   2.243
 7951SOL    HW124752   1.672   5.049   2.195
 7951SOL    HW224753   1.509   5.059   2.201
 7952SOL     OW24754   0.154   3.108   0.412
 7952SOL    HW124755   0.249   3.129   0.436
 7952SOL    HW224756   0.151   3.071   0.319
 7953SOL     OW24757   4.599   2.310   2.028
 7953SOL    HW124758   4.563   2.316   1.934
 7953SOL    HW224759   4.697   2.329   2.028
 7954SOL     OW24760   3.830   4.604   6.265
 7954SOL    HW124761   3.767   4.679   6.252
 7954SOL    HW224762   3.923   4.634   6.243
 7955SOL     OW24763   2.096   1.183   6.618
 7955SOL    HW124764   2.026   1.178   6.690
 7955SOL    HW224765   2.081   1.109   6.553
 7956SOL     OW24766   4.976   0.881   1.919
 7956SOL    HW124767   5.009   0.881   2.013
 7956SOL    HW224768   4.890   0.830   1.914
 7957SOL     OW24769   1.709   1.060   0.384
 7957SOL    HW124770   1.726   0.978   0.329
 7957SOL    HW224771   1.790   1.080   0.439
 7958SOL     OW24772   4.799   5.065   6.071
 7958SOL    HW124773   4.750   5.109   6.147
 7958SOL    HW224774   4.732   5.027   6.007
 7959SOL     OW24775   5.221   6.683   0.434
 7959SOL    HW124776   5.198   6.744   0.358
 7959SOL    HW224777   5.197   6.727   0.521
 7960SOL     OW24778   1.688   0.910   5.960
 7960SOL    HW124779   1.630   0.854   6.019
 7960SOL    HW224780   1.718   0.991   6.011
 7961SOL     OW24781   6.506   0.486   1.071
 7961SOL    HW124782   6.563   0.559   1.034
 7961SOL    HW224783   6.564   0.416   1.113
 7962SOL     OW24784   0.474   1.011   5.476
 7962SOL    HW124785   0.506   1.028   5.382
 7962SOL    HW224786   0.376   1.027   5.481
 7963SOL     OW24787   6.102   5.663   4.360
 7963SOL    HW124788   6.062   5.644   4.449
 7963SOL    HW224789   6.201   5.646   4.364
 7964SOL     OW24790   6.404   3.647   3.074
 7964SOL    HW124791   6.390   3.661   2.977
 7964SOL    HW224792   6.384   3.552   3.098
 7965SOL     OW24793   3.885   2.179   6.280
 7965SOL    HW124794   3.812   2.136   6.334
 7965SOL    HW224795   3.847   2.253   6.225
 7966SOL     OW24796   2.999   3.396   5.779
 7966SOL    HW124797   2.939   3.317   5.792
 7966SOL    HW224798   2.944   3.476   5.755
 7967SOL     OW24799   2.738   5.596   1.832
 7967SOL    HW124800   2.795   5.550   1.901
 7967SOL    HW224801   2.773   5.575   1.741
 7968SOL     OW24802   6.167   2.334   4.633
 7968SOL    HW124803   6.147   2.304   4.540
 7968SOL    HW224804   6.173   2.434   4.634
 7969SOL     OW24805   6.057   5.808   1.099
 7969SOL    HW124806   6.090   5.885   1.045
 7969SOL    HW224807   6.134   5.767   1.148
 7970SOL     OW24808   6.706   3.566   2.078
 7970SOL    HW124809   6.672   3.648   2.124
 7970SOL    HW224810   6.632   3.523   2.026
 7971SOL     OW24811   3.189   1.752   1.151
 7971SOL    HW124812   3.223   1.661   1.176
 7971SOL    HW224813   3.104   1.742   1.099
 7972SOL     OW24814   2.939   3.443   0.967
 7972SOL    HW124815   2.868   3.432   1.036
 7972SOL    HW224816   2.947   3.539   0.942
 7973SOL     OW24817   4.464   5.049   4.231
 7973SOL    HW124818   4.470   5.086   4.324
 7973SOL    HW224819   4.522   4.969   4.224
 7974SOL     OW24820   6.184   0.904   5.932
 7974SOL    HW124821   6.110   0.941   5.875
 7974SOL    HW224822   6.144   0.848   6.005
 7975SOL     OW24823   5.507   0.356   1.014
 7975SOL    HW124824   5.425   0.348   1.071
 7975SOL    HW224825   5.547   0.447   1.026
 7976SOL     OW24826   0.890   0.208   6.105
 7976SOL    HW124827   0.966   0.272   6.094
 7976SOL    HW224828   0.882   0.181   6.201
 7977SOL     OW24829   4.021   5.816   2.612
 7977SOL    HW124830   4.027   5.904   2.564
 7977SOL    HW224831   3.995   5.832   2.707
 7978SOL     OW24832   6.747   2.838   6.311
 7978SOL    HW124833   6.747   2.930   6.351
 7978SOL    HW224834   6.669   2.786   6.347
 7979SOL     OW24835   2.966   4.892   5.566
 7979SOL    HW124836   2.974   4.979   5.517
 7979SOL    HW224837   2.890   4.839   5.528
 7980SOL     OW24838   3.313   5.418   6.730
 7980SOL    HW124839   3.305   5.336   6.673
 7980SOL    HW224840   3.393   5.408   6.789
 7981SOL     OW24841   1.197   4.636   1.866
 7981SOL    HW124842   1.104   4.659   1.838
 7981SOL    HW224843   1.261   4.660   1.793
 7982SOL     OW24844   1.473   1.368   6.574
 7982SOL    HW124845   1.460   1.364   6.673
 7982SOL    HW224846   1.384   1.358   6.529
 7983SOL     OW24847   6.277   2.472   0.555
 7983SOL    HW124848   6.374   2.468   0.577
 7983SOL    HW224849   6.260   2.426   0.468
 7984SOL     OW24850   0.483   1.295   0.218
 7984SOL    HW124851   0.456   1.289   0.122
 7984SOL    HW224852   0.411   1.340   0.271
 7985SOL     OW24853   2.876   2.251   4.487
 7985SOL    HW124854   2.837   2.332   4.442
 7985SOL    HW224855   2.837   2.243   4.579
 7986SOL     OW24856   3.059   0.721   6.315
 7986SOL    HW124857   2.960   0.710   6.326
 7986SOL    HW224858   3.084   0.814   6.342
 7987SOL     OW24859   2.013   2.556   0.019
 7987SOL    HW124860   1.972   2.637   6.996
 7987SOL    HW224861   2.051   2.497   6.967
 7988SOL     OW24862   1.581   0.727   2.679
 7988SOL    HW124863   1.521   0.796   2.721
 7988SOL    HW224864   1.527   0.669   2.618
 7989SOL     OW24865   2.651   2.924   0.061
 7989SOL    HW124866   2.646   3.024   0.059
 7989SOL    HW224867   2.746   2.896   0.046
 7990SOL     OW24868   2.150   5.031   4.588
 7990SOL    HW124869   2.081   5.060   4.655
 7990SOL    HW224870   2.111   4.960   4.529
 7991SOL     OW24871   5.849   1.564   4.059
 7991SOL    HW124872   5.937   1.607   4.040
 7991SOL    HW224873   5.864   1.470   4.090
 7992SOL     OW24874   1.246   0.494   0.662
 7992SOL    HW124875   1.234   0.399   0.632
 7992SOL    HW224876   1.278   0.495   0.757
 7993SOL     OW24877   0.444   0.014   1.114
 7993SOL    HW124878   0.485   0.050   1.198
 7993SOL    HW224879   0.468   0.074   1.038
 7994SOL     OW24880   3.936   6.927   3.413
 7994SOL    HW124881   4.025   6.959   3.381
 7994SOL    HW224882   3.922   6.958   3.507
 7995SOL     OW24883   5.603   5.769   3.505
 7995SOL    HW124884   5.605   5.698   3.576
 7995SOL    HW224885   5.680   5.756   3.443
 7996SOL     OW24886   3.575   6.242   4.495
 7996SOL    HW124887   3.657   6.189   4.516
 7996SOL    HW224888   3.494   6.193   4.527
 7997SOL     OW24889   6.669   1.217   0.017
 7997SOL    HW124890   6.745   1.268   0.057
 7997SOL    HW224891   6.679   1.215   6.937
 7998SOL     OW24892   3.299   0.355   0.414
 7998SOL    HW124893   3.237   0.278   0.397
 7998SOL    HW224894   3.384   0.320   0.454
 7999SOL     OW24895   0.654   1.111   5.908
 7999SOL    HW124896   0.571   1.159   5.937
 7999SOL    HW224897   0.631   1.041   5.841
 8000SOL     OW24898   5.017   6.550   6.637
 8000SOL    HW124899   4.973   6.491   6.705
 8000SOL    HW224900   5.076   6.616   6.684
 8001SOL     OW24901   4.231   6.180   1.719
 8001SOL    HW124902   4.179   6.264   1.708
 8001SOL    HW224903   4.267   6.151   1.630
 8002SOL     OW24904   1.378   0.447   6.216
 8002SOL    HW124905   1.424   0.389   6.149
 8002SOL    HW224906   1.402   0.417   6.308
 8003SOL     OW24907   2.300   5.755   1.844
 8003SOL    HW124908   2.307   5.740   1.745
 8003SOL    HW224909   2.391   5.772   1.882
 8004SOL     OW24910   1.747   3.436   3.647
 8004SOL    HW124911   1.680   3.455   3.719
 8004SOL    HW224912   1.737   3.342   3.616
 8005SOL     OW24913   2.939   0.532   3.214
 8005SOL    HW124914   3.015   0.475   3.246
 8005SOL    HW224915   2.879   0.553   3.291
 8006SOL     OW24916   2.391   5.999   5.361
 8006SOL    HW124917   2.376   6.097   5.352
 8006SOL    HW224918   2.309   5.956   5.399
 8007SOL     OW24919   5.927   1.669   6.276
 8007SOL    HW124920   5.948   1.755   6.323
 8007SOL    HW224921   5.891   1.603   6.342
 8008SOL     OW24922   3.812   6.067   6.416
 8008SOL    HW124923   3.728   6.013   6.418
 8008SOL    HW224924   3.791   6.163   6.437
 8009SOL     OW24925   5.093   0.498   0.916
 8009SOL    HW124926   5.149   0.435   0.862
 8009SOL    HW224927   5.021   0.446   0.963
 8010SOL     OW24928   2.207   1.989   5.123
 8010SOL    HW124929   2.249   1.961   5.036
 8010SOL    HW224930   2.224   2.086   5.138
 8011SOL     OW24931   3.594   1.979   1.286
 8011SOL    HW124932   3.539   1.976   1.369
 8011SOL    HW224933   3.574   1.898   1.230
 8012SOL     OW24934   2.069   3.620   6.982
 8012SOL    HW124935   2.008   3.542   6.996
 8012SOL    HW224936   2.040   3.696   0.022
 8013SOL     OW24937   1.140   5.050   3.240
 8013SOL    HW124938   1.146   4.951   3.252
 8013SOL    HW224939   1.231   5.086   3.217
 8014SOL     OW24940   1.681   0.046   4.672
 8014SOL    HW124941   1.779   0.065   4.672
 8014SOL    HW224942   1.664   6.978   4.627
 8015SOL     OW24943   2.009   0.650   6.252
 8015SOL    HW124944   2.074   0.576   6.269
 8015SOL    HW224945   1.988   0.655   6.154
 8016SOL     OW24946   3.958   0.767   5.734
 8016SOL    HW124947   3.869   0.807   5.713
 8016SOL    HW224948   3.945   0.685   5.789
 8017SOL     OW24949   5.834   0.057   0.065
 8017SOL    HW124950   5.919   0.082   0.112
 8017SOL    HW224951   5.768   0.022   0.132
 8018SOL     OW24952   3.370   2.381   0.456
 8018SOL    HW124953   3.326   2.448   0.515
 8018SOL    HW224954   3.466   2.404   0.444
 8019SOL     OW24955   2.249   4.864   1.483
 8019SOL    HW124956   2.245   4.865   1.583
 8019SOL    HW224957   2.245   4.957   1.448
 8020SOL     OW24958   6.281   6.922   6.344
 8020SOL    HW124959   6.253   6.875   6.260
 8020SOL    HW224960   6.206   6.980   6.376
 8021SOL     OW24961   1.398   3.001   1.000
 8021SOL    HW124962   1.453   3.021   0.919
 8021SOL    HW224963   1.392   2.902   1.013
 8022SOL     OW24964   5.997   0.521   2.039
 8022SOL    HW124965   5.989   0.595   2.104
 8022SOL    HW224966   6.085   0.474   2.052
 8023SOL     OW24967   5.548   4.723   2.433
 8023SOL    HW124968   5.606   4.643   2.422
 8023SOL    HW224969   5.475   4.703   2.499
 8024SOL     OW24970   1.073   5.077   6.202
 8024SOL    HW124971   1.080   5.003   6.134
 8024SOL    HW224972   1.142   5.146   6.183
 8025SOL     OW24973   2.181   5.646   0.848
 8025SOL    HW124974   2.121   5.601   0.782
 8025SOL    HW224975   2.260   5.587   0.866
 8026SOL     OW24976   6.889   3.912   1.056
 8026SOL    HW124977   6.800   3.957   1.054
 8026SOL    HW224978   6.949   3.954   0.989
 8027SOL     OW24979   3.764   0.077   5.232
 8027SOL    HW124980   3.829   0.056   5.306
 8027SOL    HW224981   3.794   0.160   5.185
 8028SOL     OW24982   3.928   5.114   4.799
 8028SOL    HW124983   3.834   5.147   4.792
 8028SOL    HW224984   3.930   5.030   4.854
 8029SOL     OW24985   5.548   2.831   1.893
 8029SOL    HW124986   5.612   2.760   1.864
 8029SOL    HW224987   5.488   2.854   1.816
 8030SOL     OW24988   5.754   4.913   0.101
 8030SOL    HW124989   5.687   4.840   0.089
 8030SOL    HW224990   5.709   5.001   0.090
 8031SOL     OW24991   6.638   6.197   2.654
 8031SOL    HW124992   6.729   6.156   2.655
 8031SOL    HW224993   6.632   6.267   2.725
 8032SOL     OW24994   5.874   4.452   1.921
 8032SOL    HW124995   5.796   4.392   1.901
 8032SOL    HW224996   5.959   4.404   1.901
 8033SOL     OW24997   4.509   2.928   0.073
 8033SOL    HW124998   4.594   2.977   0.094
 8033SOL    HW224999   4.530   2.835   0.044
 8034SOL     OW25000   4.660   7.016   5.500
 8034SOL    HW125001   4.618   7.013   5.410
 8034SOL    HW225002   4.589   0.013   5.569
 8035SOL     OW25003   5.166   1.770   2.207
 8035SOL    HW125004   5.121   1.771   2.296
 8035SOL    HW225005   5.130   1.845   2.151
 8036SOL     OW25006   6.358   3.704   4.240
 8036SOL    HW125007   6.436   3.766   4.232
 8036SOL    HW225008   6.278   3.755   4.274
 8037SOL     OW25009   2.326   3.358   6.598
 8037SOL    HW125010   2.287   3.447   6.621
 8037SOL    HW225011   2.346   3.308   6.682
 8038SOL     OW25012   4.302   0.303   2.388
 8038SOL    HW125013   4.380   0.250   2.420
 8038SOL    HW225014   4.236   0.243   2.343
 8039SOL     OW25015   6.805   1.626   5.062
 8039SOL    HW125016   6.715   1.593   5.090
 8039SOL    HW225017   6.807   1.639   4.963
 8040SOL     OW25018   1.266   5.764   0.179
 8040SOL    HW125019   1.258   5.783   0.082
 8040SOL    HW225020   1.196   5.698   0.207
 8041SOL     OW25021   3.320   0.984   2.848
 8041SOL    HW125022   3.246   0.925   2.819
 8041SOL    HW225023   3.308   1.009   2.945
 8042SOL     OW25024   3.856   3.291   5.327
 8042SOL    HW125025   3.891   3.375   5.369
 8042SOL    HW225026   3.770   3.266   5.371
 8043SOL     OW25027   3.424   5.233   0.673
 8043SOL    HW125028   3.450   5.258   0.580
 8043SOL    HW225029   3.333   5.268   0.693
 8044SOL     OW25030   4.158   3.403   0.954
 8044SOL    HW125031   4.176   3.455   0.870
 8044SOL    HW225032   4.102   3.457   1.016
 8045SOL     OW25033   5.945   2.312   2.525
 8045SOL    HW125034   6.041   2.339   2.535
 8045SOL    HW225035   5.934   2.262   2.439
 8046SOL     OW25036   0.875   4.414   2.789
 8046SOL    HW125037   0.859   4.371   2.878
 8046SOL    HW225038   0.814   4.374   2.721
 8047SOL     OW25039   3.688   5.881   6.670
 8047SOL    HW125040   3.590   5.890   6.656
 8047SOL    HW225041   3.729   5.972   6.678
 8048SOL     OW25042   4.168   1.812   6.867
 8048SOL    HW125043   4.239   1.783   6.804
 8048SOL    HW225044   4.120   1.891   6.830
 8049SOL     OW25045   1.002   6.921   0.596
 8049SOL    HW125046   0.933   6.993   0.607
 8049SOL    HW225047   1.064   6.946   0.522
 8050SOL     OW25048   1.646   3.181   3.846
 8050SOL    HW125049   1.720   3.114   3.841
 8050SOL    HW225050   1.678   3.264   3.892
 8051SOL     OW25051   4.908   6.356   4.923
 8051SOL    HW125052   4.925   6.446   4.961
 8051SOL    HW225053   4.963   6.288   4.972
 8052SOL     OW25054   2.819   1.809   1.413
 8052SOL    HW125055   2.867   1.782   1.497
 8052SOL    HW225056   2.750   1.877   1.435
 8053SOL     OW25057   3.655   3.074   4.695
 8053SOL    HW125058   3.566   3.046   4.730
 8053SOL    HW225059   3.714   3.103   4.770
 8054SOL     OW25060   0.048   4.116   4.900
 8054SOL    HW125061   0.027   4.115   4.802
 8054SOL    HW225062   0.140   4.079   4.915
 8055SOL     OW25063   6.664   0.755   5.392
 8055SOL    HW125064   6.601   0.682   5.367
 8055SOL    HW225065   6.617   0.843   5.388
 8056SOL     OW25066   2.857   0.868   4.736
 8056SOL    HW125067   2.769   0.914   4.733
 8056SOL    HW225068   2.864   0.803   4.660
 8057SOL     OW25069   2.691   2.427   3.313
 8057SOL    HW125070   2.736   2.368   3.381
 8057SOL    HW225071   2.728   2.407   3.222
 8058SOL     OW25072   3.521   6.637   3.228
 8058SOL    HW125073   3.434   6.681   3.251
 8058SOL    HW225074   3.596   6.683   3.274
 8059SOL     OW25075   2.529   1.298   4.873
 8059SOL    HW125076   2.579   1.292   4.960
 8059SOL    HW225077   2.590   1.332   4.802
 8060SOL     OW25078   0.301   2.088   6.322
 8060SOL    HW125079   0.361   2.164   6.347
 8060SOL    HW225080   0.350   2.025   6.262
 8061SOL     OW25081   0.676   0.263   2.442
 8061SOL    HW125082   0.714   0.356   2.448
 8061SOL    HW225083   0.577   0.268   2.430
 8062SOL     OW25084   3.946   4.867   3.848
 8062SOL    HW125085   4.038   4.829   3.839
 8062SOL    HW225086   3.927   4.927   3.770
 8063SOL     OW25087   2.365   1.576   2.977
 8063SOL    HW125088   2.438   1.598   3.041
 8063SOL    HW225089   2.390   1.495   2.925
 8064SOL     OW25090   5.966   2.448   0.982
 8064SOL    HW125091   5.884   2.502   0.964
 8064SOL    HW225092   6.033   2.463   0.909
 8065SOL     OW25093   2.907   6.149   3.823
 8065SOL    HW125094   2.895   6.125   3.727
 8065SOL    HW225095   2.999   6.125   3.853
 8066SOL     OW25096   0.015   0.462   5.560
 8066SOL    HW125097   0.010   0.543   5.618
 8066SOL    HW225098   0.061   0.485   5.474
 8067SOL     OW25099   5.227   2.691   2.757
 8067SOL    HW125100   5.194   2.776   2.716
 8067SOL    HW225101   5.285   2.642   2.692
 8068SOL     OW25102   6.743   4.399   1.506
 8068SOL    HW125103   6.703   4.411   1.597
 8068SOL    HW225104   6.828   4.347   1.515
 8069SOL     OW25105   1.597   5.128   1.413
 8069SOL    HW125106   1.578   5.177   1.328
 8069SOL    HW225107   1.696   5.124   1.428
 8070SOL     OW25108   3.776   3.221   0.594
 8070SOL    HW125109   3.703   3.197   0.531
 8070SOL    HW225110   3.821   3.305   0.564
 8071SOL     OW25111   2.895   6.532   5.586
 8071SOL    HW125112   2.950   6.486   5.516
 8071SOL    HW225113   2.808   6.561   5.546
 8072SOL     OW25114   3.460   1.853   1.065
 8072SOL    HW125115   3.462   1.928   0.998
 8072SOL    HW225116   3.366   1.835   1.093
 8073SOL     OW25117   3.696   6.411   5.431
 8073SOL    HW125118   3.646   6.421   5.517
 8073SOL    HW225119   3.762   6.336   5.439
 8074SOL     OW25120   3.089   2.452   0.581
 8074SOL    HW125121   3.138   2.537   0.563
 8074SOL    HW225122   3.137   2.400   0.652
 8075SOL     OW25123   6.756   6.858   0.930
 8075SOL    HW125124   6.737   6.954   0.909
 8075SOL    HW225125   6.708   6.799   0.866
 8076SOL     OW25126   6.009   0.045   5.624
 8076SOL    HW125127   6.046   0.018   5.712
 8076SOL    HW225128   5.933   0.109   5.638
 8077SOL     OW25129   3.704   6.203   2.429
 8077SOL    HW125130   3.737   6.275   2.490
 8077SOL    HW225131   3.675   6.124   2.483
 8078SOL     OW25132   0.710   1.977   1.048
 8078SOL    HW125133   0.665   2.062   1.023
 8078SOL    HW225134   0.640   1.909   1.074
 8079SOL     OW25135   6.523   1.795   3.518
 8079SOL    HW125136   6.479   1.807   3.428
 8079SOL    HW225137   6.578   1.711   3.516
 8080SOL     OW25138   0.978   2.129   2.469
 8080SOL    HW125139   0.957   2.130   2.567
 8080SOL    HW225140   1.060   2.075   2.453
 8081SOL     OW25141   6.098   5.371   6.473
 8081SOL    HW125142   6.194   5.401   6.476
 8081SOL    HW225143   6.077   5.336   6.382
 8082SOL     OW25144   3.711   0.877   2.461
 8082SOL    HW125145   3.780   0.818   2.503
 8082SOL    HW225146   3.745   0.970   2.455
 8083SOL     OW25147   4.893   2.830   3.571
 8083SOL    HW125148   4.992   2.824   3.587
 8083SOL    HW225149   4.871   2.793   3.481
 8084SOL     OW25150   3.526   6.917   6.717
 8084SOL    HW125151   3.598   6.854   6.747
 8084SOL    HW225152   3.523   6.996   6.777
 8085SOL     OW25153   5.926   5.975   2.237
 8085SOL    HW125154   5.882   5.986   2.326
 8085SOL    HW225155   5.918   6.060   2.185
 8086SOL     OW25156   6.481   1.040   1.856
 8086SOL    HW125157   6.540   0.972   1.813
 8086SOL    HW225158   6.471   1.019   1.953
 8087SOL     OW25159   1.853   0.096   6.870
 8087SOL    HW125160   1.898   0.155   6.803
 8087SOL    HW225161   1.766   0.064   6.833
 8088SOL     OW25162   5.877   0.977   1.422
 8088SOL    HW125163   5.947   0.994   1.491
 8088SOL    HW225164   5.870   0.879   1.404
 8089SOL     OW25165   5.350   2.748   0.318
 8089SOL    HW125166   5.337   2.841   0.283
 8089SOL    HW225167   5.345   2.749   0.418
 8090SOL     OW25168   3.453   1.259   6.470
 8090SOL    HW125169   3.406   1.307   6.545
 8090SOL    HW225170   3.397   1.182   6.440
 8091SOL     OW25171   1.787   3.934   4.784
 8091SOL    HW125172   1.807   3.836   4.772
 8091SOL    HW225173   1.689   3.947   4.795
 8092SOL     OW25174   5.325   1.587   5.448
 8092SOL    HW125175   5.353   1.530   5.525
 8092SOL    HW225176   5.279   1.530   5.379
 8093SOL     OW25177   2.679   5.359   3.286
 8093SOL    HW125178   2.669   5.287   3.354
 8093SOL    HW225179   2.744   5.330   3.215
 8094SOL     OW25180   0.133   3.410   4.733
 8094SOL    HW125181   0.199   3.336   4.742
 8094SOL    HW225182   0.120   3.433   4.637
 8095SOL     OW25183   0.869   4.556   4.711
 8095SOL    HW125184   0.947   4.592   4.762
 8095SOL    HW225185   0.785   4.599   4.744
 8096SOL     OW25186   2.244   0.234   2.470
 8096SOL    HW125187   2.172   0.178   2.429
 8096SOL    HW225188   2.274   0.193   2.556
 8097SOL     OW25189   4.545   7.005   5.261
 8097SOL    HW125190   4.506   6.915   5.240
 8097SOL    HW225191   4.516   0.051   5.191
 8098SOL     OW25192   1.697   6.692   3.441
 8098SOL    HW125193   1.603   6.714   3.413
 8098SOL    HW225194   1.694   6.625   3.516
 8099SOL     OW25195   4.085   5.914   4.195
 8099SOL    HW125196   3.993   5.930   4.159
 8099SOL    HW225197   4.142   5.995   4.178
 8100SOL     OW25198   0.222   0.212   0.051
 8100SOL    HW125199   0.258   0.162   0.130
 8100SOL    HW225200   0.277   0.294   0.036
 8101SOL     OW25201   1.650   5.547   1.526
 8101SOL    HW125202   1.563   5.584   1.493
 8101SOL    HW225203   1.688   5.608   1.596
 8102SOL     OW25204   0.379   3.928   3.542
 8102SOL    HW125205   0.395   4.002   3.477
 8102SOL    HW225206   0.441   3.939   3.620
 8103SOL     OW25207   2.936   6.769   1.526
 8103SOL    HW125208   2.983   6.721   1.601
 8103SOL    HW225209   2.839   6.779   1.548
 8104SOL     OW25210   1.675   0.594   6.301
 8104SOL    HW125211   1.687   0.574   6.398
 8104SOL    HW225212   1.604   0.535   6.263
 8105SOL     OW25213   0.123   3.516   3.234
 8105SOL    HW125214   0.051   3.447   3.226
 8105SOL    HW225215   0.088   3.604   3.200
 8106SOL     OW25216   3.232   5.664   3.395
 8106SOL    HW125217   3.174   5.612   3.333
 8106SOL    HW225218   3.324   5.625   3.396
 8107SOL     OW25219   0.523   4.984   4.150
 8107SOL    HW125220   0.428   4.999   4.176
 8107SOL    HW225221   0.552   4.893   4.180
 8108SOL     OW25222   6.233   2.894   6.448
 8108SOL    HW125223   6.175   2.964   6.407
 8108SOL    HW225224   6.294   2.937   6.515
 8109SOL     OW25225   6.446   3.895   6.209
 8109SOL    HW125226   6.455   3.992   6.186
 8109SOL    HW225227   6.511   3.842   6.155
 8110SOL     OW25228   3.778   5.925   2.260
 8110SOL    HW125229   3.777   5.928   2.359
 8110SOL    HW225230   3.704   5.867   2.227
 8111SOL     OW25231   5.128   1.211   4.674
 8111SOL    HW125232   5.133   1.111   4.672
 8111SOL    HW225233   5.162   1.244   4.762
 8112SOL     OW25234   2.385   2.715   4.484
 8112SOL    HW125235   2.288   2.691   4.486
 8112SOL    HW225236   2.400   2.795   4.542
 8113SOL     OW25237   1.114   3.319   0.609
 8113SOL    HW125238   1.030   3.281   0.571
 8113SOL    HW225239   1.193   3.265   0.579
 8114SOL     OW25240   1.484   4.073   2.816
 8114SOL    HW125241   1.397   4.118   2.837
 8114SOL    HW225242   1.483   3.981   2.854
 8115SOL     OW25243   3.906   0.124   6.258
 8115SOL    HW125244   3.965   0.070   6.200
 8115SOL    HW225245   3.878   0.070   6.338
 8116SOL     OW25246   4.886   4.931   0.594
 8116SOL    HW125247   4.921   4.954   0.685
 8116SOL    HW225248   4.799   4.884   0.603
 8117SOL     OW25249   2.095   0.110   3.616
 8117SOL    HW125250   2.087   0.097   3.517
 8117SOL    HW225251   2.165   0.179   3.635
 8118SOL     OW25252   5.183   4.207   6.558
 8118SOL    HW125253   5.141   4.261   6.631
 8118SOL    HW225254   5.183   4.111   6.585
 8119SOL     OW25255   5.188   5.513   6.435
 8119SOL    HW125256   5.264   5.532   6.498
 8119SOL    HW225257   5.205   5.557   6.347
 8120SOL     OW25258   3.124   5.021   1.111
 8120SOL    HW125259   3.142   4.927   1.139
 8120SOL    HW225260   3.160   5.037   1.019
 8121SOL     OW25261   0.018   5.033   1.904
 8121SOL    HW125262   0.072   4.976   1.965
 8121SOL    HW225263   7.010   5.117   1.952
 8122SOL     OW25264   6.690   4.491   3.466
 8122SOL    HW125265   6.626   4.420   3.436
 8122SOL    HW225266   6.678   4.573   3.409
 8123SOL     OW25267   6.703   1.987   6.341
 8123SOL    HW125268   6.771   2.060   6.349
 8123SOL    HW225269   6.632   1.999   6.411
 8124SOL     OW25270   4.919   6.197   1.682
 8124SOL    HW125271   4.994   6.260   1.660
 8124SOL    HW225272   4.843   6.250   1.721
 8125SOL     OW25273   1.864   1.382   2.779
 8125SOL    HW125274   1.829   1.297   2.819
 8125SOL    HW225275   1.924   1.428   2.845
 8126SOL     OW25276   5.127   4.206   2.816
 8126SOL    HW125277   5.079   4.201   2.728
 8126SOL    HW225278   5.216   4.248   2.803
 8127SOL     OW25279   2.720   3.953   6.298
 8127SOL    HW125280   2.662   3.907   6.366
 8127SOL    HW225281   2.762   3.885   6.239
 8128SOL     OW25282   2.981   2.194   2.299
 8128SOL    HW125283   2.975   2.260   2.224
 8128SOL    HW225284   3.070   2.147   2.295
 8129SOL     OW25285   3.636   1.522   5.901
 8129SOL    HW125286   3.634   1.490   5.806
 8129SOL    HW225287   3.648   1.621   5.903
 8130SOL     OW25288   0.603   4.008   6.810
 8130SOL    HW125289   0.565   3.915   6.811
 8130SOL    HW225290   0.653   4.024   6.895
 8131SOL     OW25291   2.390   2.342   1.491
 8131SOL    HW125292   2.444   2.384   1.418
 8131SOL    HW225293   2.322   2.281   1.451
 8132SOL     OW25294   5.796   6.728   5.681
 8132SOL    HW125295   5.735   6.656   5.647
 8132SOL    HW225296   5.761   6.764   5.767
 8133SOL     OW25297   3.419   5.457   2.202
 8133SOL    HW125298   3.504   5.486   2.157
 8133SOL    HW225299   3.435   5.445   2.300
 8134SOL     OW25300   6.769   2.406   6.141
 8134SOL    HW125301   6.735   2.356   6.062
 8134SOL    HW225302   6.704   2.397   6.217
 8135SOL     OW25303   2.642   6.785   1.239
 8135SOL    HW125304   2.642   6.851   1.164
 8135SOL    HW225305   2.591   6.823   1.317
 8136SOL     OW25306   4.298   5.906   2.920
 8136SOL    HW125307   4.346   5.992   2.932
 8136SOL    HW225308   4.238   5.890   2.998
 8137SOL     OW25309   3.151   1.563   5.167
 8137SOL    HW125310   3.189   1.529   5.081
 8137SOL    HW225311   3.226   1.582   5.231
 8138SOL     OW25312   5.290   1.169   0.608
 8138SOL    HW125313   5.255   1.245   0.664
 8138SOL    HW225314   5.221   1.096   0.604
 8139SOL     OW25315   0.243   0.542   1.872
 8139SOL    HW125316   0.315   0.473   1.863
 8139SOL    HW225317   0.221   0.554   1.969
 8140SOL     OW25318   5.781   0.484   6.471
 8140SOL    HW125319   5.698   0.430   6.485
 8140SOL    HW225320   5.772   0.539   6.389
 8141SOL     OW25321   4.394   5.511   4.662
 8141SOL    HW125322   4.296   5.493   4.651
 8141SOL    HW225323   4.413   5.536   4.757
 8142SOL     OW25324   0.175   5.736   6.988
 8142SOL    HW125325   0.215   5.781   0.048
 8142SOL    HW225326   0.208   5.641   6.984
 8143SOL     OW25327   5.654   3.922   0.851
 8143SOL    HW125328   5.576   3.968   0.894
 8143SOL    HW225329   5.705   3.871   0.921
 8144SOL     OW25330   5.919   5.963   6.819
 8144SOL    HW125331   5.857   5.908   6.764
 8144SOL    HW225332   5.974   6.021   6.758
 8145SOL     OW25333   5.409   5.913   1.691
 8145SOL    HW125334   5.365   5.900   1.780
 8145SOL    HW225335   5.379   5.999   1.651
 8146SOL     OW25336   3.757   1.097   4.607
 8146SOL    HW125337   3.716   1.186   4.629
 8146SOL    HW225338   3.754   1.082   4.508
 8147SOL     OW25339   6.158   1.921   1.701
 8147SOL    HW125340   6.118   1.890   1.614
 8147SOL    HW225341   6.251   1.954   1.684
 8148SOL     OW25342   4.903   4.713   0.795
 8148SOL    HW125343   4.879   4.625   0.837
 8148SOL    HW225344   4.989   4.746   0.834
 8149SOL     OW25345   2.636   6.084   1.917
 8149SOL    HW125346   2.593   6.076   2.007
 8149SOL    HW225347   2.565   6.081   1.846
 8150SOL     OW25348   0.864   4.080   0.501
 8150SOL    HW125349   0.908   4.008   0.555
 8150SOL    HW225350   0.767   4.057   0.488
 8151SOL     OW25351   6.562   2.119   1.227
 8151SOL    HW125352   6.595   2.086   1.138
 8151SOL    HW225353   6.463   2.109   1.232
 8152SOL     OW25354   0.374   1.349   2.237
 8152SOL    HW125355   0.378   1.310   2.329
 8152SOL    HW225356   0.282   1.383   2.219
 8153SOL     OW25357   3.509   6.947   3.358
 8153SOL    HW125358   3.427   7.001   3.342
 8153SOL    HW225359   3.590   7.003   3.341
 8154SOL     OW25360   2.665   5.654   3.498
 8154SOL    HW125361   2.594   5.618   3.558
 8154SOL    HW225362   2.623   5.701   3.421
 8155SOL     OW25363   2.237   3.861   1.866
 8155SOL    HW125364   2.308   3.815   1.813
 8155SOL    HW225365   2.261   3.957   1.877
 8156SOL     OW25366   5.169   6.869   0.231
 8156SOL    HW125367   5.190   6.966   0.221
 8156SOL    HW225368   5.181   6.823   0.143
 8157SOL     OW25369   6.574   5.333   6.420
 8157SOL    HW125370   6.567   5.257   6.485
 8157SOL    HW225371   6.669   5.361   6.412
 8158SOL     OW25372   6.219   5.193   1.404
 8158SOL    HW125373   6.206   5.195   1.305
 8158SOL    HW225374   6.294   5.255   1.429
 8159SOL     OW25375   2.783   6.255   2.386
 8159SOL    HW125376   2.684   6.243   2.393
 8159SOL    HW225377   2.803   6.328   2.321
 8160SOL     OW25378   4.908   1.120   2.672
 8160SOL    HW125379   4.925   1.206   2.719
 8160SOL    HW225380   4.936   1.043   2.729
 8161SOL     OW25381   5.118   1.491   6.810
 8161SOL    HW125382   5.149   1.397   6.825
 8161SOL    HW225383   5.160   1.551   6.878
 8162SOL     OW25384   6.053   6.421   5.976
 8162SOL    HW125385   6.115   6.380   6.043
 8162SOL    HW225386   6.090   6.510   5.947
 8163SOL     OW25387   2.777   3.692   5.238
 8163SOL    HW125388   2.858   3.750   5.222
 8163SOL    HW225389   2.796   3.600   5.204
 8164SOL     OW25390   5.742   3.196   0.515
 8164SOL    HW125391   5.777   3.155   0.599
 8164SOL    HW225392   5.801   3.272   0.488
 8165SOL     OW25393   0.591   5.339   6.989
 8165SOL    HW125394   0.571   5.390   6.906
 8165SOL    HW225395   0.532   5.372   0.044
 8166SOL     OW25396   2.145   0.211   2.030
 8166SOL    HW125397   2.048   0.185   2.035
 8166SOL    HW225398   2.200   0.140   2.074
 8167SOL     OW25399   6.091   0.664   4.199
 8167SOL    HW125400   6.095   0.687   4.296
 8167SOL    HW225401   6.177   0.621   4.171
 8168SOL     OW25402   2.556   1.767   3.886
 8168SOL    HW125403   2.550   1.714   3.802
 8168SOL    HW225404   2.469   1.814   3.902
 8169SOL     OW25405   5.209   2.738   1.532
 8169SOL    HW125406   5.131   2.745   1.593
 8169SOL    HW225407   5.257   2.652   1.549
 8170SOL     OW25408   1.640   5.698   2.938
 8170SOL    HW125409   1.554   5.679   2.986
 8170SOL    HW225410   1.643   5.644   2.854
 8171SOL     OW25411   1.151   1.351   0.236
 8171SOL    HW125412   1.137   1.317   0.143
 8171SOL    HW225413   1.105   1.290   0.301
 8172SOL     OW25414   1.027   1.064   2.269
 8172SOL    HW125415   1.099   1.030   2.330
 8172SOL    HW225416   1.049   1.157   2.241
 8173SOL     OW25417   3.898   1.691   0.971
 8173SOL    HW125418   3.878   1.760   0.901
 8173SOL    HW225419   3.976   1.722   1.027
 8174SOL     OW25420   5.300   2.438   0.894
 8174SOL    HW125421   5.295   2.343   0.864
 8174SOL    HW225422   5.336   2.442   0.987
 8175SOL     OW25423   0.355   3.182   6.178
 8175SOL    HW125424   0.336   3.095   6.223
 8175SOL    HW225425   0.449   3.183   6.144
 8176SOL     OW25426   2.384   5.137   2.172
 8176SOL    HW125427   2.414   5.199   2.099
 8176SOL    HW225428   2.284   5.134   2.173
 8177SOL     OW25429   2.319   6.017   4.161
 8177SOL    HW125430   2.295   6.026   4.065
 8177SOL    HW225431   2.243   5.974   4.210
 8178SOL     OW25432   2.498   6.532   6.578
 8178SOL    HW125433   2.408   6.557   6.543
 8178SOL    HW225434   2.487   6.477   6.661
 8179SOL     OW25435   4.013   2.481   6.274
 8179SOL    HW125436   3.963   2.460   6.190
 8179SOL    HW225437   3.951   2.521   6.341
 8180SOL     OW25438   6.949   0.347   4.468
 8180SOL    HW125439   6.992   0.437   4.475
 8180SOL    HW225440   6.853   0.353   4.496
 8181SOL     OW25441   2.320   2.110   1.856
 8181SOL    HW125442   2.403   2.116   1.801
 8181SOL    HW225443   2.267   2.193   1.844
 8182SOL     OW25444   3.596   1.846   6.881
 8182SOL    HW125445   3.544   1.929   6.904
 8182SOL    HW225446   3.631   1.804   6.965
 8183SOL     OW25447   0.871   2.310   4.834
 8183SOL    HW125448   0.872   2.408   4.814
 8183SOL    HW225449   0.877   2.259   4.748
 8184SOL     OW25450   5.020   1.323   5.796
 8184SOL    HW125451   5.007   1.405   5.852
 8184SOL    HW225452   5.111   1.284   5.814
 8185SOL     OW25453   2.816   6.795   0.509
 8185SOL    HW125454   2.902   6.830   0.469
 8185SOL    HW225455   2.750   6.779   0.436
 8186SOL     OW25456   3.667   5.612   6.574
 8186SOL    HW125457   3.693   5.709   6.579
 8186SOL    HW225458   3.567   5.604   6.579
 8187SOL     OW25459   1.703   2.160   5.744
 8187SOL    HW125460   1.711   2.075   5.797
 8187SOL    HW225461   1.760   2.231   5.786
 8188SOL     OW25462   5.243   2.150   2.570
 8188SOL    HW125463   5.308   2.084   2.606
 8188SOL    HW225464   5.277   2.187   2.484
 8189SOL     OW25465   5.120   4.708   2.218
 8189SOL    HW125466   5.184   4.673   2.149
 8189SOL    HW225467   5.085   4.797   2.189
 8190SOL     OW25468   5.081   5.816   4.497
 8190SOL    HW125469   5.042   5.757   4.568
 8190SOL    HW225470   5.027   5.900   4.490
 8191SOL     OW25471   3.325   5.302   3.692
 8191SOL    HW125472   3.365   5.232   3.752
 8191SOL    HW225473   3.315   5.265   3.600
 8192SOL     OW25474   3.415   5.678   0.213
 8192SOL    HW125475   3.484   5.749   0.226
 8192SOL    HW225476   3.383   5.646   0.302
 8193SOL     OW25477   6.812   0.085   3.959
 8193SOL    HW125478   6.782   0.156   4.022
 8193SOL    HW225479   6.845   0.006   4.011
 8194SOL     OW25480   6.136   2.527   0.787
 8194SOL    HW125481   6.201   2.592   0.825
 8194SOL    HW225482   6.165   2.502   0.694
 8195SOL     OW25483   0.619   0.403   0.380
 8195SOL    HW125484   0.627   0.304   0.365
 8195SOL    HW225485   0.707   0.439   0.410
 8196SOL     OW25486   3.338   0.351   5.434
 8196SOL    HW125487   3.354   0.291   5.356
 8196SOL    HW225488   3.346   0.446   5.405
 8197SOL     OW25489   4.760   1.290   5.693
 8197SOL    HW125490   4.686   1.356   5.707
 8197SOL    HW225491   4.847   1.332   5.717
 8198SOL     OW25492   2.689   6.444   2.980
 8198SOL    HW125493   2.688   6.536   2.941
 8198SOL    HW225494   2.599   6.422   3.018
 8199SOL     OW25495   6.954   3.536   0.482
 8199SOL    HW125496   6.966   3.552   0.580
 8199SOL    HW225497   0.005   3.586   0.432
 8200SOL     OW25498   4.655   4.059   1.312
 8200SOL    HW125499   4.660   4.027   1.407
 8200SOL    HW225500   4.645   3.981   1.251
 8201SOL     OW25501   5.181   0.931   4.486
 8201SOL    HW125502   5.202   0.896   4.395
 8201SOL    HW225503   5.087   0.908   4.510
 8202SOL     OW25504   0.672   5.778   3.952
 8202SOL    HW125505   0.768   5.805   3.965
 8202SOL    HW225506   0.660   5.742   3.860
 8203SOL     OW25507   4.451   3.235   0.212
 8203SOL    HW125508   4.415   3.294   0.283
 8203SOL    HW225509   4.412   3.261   0.124
 8204SOL     OW25510   3.412   5.693   1.055
 8204SOL    HW125511   3.373   5.688   1.147
 8204SOL    HW225512   3.508   5.722   1.061
 8205SOL     OW25513   6.531   4.768   1.803
 8205SOL    HW125514   6.502   4.862   1.784
 8205SOL    HW225515   6.631   4.764   1.803
 8206SOL     OW25516   3.169   2.519   5.640
 8206SOL    HW125517   3.083   2.550   5.681
 8206SOL    HW225518   3.150   2.482   5.549
 8207SOL     OW25519   3.395   4.503   5.358
 8207SOL    HW125520   3.469   4.436   5.349
 8207SOL    HW225521   3.432   4.589   5.393
 8208SOL     OW25522   2.647   6.544   1.369
 8208SOL    HW125523   2.653   6.635   1.327
 8208SOL    HW225524   2.739   6.508   1.385
 8209SOL     OW25525   0.789   1.793   5.293
 8209SOL    HW125526   0.832   1.806   5.382
 8209SOL    HW225527   0.693   1.772   5.305
 8210SOL     OW25528   3.172   0.545   0.803
 8210SOL    HW125529   3.105   0.577   0.871
 8210SOL    HW225530   3.127   0.483   0.739
 8211SOL     OW25531   3.637   4.121   3.687
 8211SOL    HW125532   3.628   4.170   3.600
 8211SOL    HW225533   3.631   4.186   3.763
 8212SOL     OW25534   3.156   0.908   0.790
 8212SOL    HW125535   3.137   0.856   0.706
 8212SOL    HW225536   3.140   0.849   0.869
 8213SOL     OW25537   5.237   4.796   3.393
 8213SOL    HW125538   5.149   4.820   3.435
 8213SOL    HW225539   5.226   4.713   3.339
 8214SOL     OW25540   2.093   6.286   3.720
 8214SOL    HW125541   2.188   6.297   3.750
 8214SOL    HW225542   2.077   6.190   3.698
 8215SOL     OW25543   4.317   5.180   0.210
 8215SOL    HW125544   4.258   5.101   0.197
 8215SOL    HW225545   4.272   5.262   0.176
 8216SOL     OW25546   5.183   0.050   3.055
 8216SOL    HW125547   5.130   6.988   3.080
 8216SOL    HW225548   5.120   0.127   3.043
 8217SOL     OW25549   2.376   4.261   2.196
 8217SOL    HW125550   2.443   4.187   2.198
 8217SOL    HW225551   2.419   4.347   2.224
 8218SOL     OW25552   1.996   0.120   4.012
 8218SOL    HW125553   2.026   0.200   4.063
 8218SOL    HW225554   1.952   0.148   3.927
 8219SOL     OW25555   2.992   4.210   0.859
 8219SOL    HW125556   2.969   4.178   0.951
 8219SOL    HW225557   3.000   4.132   0.797
 8220SOL     OW25558   3.335   4.182   5.234
 8220SOL    HW125559   3.310   4.149   5.326
 8220SOL    HW225560   3.321   4.281   5.230
 8221SOL     OW25561   6.124   4.491   3.239
 8221SOL    HW125562   6.142   4.393   3.232
 8221SOL    HW225563   6.191   4.533   3.301
 8222SOL     OW25564   5.388   1.892   0.723
 8222SOL    HW125565   5.327   1.918   0.649
 8222SOL    HW225566   5.380   1.959   0.798
 8223SOL     OW25567   0.459   5.159   5.947
 8223SOL    HW125568   0.492   5.089   5.884
 8223SOL    HW225569   0.506   5.246   5.928
 8224SOL     OW25570   4.867   1.865   1.586
 8224SOL    HW125571   4.908   1.822   1.667
 8224SOL    HW225572   4.939   1.883   1.519
 8225SOL     OW25573   3.898   0.473   1.174
 8225SOL    HW125574   3.836   0.550   1.184
 8225SOL    HW225575   3.868   0.415   1.098
 8226SOL     OW25576   3.146   0.707   0.602
 8226SOL    HW125577   3.165   0.645   0.679
 8226SOL    HW225578   3.176   0.664   0.517
 8227SOL     OW25579   6.919   1.445   2.375
 8227SOL    HW125580   7.002   1.416   2.326
 8227SOL    HW225581   6.882   1.526   2.330
 8228SOL     OW25582   0.150   1.291   5.628
 8228SOL    HW125583   0.070   1.329   5.581
 8228SOL    HW225584   0.146   1.314   5.725
 8229SOL     OW25585   4.409   4.427   1.179
 8229SOL    HW125586   4.423   4.488   1.257
 8229SOL    HW225587   4.493   4.373   1.163
 8230SOL     OW25588   3.531   6.966   5.807
 8230SOL    HW125589   3.464   6.922   5.748
 8230SOL    HW225590   3.621   6.923   5.793
 8231SOL     OW25591   3.099   1.786   2.808
 8231SOL    HW125592   3.133   1.721   2.875
 8231SOL    HW225593   3.133   1.760   2.717
 8232SOL     OW25594   5.002   1.794   2.456
 8232SOL    HW125595   5.097   1.790   2.487
 8232SOL    HW225596   4.946   1.834   2.528
 8233SOL     OW25597   1.046   0.035   5.597
 8233SOL    HW125598   1.123   0.010   5.539
 8233SOL    HW225599   1.000   0.115   5.558
 8234SOL     OW25600   2.921   3.152   0.198
 8234SOL    HW125601   2.842   3.130   0.255
 8234SOL    HW225602   2.987   3.077   0.201
 8235SOL     OW25603   0.643   3.922   0.207
 8235SOL    HW125604   0.728   3.916   0.259
 8235SOL    HW225605   0.643   4.006   0.152
 8236SOL     OW25606   0.155   5.650   5.724
 8236SOL    HW125607   0.068   5.699   5.732
 8236SOL    HW225608   0.138   5.560   5.682
 8237SOL     OW25609   4.084   5.985   6.036
 8237SOL    HW125610   4.110   5.888   6.042
 8237SOL    HW225611   4.017   5.997   5.963
 8238SOL     OW25612   0.710   5.619   6.747
 8238SOL    HW125613   0.778   5.551   6.720
 8238SOL    HW225614   0.623   5.574   6.765
 8239SOL     OW25615   0.339   1.423   4.932
 8239SOL    HW125616   0.432   1.415   4.894
 8239SOL    HW225617   0.312   1.335   4.971
 8240SOL     OW25618   2.893   3.634   2.844
 8240SOL    HW125619   2.968   3.573   2.870
 8240SOL    HW225620   2.841   3.593   2.769
 8241SOL     OW25621   1.603   3.727   6.446
 8241SOL    HW125622   1.671   3.794   6.475
 8241SOL    HW225623   1.528   3.773   6.398
 8242SOL     OW25624   1.194   3.500   5.115
 8242SOL    HW125625   1.180   3.530   5.209
 8242SOL    HW225626   1.241   3.571   5.063
 8243SOL     OW25627   0.320   4.093   6.751
 8243SOL    HW125628   0.296   4.184   6.783
 8243SOL    HW225629   0.415   4.073   6.775
 8244SOL     OW25630   0.927   0.322   3.460
 8244SOL    HW125631   0.984   0.348   3.537
 8244SOL    HW225632   0.985   0.288   3.386
 8245SOL     OW25633   4.288   1.887   3.438
 8245SOL    HW125634   4.222   1.818   3.410
 8245SOL    HW225635   4.371   1.843   3.470
 8246SOL     OW25636   0.747   4.399   5.927
 8246SOL    HW125637   0.774   4.393   5.831
 8246SOL    HW225638   0.782   4.484   5.966
 8247SOL     OW25639   2.247   5.948   3.546
 8247SOL    HW125640   2.266   5.853   3.523
 8247SOL    HW225641   2.283   6.007   3.473
 8248SOL     OW25642   0.761   6.066   4.477
 8248SOL    HW125643   0.698   6.085   4.401
 8248SOL    HW225644   0.716   6.004   4.541
 8249SOL     OW25645   2.687   1.632   5.127
 8249SOL    HW125646   2.649   1.624   5.219
 8249SOL    HW225647   2.726   1.723   5.115
 8250SOL     OW25648   3.309   1.746   0.682
 8250SOL    HW125649   3.285   1.750   0.585
 8250SOL    HW225650   3.344   1.835   0.711
 8251SOL     OW25651   6.111   1.588   4.320
 8251SOL    HW125652   6.181   1.573   4.250
 8251SOL    HW225653   6.155   1.609   4.407
 8252SOL     OW25654   3.174   2.118   0.051
 8252SOL    HW125655   3.226   2.185   0.105
 8252SOL    HW225656   3.151   2.040   0.109
 8253SOL     OW25657   4.068   5.693   6.404
 8253SOL    HW125658   4.060   5.770   6.466
 8253SOL    HW225659   3.986   5.636   6.410
 8254SOL     OW25660   5.618   4.839   5.924
 8254SOL    HW125661   5.568   4.894   5.991
 8254SOL    HW225662   5.675   4.771   5.971
 8255SOL     OW25663   0.905   0.046   6.377
 8255SOL    HW125664   0.884   0.015   6.469
 8255SOL    HW225665   0.897   6.990   6.313
 8256SOL     OW25666   6.756   0.248   3.375
 8256SOL    HW125667   6.816   0.273   3.300
 8256SOL    HW225668   6.802   0.183   3.435
 8257SOL     OW25669   5.457   4.290   4.231
 8257SOL    HW125670   5.459   4.244   4.142
 8257SOL    HW225671   5.362   4.308   4.257
 8258SOL     OW25672   5.786   2.649   1.797
 8258SOL    HW125673   5.752   2.591   1.723
 8258SOL    HW225674   5.808   2.592   1.876
 8259SOL     OW25675   4.063   1.825   5.156
 8259SOL    HW125676   3.968   1.793   5.162
 8259SOL    HW225677   4.067   1.923   5.176
 8260SOL     OW25678   1.832   6.346   1.146
 8260SOL    HW125679   1.801   6.349   1.050
 8260SOL    HW225680   1.928   6.374   1.151
 8261SOL     OW25681   5.408   6.571   2.993
 8261SOL    HW125682   5.467   6.619   2.928
 8261SOL    HW225683   5.312   6.584   2.966
 8262SOL     OW25684   0.904   4.611   0.550
 8262SOL    HW125685   0.871   4.523   0.514
 8262SOL    HW225686   0.992   4.633   0.506
 8263SOL     OW25687   6.603   2.803   6.644
 8263SOL    HW125688   6.685   2.846   6.682
 8263SOL    HW225689   6.522   2.855   6.671
 8264SOL     OW25690   1.486   6.665   1.330
 8264SOL    HW125691   1.570   6.612   1.337
 8264SOL    HW225692   1.443   6.648   1.241
 8265SOL     OW25693   4.301   0.283   1.429
 8265SOL    HW125694   4.212   0.270   1.473
 8265SOL    HW225695   4.339   0.372   1.455
 8266SOL     OW25696   2.741   0.418   4.757
 8266SOL    HW125697   2.761   0.355   4.682
 8266SOL    HW225698   2.823   0.429   4.814
 8267SOL     OW25699   1.426   5.130   1.893
 8267SOL    HW125700   1.482   5.160   1.816
 8267SOL    HW225701   1.420   5.030   1.892
 8268SOL     OW25702   2.802   4.483   6.152
 8268SOL    HW125703   2.767   4.480   6.059
 8268SOL    HW225704   2.874   4.414   6.163
 8269SOL     OW25705   4.501   2.487   2.784
 8269SOL    HW125706   4.470   2.434   2.863
 8269SOL    HW225707   4.571   2.552   2.813
 8270SOL     OW25708   2.501   6.058   5.842
 8270SOL    HW125709   2.548   5.982   5.887
 8270SOL    HW225710   2.567   6.109   5.786
 8271SOL     OW25711   6.308   0.037   3.858
 8271SOL    HW125712   6.396   0.054   3.902
 8271SOL    HW225713   6.282   6.961   3.871
 8272SOL     OW25714   0.628   0.751   2.883
 8272SOL    HW125715   0.641   0.673   2.822
 8272SOL    HW225716   0.565   0.816   2.841
 8273SOL     OW25717   3.327   0.072   0.380
 8273SOL    HW125718   3.357   0.069   0.476
 8273SOL    HW225719   3.401   0.041   0.321
 8274SOL     OW25720   3.924   4.366   6.683
 8274SOL    HW125721   3.978   4.437   6.729
 8274SOL    HW225722   3.910   4.392   6.587
 8275SOL     OW25723   5.608   0.075   4.803
 8275SOL    HW125724   5.632   7.019   4.863
 8275SOL    HW225725   5.626   0.162   4.849
 8276SOL     OW25726   6.695   2.226   5.925
 8276SOL    HW125727   6.716   2.133   5.894
 8276SOL    HW225728   6.682   2.285   5.846
 8277SOL     OW25729   2.574   5.708   4.596
 8277SOL    HW125730   2.474   5.709   4.600
 8277SOL    HW225731   2.609   5.802   4.600
 8278SOL     OW25732   2.858   1.238   6.759
 8278SOL    HW125733   2.904   1.205   6.677
 8278SOL    HW225734   2.908   1.317   6.796
 8279SOL     OW25735   5.670   5.067   6.772
 8279SOL    HW125736   5.604   4.992   6.781
 8279SOL    HW225737   5.660   5.109   6.682
 8280SOL     OW25738   4.701   2.736   0.268
 8280SOL    HW125739   4.700   2.831   0.300
 8280SOL    HW225740   4.634   2.725   0.195
 8281SOL     OW25741   1.731   4.433   0.958
 8281SOL    HW125742   1.661   4.421   1.028
 8281SOL    HW225743   1.779   4.347   0.943
 8282SOL     OW25744   2.733   2.260   0.950
 8282SOL    HW125745   2.684   2.341   0.983
 8282SOL    HW225746   2.830   2.268   0.972
 8283SOL     OW25747   0.443   5.210   3.531
 8283SOL    HW125748   0.538   5.232   3.509
 8283SOL    HW225749   0.420   5.120   3.493
 8284SOL     OW25750   1.746   3.207   2.522
 8284SOL    HW125751   1.815   3.217   2.594
 8284SOL    HW225752   1.654   3.214   2.563
 8285SOL     OW25753   3.110   3.780   6.082
 8285SOL    HW125754   3.113   3.698   6.026
 8285SOL    HW225755   3.018   3.820   6.078
 8286SOL     OW25756   5.822   1.382   4.930
 8286SOL    HW125757   5.901   1.348   4.981
 8286SOL    HW225758   5.740   1.333   4.959
 8287SOL     OW25759   1.637   6.765   3.973
 8287SOL    HW125760   1.585   6.777   3.888
 8287SOL    HW225761   1.735   6.769   3.954
 8288SOL     OW25762   1.840   2.312   2.885
 8288SOL    HW125763   1.820   2.402   2.848
 8288SOL    HW225764   1.847   2.318   2.985
 8289SOL     OW25765   6.171   0.480   6.040
 8289SOL    HW125766   6.171   0.513   6.135
 8289SOL    HW225767   6.122   0.393   6.036
 8290SOL     OW25768   4.009   3.034   1.672
 8290SOL    HW125769   4.004   3.123   1.626
 8290SOL    HW225770   4.086   2.982   1.635
 8291SOL     OW25771   6.052   6.311   6.805
 8291SOL    HW125772   6.102   6.230   6.774
 8291SOL    HW225773   6.101   6.353   6.881
 8292SOL     OW25774   2.580   5.340   5.774
 8292SOL    HW125775   2.507   5.325   5.707
 8292SOL    HW225776   2.656   5.386   5.730
 8293SOL     OW25777   1.944   4.639   1.752
 8293SOL    HW125778   1.905   4.625   1.661
 8293SOL    HW225779   1.873   4.629   1.821
 8294SOL     OW25780   6.054   3.600   5.150
 8294SOL    HW125781   5.986   3.667   5.122
 8294SOL    HW225782   6.010   3.512   5.166
 8295SOL     OW25783   4.840   3.989   2.229
 8295SOL    HW125784   4.824   4.078   2.185
 8295SOL    HW225785   4.863   4.002   2.325
 8296SOL     OW25786   4.102   5.515   6.937
 8296SOL    HW125787   4.193   5.556   6.940
 8296SOL    HW225788   4.069   5.512   6.843
 8297SOL     OW25789   6.085   4.126   2.500
 8297SOL    HW125790   6.169   4.091   2.540
 8297SOL    HW225791   6.065   4.076   2.415
 8298SOL     OW25792   0.630   0.300   6.602
 8298SOL    HW125793   0.555   0.270   6.544
 8298SOL    HW225794   0.682   0.372   6.555
 8299SOL     OW25795   0.317   3.568   0.891
 8299SOL    HW125796   0.280   3.522   0.972
 8299SOL    HW225797   0.308   3.507   0.812
 8300SOL     OW25798   6.104   6.810   4.841
 8300SOL    HW125799   6.049   6.820   4.924
 8300SOL    HW225800   6.051   6.840   4.762
 8301SOL     OW25801   4.543   0.080   6.620
 8301SOL    HW125802   4.460   0.135   6.609
 8301SOL    HW225803   4.623   0.135   6.594
 8302SOL     OW25804   3.589   6.913   5.124
 8302SOL    HW125805   3.665   6.857   5.091
 8302SOL    HW225806   3.625   7.001   5.157
 8303SOL     OW25807   0.218   0.378   2.902
 8303SOL    HW125808   0.268   0.465   2.897
 8303SOL    HW225809   0.164   0.365   2.819
 8304SOL     OW25810   5.854   4.089   2.750
 8304SOL    HW125811   5.758   4.064   2.743
 8304SOL    HW225812   5.910   4.021   2.702
 8305SOL     OW25813   4.725   5.272   3.774
 8305SOL    HW125814   4.777   5.296   3.856
 8305SOL    HW225815   4.664   5.348   3.750
 8306SOL     OW25816   6.601   1.466   2.523
 8306SOL    HW125817   6.677   1.437   2.466
 8306SOL    HW225818   6.610   1.426   2.615
 8307SOL     OW25819   2.445   5.113   1.255
 8307SOL    HW125820   2.407   5.024   1.231
 8307SOL    HW225821   2.378   5.165   1.308
 8308SOL     OW25822   1.330   4.697   0.152
 8308SOL    HW125823   1.267   4.734   0.083
 8308SOL    HW225824   1.423   4.698   0.115
 8309SOL     OW25825   6.210   5.234   4.527
 8309SOL    HW125826   6.144   5.180   4.580
 8309SOL    HW225827   6.163   5.274   4.448
 8310SOL     OW25828   0.729   5.931   0.573
 8310SOL    HW125829   0.637   5.926   0.613
 8310SOL    HW225830   0.796   5.947   0.644
 8311SOL     OW25831   5.280   6.847   4.435
 8311SOL    HW125832   5.340   6.815   4.508
 8311SOL    HW225833   5.277   6.947   4.436
 8312SOL     OW25834   5.511   0.557   0.494
 8312SOL    HW125835   5.578   0.617   0.449
 8312SOL    HW225836   5.559   0.482   0.539
 8313SOL     OW25837   4.213   6.885   5.483
 8313SOL    HW125838   4.269   6.940   5.421
 8313SOL    HW225839   4.187   6.940   5.562
 8314SOL     OW25840   5.713   6.282   6.643
 8314SOL    HW125841   5.777   6.206   6.650
 8314SOL    HW225842   5.763   6.368   6.639
 8315SOL     OW25843   3.550   3.460   3.414
 8315SOL    HW125844   3.464   3.411   3.405
 8315SOL    HW225845   3.540   3.553   3.378
 8316SOL     OW25846   1.559   3.486   6.570
 8316SOL    HW125847   1.630   3.492   6.640
 8316SOL    HW225848   1.583   3.545   6.493
 8317SOL     OW25849   2.272   1.991   4.212
 8317SOL    HW125850   2.295   1.943   4.127
 8317SOL    HW225851   2.251   2.087   4.191
 8318SOL     OW25852   4.552   1.403   6.223
 8318SOL    HW125853   4.456   1.406   6.252
 8318SOL    HW225854   4.562   1.339   6.148
 8319SOL     OW25855   1.667   6.661   6.315
 8319SOL    HW125856   1.644   6.640   6.409
 8319SOL    HW225857   1.710   6.752   6.310
 8320SOL     OW25858   3.758   3.687   3.684
 8320SOL    HW125859   3.718   3.596   3.674
 8320SOL    HW225860   3.690   3.749   3.722
 8321SOL     OW25861   0.192   0.170   5.900
 8321SOL    HW125862   0.271   0.230   5.913
 8321SOL    HW225863   0.140   0.200   5.820
 8322SOL     OW25864   6.922   1.190   0.332
 8322SOL    HW125865   6.983   1.196   0.411
 8322SOL    HW225866   6.976   1.195   0.248
 8323SOL     OW25867   4.168   4.641   1.277
 8323SOL    HW125868   4.094   4.591   1.232
 8323SOL    HW225869   4.203   4.587   1.353
 8324SOL     OW25870   5.964   0.383   6.875
 8324SOL    HW125871   5.911   0.468   6.868
 8324SOL    HW225872   6.032   0.392   6.947
 8325SOL     OW25873   1.195   4.365   4.996
 8325SOL    HW125874   1.278   4.421   4.995
 8325SOL    HW225875   1.167   4.349   5.091
 8326SOL     OW25876   3.763   3.768   7.012
 8326SOL    HW125877   3.797   3.794   6.922
 8326SOL    HW225878   3.809   3.823   0.062
 8327SOL     OW25879   0.699   0.518   5.410
 8327SOL    HW125880   0.622   0.568   5.450
 8327SOL    HW225881   0.775   0.516   5.475
 8328SOL     OW25882   1.711   6.761   5.692
 8328SOL    HW125883   1.696   6.662   5.701
 8328SOL    HW225884   1.765   6.778   5.609
 8329SOL     OW25885   0.150   2.863   4.785
 8329SOL    HW125886   0.093   2.931   4.739
 8329SOL    HW225887   0.134   2.867   4.883
 8330SOL     OW25888   3.692   1.140   6.408
 8330SOL    HW125889   3.608   1.173   6.451
 8330SOL    HW225890   3.702   1.181   6.318
 8331SOL     OW25891   3.249   1.768   0.412
 8331SOL    HW125892   3.244   1.862   0.380
 8331SOL    HW225893   3.215   1.707   0.341
 8332SOL     OW25894   5.289   5.831   1.917
 8332SOL    HW125895   5.313   5.739   1.885
 8332SOL    HW225896   5.306   5.837   2.016
 8333SOL     OW25897   2.161   5.329   0.459
 8333SOL    HW125898   2.147   5.230   0.464
 8333SOL    HW225899   2.098   5.367   0.391
 8334SOL     OW25900   2.721   1.803   6.577
 8334SOL    HW125901   2.807   1.798   6.526
 8334SOL    HW225902   2.650   1.752   6.529
 8335SOL     OW25903   4.522   2.995   6.733
 8335SOL    HW125904   4.601   2.969   6.789
 8335SOL    HW225905   4.503   2.923   6.666
 8336SOL     OW25906   1.026   3.982   2.886
 8336SOL    HW125907   0.997   3.951   2.976
 8336SOL    HW225908   1.024   3.905   2.822
 8337SOL     OW25909   1.061   6.988   4.565
 8337SOL    HW125910   0.968   7.007   4.532
 8337SOL    HW225911   1.077   6.889   4.564
 8338SOL     OW25912   4.196   5.203   2.334
 8338SOL    HW125913   4.291   5.205   2.367
 8338SOL    HW225914   4.173   5.293   2.296
 8339SOL     OW25915   6.647   0.739   0.759
 8339SOL    HW125916   6.652   0.733   0.859
 8339SOL    HW225917   6.712   0.807   0.727
 8340SOL     OW25918   4.821   3.881   0.176
 8340SOL    HW125919   4.774   3.796   0.199
 8340SOL    HW225920   4.835   3.935   0.259
 8341SOL     OW25921   3.661   0.397   6.679
 8341SOL    HW125922   3.579   0.428   6.632
 8341SOL    HW225923   3.721   0.350   6.614
 8342SOL     OW25924   3.474   6.447   0.480
 8342SOL    HW125925   3.456   6.453   0.578
 8342SOL    HW225926   3.568   6.416   0.465
 8343SOL     OW25927   6.382   5.614   4.343
 8343SOL    HW125928   6.403   5.518   4.364
 8343SOL    HW225929   6.409   5.672   4.420
 8344SOL     OW25930   0.755   5.212   4.726
 8344SOL    HW125931   0.765   5.252   4.635
 8344SOL    HW225932   0.684   5.260   4.777
 8345SOL     OW25933   5.141   1.925   3.142
 8345SOL    HW125934   5.173   1.915   3.236
 8345SOL    HW225935   5.043   1.945   3.142
 8346SOL     OW25936   3.703   3.130   5.887
 8346SOL    HW125937   3.606   3.119   5.905
 8346SOL    HW225938   3.721   3.223   5.855
 8347SOL     OW25939   3.237   6.065   6.330
 8347SOL    HW125940   3.333   6.056   6.354
 8347SOL    HW225941   3.194   5.975   6.330
 8348SOL     OW25942   2.647   6.591   1.688
 8348SOL    HW125943   2.679   6.566   1.597
 8348SOL    HW225944   2.576   6.527   1.718
 8349SOL     OW25945   0.868   6.544   1.311
 8349SOL    HW125946   0.965   6.525   1.301
 8349SOL    HW225947   0.854   6.607   1.388
 8350SOL     OW25948   3.023   6.884   6.248
 8350SOL    HW125949   3.049   6.951   6.317
 8350SOL    HW225950   2.980   6.805   6.292
 8351SOL     OW25951   5.696   5.773   3.798
 8351SOL    HW125952   5.710   5.847   3.732
 8351SOL    HW225953   5.731   5.688   3.760
 8352SOL     OW25954   2.245   6.747   2.859
 8352SOL    HW125955   2.242   6.657   2.902
 8352SOL    HW225956   2.334   6.760   2.816
 8353SOL     OW25957   1.951   3.835   1.470
 8353SOL    HW125958   1.975   3.880   1.556
 8353SOL    HW225959   1.860   3.864   1.442
 8354SOL     OW25960   3.322   6.514   4.165
 8354SOL    HW125961   3.326   6.447   4.091
 8354SOL    HW225962   3.386   6.487   4.237
 8355SOL     OW25963   1.976   1.182   5.899
 8355SOL    HW125964   1.949   1.121   5.972
 8355SOL    HW225965   1.919   1.265   5.902
 8356SOL     OW25966   0.802   5.078   1.402
 8356SOL    HW125967   0.895   5.042   1.400
 8356SOL    HW225968   0.771   5.095   1.309
 8357SOL     OW25969   3.737   5.503   5.761
 8357SOL    HW125970   3.779   5.572   5.820
 8357SOL    HW225971   3.807   5.441   5.726
 8358SOL     OW25972   0.771   3.085   5.180
 8358SOL    HW125973   0.671   3.090   5.187
 8358SOL    HW225974   0.811   3.113   5.268
 8359SOL     OW25975   2.346   1.164   4.689
 8359SOL    HW125976   2.260   1.120   4.715
 8359SOL    HW225977   2.395   1.191   4.772
 8360SOL     OW25978   4.750   6.788   1.126
 8360SOL    HW125979   4.842   6.784   1.087
 8360SOL    HW225980   4.699   6.706   1.100
 8361SOL     OW25981   2.749   0.109   6.800
 8361SOL    HW125982   2.801   0.029   6.771
 8361SOL    HW225983   2.790   0.147   6.883
 8362SOL     OW25984   5.585   2.323   0.839
 8362SOL    HW125985   5.617   2.402   0.892
 8362SOL    HW225986   5.488   2.333   0.819
 8363SOL     OW25987   4.668   1.583   0.831
 8363SOL    HW125988   4.568   1.590   0.834
 8363SOL    HW225989   4.709   1.655   0.887
 8364SOL     OW25990   0.526   3.533   3.567
 8364SOL    HW125991   0.457   3.490   3.508
 8364SOL    HW225992   0.608   3.477   3.568
 8365SOL     OW25993   1.416   1.730   3.130
 8365SOL    HW125994   1.500   1.750   3.081
 8365SOL    HW225995   1.403   1.630   3.134
 8366SOL     OW25996   3.750   5.266   1.059
 8366SOL    HW125997   3.687   5.194   1.087
 8366SOL    HW225998   3.728   5.350   1.108
 8367SOL     OW25999   3.365   4.891   4.881
 8367SOL    HW126000   3.389   4.867   4.787
 8367SOL    HW226001   3.369   4.991   4.892
 8368SOL     OW26002   1.442   6.316   6.785
 8368SOL    HW126003   1.440   6.232   6.731
 8368SOL    HW226004   1.450   6.294   6.882
 8369SOL     OW26005   0.463   0.950   0.678
 8369SOL    HW126006   0.367   0.979   0.679
 8369SOL    HW226007   0.468   0.854   0.649
 8370SOL     OW26008   2.699   1.192   6.320
 8370SOL    HW126009   2.652   1.247   6.251
 8370SOL    HW226010   2.659   1.211   6.410
 8371SOL     OW26011   1.756   3.461   6.014
 8371SOL    HW126012   1.755   3.484   6.111
 8371SOL    HW226013   1.824   3.518   5.967
 8372SOL     OW26014   2.051   5.483   2.057
 8372SOL    HW126015   1.961   5.527   2.056
 8372SOL    HW226016   2.118   5.542   2.013
 8373SOL     OW26017   1.344   1.277   4.559
 8373SOL    HW126018   1.292   1.286   4.645
 8373SOL    HW226019   1.437   1.310   4.573
 8374SOL     OW26020   0.595   0.534   4.547
 8374SOL    HW126021   0.623   0.630   4.549
 8374SOL    HW226022   0.508   0.523   4.596
 8375SOL     OW26023   3.297   0.265   5.846
 8375SOL    HW126024   3.237   0.336   5.884
 8375SOL    HW226025   3.381   0.261   5.899
 8376SOL     OW26026   1.796   1.296   4.191
 8376SOL    HW126027   1.882   1.347   4.179
 8376SOL    HW226028   1.742   1.339   4.263
 8377SOL     OW26029   5.908   5.564   0.423
 8377SOL    HW126030   5.921   5.562   0.324
 8377SOL    HW226031   5.925   5.657   0.457
 8378SOL     OW26032   5.021   5.076   3.399
 8378SOL    HW126033   4.937   5.124   3.377
 8378SOL    HW226034   5.008   5.020   3.480
 8379SOL     OW26035   4.856   2.342   1.928
 8379SOL    HW126036   4.847   2.438   1.954
 8379SOL    HW226037   4.816   2.327   1.838
 8380SOL     OW26038   0.536   6.523   6.553
 8380SOL    HW126039   0.534   6.482   6.462
 8380SOL    HW226040   0.593   6.605   6.551
 8381SOL     OW26041   6.894   2.467   3.441
 8381SOL    HW126042   6.809   2.420   3.417
 8381SOL    HW226043   6.876   2.532   3.515
 8382SOL     OW26044   2.609   0.381   0.679
 8382SOL    HW126045   2.665   0.319   0.624
 8382SOL    HW226046   2.660   0.410   0.760
 8383SOL     OW26047   2.370   0.405   5.500
 8383SOL    HW126048   2.457   0.364   5.530
 8383SOL    HW226049   2.380   0.505   5.496
 8384SOL     OW26050   6.676   1.091   0.340
 8384SOL    HW126051   6.626   1.112   0.256
 8384SOL    HW226052   6.765   1.136   0.338
 8385SOL     OW26053   4.503   2.275   0.391
 8385SOL    HW126054   4.508   2.176   0.380
 8385SOL    HW226055   4.413   2.307   0.361
 8386SOL     OW26056   1.920   5.496   1.369
 8386SOL    HW126057   1.954   5.422   1.310
 8386SOL    HW226058   1.833   5.469   1.409
 8387SOL     OW26059   1.727   1.386   1.324
 8387SOL    HW126060   1.787   1.319   1.368
 8387SOL    HW226061   1.783   1.450   1.271
 8388SOL     OW26062   1.480   0.261   0.895
 8388SOL    HW126063   1.443   0.342   0.940
 8388SOL    HW226064   1.571   0.241   0.932
 8389SOL     OW26065   0.773   3.420   3.729
 8389SOL    HW126066   0.844   3.490   3.730
 8389SOL    HW226067   0.763   3.380   3.820
 8390SOL     OW26068   4.141   0.235   6.798
 8390SOL    HW126069   4.137   0.277   6.888
 8390SOL    HW226070   4.174   0.141   6.807
 8391SOL     OW26071   5.369   5.085   0.813
 8391SOL    HW126072   5.440   5.107   0.880
 8391SOL    HW226073   5.377   4.989   0.787
 8392SOL     OW26074   6.827   5.298   5.689
 8392SOL    HW126075   6.822   5.203   5.718
 8392SOL    HW226076   6.752   5.349   5.730
 8393SOL     OW26077   0.036   0.259   3.709
 8393SOL    HW126078   0.078   0.209   3.785
 8393SOL    HW226079   0.002   0.347   3.743
 8394SOL     OW26080   0.484   2.459   1.875
 8394SOL    HW126081   0.531   2.373   1.855
 8394SOL    HW226082   0.541   2.535   1.845
 8395SOL     OW26083   2.011   6.751   3.958
 8395SOL    HW126084   2.079   6.719   4.024
 8395SOL    HW226085   1.990   6.676   3.895
 8396SOL     OW26086   4.730   4.284   2.287
 8396SOL    HW126087   4.778   4.371   2.276
 8396SOL    HW226088   4.653   4.281   2.225
 8397SOL     OW26089   2.636   0.149   3.063
 8397SOL    HW126090   2.705   0.078   3.046
 8397SOL    HW226091   2.680   0.229   3.103
 8398SOL     OW26092   3.711   1.716   0.091
 8398SOL    HW126093   3.781   1.714   0.162
 8398SOL    HW226094   3.721   1.636   0.032
 8399SOL     OW26095   6.633   6.937   0.067
 8399SOL    HW126096   6.567   6.907   0.136
 8399SOL    HW226097   6.656   6.860   0.007
 8400SOL     OW26098   1.290   0.569   3.357
 8400SOL    HW126099   1.212   0.606   3.407
 8400SOL    HW226100   1.295   0.612   3.267
 8401SOL     OW26101   3.473   2.873   6.425
 8401SOL    HW126102   3.451   2.945   6.491
 8401SOL    HW226103   3.396   2.809   6.418
 8402SOL     OW26104   3.338   1.909   6.026
 8402SOL    HW126105   3.358   1.977   6.097
 8402SOL    HW226106   3.374   1.821   6.054
 8403SOL     OW26107   0.540   2.142   3.151
 8403SOL    HW126108   0.510   2.163   3.244
 8403SOL    HW226109   0.463   2.150   3.088
 8404SOL     OW26110   5.740   5.687   0.070
 8404SOL    HW126111   5.744   5.698   6.990
 8404SOL    HW226112   5.689   5.763   0.110
 8405SOL     OW26113   1.790   1.528   6.848
 8405SOL    HW126114   1.774   1.622   6.878
 8405SOL    HW226115   1.824   1.474   6.926
 8406SOL     OW26116   3.948   0.555   0.835
 8406SOL    HW126117   4.010   0.629   0.858
 8406SOL    HW226118   3.873   0.552   0.901
 8407SOL     OW26119   5.919   5.894   4.517
 8407SOL    HW126120   5.996   5.949   4.486
 8407SOL    HW226121   5.842   5.906   4.454
 8408SOL     OW26122   4.877   1.733   3.440
 8408SOL    HW126123   4.827   1.817   3.421
 8408SOL    HW226124   4.956   1.754   3.498
 8409SOL     OW26125   6.507   2.734   3.775
 8409SOL    HW126126   6.600   2.717   3.809
 8409SOL    HW226127   6.489   2.676   3.696
 8410SOL     OW26128   4.002   0.471   1.421
 8410SOL    HW126129   3.951   0.464   1.336
 8410SOL    HW226130   3.996   0.384   1.471
 8411SOL     OW26131   1.554   5.543   4.217
 8411SOL    HW126132   1.489   5.467   4.215
 8411SOL    HW226133   1.536   5.600   4.297
 8412SOL     OW26134   4.403   1.730   1.620
 8412SOL    HW126135   4.380   1.824   1.645
 8412SOL    HW226136   4.498   1.727   1.589
 8413SOL     OW26137   5.187   4.339   0.536
 8413SOL    HW126138   5.205   4.241   0.534
 8413SOL    HW226139   5.259   4.387   0.488
 8414SOL     OW26140   4.506   6.913   2.824
 8414SOL    HW126141   4.472   6.994   2.775
 8414SOL    HW226142   4.507   6.835   2.762
 8415SOL     OW26143   6.941   5.345   3.986
 8415SOL    HW126144   6.860   5.320   4.038
 8415SOL    HW226145   6.922   5.337   3.888
 8416SOL     OW26146   5.076   4.624   3.550
 8416SOL    HW126147   5.174   4.605   3.555
 8416SOL    HW226148   5.033   4.562   3.483
 8417SOL     OW26149   1.598   5.592   5.351
 8417SOL    HW126150   1.606   5.591   5.451
 8417SOL    HW226151   1.628   5.504   5.315
 8418SOL     OW26152   5.835   5.537   1.926
 8418SOL    HW126153   5.885   5.621   1.948
 8418SOL    HW226154   5.753   5.531   1.983
 8419SOL     OW26155   4.566   0.996   2.303
 8419SOL    HW126156   4.605   1.069   2.360
 8419SOL    HW226157   4.470   0.983   2.327
 8420SOL     OW26158   3.541   0.318   1.136
 8420SOL    HW126159   3.485   0.369   1.071
 8420SOL    HW226160   3.637   0.322   1.108
 8421SOL     OW26161   2.645   6.448   0.915
 8421SOL    HW126162   2.574   6.507   0.954
 8421SOL    HW226163   2.618   6.419   0.823
 8422SOL     OW26164   4.868   6.515   1.516
 8422SOL    HW126165   4.796   6.447   1.527
 8422SOL    HW226166   4.926   6.491   1.439
 8423SOL     OW26167   4.121   3.626   6.050
 8423SOL    HW126168   4.163   3.557   5.990
 8423SOL    HW226169   4.142   3.603   6.146
 8424SOL     OW26170   2.290   2.883   2.949
 8424SOL    HW126171   2.389   2.869   2.956
 8424SOL    HW226172   2.263   2.882   2.853
 8425SOL     OW26173   5.922   5.869   1.354
 8425SOL    HW126174   5.960   5.851   1.263
 8425SOL    HW226175   5.829   5.833   1.359
 8426SOL     OW26176   3.633   2.975   4.427
 8426SOL    HW126177   3.664   2.958   4.520
 8426SOL    HW226178   3.537   2.945   4.418
 8427SOL     OW26179   1.759   3.871   5.739
 8427SOL    HW126180   1.818   3.888   5.661
 8427SOL    HW226181   1.784   3.932   5.814
 8428SOL     OW26182   6.671   4.466   1.764
 8428SOL    HW126183   6.737   4.539   1.783
 8428SOL    HW226184   6.578   4.499   1.781
 8429SOL     OW26185   2.266   4.776   3.902
 8429SOL    HW126186   2.168   4.775   3.879
 8429SOL    HW226187   2.276   4.778   4.002
 8430SOL     OW26188   4.376   5.703   3.093
 8430SOL    HW126189   4.284   5.688   3.131
 8430SOL    HW226190   4.374   5.783   3.033
 8431SOL     OW26191   2.460   5.153   0.796
 8431SOL    HW126192   2.442   5.122   0.703
 8431SOL    HW226193   2.435   5.250   0.804
 8432SOL     OW26194   4.631   6.209   5.476
 8432SOL    HW126195   4.544   6.206   5.428
 8432SOL    HW226196   4.706   6.200   5.410
 8433SOL     OW26197   6.368   2.706   6.285
 8433SOL    HW126198   6.319   2.782   6.327
 8433SOL    HW226199   6.418   2.655   6.355
 8434SOL     OW26200   2.738   6.901   4.961
 8434SOL    HW126201   2.749   7.000   4.963
 8434SOL    HW226202   2.703   6.869   5.049
 8435SOL     OW26203   4.916   0.982   0.848
 8435SOL    HW126204   4.986   0.915   0.826
 8435SOL    HW226205   4.958   1.061   0.892
 8436SOL     OW26206   3.258   6.697   4.523
 8436SOL    HW126207   3.282   6.601   4.539
 8436SOL    HW226208   3.295   6.726   4.435
 8437SOL     OW26209   2.221   0.242   2.901
 8437SOL    HW126210   2.290   0.297   2.947
 8437SOL    HW226211   2.133   0.289   2.903
 8438SOL     OW26212   3.387   5.181   2.213
 8438SOL    HW126213   3.330   5.180   2.295
 8438SOL    HW226214   3.395   5.275   2.180
 8439SOL     OW26215   6.636   5.262   1.422
 8439SOL    HW126216   6.672   5.169   1.426
 8439SOL    HW226217   6.657   5.302   1.333
 8440SOL     OW26218   0.229   1.313   3.627
 8440SOL    HW126219   0.168   1.384   3.664
 8440SOL    HW226220   0.319   1.352   3.610
 8441SOL     OW26221   6.751   6.545   0.012
 8441SOL    HW126222   6.814   6.470   7.012
 8441SOL    HW226223   6.772   6.583   0.102
 8442SOL     OW26224   3.359   2.552   6.090
 8442SOL    HW126225   3.357   2.505   6.001
 8442SOL    HW226226   3.267   2.580   6.115
 8443SOL     OW26227   1.289   6.640   3.185
 8443SOL    HW126228   1.341   6.641   3.271
 8443SOL    HW226229   1.311   6.723   3.133
 8444SOL     OW26230   3.501   5.872   3.613
 8444SOL    HW126231   3.468   5.925   3.691
 8444SOL    HW226232   3.489   5.925   3.529
 8445SOL     OW26233   3.564   5.224   1.795
 8445SOL    HW126234   3.486   5.274   1.833
 8445SOL    HW226235   3.567   5.133   1.835
 8446SOL     OW26236   5.232   5.538   1.135
 8446SOL    HW126237   5.142   5.496   1.144
 8446SOL    HW226238   5.240   5.580   1.045
 8447SOL     OW26239   5.745   1.838   1.930
 8447SOL    HW126240   5.692   1.753   1.927
 8447SOL    HW226241   5.773   1.856   2.024
 8448SOL     OW26242   5.950   4.327   5.069
 8448SOL    HW126243   6.009   4.374   5.003
 8448SOL    HW226244   5.931   4.388   5.146
 8449SOL     OW26245   6.856   2.989   4.791
 8449SOL    HW126246   6.822   3.010   4.699
 8449SOL    HW226247   6.881   3.074   4.837
 8450SOL     OW26248   1.442   5.718   1.813
 8450SOL    HW126249   1.394   5.768   1.885
 8450SOL    HW226250   1.497   5.781   1.759
 8451SOL     OW26251   4.799   3.002   0.187
 8451SOL    HW126252   4.736   3.034   0.258
 8451SOL    HW226253   4.848   3.080   0.149
 8452SOL     OW26254   0.194   0.447   1.501
 8452SOL    HW126255   0.244   0.433   1.586
 8452SOL    HW226256   0.237   0.394   1.428
 8453SOL     OW26257   6.281   4.198   6.426
 8453SOL    HW126258   6.327   4.245   6.502
 8453SOL    HW226259   6.246   4.110   6.458
 8454SOL     OW26260   1.044   5.787   0.980
 8454SOL    HW126261   1.136   5.818   0.958
 8454SOL    HW226262   1.046   5.691   1.008
 8455SOL     OW26263   5.084   1.697   1.157
 8455SOL    HW126264   5.030   1.778   1.181
 8455SOL    HW226265   5.080   1.631   1.231
 8456SOL     OW26266   5.178   4.563   3.289
 8456SOL    HW126267   5.115   4.518   3.225
 8456SOL    HW226268   5.230   4.493   3.338
 8457SOL     OW26269   6.682   6.777   5.451
 8457SOL    HW126270   6.639   6.698   5.408
 8457SOL    HW226271   6.718   6.838   5.380
 8458SOL     OW26272   2.420   0.878   6.612
 8458SOL    HW126273   2.498   0.845   6.665
 8458SOL    HW226274   2.339   0.825   6.635
 8459SOL     OW26275   3.024   6.896   1.093
 8459SOL    HW126276   2.940   6.949   1.084
 8459SOL    HW226277   3.096   6.954   1.130
 8460SOL     OW26278   4.316   2.295   5.736
 8460SOL    HW126279   4.378   2.278   5.813
 8460SOL    HW226280   4.347   2.376   5.686
 8461SOL     OW26281   0.801   4.267   2.331
 8461SOL    HW126282   0.745   4.205   2.277
 8461SOL    HW226283   0.883   4.291   2.279
 8462SOL     OW26284   3.641   2.469   0.411
 8462SOL    HW126285   3.667   2.387   0.360
 8462SOL    HW226286   3.683   2.467   0.502
 8463SOL     OW26287   6.792   0.906   0.498
 8463SOL    HW126288   6.741   0.960   0.431
 8463SOL    HW226289   6.775   0.809   0.482
 8464SOL     OW26290   6.568   4.333   5.360
 8464SOL    HW126291   6.496   4.395   5.392
 8464SOL    HW226292   6.577   4.341   5.261
 8465SOL     OW26293   3.292   2.352   1.060
 8465SOL    HW126294   3.211   2.407   1.080
 8465SOL    HW226295   3.320   2.302   1.142
 8466SOL     OW26296   6.021   6.520   5.479
 8466SOL    HW126297   6.066   6.462   5.547
 8466SOL    HW226298   5.936   6.477   5.449
 8467SOL     OW26299   3.700   0.862   1.296
 8467SOL    HW126300   3.784   0.880   1.245
 8467SOL    HW226301   3.723   0.835   1.389
 8468SOL     OW26302   4.792   2.978   6.902
 8468SOL    HW126303   4.807   3.012   6.995
 8468SOL    HW226304   4.819   3.048   6.836
 8469SOL     OW26305   2.283   1.719   5.594
 8469SOL    HW126306   2.373   1.762   5.594
 8469SOL    HW226307   2.214   1.784   5.562
 8470SOL     OW26308   0.973   4.966   6.877
 8470SOL    HW126309   1.042   5.016   6.824
 8470SOL    HW226310   0.924   4.902   6.817
 8471SOL     OW26311   3.925   0.420   5.677
 8471SOL    HW126312   3.832   0.435   5.712
 8471SOL    HW226313   3.991   0.459   5.741
 8472SOL     OW26314   5.981   0.546   5.348
 8472SOL    HW126315   5.981   0.451   5.316
 8472SOL    HW226316   6.013   0.606   5.274
 8473SOL     OW26317   6.322   5.659   0.556
 8473SOL    HW126318   6.232   5.703   0.555
 8473SOL    HW226319   6.319   5.578   0.614
 8474SOL     OW26320   3.566   3.504   1.829
 8474SOL    HW126321   3.580   3.427   1.890
 8474SOL    HW226322   3.552   3.471   1.736
 8475SOL     OW26323   6.998   2.610   3.239
 8475SOL    HW126324   6.946   2.558   3.307
 8475SOL    HW226325   6.981   2.707   3.251
 8476SOL     OW26326   6.669   2.110   0.961
 8476SOL    HW126327   6.706   2.146   0.876
 8476SOL    HW226328   6.617   2.027   0.943
 8477SOL     OW26329   4.523   6.688   2.672
 8477SOL    HW126330   4.436   6.649   2.705
 8477SOL    HW226331   4.577   6.615   2.629
 8478SOL     OW26332   1.326   0.525   5.260
 8478SOL    HW126333   1.292   0.521   5.165
 8478SOL    HW226334   1.267   0.584   5.314
 8479SOL     OW26335   1.344   3.722   1.072
 8479SOL    HW126336   1.395   3.789   1.018
 8479SOL    HW226337   1.401   3.642   1.089
 8480SOL     OW26338   5.043   3.270   6.574
 8480SOL    HW126339   5.131   3.256   6.619
 8480SOL    HW226340   4.971   3.225   6.627
 8481SOL     OW26341   4.373   1.963   4.688
 8481SOL    HW126342   4.471   1.945   4.687
 8481SOL    HW226343   4.352   2.035   4.621
 8482SOL     OW26344   5.110   0.187   2.504
 8482SOL    HW126345   5.028   0.195   2.560
 8482SOL    HW226346   5.142   0.278   2.478
 8483SOL     OW26347   3.324   5.879   2.337
 8483SOL    HW126348   3.305   5.973   2.311
 8483SOL    HW226349   3.289   5.862   2.429
 8484SOL     OW26350   6.608   6.559   3.991
 8484SOL    HW126351   6.698   6.549   4.033
 8484SOL    HW226352   6.599   6.650   3.950
 8485SOL     OW26353   3.855   2.622   0.015
 8485SOL    HW126354   3.906   2.617   6.949
 8485SOL    HW226355   3.853   2.532   0.058
 8486SOL     OW26356   2.336   1.174   2.522
 8486SOL    HW126357   2.338   1.135   2.430
 8486SOL    HW226358   2.399   1.252   2.525
 8487SOL     OW26359   5.997   2.594   6.004
 8487SOL    HW126360   5.929   2.665   5.985
 8487SOL    HW226361   6.000   2.576   6.102
 8488SOL     OW26362   5.447   6.375   1.751
 8488SOL    HW126363   5.377   6.380   1.822
 8488SOL    HW226364   5.509   6.453   1.760
 8489SOL     OW26365   6.228   1.681   1.808
 8489SOL    HW126366   6.177   1.754   1.762
 8489SOL    HW226367   6.211   1.686   1.907
 8490SOL     OW26368   3.068   6.808   5.846
 8490SOL    HW126369   3.142   6.874   5.859
 8490SOL    HW226370   3.077   6.733   5.912
 8491SOL     OW26371   2.001   6.054   1.997
 8491SOL    HW126372   1.988   6.109   1.915
 8491SOL    HW226373   1.915   6.046   2.047
 8492SOL     OW26374   5.729   4.596   5.055
 8492SOL    HW126375   5.726   4.567   4.959
 8492SOL    HW226376   5.813   4.649   5.070
 8493SOL     OW26377   2.153   2.656   5.800
 8493SOL    HW126378   2.139   2.623   5.706
 8493SOL    HW226379   2.087   2.611   5.861
 8494SOL     OW26380   4.304   5.535   1.906
 8494SOL    HW126381   4.245   5.615   1.904
 8494SOL    HW226382   4.264   5.461   1.852
 8495SOL     OW26383   0.413   4.921   1.427
 8495SOL    HW126384   0.483   4.850   1.433
 8495SOL    HW226385   0.364   4.926   1.514
 8496SOL     OW26386   0.194   1.229   2.739
 8496SOL    HW126387   0.226   1.276   2.821
 8496SOL    HW226388   0.145   1.294   2.681
 8497SOL     OW26389   0.059   1.506   3.708
 8497SOL    HW126390   7.016   1.491   3.632
 8497SOL    HW226391   0.014   1.558   3.780
 8498SOL     OW26392   6.330   6.355   3.176
 8498SOL    HW126393   6.410   6.392   3.222
 8498SOL    HW226394   6.274   6.429   3.141
 8499SOL     OW26395   1.891   3.810   6.869
 8499SOL    HW126396   1.981   3.826   6.828
 8499SOL    HW226397   1.901   3.794   6.967
 8500SOL     OW26398   1.638   6.165   5.979
 8500SOL    HW126399   1.591   6.086   5.942
 8500SOL    HW226400   1.585   6.248   5.960
 8501SOL     OW26401   0.088   2.864   5.743
 8501SOL    HW126402   0.114   2.951   5.785
 8501SOL    HW226403   0.131   2.856   5.654
 8502SOL     OW26404   0.701   3.022   1.565
 8502SOL    HW126405   0.724   3.119   1.565
 8502SOL    HW226406   0.602   3.011   1.568
 8503SOL     OW26407   0.688   5.850   4.679
 8503SOL    HW126408   0.737   5.763   4.687
 8503SOL    HW226409   0.705   5.906   4.760
 8504SOL     OW26410   1.814   5.124   2.123
 8504SOL    HW126411   1.831   5.089   2.030
 8504SOL    HW226412   1.895   5.173   2.155
 8505SOL     OW26413   6.231   3.857   3.386
 8505SOL    HW126414   6.175   3.778   3.360
 8505SOL    HW226415   6.247   3.855   3.484
 8506SOL     OW26416   1.161   1.522   6.625
 8506SOL    HW126417   1.173   1.559   6.717
 8506SOL    HW226418   1.105   1.584   6.571
 8507SOL     OW26419   3.574   6.676   5.278
 8507SOL    HW126420   3.566   6.763   5.229
 8507SOL    HW226421   3.484   6.650   5.313
 8508SOL     OW26422   4.569   1.933   5.180
 8508SOL    HW126423   4.511   1.868   5.229
 8508SOL    HW226424   4.537   1.940   5.085
 8509SOL     OW26425   5.218   0.441   3.260
 8509SOL    HW126426   5.258   0.446   3.168
 8509SOL    HW226427   5.154   0.364   3.265
 8510SOL     OW26428   5.977   4.224   2.948
 8510SOL    HW126429   5.935   4.185   2.867
 8510SOL    HW226430   5.976   4.324   2.941
 8511SOL     OW26431   6.318   3.730   2.790
 8511SOL    HW126432   6.340   3.824   2.762
 8511SOL    HW226433   6.220   3.714   2.777
 8512SOL     OW26434   3.078   0.785   2.839
 8512SOL    HW126435   3.093   0.713   2.771
 8512SOL    HW226436   3.046   0.868   2.793
 8513SOL     OW26437   7.008   4.877   0.915
 8513SOL    HW126438   7.013   4.894   0.816
 8513SOL    HW226439   6.927   4.822   0.935
 8514SOL     OW26440   2.444   1.025   3.866
 8514SOL    HW126441   2.514   0.959   3.837
 8514SOL    HW226442   2.478   1.076   3.945
 8515SOL     OW26443   5.002   2.553   1.198
 8515SOL    HW126444   5.028   2.582   1.106
 8515SOL    HW226445   4.933   2.615   1.235
 8516SOL     OW26446   0.119   1.447   2.220
 8516SOL    HW126447   0.142   1.543   2.205
 8516SOL    HW226448   0.079   1.408   2.137
 8517SOL     OW26449   0.565   2.908   5.414
 8517SOL    HW126450   0.527   2.890   5.504
 8517SOL    HW226451   0.641   2.972   5.422
 8518SOL     OW26452   4.638   4.275   6.391
 8518SOL    HW126453   4.724   4.246   6.433
 8518SOL    HW226454   4.639   4.374   6.378
 8519SOL     OW26455   1.460   5.300   2.220
 8519SOL    HW126456   1.407   5.295   2.305
 8519SOL    HW226457   1.557   5.294   2.242
 8520SOL     OW26458   3.867   1.014   0.929
 8520SOL    HW126459   3.890   1.099   0.881
 8520SOL    HW226460   3.909   1.014   1.019
 8521SOL     OW26461   2.077   5.577   5.811
 8521SOL    HW126462   2.065   5.674   5.834
 8521SOL    HW226463   2.032   5.558   5.724
 8522SOL     OW26464   0.836   5.620   1.875
 8522SOL    HW126465   0.910   5.688   1.870
 8522SOL    HW226466   0.831   5.570   1.789
 8523SOL     OW26467   3.018   6.302   0.007
 8523SOL    HW126468   2.949   6.230   0.009
 8523SOL    HW226469   3.001   6.363   6.950
 8524SOL     OW26470   1.270   2.748   4.517
 8524SOL    HW126471   1.199   2.683   4.489
 8524SOL    HW226472   1.300   2.726   4.610
 8525SOL     OW26473   5.851   4.430   3.891
 8525SOL    HW126474   5.873   4.445   3.794
 8525SOL    HW226475   5.918   4.478   3.948
 8526SOL     OW26476   2.700   4.128   0.818
 8526SOL    HW126477   2.707   4.117   0.719
 8526SOL    HW226478   2.754   4.208   0.846
 8527SOL     OW26479   3.298   0.301   5.135
 8527SOL    HW126480   3.304   0.391   5.179
 8527SOL    HW226481   3.326   0.309   5.039
 8528SOL     OW26482   4.620   3.228   6.233
 8528SOL    HW126483   4.537   3.186   6.268
 8528SOL    HW226484   4.690   3.227   6.304
 8529SOL     OW26485   1.220   6.946   0.035
 8529SOL    HW126486   1.244   6.852   0.010
 8529SOL    HW226487   1.233   7.005   6.976
 8530SOL     OW26488   0.882   4.873   5.898
 8530SOL    HW126489   0.786   4.846   5.903
 8530SOL    HW226490   0.891   4.968   5.928
 8531SOL     OW26491   5.805   4.820   2.956
 8531SOL    HW126492   5.851   4.898   2.914
 8531SOL    HW226493   5.761   4.766   2.884
 8532SOL     OW26494   4.146   5.286   5.127
 8532SOL    HW126495   4.052   5.309   5.154
 8532SOL    HW226496   4.144   5.243   5.037
 8533SOL     OW26497   1.624   0.432   5.580
 8533SOL    HW126498   1.700   0.370   5.560
 8533SOL    HW226499   1.567   0.393   5.651
 8534SOL     OW26500   6.841   3.846   3.555
 8534SOL    HW126501   6.841   3.748   3.540
 8534SOL    HW226502   6.933   3.882   3.539
 8535SOL     OW26503   0.687   2.207   5.017
 8535SOL    HW126504   0.700   2.112   4.989
 8535SOL    HW226505   0.754   2.265   4.970
 8536SOL     OW26506   6.026   1.997   5.089
 8536SOL    HW126507   6.083   2.059   5.143
 8536SOL    HW226508   6.084   1.948   5.023
 8537SOL     OW26509   5.590   2.141   1.104
 8537SOL    HW126510   5.504   2.091   1.098
 8537SOL    HW226511   5.589   2.217   1.039
 8538SOL     OW26512   0.299   0.684   4.862
 8538SOL    HW126513   0.225   0.622   4.887
 8538SOL    HW226514   0.290   0.712   4.766
 8539SOL     OW26515   6.147   2.097   2.009
 8539SOL    HW126516   6.069   2.100   1.946
 8539SOL    HW226517   6.220   2.042   1.970
 8540SOL     OW26518   3.563   1.591   0.636
 8540SOL    HW126519   3.540   1.494   0.645
 8540SOL    HW226520   3.496   1.645   0.687
 8541SOL     OW26521   2.603   1.838   4.553
 8541SOL    HW126522   2.685   1.820   4.608
 8541SOL    HW226523   2.524   1.793   4.594
 8542SOL     OW26524   2.612   4.467   6.636
 8542SOL    HW126525   2.608   4.402   6.711
 8542SOL    HW226526   2.704   4.506   6.630
 8543SOL     OW26527   2.834   1.851   5.515
 8543SOL    HW126528   2.833   1.838   5.614
 8543SOL    HW226529   2.907   1.796   5.475
 8544SOL     OW26530   5.266   3.036   4.621
 8544SOL    HW126531   5.230   3.005   4.709
 8544SOL    HW226532   5.329   3.112   4.636
 8545SOL     OW26533   3.510   6.680   4.904
 8545SOL    HW126534   3.550   6.707   4.992
 8545SOL    HW226535   3.420   6.723   4.894
 8546SOL     OW26536   6.258   0.137   1.431
 8546SOL    HW126537   6.332   0.194   1.469
 8546SOL    HW226538   6.235   0.169   1.339
 8547SOL     OW26539   0.171   0.479   5.351
 8547SOL    HW126540   0.263   0.519   5.359
 8547SOL    HW226541   0.149   0.467   5.254
 8548SOL     OW26542   0.250   3.272   5.693
 8548SOL    HW126543   0.188   3.280   5.614
 8548SOL    HW226544   0.233   3.348   5.756
 8549SOL     OW26545   0.839   2.345   3.887
 8549SOL    HW126546   0.780   2.274   3.849
 8549SOL    HW226547   0.784   2.426   3.908
 8550SOL     OW26548   1.127   3.884   5.933
 8550SOL    HW126549   1.227   3.891   5.935
 8550SOL    HW226550   1.088   3.953   5.994
 8551SOL     OW26551   2.930   2.897   0.030
 8551SOL    HW126552   2.988   2.968   7.009
 8551SOL    HW226553   2.982   2.847   0.099
 8552SOL     OW26554   2.579   0.247   2.419
 8552SOL    HW126555   2.513   0.303   2.370
 8552SOL    HW226556   2.544   0.227   2.511
 8553SOL     OW26557   4.582   4.504   0.431
 8553SOL    HW126558   4.602   4.600   0.410
 8553SOL    HW226559   4.487   4.496   0.462
 8554SOL     OW26560   0.686   5.819   1.349
 8554SOL    HW126561   0.697   5.873   1.432
 8554SOL    HW226562   0.624   5.742   1.366
 8555SOL     OW26563   3.834   1.750   3.217
 8555SOL    HW126564   3.745   1.704   3.213
 8555SOL    HW226565   3.820   1.849   3.205
 8556SOL     OW26566   1.788   6.285   5.641
 8556SOL    HW126567   1.855   6.333   5.585
 8556SOL    HW226568   1.827   6.199   5.674
 8557SOL     OW26569   6.736   0.751   1.318
 8557SOL    HW126570   6.819   0.768   1.371
 8557SOL    HW226571   6.685   0.836   1.307
 8558SOL     OW26572   1.879   5.454   3.229
 8558SOL    HW126573   1.808   5.400   3.184
 8558SOL    HW226574   1.943   5.393   3.276
 8559SOL     OW26575   1.559   6.036   2.454
 8559SOL    HW126576   1.506   6.061   2.535
 8559SOL    HW226577   1.498   6.010   2.380
 8560SOL     OW26578   1.061   5.208   1.241
 8560SOL    HW126579   1.103   5.277   1.300
 8560SOL    HW226580   1.106   5.120   1.255
 8561SOL     OW26581   3.654   6.838   3.803
 8561SOL    HW126582   3.555   6.835   3.806
 8561SOL    HW226583   3.691   6.745   3.804
 8562SOL     OW26584   3.851   6.999   0.021
 8562SOL    HW126585   3.926   6.997   0.087
 8562SOL    HW226586   3.795   6.917   0.030
 8563SOL     OW26587   0.797   4.917   1.870
 8563SOL    HW126588   0.812   4.828   1.913
 8563SOL    HW226589   0.833   4.990   1.929
 8564SOL     OW26590   3.347   6.305   5.837
 8564SOL    HW126591   3.408   6.228   5.816
 8564SOL    HW226592   3.403   6.385   5.860
 8565SOL     OW26593   3.709   5.711   1.079
 8565SOL    HW126594   3.701   5.624   1.126
 8565SOL    HW226595   3.805   5.727   1.054
 8566SOL     OW26596   1.860   0.154   2.114
 8566SOL    HW126597   1.889   0.143   2.209
 8566SOL    HW226598   1.797   0.080   2.090
 8567SOL     OW26599   1.179   1.998   2.038
 8567SOL    HW126600   1.225   2.060   1.974
 8567SOL    HW226601   1.206   2.021   2.132
 8568SOL     OW26602   6.045   1.653   0.541
 8568SOL    HW126603   5.983   1.584   0.577
 8568SOL    HW226604   6.028   1.665   0.443
 8569SOL     OW26605   5.381   1.701   5.871
 8569SOL    HW126606   5.290   1.721   5.908
 8569SOL    HW226607   5.375   1.623   5.809
 8570SOL     OW26608   1.139   1.807   4.913
 8570SOL    HW126609   1.162   1.895   4.870
 8570SOL    HW226610   1.097   1.824   5.003
 8571SOL     OW26611   0.688   0.120   4.753
 8571SOL    HW126612   0.745   0.192   4.791
 8571SOL    HW226613   0.595   0.153   4.742
 8572SOL     OW26614   1.806   4.093   5.005
 8572SOL    HW126615   1.789   4.020   4.938
 8572SOL    HW226616   1.723   4.147   5.017
 8573SOL     OW26617   3.097   5.790   6.296
 8573SOL    HW126618   3.106   5.717   6.364
 8573SOL    HW226619   3.001   5.814   6.285
 8574SOL     OW26620   6.308   6.555   6.002
 8574SOL    HW126621   6.311   6.510   5.912
 8574SOL    HW226622   6.395   6.544   6.048
 8575SOL     OW26623   3.419   1.533   3.477
 8575SOL    HW126624   3.363   1.505   3.555
 8575SOL    HW226625   3.497   1.587   3.510
 8576SOL     OW26626   1.846   4.788   4.150
 8576SOL    HW126627   1.789   4.789   4.068
 8576SOL    HW226628   1.864   4.693   4.177
 8577SOL     OW26629   1.491   0.269   6.050
 8577SOL    HW126630   1.588   0.292   6.061
 8577SOL    HW226631   1.465   0.279   5.954
 8578SOL     OW26632   6.663   4.860   5.877
 8578SOL    HW126633   6.659   4.881   5.975
 8578SOL    HW226634   6.689   4.764   5.865
 8579SOL     OW26635   1.042   5.765   1.857
 8579SOL    HW126636   1.097   5.749   1.939
 8579SOL    HW226637   1.042   5.862   1.835
 8580SOL     OW26638   2.258   5.760   1.115
 8580SOL    HW126639   2.338   5.805   1.076
 8580SOL    HW226640   2.212   5.705   1.045
 8581SOL     OW26641   4.047   4.834   1.435
 8581SOL    HW126642   4.099   4.763   1.389
 8581SOL    HW226643   3.994   4.886   1.368
 8582SOL     OW26644   4.589   4.754   5.636
 8582SOL    HW126645   4.660   4.794   5.578
 8582SOL    HW226646   4.534   4.690   5.583
 8583SOL     OW26647   2.745   6.692   2.631
 8583SOL    HW126648   2.677   6.676   2.559
 8583SOL    HW226649   2.817   6.622   2.625
 8584SOL     OW26650   0.572   6.948   5.334
 8584SOL    HW126651   0.672   6.943   5.340
 8584SOL    HW226652   0.536   6.859   5.304
 8585SOL     OW26653   6.176   1.730   0.777
 8585SOL    HW126654   6.105   1.722   0.847
 8585SOL    HW226655   6.143   1.690   0.692
 8586SOL     OW26656   4.066   6.889   1.459
 8586SOL    HW126657   4.089   6.830   1.381
 8586SOL    HW226658   4.150   6.911   1.510
 8587SOL     OW26659   1.030   1.137   5.115
 8587SOL    HW126660   1.082   1.171   5.194
 8587SOL    HW226661   1.094   1.109   5.044
 8588SOL     OW26662   4.855   1.130   6.891
 8588SOL    HW126663   4.779   1.171   6.940
 8588SOL    HW226664   4.848   1.151   6.794
 8589SOL     OW26665   6.780   2.456   5.439
 8589SOL    HW126666   6.736   2.389   5.380
 8589SOL    HW226667   6.716   2.529   5.461
 8590SOL     OW26668   0.601   1.165   2.699
 8590SOL    HW126669   0.536   1.106   2.745
 8590SOL    HW226670   0.692   1.122   2.702
 8591SOL     OW26671   0.275   4.084   0.443
 8591SOL    HW126672   0.302   4.009   0.383
 8591SOL    HW226673   0.320   4.073   0.532
 8592SOL     OW26674   6.932   2.253   0.101
 8592SOL    HW126675   6.888   2.322   0.157
 8592SOL    HW226676   0.010   2.273   0.095
 8593SOL     OW26677   3.036   1.020   6.293
 8593SOL    HW126678   2.965   1.014   6.223
 8593SOL    HW226679   3.023   1.103   6.347
 8594SOL     OW26680   6.259   2.517   5.895
 8594SOL    HW126681   6.186   2.574   5.934
 8594SOL    HW226682   6.321   2.488   5.968
 8595SOL     OW26683   6.223   1.104   3.681
 8595SOL    HW126684   6.258   1.195   3.706
 8595SOL    HW226685   6.137   1.114   3.631
 8596SOL     OW26686   1.411   4.719   3.430
 8596SOL    HW126687   1.382   4.807   3.468
 8596SOL    HW226688   1.393   4.647   3.497
 8597SOL     OW26689   5.313   2.012   1.293
 8597SOL    HW126690   5.394   2.049   1.338
 8597SOL    HW226691   5.257   2.087   1.257
 8598SOL     OW26692   5.832   0.004   5.961
 8598SOL    HW126693   5.786   6.936   5.961
 8598SOL    HW226694   5.769   0.075   5.930
 8599SOL     OW26695   1.109   2.545   4.653
 8599SOL    HW126696   1.171   2.603   4.706
 8599SOL    HW226697   1.017   2.552   4.689
 8600SOL     OW26698   5.334   3.475   0.273
 8600SOL    HW126699   5.364   3.456   0.367
 8600SOL    HW226700   5.246   3.522   0.274
 8601SOL     OW26701   0.416   1.979   3.793
 8601SOL    HW126702   0.380   1.891   3.822
 8601SOL    HW226703   0.354   2.019   3.724
 8602SOL     OW26704   2.614   6.348   1.995
 8602SOL    HW126705   2.680   6.402   1.943
 8602SOL    HW226706   2.602   6.259   1.951
 8603SOL     OW26707   5.284   0.225   0.358
 8603SOL    HW126708   5.270   0.184   0.268
 8603SOL    HW226709   5.201   0.215   0.412
 8604SOL     OW26710   1.221   2.489   5.975
 8604SOL    HW126711   1.222   2.389   5.985
 8604SOL    HW226712   1.284   2.530   6.041
 8605SOL     OW26713   1.446   5.214   3.472
 8605SOL    HW126714   1.356   5.230   3.512
 8605SOL    HW226715   1.501   5.157   3.534
 8606SOL     OW26716   2.410   2.273   6.966
 8606SOL    HW126717   2.422   2.174   6.978
 8606SOL    HW226718   2.428   2.298   6.871
 8607SOL     OW26719   2.598   4.418   6.343
 8607SOL    HW126720   2.617   4.464   6.430
 8607SOL    HW226721   2.685   4.396   6.297
 8608SOL     OW26722   2.023   4.494   2.456
 8608SOL    HW126723   1.960   4.455   2.390
 8608SOL    HW226724   2.030   4.593   2.442
 8609SOL     OW26725   5.243   0.272   3.772
 8609SOL    HW126726   5.144   0.275   3.784
 8609SOL    HW226727   5.267   0.201   3.706
 8610SOL     OW26728   6.576   0.648   3.361
 8610SOL    HW126729   6.637   0.622   3.287
 8610SOL    HW226730   6.481   0.628   3.335
 8611SOL     OW26731   3.035   1.537   4.286
 8611SOL    HW126732   2.954   1.499   4.329
 8611SOL    HW226733   3.075   1.470   4.224
 8612SOL     OW26734   2.293   3.436   1.351
 8612SOL    HW126735   2.222   3.480   1.406
 8612SOL    HW226736   2.378   3.486   1.360
 8613SOL     OW26737   3.100   1.984   1.313
 8613SOL    HW126738   3.013   1.980   1.362
 8613SOL    HW226739   3.123   1.892   1.281
 8614SOL     OW26740   1.363   3.014   2.833
 8614SOL    HW126741   1.388   2.925   2.795
 8614SOL    HW226742   1.430   3.041   2.902
 8615SOL     OW26743   4.558   2.187   5.335
 8615SOL    HW126744   4.632   2.235   5.288
 8615SOL    HW226745   4.508   2.131   5.269
 8616SOL     OW26746   3.047   4.779   1.881
 8616SOL    HW126747   3.018   4.874   1.871
 8616SOL    HW226748   2.971   4.726   1.919
 8617SOL     OW26749   6.189   1.092   3.987
 8617SOL    HW126750   6.106   1.038   3.999
 8617SOL    HW226751   6.199   1.117   3.891
 8618SOL     OW26752   6.438   4.118   1.172
 8618SOL    HW126753   6.357   4.099   1.228
 8618SOL    HW226754   6.513   4.148   1.231
 8619SOL     OW26755   4.080   4.975   3.044
 8619SOL    HW126756   4.177   4.970   3.069
 8619SOL    HW226757   4.063   4.915   2.967
 8620SOL     OW26758   2.221   6.251   4.198
 8620SOL    HW126759   2.262   6.162   4.220
 8620SOL    HW226760   2.122   6.242   4.192
 8621SOL     OW26761   4.954   2.804   2.299
 8621SOL    HW126762   4.889   2.777   2.228
 8621SOL    HW226763   4.951   2.904   2.309
 8622SOL     OW26764   5.249   4.313   1.415
 8622SOL    HW126765   5.291   4.264   1.491
 8622SOL    HW226766   5.293   4.288   1.330
 8623SOL     OW26767   0.629   4.235   4.994
 8623SOL    HW126768   0.675   4.241   4.905
 8623SOL    HW226769   0.563   4.310   5.002
 8624SOL     OW26770   3.132   4.099   5.809
 8624SOL    HW126771   3.068   4.086   5.734
 8624SOL    HW226772   3.082   4.127   5.891
 8625SOL     OW26773   4.659   0.616   5.124
 8625SOL    HW126774   4.602   0.628   5.206
 8625SOL    HW226775   4.751   0.650   5.143
 8626SOL     OW26776   3.927   3.075   6.957
 8626SOL    HW126777   3.900   3.030   0.023
 8626SOL    HW226778   3.974   3.010   6.899
 8627SOL     OW26779   2.666   1.799   1.979
 8627SOL    HW126780   2.658   1.879   2.038
 8627SOL    HW226781   2.590   1.798   1.914
 8628SOL     OW26782   6.117   6.799   6.792
 8628SOL    HW126783   6.190   6.859   6.760
 8628SOL    HW226784   6.156   6.717   6.833
 8629SOL     OW26785   1.859   6.833   5.461
 8629SOL    HW126786   1.912   6.785   5.392
 8629SOL    HW226787   1.801   6.901   5.417
 8630SOL     OW26788   4.904   3.577   4.032
 8630SOL    HW126789   4.979   3.544   3.975
 8630SOL    HW226790   4.893   3.516   4.110
 8631SOL     OW26791   1.202   5.664   6.095
 8631SOL    HW126792   1.212   5.596   6.168
 8631SOL    HW226793   1.183   5.618   6.009
 8632SOL     OW26794   4.019   4.594   5.321
 8632SOL    HW126795   3.976   4.572   5.409
 8632SOL    HW226796   4.100   4.536   5.308
 8633SOL     OW26797   5.273   2.713   5.895
 8633SOL    HW126798   5.299   2.713   5.799
 8633SOL    HW226799   5.189   2.766   5.907
 8634SOL     OW26800   4.803   4.279   6.894
 8634SOL    HW126801   4.707   4.293   6.870
 8634SOL    HW226802   4.815   4.188   6.934
 8635SOL     OW26803   5.664   2.947   6.841
 8635SOL    HW126804   5.728   3.020   6.815
 8635SOL    HW226805   5.713   2.860   6.846
 8636SOL     OW26806   5.340   6.088   1.092
 8636SOL    HW126807   5.302   6.009   1.140
 8636SOL    HW226808   5.422   6.119   1.140
 8637SOL     OW26809   2.029   1.891   6.877
 8637SOL    HW126810   2.015   1.843   6.791
 8637SOL    HW226811   2.050   1.987   6.859
 8638SOL     OW26812   4.107   2.405   5.377
 8638SOL    HW126813   4.167   2.441   5.306
 8638SOL    HW226814   4.151   2.326   5.421
 8639SOL     OW26815   4.474   3.415   6.786
 8639SOL    HW126816   4.567   3.381   6.800
 8639SOL    HW226817   4.428   3.427   6.874
 8640SOL     OW26818   3.842   3.798   0.784
 8640SOL    HW126819   3.780   3.720   0.786
 8640SOL    HW226820   3.892   3.798   0.698
 8641SOL     OW26821   4.285   4.862   4.136
 8641SOL    HW126822   4.228   4.857   4.218
 8641SOL    HW226823   4.349   4.938   4.144
 8642SOL     OW26824   1.142   6.989   3.515
 8642SOL    HW126825   1.052   6.994   3.474
 8642SOL    HW226826   1.133   6.965   3.612
 8643SOL     OW26827   1.903   0.399   6.928
 8643SOL    HW126828   1.813   0.386   6.971
 8643SOL    HW226829   1.948   0.479   6.966
 8644SOL     OW26830   5.222   2.606   6.153
 8644SOL    HW126831   5.125   2.581   6.153
 8644SOL    HW226832   5.243   2.656   6.069
 8645SOL     OW26833   4.382   4.850   1.725
 8645SOL    HW126834   4.429   4.926   1.771
 8645SOL    HW226835   4.442   4.812   1.655
 8646SOL     OW26836   0.481   1.529   6.756
 8646SOL    HW126837   0.542   1.579   6.695
 8646SOL    HW226838   0.500   1.555   6.851
 8647SOL     OW26839   2.507   5.251   0.332
 8647SOL    HW126840   2.478   5.330   0.386
 8647SOL    HW226841   2.598   5.222   0.361
 8648SOL     OW26842   6.156   0.442   0.921
 8648SOL    HW126843   6.157   0.540   0.906
 8648SOL    HW226844   6.062   0.408   0.915
 8649SOL     OW26845   5.977   6.036   0.417
 8649SOL    HW126846   5.893   6.076   0.456
 8649SOL    HW226847   6.056   6.076   0.463
 8650SOL     OW26848   1.609   6.685   5.067
 8650SOL    HW126849   1.682   6.754   5.063
 8650SOL    HW226850   1.538   6.715   5.131
 8651SOL     OW26851   3.847   1.423   1.019
 8651SOL    HW126852   3.752   1.433   1.050
 8651SOL    HW226853   3.890   1.513   1.016
 8652SOL     OW26854   0.778   4.883   3.354
 8652SOL    HW126855   0.823   4.843   3.434
 8652SOL    HW226856   0.680   4.891   3.371
 8653SOL     OW26857   6.750   1.440   6.001
 8653SOL    HW126858   6.792   1.522   5.961
 8653SOL    HW226859   6.784   1.427   6.094
 8654SOL     OW26860   0.288   4.936   1.655
 8654SOL    HW126861   0.251   4.877   1.727
 8654SOL    HW226862   0.327   5.019   1.696
 8655SOL     OW26863   5.614   0.246   4.366
 8655SOL    HW126864   5.534   0.302   4.344
 8655SOL    HW226865   5.619   0.232   4.465
 8656SOL     OW26866   6.299   1.246   2.122
 8656SOL    HW126867   6.357   1.253   2.204
 8656SOL    HW226868   6.356   1.256   2.040
 8657SOL     OW26869   6.080   6.127   0.170
 8657SOL    HW126870   6.038   6.086   0.251
 8657SOL    HW226871   6.019   6.115   0.091
 8658SOL     OW26872   6.573   5.283   0.208
 8658SOL    HW126873   6.548   5.380   0.202
 8658SOL    HW226874   6.565   5.240   0.118
 8659SOL     OW26875   5.070   2.035   2.750
 8659SOL    HW126876   5.031   2.103   2.813
 8659SOL    HW226877   5.133   2.081   2.687
 8660SOL     OW26878   7.005   3.147   2.215
 8660SOL    HW126879   0.012   3.061   2.258
 8660SOL    HW226880   0.032   3.223   2.261
 8661SOL     OW26881   6.168   3.977   2.164
 8661SOL    HW126882   6.158   3.880   2.185
 8661SOL    HW226883   6.261   3.996   2.134
 8662SOL     OW26884   3.983   5.801   2.110
 8662SOL    HW126885   4.051   5.869   2.137
 8662SOL    HW226886   3.905   5.805   2.173
 8663SOL     OW26887   2.571   5.561   2.593
 8663SOL    HW126888   2.533   5.531   2.506
 8663SOL    HW226889   2.618   5.649   2.580
 8664SOL     OW26890   2.460   4.757   1.778
 8664SOL    HW126891   2.365   4.743   1.805
 8664SOL    HW226892   2.520   4.703   1.838
 8665SOL     OW26893   6.113   5.560   4.643
 8665SOL    HW126894   6.192   5.505   4.615
 8665SOL    HW226895   6.055   5.506   4.703
 8666SOL     OW26896   5.404   0.239   3.971
 8666SOL    HW126897   5.464   0.318   3.975
 8666SOL    HW226898   5.342   0.247   3.894
 8667SOL     OW26899   4.959   1.762   4.000
 8667SOL    HW126900   4.908   1.678   3.983
 8667SOL    HW226901   5.056   1.741   4.010
 8668SOL     OW26902   5.241   3.735   4.650
 8668SOL    HW126903   5.185   3.783   4.717
 8668SOL    HW226904   5.202   3.645   4.632
 8669SOL     OW26905   0.375   6.283   6.462
 8669SOL    HW126906   0.306   6.354   6.469
 8669SOL    HW226907   0.391   6.243   6.553
 8670SOL     OW26908   4.479   5.573   5.903
 8670SOL    HW126909   4.489   5.476   5.922
 8670SOL    HW226910   4.468   5.623   5.989
 8671SOL     OW26911   0.857   1.477   2.385
 8671SOL    HW126912   0.895   1.510   2.471
 8671SOL    HW226913   0.789   1.406   2.403
 8672SOL     OW26914   0.478   6.796   3.150
 8672SOL    HW126915   0.414   6.819   3.076
 8672SOL    HW226916   0.427   6.783   3.235
 8673SOL     OW26917   6.365   1.764   0.354
 8673SOL    HW126918   6.310   1.680   0.359
 8673SOL    HW226919   6.346   1.811   0.268
 8674SOL     OW26920   5.860   5.146   3.027
 8674SOL    HW126921   5.786   5.101   3.077
 8674SOL    HW226922   5.821   5.215   2.966
 8675SOL     OW26923   4.541   1.251   5.226
 8675SOL    HW126924   4.487   1.167   5.218
 8675SOL    HW226925   4.540   1.300   5.139
 8676SOL     OW26926   4.865   0.257   2.626
 8676SOL    HW126927   4.799   0.182   2.635
 8676SOL    HW226928   4.821   0.336   2.583
 8677SOL     OW26929   1.778   5.794   5.492
 8677SOL    HW126930   1.725   5.748   5.420
 8677SOL    HW226931   1.795   5.730   5.567
 8678SOL     OW26932   1.043   0.274   0.733
 8678SOL    HW126933   0.963   0.329   0.758
 8678SOL    HW226934   1.039   0.251   0.636
 8679SOL     OW26935   1.198   1.239   3.528
 8679SOL    HW126936   1.168   1.306   3.460
 8679SOL    HW226937   1.291   1.261   3.558
 8680SOL     OW26938   6.142   3.345   6.880
 8680SOL    HW126939   6.233   3.370   6.915
 8680SOL    HW226940   6.099   3.426   6.839
 8681SOL     OW26941   4.642   5.534   1.681
 8681SOL    HW126942   4.682   5.443   1.692
 8681SOL    HW226943   4.638   5.579   1.771
 8682SOL     OW26944   6.591   0.690   1.915
 8682SOL    HW126945   6.506   0.638   1.927
 8682SOL    HW226946   6.621   0.725   2.003
 8683SOL     OW26947   1.539   2.580   5.905
 8683SOL    HW126948   1.517   2.505   5.967
 8683SOL    HW226949   1.512   2.555   5.812
 8684SOL     OW26950   6.508   2.892   4.945
 8684SOL    HW126951   6.535   2.797   4.961
 8684SOL    HW226952   6.559   2.952   5.007
 8685SOL     OW26953   5.173   2.982   6.430
 8685SOL    HW126954   5.257   2.980   6.484
 8685SOL    HW226955   5.195   3.003   6.334
 8686SOL     OW26956   6.623   0.526   1.607
 8686SOL    HW126957   6.592   0.528   1.512
 8686SOL    HW226958   6.722   0.514   1.608
 8687SOL     OW26959   5.380   4.928   2.759
 8687SOL    HW126960   5.426   4.915   2.847
 8687SOL    HW226961   5.285   4.898   2.767
 8688SOL     OW26962   1.215   4.567   6.829
 8688SOL    HW126963   1.308   4.594   6.804
 8688SOL    HW226964   1.157   4.649   6.834
 8689SOL     OW26965   4.262   2.934   0.254
 8689SOL    HW126966   4.239   3.025   0.288
 8689SOL    HW226967   4.355   2.935   0.217
 8690SOL     OW26968   0.923   3.463   3.138
 8690SOL    HW126969   0.844   3.469   3.078
 8690SOL    HW226970   0.928   3.372   3.178
 8691SOL     OW26971   3.395   2.070   5.822
 8691SOL    HW126972   3.368   2.026   5.736
 8691SOL    HW226973   3.372   2.010   5.898
 8692SOL     OW26974   3.612   0.893   4.767
 8692SOL    HW126975   3.668   0.948   4.706
 8692SOL    HW226976   3.520   0.884   4.729
 8693SOL     OW26977   6.112   0.217   6.694
 8693SOL    HW126978   6.118   0.281   6.771
 8693SOL    HW226979   6.021   0.176   6.691
 8694SOL     OW26980   5.947   1.352   4.666
 8694SOL    HW126981   6.033   1.390   4.700
 8694SOL    HW226982   5.874   1.369   4.731
 8695SOL     OW26983   3.851   3.136   6.458
 8695SOL    HW126984   3.910   3.203   6.503
 8695SOL    HW226985   3.771   3.183   6.420
 8696SOL     OW26986   3.083   5.755   5.382
 8696SOL    HW126987   3.071   5.704   5.467
 8696SOL    HW226988   3.081   5.692   5.304
 8697SOL     OW26989   0.165   4.020   6.322
 8697SOL    HW126990   0.234   4.002   6.392
 8697SOL    HW226991   0.089   3.957   6.333
 8698SOL     OW26992   5.214   6.194   4.879
 8698SOL    HW126993   5.244   6.184   4.784
 8698SOL    HW226994   5.261   6.127   4.937
 8699SOL     OW26995   1.582   3.305   5.306
 8699SOL    HW126996   1.572   3.259   5.395
 8699SOL    HW226997   1.679   3.323   5.289
 8700SOL     OW26998   0.695   0.450   4.794
 8700SOL    HW126999   0.656   0.473   4.705
 8700SOL    HW227000   0.630   0.475   4.866
 8701SOL     OW27001   1.600   1.418   0.798
 8701SOL    HW127002   1.625   1.329   0.836
 8701SOL    HW227003   1.682   1.471   0.780
 8702SOL     OW27004   5.170   5.070   1.753
 8702SOL    HW127005   5.148   4.975   1.730
 8702SOL    HW227006   5.178   5.078   1.853
 8703SOL     OW27007   2.988   4.636   0.130
 8703SOL    HW127008   3.033   4.563   0.181
 8703SOL    HW227009   2.934   4.597   0.055
 8704SOL     OW27010   6.900   4.258   3.298
 8704SOL    HW127011   6.879   4.172   3.252
 8704SOL    HW227012   6.845   4.331   3.258
 8705SOL     OW27013   4.335   1.955   6.295
 8705SOL    HW127014   4.250   1.935   6.248
 8705SOL    HW227015   4.410   1.957   6.229
 8706SOL     OW27016   4.814   1.960   0.393
 8706SOL    HW127017   4.869   1.882   0.420
 8706SOL    HW227018   4.807   2.025   0.469
 8707SOL     OW27019   1.077   2.437   3.860
 8707SOL    HW127020   0.982   2.405   3.861
 8707SOL    HW227021   1.130   2.386   3.928
 8708SOL     OW27022   4.315   1.492   3.686
 8708SOL    HW127023   4.237   1.479   3.626
 8708SOL    HW227024   4.332   1.409   3.739
 8709SOL     OW27025   6.687   6.871   6.695
 8709SOL    HW127026   6.627   6.894   6.618
 8709SOL    HW227027   6.632   6.830   6.768
 8710SOL     OW27028   2.221   2.728   3.700
 8710SOL    HW127029   2.296   2.684   3.751
 8710SOL    HW227030   2.160   2.658   3.665
 8711SOL     OW27031   1.827   6.670   3.022
 8711SOL    HW127032   1.857   6.722   2.942
 8711SOL    HW227033   1.746   6.713   3.062
 8712SOL     OW27034   3.640   1.478   4.322
 8712SOL    HW127035   3.656   1.532   4.405
 8712SOL    HW227036   3.728   1.457   4.279
 8713SOL     OW27037   6.372   4.055   1.967
 8713SOL    HW127038   6.321   4.096   1.892
 8713SOL    HW227039   6.426   3.978   1.932
 8714SOL     OW27040   1.325   0.099   6.214
 8714SOL    HW127041   1.296   0.019   6.162
 8714SOL    HW227042   1.371   0.163   6.153
 8715SOL     OW27043   4.128   1.632   0.777
 8715SOL    HW127044   4.105   1.712   0.722
 8715SOL    HW227045   4.121   1.654   0.874
 8716SOL     OW27046   0.579   6.315   0.677
 8716SOL    HW127047   0.629   6.231   0.656
 8716SOL    HW227048   0.640   6.393   0.670
 8717SOL     OW27049   2.300   3.423   5.423
 8717SOL    HW127050   2.299   3.362   5.343
 8717SOL    HW227051   2.279   3.370   5.505
 8718SOL     OW27052   1.695   2.565   5.608
 8718SOL    HW127053   1.721   2.576   5.512
 8718SOL    HW227054   1.597   2.547   5.614
 8719SOL     OW27055   3.515   0.623   0.316
 8719SOL    HW127056   3.567   0.627   0.401
 8719SOL    HW227057   3.521   0.532   0.277
 8720SOL     OW27058   0.692   6.453   5.911
 8720SOL    HW127059   0.610   6.406   5.878
 8720SOL    HW227060   0.730   6.403   5.989
 8721SOL     OW27061   6.154   1.181   0.223
 8721SOL    HW127062   6.119   1.129   0.301
 8721SOL    HW227063   6.243   1.146   0.196
 8722SOL     OW27064   3.236   0.983   0.422
 8722SOL    HW127065   3.274   0.905   0.472
 8722SOL    HW227066   3.256   1.067   0.472
 8723SOL     OW27067   5.557   0.167   2.508
 8723SOL    HW127068   5.547   0.264   2.530
 8723SOL    HW227069   5.595   0.157   2.416
 8724SOL     OW27070   5.906   0.230   4.126
 8724SOL    HW127071   5.980   0.162   4.132
 8724SOL    HW227072   5.818   0.183   4.125
 8725SOL     OW27073   0.641   5.911   5.248
 8725SOL    HW127074   0.630   5.956   5.159
 8725SOL    HW227075   0.633   5.980   5.321
 8726SOL     OW27076   6.977   1.147   0.840
 8726SOL    HW127077   6.974   1.047   0.833
 8726SOL    HW227078   6.885   1.182   0.860
 8727SOL     OW27079   6.050   6.969   0.869
 8727SOL    HW127080   6.097   0.032   0.838
 8727SOL    HW227081   6.035   6.908   0.790
 8728SOL     OW27082   5.347   1.561   2.200
 8728SOL    HW127083   5.283   1.638   2.203
 8728SOL    HW227084   5.386   1.546   2.290
 8729SOL     OW27085   3.115   5.313   5.585
 8729SOL    HW127086   3.069   5.267   5.510
 8729SOL    HW227087   3.191   5.367   5.550
 8730SOL     OW27088   5.402   4.317   3.274
 8730SOL    HW127089   5.404   4.384   3.200
 8730SOL    HW227090   5.393   4.225   3.236
 8731SOL     OW27091   0.906   3.970   3.140
 8731SOL    HW127092   0.887   4.038   3.211
 8731SOL    HW227093   0.865   3.883   3.165
 8732SOL     OW27094   5.454   4.287   2.334
 8732SOL    HW127095   5.384   4.318   2.399
 8732SOL    HW227096   5.542   4.282   2.380
 8733SOL     OW27097   1.326   5.788   0.456
 8733SOL    HW127098   1.297   5.769   0.362
 8733SOL    HW227099   1.370   5.878   0.460
 8734SOL     OW27100   0.071   3.494   2.726
 8734SOL    HW127101   0.168   3.488   2.750
 8734SOL    HW227102   0.028   3.405   2.742
 8735SOL     OW27103   0.927   2.794   5.257
 8735SOL    HW127104   0.870   2.876   5.249
 8735SOL    HW227105   0.869   2.715   5.278
 8736SOL     OW27106   6.841   5.348   2.266
 8736SOL    HW127107   6.806   5.396   2.186
 8736SOL    HW227108   6.898   5.411   2.320
 8737SOL     OW27109   2.505   6.635   6.981
 8737SOL    HW127110   2.430   6.679   0.011
 8737SOL    HW227111   2.561   6.582   0.025
 8738SOL     OW27112   2.321   6.004   3.229
 8738SOL    HW127113   2.257   5.932   3.200
 8738SOL    HW227114   2.407   5.962   3.258
 8739SOL     OW27115   5.530   5.226   5.875
 8739SOL    HW127116   5.586   5.174   5.811
 8739SOL    HW227117   5.566   5.213   5.968
 8740SOL     OW27118   4.050   2.029   3.089
 8740SOL    HW127119   3.957   2.037   3.051
 8740SOL    HW227120   4.117   2.033   3.015
 8741SOL     OW27121   2.555   0.419   2.830
 8741SOL    HW127122   2.503   0.422   2.916
 8741SOL    HW227123   2.532   0.499   2.775
 8742SOL     OW27124   4.493   0.313   1.692
 8742SOL    HW127125   4.430   0.255   1.742
 8742SOL    HW227126   4.442   0.371   1.628
 8743SOL     OW27127   2.238   0.625   1.065
 8743SOL    HW127128   2.288   0.540   1.082
 8743SOL    HW227129   2.191   0.654   1.149
 8744SOL     OW27130   4.281   3.175   1.039
 8744SOL    HW127131   4.291   3.122   0.955
 8744SOL    HW227132   4.237   3.263   1.018
 8745SOL     OW27133   6.517   2.297   6.323
 8745SOL    HW127134   6.466   2.294   6.408
 8745SOL    HW227135   6.463   2.344   6.253
 8746SOL     OW27136   4.613   5.973   4.444
 8746SOL    HW127137   4.566   5.943   4.527
 8746SOL    HW227138   4.606   5.902   4.374
 8747SOL     OW27139   0.352   1.248   2.498
 8747SOL    HW127140   0.319   1.272   2.589
 8747SOL    HW227141   0.412   1.168   2.504
 8748SOL     OW27142   0.984   2.082   4.567
 8748SOL    HW127143   1.059   2.126   4.615
 8748SOL    HW227144   0.937   2.148   4.508
 8749SOL     OW27145   1.784   0.751   5.465
 8749SOL    HW127146   1.722   0.679   5.435
 8749SOL    HW227147   1.802   0.813   5.388
 8750SOL     OW27148   3.793   3.192   5.607
 8750SOL    HW127149   3.753   3.115   5.557
 8750SOL    HW227150   3.891   3.178   5.617
 8751SOL     OW27151   6.785   1.287   1.676
 8751SOL    HW127152   6.815   1.192   1.689
 8751SOL    HW227153   6.794   1.311   1.579
 8752SOL     OW27154   4.294   3.285   6.996
 8752SOL    HW127155   4.201   3.311   0.004
 8752SOL    HW227156   4.291   3.194   6.953
 8753SOL     OW27157   2.925   2.743   5.996
 8753SOL    HW127158   2.894   2.832   5.963
 8753SOL    HW227159   2.989   2.704   5.930
 8754SOL     OW27160   2.683   4.340   5.642
 8754SOL    HW127161   2.755   4.280   5.607
 8754SOL    HW227162   2.594   4.299   5.624
 8755SOL     OW27163   2.192   0.400   1.503
 8755SOL    HW127164   2.282   0.370   1.470
 8755SOL    HW227165   2.201   0.441   1.594
 8756SOL     OW27166   1.170   3.406   3.504
 8756SOL    HW127167   1.121   3.476   3.452
 8756SOL    HW227168   1.228   3.353   3.442
 8757SOL     OW27169   5.127   5.751   6.923
 8757SOL    HW127170   5.121   5.759   0.003
 8757SOL    HW227171   5.097   5.659   6.896
 8758SOL     OW27172   4.530   6.293   2.919
 8758SOL    HW127173   4.456   6.335   2.970
 8758SOL    HW227174   4.590   6.243   2.981
 8759SOL     OW27175   6.361   2.879   7.012
 8759SOL    HW127176   6.431   2.850   0.058
 8759SOL    HW227177   6.318   2.963   0.024
 8760SOL     OW27178   2.823   0.661   4.530
 8760SOL    HW127179   2.903   0.601   4.535
 8760SOL    HW227180   2.740   0.606   4.524
 8761SOL     OW27181   6.229   1.486   1.202
 8761SOL    HW127182   6.316   1.535   1.199
 8761SOL    HW227183   6.161   1.536   1.149
 8762SOL     OW27184   1.125   6.034   4.207
 8762SOL    HW127185   1.118   5.970   4.283
 8762SOL    HW227186   1.212   6.021   4.160
 8763SOL     OW27187   5.922   0.278   5.346
 8763SOL    HW127188   5.957   0.277   5.440
 8763SOL    HW227189   5.987   0.231   5.286
 8764SOL     OW27190   4.293   6.597   5.895
 8764SOL    HW127191   4.325   6.511   5.935
 8764SOL    HW227192   4.369   6.640   5.844
 8765SOL     OW27193   5.203   1.142   4.314
 8765SOL    HW127194   5.267   1.206   4.355
 8765SOL    HW227195   5.181   1.070   4.380
 8766SOL     OW27196   4.091   4.168   5.317
 8766SOL    HW127197   4.155   4.195   5.245
 8766SOL    HW227198   4.001   4.149   5.277
 8767SOL     OW27199   4.703   6.358   3.158
 8767SOL    HW127200   4.681   6.412   3.077
 8767SOL    HW227201   4.652   6.273   3.156
 8768SOL     OW27202   1.082   2.601   1.077
 8768SOL    HW127203   0.986   2.598   1.048
 8768SOL    HW227204   1.111   2.510   1.105
 8769SOL     OW27205   0.162   1.185   1.836
 8769SOL    HW127206   0.145   1.094   1.799
 8769SOL    HW227207   0.158   1.252   1.761
 8770SOL     OW27208   4.984   4.531   2.647
 8770SOL    HW127209   4.934   4.617   2.639
 8770SOL    HW227210   4.993   4.507   2.743
 8771SOL     OW27211   0.490   2.501   6.084
 8771SOL    HW127212   0.395   2.527   6.071
 8771SOL    HW227213   0.547   2.584   6.082
 8772SOL     OW27214   4.935   0.483   5.811
 8772SOL    HW127215   4.933   0.575   5.770
 8772SOL    HW227216   5.026   0.444   5.797
 8773SOL     OW27217   5.169   2.647   3.040
 8773SOL    HW127218   5.222   2.662   2.956
 8773SOL    HW227219   5.199   2.562   3.083
 8774SOL     OW27220   0.464   0.536   0.210
 8774SOL    HW127221   0.536   0.500   0.269
 8774SOL    HW227222   0.396   0.584   0.265
 8775SOL     OW27223   5.125   0.880   5.498
 8775SOL    HW127224   5.090   0.959   5.548
 8775SOL    HW227225   5.120   0.897   5.400
 8776SOL     OW27226   4.990   3.127   1.626
 8776SOL    HW127227   4.976   3.043   1.573
 8776SOL    HW227228   4.913   3.189   1.610
 8777SOL     OW27229   6.605   3.795   4.120
 8777SOL    HW127230   6.601   3.888   4.083
 8777SOL    HW227231   6.692   3.781   4.166
 8778SOL     OW27232   5.234   3.388   5.189
 8778SOL    HW127233   5.255   3.293   5.213
 8778SOL    HW227234   5.136   3.398   5.174
 8779SOL     OW27235   2.139   5.253   2.240
 8779SOL    HW127236   2.187   5.281   2.323
 8779SOL    HW227237   2.095   5.333   2.199
 8780SOL     OW27238   0.299   6.591   2.798
 8780SOL    HW127239   0.392   6.614   2.829
 8780SOL    HW227240   0.247   6.675   2.785
 8781SOL     OW27241   4.935   6.990   3.779
 8781SOL    HW127242   5.014   6.930   3.783
 8781SOL    HW227243   4.851   6.935   3.775
 8782SOL     OW27244   6.094   1.251   1.892
 8782SOL    HW127245   6.134   1.283   1.978
 8782SOL    HW227246   6.021   1.314   1.864
 8783SOL     OW27247   6.595   4.223   4.495
 8783SOL    HW127248   6.622   4.318   4.508
 8783SOL    HW227249   6.541   4.215   4.411
 8784SOL     OW27250   6.707   6.536   5.949
 8784SOL    HW127251   6.748   6.579   5.869
 8784SOL    HW227252   6.732   6.439   5.951
 8785SOL     OW27253   6.834   5.431   6.412
 8785SOL    HW127254   6.797   5.476   6.493
 8785SOL    HW227255   6.866   5.501   6.347
 8786SOL     OW27256   3.298   1.105   1.872
 8786SOL    HW127257   3.323   1.080   1.966
 8786SOL    HW227258   3.261   1.198   1.871
 8787SOL     OW27259   3.431   0.865   2.493
 8787SOL    HW127260   3.393   0.953   2.521
 8787SOL    HW227261   3.530   0.873   2.481
 8788SOL     OW27262   6.781   1.415   5.307
 8788SOL    HW127263   6.707   1.482   5.314
 8788SOL    HW227264   6.858   1.455   5.256
 8789SOL     OW27265   6.409   4.559   5.467
 8789SOL    HW127266   6.361   4.502   5.534
 8789SOL    HW227267   6.398   4.655   5.490
 8790SOL     OW27268   6.341   1.071   6.394
 8790SOL    HW127269   6.347   1.168   6.370
 8790SOL    HW227270   6.380   1.016   6.320
 8791SOL     OW27271   4.880   6.689   4.756
 8791SOL    HW127272   4.976   6.661   4.752
 8791SOL    HW227273   4.870   6.781   4.717
 8792SOL     OW27274   3.012   5.226   2.608
 8792SOL    HW127275   2.998   5.315   2.651
 8792SOL    HW227276   2.929   5.171   2.616
 8793SOL     OW27277   0.908   4.772   3.574
 8793SOL    HW127278   0.968   4.694   3.555
 8793SOL    HW227279   0.839   4.745   3.641
 8794SOL     OW27280   5.549   1.385   3.423
 8794SOL    HW127281   5.523   1.305   3.478
 8794SOL    HW227282   5.498   1.465   3.454
 8795SOL     OW27283   1.748   4.895   4.873
 8795SOL    HW127284   1.690   4.975   4.855
 8795SOL    HW227285   1.700   4.812   4.844
 8796SOL     OW27286   5.778   2.916   3.506
 8796SOL    HW127287   5.741   2.843   3.448
 8796SOL    HW227288   5.712   2.991   3.512
 8797SOL     OW27289   6.702   0.058   5.247
 8797SOL    HW127290   6.687   0.093   5.340
 8797SOL    HW227291   6.645   6.997   5.232
 8798SOL     OW27292   4.156   5.728   6.152
 8798SOL    HW127293   4.254   5.744   6.149
 8798SOL    HW227294   4.128   5.709   6.246
 8799SOL     OW27295   2.752   5.157   2.586
 8799SOL    HW127296   2.698   5.167   2.502
 8799SOL    HW227297   2.705   5.205   2.661
 8800SOL     OW27298   5.840   5.753   5.832
 8800SOL    HW127299   5.753   5.725   5.872
 8800SOL    HW227300   5.826   5.780   5.737
 8801SOL     OW27301   6.505   1.606   4.366
 8801SOL    HW127302   6.540   1.698   4.348
 8801SOL    HW227303   6.430   1.611   4.432
 8802SOL     OW27304   1.698   5.701   5.850
 8802SOL    HW127305   1.628   5.770   5.870
 8802SOL    HW227306   1.769   5.705   5.920
 8803SOL     OW27307   6.961   6.925   6.725
 8803SOL    HW127308   6.865   6.948   6.738
 8803SOL    HW227309   6.978   6.831   6.754
 8804SOL     OW27310   2.059   5.895   1.255
 8804SOL    HW127311   2.142   5.855   1.217
 8804SOL    HW227312   2.082   5.949   1.336
 8805SOL     OW27313   3.983   5.308   3.589
 8805SOL    HW127314   3.967   5.407   3.596
 8805SOL    HW227315   4.019   5.275   3.676
 8806SOL     OW27316   2.195   4.744   1.005
 8806SOL    HW127317   2.126   4.713   0.939
 8806SOL    HW227318   2.226   4.666   1.060
 8807SOL     OW27319   4.626   1.273   6.984
 8807SOL    HW127320   4.554   1.251   0.030
 8807SOL    HW227321   4.700   1.321   0.011
 8808SOL     OW27322   0.011   2.319   6.109
 8808SOL    HW127323   6.937   2.351   6.125
 8808SOL    HW227324   0.067   2.336   6.190
 8809SOL     OW27325   2.425   4.526   3.507
 8809SOL    HW127326   2.428   4.553   3.603
 8809SOL    HW227327   2.401   4.429   3.500
 8810SOL     OW27328   5.794   1.257   5.376
 8810SOL    HW127329   5.769   1.352   5.360
 8810SOL    HW227330   5.828   1.246   5.470
 8811SOL     OW27331   3.279   0.354   2.956
 8811SOL    HW127332   3.328   0.375   2.872
 8811SOL    HW227333   3.181   0.344   2.936
 8812SOL     OW27334   3.021   0.320   0.413
 8812SOL    HW127335   3.020   0.349   0.509
 8812SOL    HW227336   3.024   0.220   0.408
 8813SOL     OW27337   2.248   5.102   2.781
 8813SOL    HW127338   2.255   5.017   2.835
 8813SOL    HW227339   2.332   5.114   2.728
 8814SOL     OW27340   6.419   7.020   0.628
 8814SOL    HW127341   6.461   6.930   0.644
 8814SOL    HW227342   6.354   7.013   0.552
 8815SOL     OW27343   5.727   6.602   0.662
 8815SOL    HW127344   5.766   6.667   0.596
 8815SOL    HW227345   5.802   6.560   0.714
 8816SOL     OW27346   0.908   6.904   6.644
 8816SOL    HW127347   0.997   6.859   6.646
 8816SOL    HW227348   0.889   6.945   6.734
 8817SOL     OW27349   0.217   3.930   4.152
 8817SOL    HW127350   0.224   3.831   4.168
 8817SOL    HW227351   0.121   3.955   4.143
 8818SOL     OW27352   1.221   6.387   3.533
 8818SOL    HW127353   1.243   6.429   3.621
 8818SOL    HW227354   1.127   6.408   3.508
 8819SOL     OW27355   6.230   4.325   6.034
 8819SOL    HW127356   6.145   4.321   5.982
 8819SOL    HW227357   6.285   4.403   6.003
 8820SOL     OW27358   2.999   1.526   4.753
 8820SOL    HW127359   3.037   1.614   4.726
 8820SOL    HW227360   2.945   1.537   4.837
 8821SOL     OW27361   0.894   5.825   0.386
 8821SOL    HW127362   0.824   5.840   0.456
 8821SOL    HW227363   0.927   5.914   0.353
 8822SOL     OW27364   0.787   0.560   3.382
 8822SOL    HW127365   0.851   0.490   3.414
 8822SOL    HW227366   0.698   0.545   3.426
 8823SOL     OW27367   2.632   0.909   2.729
 8823SOL    HW127368   2.632   0.996   2.776
 8823SOL    HW227369   2.666   0.921   2.635
 8824SOL     OW27370   1.226   1.099   0.634
 8824SOL    HW127371   1.315   1.081   0.591
 8824SOL    HW227372   1.172   1.015   0.636
 8825SOL     OW27373   0.714   0.901   1.787
 8825SOL    HW127374   0.714   0.901   1.687
 8825SOL    HW227375   0.705   0.807   1.820
 8826SOL     OW27376   1.076   3.346   0.891
 8826SOL    HW127377   1.171   3.344   0.922
 8826SOL    HW227378   1.073   3.337   0.791
 8827SOL     OW27379   3.797   6.745   3.250
 8827SOL    HW127380   3.844   6.798   3.320
 8827SOL    HW227381   3.778   6.803   3.171
 8828SOL     OW27382   4.096   5.024   6.926
 8828SOL    HW127383   4.042   5.047   6.845
 8828SOL    HW227384   4.116   5.108   6.977
 8829SOL     OW27385   5.859   1.615   1.353
 8829SOL    HW127386   5.796   1.611   1.431
 8829SOL    HW227387   5.820   1.673   1.282
 8830SOL     OW27388   2.374   1.620   2.469
 8830SOL    HW127389   2.311   1.695   2.491
 8830SOL    HW227390   2.353   1.541   2.527
 8831SOL     OW27391   6.074   2.769   2.945
 8831SOL    HW127392   6.105   2.753   3.039
 8831SOL    HW227393   6.108   2.858   2.914
 8832SOL     OW27394   0.146   6.382   4.531
 8832SOL    HW127395   0.210   6.308   4.507
 8832SOL    HW227396   0.162   6.409   4.626
 8833SOL     OW27397   4.016   3.975   6.493
 8833SOL    HW127398   3.949   3.913   6.453
 8833SOL    HW227399   3.982   4.009   6.581
 8834SOL     OW27400   5.859   4.483   4.389
 8834SOL    HW127401   5.944   4.507   4.435
 8834SOL    HW227402   5.806   4.420   4.446
 8835SOL     OW27403   5.430   0.897   6.143
 8835SOL    HW127404   5.459   0.820   6.200
 8835SOL    HW227405   5.364   0.953   6.194
 8836SOL     OW27406   4.835   2.382   0.917
 8836SOL    HW127407   4.825   2.399   1.015
 8836SOL    HW227408   4.765   2.317   0.887
 8837SOL     OW27409   0.050   0.199   1.508
 8837SOL    HW127410   7.019   0.150   1.437
 8837SOL    HW227411   7.011   0.210   1.588
 8838SOL     OW27412   1.363   4.496   2.852
 8838SOL    HW127413   1.330   4.508   2.946
 8838SOL    HW227414   1.385   4.586   2.814
 8839SOL     OW27415   3.807   6.274   2.151
 8839SOL    HW127416   3.768   6.266   2.059
 8839SOL    HW227417   3.813   6.183   2.192
 8840SOL     OW27418   6.630   0.320   2.308
 8840SOL    HW127419   6.600   0.287   2.397
 8840SOL    HW227420   6.629   0.245   2.242
 8841SOL     OW27421   6.211   1.691   3.045
 8841SOL    HW127422   6.140   1.620   3.046
 8841SOL    HW227423   6.301   1.649   3.032
 8842SOL     OW27424   3.443   3.753   3.337
 8842SOL    HW127425   3.516   3.822   3.338
 8842SOL    HW227426   3.441   3.708   3.247
 8843SOL     OW27427   1.507   3.688   4.506
 8843SOL    HW127428   1.556   3.609   4.469
 8843SOL    HW227429   1.490   3.675   4.604
 8844SOL     OW27430   6.851   1.614   4.744
 8844SOL    HW127431   6.889   1.523   4.759
 8844SOL    HW227432   6.761   1.606   4.700
 8845SOL     OW27433   2.196   4.345   0.678
 8845SOL    HW127434   2.170   4.440   0.663
 8845SOL    HW227435   2.133   4.303   0.743
 8846SOL     OW27436   4.742   4.851   3.878
 8846SOL    HW127437   4.807   4.778   3.855
 8846SOL    HW227438   4.710   4.839   3.972
 8847SOL     OW27439   1.791   1.436   3.782
 8847SOL    HW127440   1.792   1.337   3.795
 8847SOL    HW227441   1.864   1.463   3.720
 8848SOL     OW27442   2.953   1.697   2.358
 8848SOL    HW127443   2.890   1.619   2.358
 8848SOL    HW227444   2.907   1.778   2.394
 8849SOL     OW27445   3.563   5.005   3.209
 8849SOL    HW127446   3.463   5.006   3.219
 8849SOL    HW227447   3.602   4.937   3.271
 8850SOL     OW27448   3.198   1.555   0.836
 8850SOL    HW127449   3.240   1.642   0.809
 8850SOL    HW227450   3.124   1.573   0.901
 8851SOL     OW27451   1.047   4.551   2.181
 8851SOL    HW127452   1.145   4.555   2.158
 8851SOL    HW227453   1.028   4.614   2.256
 8852SOL     OW27454   4.578   3.229   5.791
 8852SOL    HW127455   4.533   3.304   5.743
 8852SOL    HW227456   4.548   3.142   5.751
 8853SOL     OW27457   2.981   0.398   4.879
 8853SOL    HW127458   3.020   0.309   4.903
 8853SOL    HW227459   2.975   0.455   4.962
 8854SOL     OW27460   2.475   0.626   6.298
 8854SOL    HW127461   2.490   0.558   6.371
 8854SOL    HW227462   2.534   0.604   6.220
 8855SOL     OW27463   6.990   6.404   0.349
 8855SOL    HW127464   6.929   6.473   0.310
 8855SOL    HW227465   0.044   6.448   0.399
 8856SOL     OW27466   5.643   0.191   5.903
 8856SOL    HW127467   5.632   0.254   5.825
 8856SOL    HW227468   5.570   0.206   5.969
 8857SOL     OW27469   6.282   1.949   3.609
 8857SOL    HW127470   6.343   1.884   3.564
 8857SOL    HW227471   6.225   1.995   3.541
 8858SOL     OW27472   1.599   2.914   5.798
 8858SOL    HW127473   1.506   2.877   5.799
 8858SOL    HW227474   1.643   2.888   5.712
 8859SOL     OW27475   0.157   6.943   4.760
 8859SOL    HW127476   0.082   6.882   4.732
 8859SOL    HW227477   0.128   0.018   4.751
 8860SOL     OW27478   1.925   4.638   2.976
 8860SOL    HW127479   1.974   4.574   3.035
 8860SOL    HW227480   1.989   4.683   2.914
 8861SOL     OW27481   3.798   2.375   6.099
 8861SOL    HW127482   3.777   2.469   6.070
 8861SOL    HW227483   3.823   2.321   6.018
 8862SOL     OW27484   6.363   1.324   3.769
 8862SOL    HW127485   6.450   1.352   3.730
 8862SOL    HW227486   6.370   1.318   3.869
 8863SOL     OW27487   1.850   5.864   4.799
 8863SOL    HW127488   1.826   5.768   4.816
 8863SOL    HW227489   1.945   5.870   4.771
 8864SOL     OW27490   2.499   3.305   6.211
 8864SOL    HW127491   2.537   3.368   6.279
 8864SOL    HW227492   2.512   3.211   6.242
 8865SOL     OW27493   3.252   2.047   5.492
 8865SOL    HW127494   3.314   2.108   5.443
 8865SOL    HW227495   3.169   2.097   5.516
 8866SOL     OW27496   5.574   6.689   4.078
 8866SOL    HW127497   5.570   6.705   3.980
 8866SOL    HW227498   5.541   6.597   4.098
 8867SOL     OW27499   5.243   3.538   3.402
 8867SOL    HW127500   5.151   3.561   3.372
 8867SOL    HW227501   5.241   3.453   3.455
 8868SOL     OW27502   6.189   3.329   0.499
 8868SOL    HW127503   6.218   3.285   0.584
 8868SOL    HW227504   6.227   3.422   0.495
 8869SOL     OW27505   4.469   5.682   3.435
 8869SOL    HW127506   4.457   5.668   3.337
 8869SOL    HW227507   4.567   5.681   3.457
 8870SOL     OW27508   4.252   6.812   0.621
 8870SOL    HW127509   4.322   6.748   0.589
 8870SOL    HW227510   4.174   6.810   0.559
 8871SOL     OW27511   2.850   0.776   4.097
 8871SOL    HW127512   2.830   0.678   4.098
 8871SOL    HW227513   2.829   0.815   4.186
 8872SOL     OW27514   1.474   4.407   4.756
 8872SOL    HW127515   1.414   4.417   4.677
 8872SOL    HW227516   1.565   4.380   4.726
 8873SOL     OW27517   0.176   5.373   2.126
 8873SOL    HW127518   0.123   5.385   2.042
 8873SOL    HW227519   0.136   5.428   2.199
 8874SOL     OW27520   2.577   6.187   1.178
 8874SOL    HW127521   2.579   6.171   1.277
 8874SOL    HW227522   2.623   6.274   1.158
 8875SOL     OW27523   0.189   3.137   5.282
 8875SOL    HW127524   0.270   3.079   5.276
 8875SOL    HW227525   0.209   3.226   5.241
 8876SOL     OW27526   1.719   0.487   4.239
 8876SOL    HW127527   1.760   0.512   4.152
 8876SOL    HW227528   1.791   0.458   4.303
 8877SOL     OW27529   2.312   1.501   4.254
 8877SOL    HW127530   2.397   1.462   4.216
 8877SOL    HW227531   2.317   1.499   4.354
 8878SOL     OW27532   0.424   5.634   0.831
 8878SOL    HW127533   0.394   5.558   0.890
 8878SOL    HW227534   0.474   5.597   0.753
 8879SOL     OW27535   5.487   5.392   1.144
 8879SOL    HW127536   5.490   5.315   1.207
 8879SOL    HW227537   5.401   5.442   1.156
 8880SOL     OW27538   6.898   5.944   4.408
 8880SOL    HW127539   6.886   5.946   4.508
 8880SOL    HW227540   6.809   5.951   4.364
 8881SOL     OW27541   5.832   0.099   4.651
 8881SOL    HW127542   5.747   0.111   4.703
 8881SOL    HW227543   5.906   0.149   4.696
 8882SOL     OW27544   5.379   1.372   0.453
 8882SOL    HW127545   5.306   1.440   0.439
 8882SOL    HW227546   5.342   1.293   0.501
 8883SOL     OW27547   1.100   0.527   5.044
 8883SOL    HW127548   1.077   0.625   5.045
 8883SOL    HW227549   1.020   0.474   5.073
 8884SOL     OW27550   5.623   5.107   6.512
 8884SOL    HW127551   5.562   5.162   6.455
 8884SOL    HW227552   5.586   5.014   6.520
 8885SOL     OW27553   0.205   3.428   1.114
 8885SOL    HW127554   0.115   3.387   1.099
 8885SOL    HW227555   0.205   3.477   1.201
 8886SOL     OW27556   3.166   6.700   5.500
 8886SOL    HW127557   3.137   6.693   5.404
 8886SOL    HW227558   3.251   6.650   5.512
 8887SOL     OW27559   3.185   0.694   1.342
 8887SOL    HW127560   3.247   0.712   1.266
 8887SOL    HW227561   3.186   0.773   1.404
 8888SOL     OW27562   1.767   1.866   1.087
 8888SOL    HW127563   1.769   1.780   1.138
 8888SOL    HW227564   1.809   1.938   1.142
 8889SOL     OW27565   5.623   6.570   5.567
 8889SOL    HW127566   5.610   6.579   5.468
 8889SOL    HW227567   5.653   6.477   5.588
 8890SOL     OW27568   5.882   5.636   4.153
 8890SOL    HW127569   5.951   5.632   4.224
 8890SOL    HW227570   5.791   5.635   4.194
 8891SOL     OW27571   5.249   3.240   6.017
 8891SOL    HW127572   5.242   3.229   5.918
 8891SOL    HW227573   5.165   3.208   6.060
 8892SOL     OW27574   3.548   5.651   2.880
 8892SOL    HW127575   3.618   5.721   2.862
 8892SOL    HW227576   3.495   5.677   2.961
 8893SOL     OW27577   1.251   0.217   2.569
 8893SOL    HW127578   1.304   0.136   2.545
 8893SOL    HW227579   1.154   0.193   2.572
 8894SOL     OW27580   4.271   2.778   5.588
 8894SOL    HW127581   4.225   2.745   5.506
 8894SOL    HW227582   4.341   2.845   5.562
 8895SOL     OW27583   6.510   1.751   1.411
 8895SOL    HW127584   6.527   1.697   1.329
 8895SOL    HW227585   6.428   1.717   1.458
 8896SOL     OW27586   1.788   3.647   5.212
 8896SOL    HW127587   1.807   3.549   5.211
 8896SOL    HW227588   1.691   3.662   5.229
 8897SOL     OW27589   2.501   2.544   3.022
 8897SOL    HW127590   2.480   2.589   2.935
 8897SOL    HW227591   2.441   2.579   3.093
 8898SOL     OW27592   5.969   3.593   4.496
 8898SOL    HW127593   5.946   3.685   4.529
 8898SOL    HW227594   5.975   3.594   4.397
 8899SOL     OW27595   1.608   5.025   0.283
 8899SOL    HW127596   1.652   4.988   0.365
 8899SOL    HW227597   1.675   5.077   0.231
 8900SOL     OW27598   5.621   2.871   3.015
 8900SOL    HW127599   5.644   2.905   2.924
 8900SOL    HW227600   5.610   2.949   3.077
 8901SOL     OW27601   2.432   1.145   4.146
 8901SOL    HW127602   2.454   1.169   4.241
 8901SOL    HW227603   2.355   1.081   4.145
 8902SOL     OW27604   3.493   6.402   7.002
 8902SOL    HW127605   3.416   6.429   6.944
 8902SOL    HW227606   3.508   6.304   6.996
 8903SOL     OW27607   1.090   1.063   4.490
 8903SOL    HW127608   1.034   1.112   4.423
 8903SOL    HW227609   1.050   1.075   4.581
 8904SOL     OW27610   6.192   5.731   3.833
 8904SOL    HW127611   6.245   5.704   3.914
 8904SOL    HW227612   6.101   5.760   3.862
 8905SOL     OW27613   2.046   3.998   4.425
 8905SOL    HW127614   2.104   3.990   4.506
 8905SOL    HW227615   1.959   4.041   4.451
 8906SOL     OW27616   0.156   6.723   6.566
 8906SOL    HW127617   0.067   6.732   6.523
 8906SOL    HW227618   0.146   6.729   6.665
 8907SOL     OW27619   3.376   1.879   4.911
 8907SOL    HW127620   3.320   1.865   4.992
 8907SOL    HW227621   3.336   1.951   4.855
 8908SOL     OW27622   1.671   3.072   6.415
 8908SOL    HW127623   1.701   3.088   6.321
 8908SOL    HW227624   1.693   2.978   6.442
 8909SOL     OW27625   1.581   1.061   4.980
 8909SOL    HW127626   1.619   0.984   5.031
 8909SOL    HW227627   1.651   1.132   4.972
 8910SOL     OW27628   1.470   3.159   5.796
 8910SOL    HW127629   1.530   3.082   5.821
 8910SOL    HW227630   1.479   3.231   5.865
 8911SOL     OW27631   4.316   2.345   4.748
 8911SOL    HW127632   4.244   2.414   4.761
 8911SOL    HW227633   4.337   2.302   4.835
 8912SOL     OW27634   4.380   1.765   0.587
 8912SOL    HW127635   4.427   1.724   0.509
 8912SOL    HW227636   4.383   1.702   0.665
 8913SOL     OW27637   4.614   5.184   0.289
 8913SOL    HW127638   4.618   5.104   0.350
 8913SOL    HW227639   4.518   5.204   0.267
 8914SOL     OW27640   4.198   0.775   4.816
 8914SOL    HW127641   4.261   0.789   4.740
 8914SOL    HW227642   4.104   0.793   4.786
 8915SOL     OW27643   0.858   2.060   3.752
 8915SOL    HW127644   0.798   1.990   3.714
 8915SOL    HW227645   0.914   2.099   3.679
 8916SOL     OW27646   0.437   3.654   1.557
 8916SOL    HW127647   0.535   3.673   1.568
 8916SOL    HW227648   0.422   3.555   1.563
 8917SOL     OW27649   6.096   3.919   6.208
 8917SOL    HW127650   6.147   3.945   6.291
 8917SOL    HW227651   6.103   3.820   6.195
 8918SOL     OW27652   0.043   3.974   1.556
 8918SOL    HW127653   6.974   3.929   1.542
 8918SOL    HW227654   0.029   4.069   1.581
 8919SOL     OW27655   4.184   4.292   0.764
 8919SOL    HW127656   4.275   4.330   0.751
 8919SOL    HW227657   4.115   4.363   0.750
 8920SOL     OW27658   0.941   6.603   6.394
 8920SOL    HW127659   1.014   6.635   6.455
 8920SOL    HW227660   0.931   6.668   6.318
 8921SOL     OW27661   1.973   1.876   2.858
 8921SOL    HW127662   2.069   1.850   2.856
 8921SOL    HW227663   1.926   1.837   2.779
 8922SOL     OW27664   3.080   5.334   1.545
 8922SOL    HW127665   3.064   5.280   1.628
 8922SOL    HW227666   3.164   5.301   1.500
 8923SOL     OW27667   1.303   4.108   5.966
 8923SOL    HW127668   1.352   4.096   6.052
 8923SOL    HW227669   1.244   4.188   5.972
 8924SOL     OW27670   3.480   6.000   5.001
 8924SOL    HW127671   3.509   5.976   5.094
 8924SOL    HW227672   3.417   5.930   4.967
 8925SOL     OW27673   0.991   0.570   2.591
 8925SOL    HW127674   1.078   0.524   2.610
 8925SOL    HW227675   0.993   0.663   2.628
 8926SOL     OW27676   5.789   3.565   6.610
 8926SOL    HW127677   5.706   3.617   6.625
 8926SOL    HW227678   5.869   3.622   6.631
 8927SOL     OW27679   1.012   1.791   4.572
 8927SOL    HW127680   1.101   1.746   4.582
 8927SOL    HW227681   1.019   1.886   4.600
 8928SOL     OW27682   6.533   0.667   5.002
 8928SOL    HW127683   6.480   0.688   4.920
 8928SOL    HW227684   6.483   0.696   5.083
 8929SOL     OW27685   0.157   3.507   4.039
 8929SOL    HW127686   0.082   3.440   4.046
 8929SOL    HW227687   0.178   3.523   3.943
 8930SOL     OW27688   2.184   4.351   4.288
 8930SOL    HW127689   2.188   4.405   4.372
 8930SOL    HW227690   2.226   4.262   4.304
 8931SOL     OW27691   3.293   2.900   1.469
 8931SOL    HW127692   3.378   2.937   1.507
 8931SOL    HW227693   3.308   2.805   1.441
 8932SOL     OW27694   5.561   0.437   0.052
 8932SOL    HW127695   5.464   0.446   0.074
 8932SOL    HW227696   5.571   0.398   6.980
 8933SOL     OW27697   0.944   2.346   5.565
 8933SOL    HW127698   0.846   2.351   5.544
 8933SOL    HW227699   0.957   2.303   5.654
 8934SOL     OW27700   3.145   5.502   3.608
 8934SOL    HW127701   3.186   5.555   3.533
 8934SOL    HW227702   3.203   5.423   3.628
 8935SOL     OW27703   5.444   4.065   1.755
 8935SOL    HW127704   5.396   4.105   1.832
 8935SOL    HW227705   5.507   4.133   1.716
 8936SOL     OW27706   1.323   3.276   0.995
 8936SOL    HW127707   1.328   3.315   1.086
 8936SOL    HW227708   1.322   3.176   1.002
 8937SOL     OW27709   0.995   0.386   4.189
 8937SOL    HW127710   1.074   0.362   4.133
 8937SOL    HW227711   0.916   0.401   4.130
 8938SOL     OW27712   0.085   0.937   0.121
 8938SOL    HW127713   0.048   0.925   0.213
 8938SOL    HW227714   0.127   1.027   0.113
 8939SOL     OW27715   6.353   3.406   4.359
 8939SOL    HW127716   6.257   3.379   4.365
 8939SOL    HW227717   6.364   3.472   4.284
 8940SOL     OW27718   5.703   1.758   1.173
 8940SOL    HW127719   5.665   1.768   1.081
 8940SOL    HW227720   5.677   1.838   1.228
 8941SOL     OW27721   5.960   2.812   2.345
 8941SOL    HW127722   5.977   2.800   2.248
 8941SOL    HW227723   6.041   2.854   2.387
 8942SOL     OW27724   0.975   5.646   4.216
 8942SOL    HW127725   0.940   5.629   4.308
 8942SOL    HW227726   0.946   5.737   4.186
 8943SOL     OW27727   4.351   5.365   0.540
 8943SOL    HW127728   4.320   5.458   0.523
 8943SOL    HW227729   4.451   5.361   0.533
 8944SOL     OW27730   4.799   5.615   4.435
 8944SOL    HW127731   4.824   5.673   4.357
 8944SOL    HW227732   4.831   5.658   4.520
 8945SOL     OW27733   6.549   2.314   4.549
 8945SOL    HW127734   6.524   2.232   4.600
 8945SOL    HW227735   6.561   2.391   4.612
 8946SOL     OW27736   4.021   0.970   3.906
 8946SOL    HW127737   4.111   0.930   3.885
 8946SOL    HW227738   3.964   0.967   3.825
 8947SOL     OW27739   2.158   3.319   5.915
 8947SOL    HW127740   2.089   3.389   5.894
 8947SOL    HW227741   2.144   3.286   6.009
 8948SOL     OW27742   5.933   5.931   2.796
 8948SOL    HW127743   5.852   5.970   2.754
 8948SOL    HW227744   5.907   5.857   2.858
 8949SOL     OW27745   4.357   5.712   0.745
 8949SOL    HW127746   4.310   5.676   0.664
 8949SOL    HW227747   4.456   5.710   0.730
 8950SOL     OW27748   4.478   3.074   1.182
 8950SOL    HW127749   4.448   3.068   1.277
 8950SOL    HW227750   4.403   3.109   1.126
 8951SOL     OW27751   2.030   1.153   4.640
 8951SOL    HW127752   2.057   1.249   4.649
 8951SOL    HW227753   1.931   1.147   4.634
 8952SOL     OW27754   0.545   5.181   3.247
 8952SOL    HW127755   0.468   5.213   3.193
 8952SOL    HW227756   0.619   5.150   3.187
 8953SOL     OW27757   1.600   4.293   1.205
 8953SOL    HW127758   1.607   4.217   1.270
 8953SOL    HW227759   1.518   4.346   1.225
 8954SOL     OW27760   0.146   6.817   3.942
 8954SOL    HW127761   0.202   6.837   4.023
 8954SOL    HW227762   0.194   6.850   3.860
 8955SOL     OW27763   6.967   3.731   2.836
 8955SOL    HW127764   7.003   3.645   2.801
 8955SOL    HW227765   6.964   3.798   2.762
 8956SOL     OW27766   1.164   0.436   5.569
 8956SOL    HW127767   1.187   0.348   5.611
 8956SOL    HW227768   1.105   0.421   5.490
 8957SOL     OW27769   2.349   4.548   1.112
 8957SOL    HW127770   2.346   4.532   1.211
 8957SOL    HW227771   2.416   4.619   1.092
 8958SOL     OW27772   0.764   2.483   5.327
 8958SOL    HW127773   0.742   2.390   5.298
 8958SOL    HW227774   0.860   2.503   5.305
 8959SOL     OW27775   1.863   3.575   2.480
 8959SOL    HW127776   1.849   3.562   2.382
 8959SOL    HW227777   1.821   3.662   2.509
 8960SOL     OW27778   6.212   5.499   3.682
 8960SOL    HW127779   6.212   5.570   3.752
 8960SOL    HW227780   6.122   5.457   3.677
 8961SOL     OW27781   4.420   1.745   3.794
 8961SOL    HW127782   4.405   1.679   3.720
 8961SOL    HW227783   4.453   1.696   3.875
 8962SOL     OW27784   6.982   5.996   1.389
 8962SOL    HW127785   6.994   5.920   1.453
 8962SOL    HW227786   7.012   6.081   1.431
 8963SOL     OW27787   3.298   6.511   5.150
 8963SOL    HW127788   3.266   6.477   5.062
 8963SOL    HW227789   3.258   6.601   5.167
 8964SOL     OW27790   5.523   3.566   3.062
 8964SOL    HW127791   5.514   3.587   3.160
 8964SOL    HW227792   5.439   3.522   3.030
 8965SOL     OW27793   3.588   4.761   0.731
 8965SOL    HW127794   3.576   4.686   0.666
 8965SOL    HW227795   3.500   4.805   0.748
 8966SOL     OW27796   6.957   4.624   6.917
 8966SOL    HW127797   6.863   4.591   6.920
 8966SOL    HW227798   6.971   4.692   6.989
 8967SOL     OW27799   4.361   1.726   3.108
 8967SOL    HW127800   4.278   1.749   3.057
 8967SOL    HW227801   4.337   1.703   3.202
 8968SOL     OW27802   2.869   5.658   2.373
 8968SOL    HW127803   2.923   5.576   2.393
 8968SOL    HW227804   2.898   5.731   2.435
 8969SOL     OW27805   0.497   0.540   3.440
 8969SOL    HW127806   0.505   0.515   3.344
 8969SOL    HW227807   0.401   0.535   3.469
 8970SOL     OW27808   1.311   2.435   0.405
 8970SOL    HW127809   1.392   2.378   0.414
 8970SOL    HW227810   1.279   2.462   0.495
 8971SOL     OW27811   5.443   6.893   2.000
 8971SOL    HW127812   5.506   6.913   2.074
 8971SOL    HW227813   5.350   6.920   2.027
 8972SOL     OW27814   4.857   4.008   0.464
 8972SOL    HW127815   4.799   4.089   0.469
 8972SOL    HW227816   4.846   3.955   0.548
 8973SOL     OW27817   0.568   3.389   2.237
 8973SOL    HW127818   0.668   3.396   2.229
 8973SOL    HW227819   0.545   3.304   2.283
 8974SOL     OW27820   1.936   3.785   4.222
 8974SOL    HW127821   1.975   3.844   4.293
 8974SOL    HW227822   1.996   3.706   4.209
 8975SOL     OW27823   1.110   6.713   6.585
 8975SOL    HW127824   1.209   6.712   6.571
 8975SOL    HW227825   1.087   6.657   6.664
 8976SOL     OW27826   6.870   6.245   0.747
 8976SOL    HW127827   6.961   6.207   0.728
 8976SOL    HW227828   6.879   6.333   0.793
 8977SOL     OW27829   6.775   3.915   6.740
 8977SOL    HW127830   6.750   3.849   6.810
 8977SOL    HW227831   6.875   3.918   6.731
 8978SOL     OW27832   5.162   6.633   4.687
 8978SOL    HW127833   5.226   6.679   4.748
 8978SOL    HW227834   5.200   6.544   4.659
 8979SOL     OW27835   1.172   5.666   5.816
 8979SOL    HW127836   1.194   5.629   5.726
 8979SOL    HW227837   1.073   5.663   5.831
 8980SOL     OW27838   5.456   2.243   5.742
 8980SOL    HW127839   5.429   2.191   5.824
 8980SOL    HW227840   5.392   2.318   5.728
 8981SOL     OW27841   4.844   1.616   5.704
 8981SOL    HW127842   4.924   1.640   5.649
 8981SOL    HW227843   4.774   1.687   5.694
 8982SOL     OW27844   0.165   1.996   1.440
 8982SOL    HW127845   0.141   2.058   1.516
 8982SOL    HW227846   0.134   2.036   1.354
 8983SOL     OW27847   0.902   5.221   1.611
 8983SOL    HW127848   1.000   5.202   1.609
 8983SOL    HW227849   0.856   5.174   1.536
 8984SOL     OW27850   6.062   0.221   4.763
 8984SOL    HW127851   6.127   0.146   4.777
 8984SOL    HW227852   6.087   0.298   4.822
 8985SOL     OW27853   3.338   2.146   1.276
 8985SOL    HW127854   3.409   2.099   1.327
 8985SOL    HW227855   3.251   2.097   1.286
 8986SOL     OW27856   5.150   4.731   2.801
 8986SOL    HW127857   5.088   4.763   2.730
 8986SOL    HW227858   5.099   4.676   2.868
 8987SOL     OW27859   2.980   0.733   0.914
 8987SOL    HW127860   2.893   0.702   0.876
 8987SOL    HW227861   2.964   0.799   0.987
 8988SOL     OW27862   1.648   5.590   0.203
 8988SOL    HW127863   1.730   5.613   0.151
 8988SOL    HW227864   1.600   5.673   0.229
 8989SOL     OW27865   4.894   3.248   2.807
 8989SOL    HW127866   4.930   3.250   2.714
 8989SOL    HW227867   4.911   3.158   2.848
 8990SOL     OW27868   2.079   5.796   2.000
 8990SOL    HW127869   2.033   5.883   1.982
 8990SOL    HW227870   2.138   5.773   1.923
 8991SOL     OW27871   2.354   1.778   1.506
 8991SOL    HW127872   2.256   1.778   1.483
 8991SOL    HW227873   2.405   1.730   1.436
 8992SOL     OW27874   0.174   2.429   0.472
 8992SOL    HW127875   0.251   2.472   0.424
 8992SOL    HW227876   0.203   2.401   0.563
 8993SOL     OW27877   4.881   2.385   3.059
 8993SOL    HW127878   4.882   2.470   3.112
 8993SOL    HW227879   4.961   2.382   2.999
 8994SOL     OW27880   1.745   5.643   3.748
 8994SOL    HW127881   1.730   5.544   3.745
 8994SOL    HW227882   1.839   5.662   3.775
 8995SOL     OW27883   1.395   2.537   5.678
 8995SOL    HW127884   1.312   2.592   5.669
 8995SOL    HW227885   1.372   2.440   5.671
 8996SOL     OW27886   0.541   4.229   2.203
 8996SOL    HW127887   0.459   4.280   2.230
 8996SOL    HW227888   0.518   4.133   2.192
 8997SOL     OW27889   4.599   0.700   6.316
 8997SOL    HW127890   4.545   0.676   6.396
 8997SOL    HW227891   4.695   0.675   6.331
 8998SOL     OW27892   0.090   2.010   4.649
 8998SOL    HW127893   0.188   2.023   4.668
 8998SOL    HW227894   0.054   2.091   4.605
 8999SOL     OW27895   4.366   0.898   6.803
 8999SOL    HW127896   4.329   0.970   6.861
 8999SOL    HW227897   4.353   0.809   6.847
 9000SOL     OW27898   2.917   4.134   6.013
 9000SOL    HW127899   2.854   4.193   5.962
 9000SOL    HW227900   2.879   4.116   6.104
 9001SOL     OW27901   1.286   5.261   2.855
 9001SOL    HW127902   1.369   5.220   2.817
 9001SOL    HW227903   1.227   5.190   2.891
 9002SOL     OW27904   0.824   5.538   5.588
 9002SOL    HW127905   0.863   5.477   5.518
 9002SOL    HW227906   0.758   5.599   5.545
 9003SOL     OW27907   6.068   3.070   1.460
 9003SOL    HW127908   6.073   3.140   1.531
 9003SOL    HW227909   6.032   3.110   1.376
 9004SOL     OW27910   4.844   6.523   1.807
 9004SOL    HW127911   4.792   6.608   1.815
 9004SOL    HW227912   4.902   6.528   1.725
 9005SOL     OW27913   6.065   2.000   3.797
 9005SOL    HW127914   5.994   2.005   3.727
 9005SOL    HW227915   6.155   2.004   3.754
 9006SOL     OW27916   1.284   5.906   0.814
 9006SOL    HW127917   1.333   5.987   0.782
 9006SOL    HW227918   1.216   5.879   0.746
 9007SOL     OW27919   3.745   5.532   3.433
 9007SOL    HW127920   3.797   5.467   3.377
 9007SOL    HW227921   3.739   5.499   3.527
 9008SOL     OW27922   6.107   5.405   2.971
 9008SOL    HW127923   6.176   5.376   2.905
 9008SOL    HW227924   6.016   5.376   2.940
 9009SOL     OW27925   3.276   6.619   0.538
 9009SOL    HW127926   3.234   6.555   0.603
 9009SOL    HW227927   3.365   6.584   0.509
 9010SOL     OW27928   0.736   6.607   4.790
 9010SOL    HW127929   0.741   6.706   4.805
 9010SOL    HW227930   0.820   6.564   4.824
 9011SOL     OW27931   3.981   2.506   1.320
 9011SOL    HW127932   3.984   2.502   1.420
 9011SOL    HW227933   3.966   2.414   1.284
 9012SOL     OW27934   2.947   4.899   0.641
 9012SOL    HW127935   2.969   4.848   0.558
 9012SOL    HW227936   3.003   4.982   0.645
 9013SOL     OW27937   6.165   6.170   5.048
 9013SOL    HW127938   6.102   6.165   4.970
 9013SOL    HW227939   6.210   6.082   5.060
 9014SOL     OW27940   1.073   1.615   0.570
 9014SOL    HW127941   1.093   1.624   0.668
 9014SOL    HW227942   1.000   1.679   0.545
 9015SOL     OW27943   6.190   0.486   0.025
 9015SOL    HW127944   6.231   0.401   7.010
 9015SOL    HW227945   6.253   0.562   0.011
 9016SOL     OW27946   6.136   6.076   6.004
 9016SOL    HW127947   6.129   5.977   5.997
 9016SOL    HW227948   6.171   6.114   5.918
 9017SOL     OW27949   5.526   2.098   3.429
 9017SOL    HW127950   5.619   2.130   3.447
 9017SOL    HW227951   5.463   2.142   3.493
 9018SOL     OW27952   3.907   1.319   5.340
 9018SOL    HW127953   3.825   1.373   5.358
 9018SOL    HW227954   3.927   1.262   5.420
 9019SOL     OW27955   1.577   6.978   0.439
 9019SOL    HW127956   1.567   6.884   0.473
 9019SOL    HW227957   1.591   0.020   0.516
 9020SOL     OW27958   1.841   3.504   2.203
 9020SOL    HW127959   1.917   3.569   2.198
 9020SOL    HW227960   1.876   3.411   2.193
 9021SOL     OW27961   6.552   0.268   3.981
 9021SOL    HW127962   6.612   0.283   3.902
 9021SOL    HW227963   6.600   0.293   4.065
 9022SOL     OW27964   2.873   0.856   0.592
 9022SOL    HW127965   2.797   0.802   0.557
 9022SOL    HW227966   2.959   0.816   0.561
 9023SOL     OW27967   3.918   3.279   3.083
 9023SOL    HW127968   3.899   3.305   2.989
 9023SOL    HW227969   3.867   3.339   3.145
 9024SOL     OW27970   1.852   5.707   6.143
 9024SOL    HW127971   1.911   5.636   6.105
 9024SOL    HW227972   1.889   5.797   6.120
 9025SOL     OW27973   6.609   5.950   0.853
 9025SOL    HW127974   6.571   5.938   0.945
 9025SOL    HW227975   6.615   6.047   0.832
 9026SOL     OW27976   3.779   3.387   3.314
 9026SOL    HW127977   3.694   3.416   3.358
 9026SOL    HW227978   3.798   3.292   3.338
 9027SOL     OW27979   3.104   2.070   4.071
 9027SOL    HW127980   3.135   2.048   4.163
 9027SOL    HW227981   3.030   2.137   4.076
 9028SOL     OW27982   2.378   4.529   6.206
 9028SOL    HW127983   2.453   4.508   6.269
 9028SOL    HW227984   2.407   4.602   6.144
 9029SOL     OW27985   3.910   5.372   4.589
 9029SOL    HW127986   3.843   5.438   4.554
 9029SOL    HW227987   3.961   5.333   4.512
 9030SOL     OW27988   2.123   1.059   2.292
 9030SOL    HW127989   2.100   1.002   2.370
 9030SOL    HW227990   2.069   1.030   2.212
 9031SOL     OW27991   3.948   5.120   5.510
 9031SOL    HW127992   4.006   5.089   5.586
 9031SOL    HW227993   3.957   5.219   5.501
 9032SOL     OW27994   3.864   2.793   0.749
 9032SOL    HW127995   3.897   2.864   0.688
 9032SOL    HW227996   3.893   2.813   0.843
 9033SOL     OW27997   1.373   3.603   4.093
 9033SOL    HW127998   1.280   3.570   4.075
 9033SOL    HW227999   1.418   3.624   4.006
 9034SOL     OW28000   2.759   6.461   5.027
 9034SOL    HW128001   2.697   6.477   4.951
 9034SOL    HW228002   2.706   6.434   5.108
 9035SOL     OW28003   0.469   6.543   4.884
 9035SOL    HW128004   0.437   6.637   4.894
 9035SOL    HW228005   0.565   6.543   4.855
 9036SOL     OW28006   1.586   1.893   4.589
 9036SOL    HW128007   1.520   1.860   4.522
 9036SOL    HW228008   1.543   1.963   4.646
 9037SOL     OW28009   1.705   3.524   6.278
 9037SOL    HW128010   1.619   3.475   6.261
 9037SOL    HW228011   1.688   3.603   6.338
 9038SOL     OW28012   5.192   0.147   5.980
 9038SOL    HW128013   5.172   0.052   5.958
 9038SOL    HW228014   5.117   0.186   6.034
 9039SOL     OW28015   1.881   4.690   5.012
 9039SOL    HW128016   1.957   4.642   4.969
 9039SOL    HW228017   1.831   4.742   4.943
 9040SOL     OW28018   2.503   2.017   3.524
 9040SOL    HW128019   2.409   2.038   3.551
 9040SOL    HW228020   2.519   1.919   3.531
 9041SOL     OW28021   1.196   1.756   1.920
 9041SOL    HW128022   1.121   1.744   1.854
 9041SOL    HW228023   1.178   1.837   1.976
 9042SOL     OW28024   2.840   6.056   3.459
 9042SOL    HW128025   2.858   5.991   3.533
 9042SOL    HW228026   2.835   6.148   3.496
 9043SOL     OW28027   2.315   1.492   5.395
 9043SOL    HW128028   2.328   1.577   5.344
 9043SOL    HW228029   2.238   1.503   5.458
 9044SOL     OW28030   6.468   1.238   1.068
 9044SOL    HW128031   6.435   1.296   0.993
 9044SOL    HW228032   6.454   1.286   1.155
 9045SOL     OW28033   3.241   1.779   1.899
 9045SOL    HW128034   3.244   1.768   1.799
 9045SOL    HW228035   3.247   1.876   1.922
 9046SOL     OW28036   3.436   4.092   4.463
 9046SOL    HW128037   3.445   3.993   4.474
 9046SOL    HW228038   3.485   4.137   4.538
 9047SOL     OW28039   1.444   4.220   5.295
 9047SOL    HW128040   1.528   4.177   5.329
 9047SOL    HW228041   1.366   4.186   5.346
 9048SOL     OW28042   6.790   3.044   6.463
 9048SOL    HW128043   6.829   3.021   6.553
 9048SOL    HW228044   6.864   3.058   6.397
 9049SOL     OW28045   4.805   6.385   7.005
 9049SOL    HW128046   4.879   6.452   7.009
 9049SOL    HW228047   4.766   6.383   6.913
 9050SOL     OW28048   1.244   5.274   6.441
 9050SOL    HW128049   1.282   5.254   6.351
 9050SOL    HW228050   1.158   5.224   6.453
 9051SOL     OW28051   4.498   6.327   1.055
 9051SOL    HW128052   4.527   6.248   1.107
 9051SOL    HW228053   4.477   6.300   0.961
 9052SOL     OW28054   2.258   4.066   4.254
 9052SOL    HW128055   2.171   4.027   4.285
 9052SOL    HW228056   2.330   3.996   4.260
 9053SOL     OW28057   2.215   1.856   3.441
 9053SOL    HW128058   2.125   1.830   3.406
 9053SOL    HW228059   2.282   1.852   3.367
 9054SOL     OW28060   2.205   0.487   1.765
 9054SOL    HW128061   2.109   0.459   1.754
 9054SOL    HW228062   2.258   0.410   1.800
 9055SOL     OW28063   0.075   3.934   3.517
 9055SOL    HW128064   0.105   4.029   3.510
 9055SOL    HW228065   0.115   3.881   3.442
 9056SOL     OW28066   5.116   0.464   2.418
 9056SOL    HW128067   5.167   0.471   2.332
 9056SOL    HW228068   5.020   0.487   2.401
 9057SOL     OW28069   6.494   5.053   6.193
 9057SOL    HW128070   6.557   5.099   6.131
 9057SOL    HW228071   6.546   4.995   6.256
 9058SOL     OW28072   2.535   1.682   3.615
 9058SOL    HW128073   2.597   1.604   3.623
 9058SOL    HW228074   2.506   1.692   3.520
 9059SOL     OW28075   6.920   0.778   3.525
 9059SOL    HW128076   6.983   0.850   3.556
 9059SOL    HW228077   6.828   0.798   3.556
 9060SOL     OW28078   6.428   3.969   2.348
 9060SOL    HW128079   6.357   3.899   2.362
 9060SOL    HW228080   6.435   4.026   2.430
 9061SOL     OW28081   4.177   5.403   2.613
 9061SOL    HW128082   4.129   5.471   2.556
 9061SOL    HW228083   4.273   5.400   2.586
 9062SOL     OW28084   1.085   4.534   2.623
 9062SOL    HW128085   1.014   4.496   2.683
 9062SOL    HW228086   1.139   4.459   2.584
 9063SOL     OW28087   2.731   0.537   2.444
 9063SOL    HW128088   2.688   0.452   2.474
 9063SOL    HW228089   2.755   0.530   2.347
 9064SOL     OW28090   6.228   4.347   4.090
 9064SOL    HW128091   6.145   4.323   4.140
 9064SOL    HW228092   6.239   4.286   4.012
 9065SOL     OW28093   3.148   5.724   6.586
 9065SOL    HW128094   3.178   5.656   6.654
 9065SOL    HW228095   3.088   5.791   6.630
 9066SOL     OW28096   6.044   0.427   6.502
 9066SOL    HW128097   5.952   0.442   6.539
 9066SOL    HW228098   6.096   0.369   6.564
 9067SOL     OW28099   5.694   6.228   5.212
 9067SOL    HW128100   5.783   6.183   5.216
 9067SOL    HW228101   5.622   6.159   5.209
 9068SOL     OW28102   2.896   0.576   5.072
 9068SOL    HW128103   2.905   0.666   5.031
 9068SOL    HW228104   2.903   0.583   5.171
 9069SOL     OW28105   3.685   2.033   2.266
 9069SOL    HW128106   3.662   2.082   2.182
 9069SOL    HW228107   3.767   1.978   2.251
 9070SOL     OW28108   1.047   3.044   5.933
 9070SOL    HW128109   1.073   3.140   5.927
 9070SOL    HW228110   0.957   3.030   5.892
 9071SOL     OW28111   5.151   6.775   0.674
 9071SOL    HW128112   5.204   6.763   0.758
 9071SOL    HW228113   5.148   6.872   0.651
 9072SOL     OW28114   5.071   0.204   1.780
 9072SOL    HW128115   5.072   0.215   1.879
 9072SOL    HW228116   5.026   0.283   1.738
 9073SOL     OW28117   3.269   6.883   0.854
 9073SOL    HW128118   3.172   6.890   0.833
 9073SOL    HW228119   3.292   6.789   0.876
 9074SOL     OW28120   1.890   0.710   1.406
 9074SOL    HW128121   1.838   0.769   1.344
 9074SOL    HW228122   1.956   0.656   1.354
 9075SOL     OW28123   0.333   0.236   1.318
 9075SOL    HW128124   0.326   0.162   1.385
 9075SOL    HW228125   0.413   0.292   1.338
 9076SOL     OW28126   5.168   1.795   4.738
 9076SOL    HW128127   5.223   1.872   4.771
 9076SOL    HW228128   5.148   1.807   4.641
 9077SOL     OW28129   5.228   1.287   6.582
 9077SOL    HW128130   5.156   1.218   6.580
 9077SOL    HW228131   5.287   1.272   6.661
 9078SOL     OW28132   4.701   3.651   0.293
 9078SOL    HW128133   4.668   3.648   0.387
 9078SOL    HW228134   4.623   3.652   0.230
 9079SOL     OW28135   1.829   6.819   4.367
 9079SOL    HW128136   1.833   6.835   4.268
 9079SOL    HW228137   1.785   6.732   4.386
 9080SOL     OW28138   6.197   2.494   0.266
 9080SOL    HW128139   6.184   2.404   0.307
 9080SOL    HW228140   6.141   2.502   0.184
 9081SOL     OW28141   3.249   0.668   2.527
 9081SOL    HW128142   3.321   0.737   2.512
 9081SOL    HW228143   3.270   0.587   2.473
 9082SOL     OW28144   2.247   6.273   5.654
 9082SOL    HW128145   2.165   6.318   5.619
 9082SOL    HW228146   2.326   6.335   5.645
 9083SOL     OW28147   3.653   4.549   5.735
 9083SOL    HW128148   3.682   4.565   5.829
 9083SOL    HW228149   3.570   4.492   5.734
 9084SOL     OW28150   1.695   2.553   6.520
 9084SOL    HW128151   1.632   2.623   6.485
 9084SOL    HW228152   1.702   2.478   6.454
 9085SOL     OW28153   1.666   5.287   1.156
 9085SOL    HW128154   1.734   5.225   1.118
 9085SOL    HW228155   1.666   5.372   1.104
 9086SOL     OW28156   6.532   4.270   1.435
 9086SOL    HW128157   6.615   4.325   1.442
 9086SOL    HW228158   6.540   4.190   1.495
 9087SOL     OW28159   4.949   3.188   1.989
 9087SOL    HW128160   4.876   3.125   2.017
 9087SOL    HW228161   4.988   3.232   2.070
 9088SOL     OW28162   6.905   6.896   0.652
 9088SOL    HW128163   6.939   6.990   0.641
 9088SOL    HW228164   6.946   6.855   0.733
 9089SOL     OW28165   3.531   6.107   5.832
 9089SOL    HW128166   3.580   6.170   5.772
 9089SOL    HW228167   3.508   6.024   5.780
 9090SOL     OW28168   5.412   6.999   3.737
 9090SOL    HW128169   5.428   0.064   3.787
 9090SOL    HW228170   5.390   7.020   3.642
 9091SOL     OW28171   2.441   3.359   0.559
 9091SOL    HW128172   2.494   3.429   0.512
 9091SOL    HW228173   2.491   3.327   0.640
 9092SOL     OW28174   0.218   1.504   6.699
 9092SOL    HW128175   0.193   1.433   6.765
 9092SOL    HW228176   0.317   1.506   6.689
 9093SOL     OW28177   1.501   6.115   6.355
 9093SOL    HW128178   1.556   6.195   6.329
 9093SOL    HW228179   1.559   6.050   6.404
 9094SOL     OW28180   0.112   5.378   3.031
 9094SOL    HW128181   0.171   5.458   3.034
 9094SOL    HW228182   0.030   5.398   2.977
 9095SOL     OW28183   3.901   3.869   6.084
 9095SOL    HW128184   3.924   3.952   6.033
 9095SOL    HW228185   3.976   3.803   6.076
 9096SOL     OW28186   5.719   4.260   2.432
 9096SOL    HW128187   5.743   4.185   2.493
 9096SOL    HW228188   5.744   4.237   2.338
 9097SOL     OW28189   0.566   2.519   6.483
 9097SOL    HW128190   0.629   2.590   6.515
 9097SOL    HW228191   0.483   2.563   6.448
 9098SOL     OW28192   4.034   2.867   6.810
 9098SOL    HW128193   4.073   2.776   6.826
 9098SOL    HW228194   3.956   2.859   6.748
 9099SOL     OW28195   3.746   4.104   0.650
 9099SOL    HW128196   3.799   4.020   0.640
 9099SOL    HW228197   3.673   4.090   0.717
 9100SOL     OW28198   1.187   3.570   3.158
 9100SOL    HW128199   1.251   3.644   3.138
 9100SOL    HW228200   1.111   3.573   3.092
 9101SOL     OW28201   2.238   2.996   3.262
 9101SOL    HW128202   2.292   2.916   3.234
 9101SOL    HW228203   2.193   3.035   3.183
 9102SOL     OW28204   2.786   0.085   1.873
 9102SOL    HW128205   2.787   0.143   1.791
 9102SOL    HW228206   2.765   7.010   1.847
 9103SOL     OW28207   6.606   4.080   0.389
 9103SOL    HW128208   6.534   4.090   0.458
 9103SOL    HW228209   6.601   3.988   0.349
 9104SOL     OW28210   4.984   6.683   3.064
 9104SOL    HW128211   4.998   6.779   3.092
 9104SOL    HW228212   4.907   6.645   3.115
 9105SOL     OW28213   1.891   1.279   0.704
 9105SOL    HW128214   1.965   1.240   0.758
 9105SOL    HW228215   1.807   1.281   0.759
 9106SOL     OW28216   6.476   4.368   0.723
 9106SOL    HW128217   6.554   4.305   0.728
 9106SOL    HW228218   6.459   4.393   0.628
 9107SOL     OW28219   3.238   0.456   6.059
 9107SOL    HW128220   3.181   0.537   6.039
 9107SOL    HW228221   3.272   0.462   6.153
 9108SOL     OW28222   4.946   3.794   5.954
 9108SOL    HW128223   5.030   3.806   5.901
 9108SOL    HW228224   4.946   3.703   5.996
 9109SOL     OW28225   0.610   2.688   2.832
 9109SOL    HW128226   0.531   2.662   2.888
 9109SOL    HW228227   0.692   2.689   2.889
 9110SOL     OW28228   1.971   4.197   4.005
 9110SOL    HW128229   1.896   4.131   3.998
 9110SOL    HW228230   1.943   4.284   3.963
 9111SOL     OW28231   4.365   2.663   0.216
 9111SOL    HW128232   4.294   2.720   0.175
 9111SOL    HW228233   4.354   2.660   0.315
 9112SOL     OW28234   0.731   4.889   5.247
 9112SOL    HW128235   0.720   4.794   5.275
 9112SOL    HW228236   0.784   4.938   5.317
 9113SOL     OW28237   4.623   0.104   1.599
 9113SOL    HW128238   4.594   0.038   1.668
 9113SOL    HW228239   4.582   0.193   1.619
 9114SOL     OW28240   1.518   4.474   1.882
 9114SOL    HW128241   1.451   4.421   1.831
 9114SOL    HW228242   1.474   4.522   1.957
 9115SOL     OW28243   1.088   5.008   5.247
 9115SOL    HW128244   1.042   5.073   5.187
 9115SOL    HW228245   1.121   4.931   5.193
 9116SOL     OW28246   6.332   0.696   6.993
 9116SOL    HW128247   6.412   0.707   6.934
 9116SOL    HW228248   6.355   0.727   0.066
 9117SOL     OW28249   6.129   2.772   0.385
 9117SOL    HW128250   6.137   2.802   0.480
 9117SOL    HW228251   6.159   2.677   0.377
 9118SOL     OW28252   6.585   4.752   0.448
 9118SOL    HW128253   6.600   4.654   0.465
 9118SOL    HW228254   6.538   4.792   0.526
 9119SOL     OW28255   4.380   0.508   1.548
 9119SOL    HW128256   4.441   0.571   1.500
 9119SOL    HW228257   4.288   0.547   1.551
 9120SOL     OW28258   5.917   2.115   6.628
 9120SOL    HW128259   5.859   2.125   6.708
 9120SOL    HW228260   6.012   2.109   6.656
 9121SOL     OW28261   2.462   2.376   5.220
 9121SOL    HW128262   2.530   2.448   5.234
 9121SOL    HW228263   2.505   2.287   5.233
 9122SOL     OW28264   1.933   4.222   2.264
 9122SOL    HW128265   1.962   4.161   2.339
 9122SOL    HW228266   1.878   4.170   2.199
 9123SOL     OW28267   3.046   0.313   4.497
 9123SOL    HW128268   2.960   0.307   4.547
 9123SOL    HW228269   3.075   0.222   4.469
 9124SOL     OW28270   5.476   6.572   6.943
 9124SOL    HW128271   5.394   6.613   6.985
 9124SOL    HW228272   5.555   6.630   6.962
 9125SOL     OW28273   4.984   4.299   1.425
 9125SOL    HW128274   4.944   4.275   1.513
 9125SOL    HW228275   5.083   4.291   1.430
 9126SOL     OW28276   5.779   3.151   1.654
 9126SOL    HW128277   5.843   3.179   1.582
 9126SOL    HW228278   5.765   3.052   1.649
 9127SOL     OW28279   6.379   1.113   5.826
 9127SOL    HW128280   6.321   1.059   5.886
 9127SOL    HW228281   6.473   1.078   5.831
 9128SOL     OW28282   5.615   1.854   5.802
 9128SOL    HW128283   5.640   1.841   5.705
 9128SOL    HW228284   5.532   1.803   5.822
 9129SOL     OW28285   0.311   2.264   0.788
 9129SOL    HW128286   0.363   2.349   0.794
 9129SOL    HW228287   0.218   2.279   0.821
 9130SOL     OW28288   0.397   3.158   0.497
 9130SOL    HW128289   0.444   3.088   0.551
 9130SOL    HW228290   0.432   3.248   0.521
 9131SOL     OW28291   5.844   3.027   5.330
 9131SOL    HW128292   5.820   3.123   5.312
 9131SOL    HW228293   5.937   3.022   5.366
 9132SOL     OW28294   1.051   5.378   4.234
 9132SOL    HW128295   1.001   5.463   4.250
 9132SOL    HW228296   1.076   5.337   4.321
 9133SOL     OW28297   4.046   5.602   2.416
 9133SOL    HW128298   4.133   5.588   2.368
 9133SOL    HW228299   4.048   5.690   2.464
 9134SOL     OW28300   5.482   5.371   0.782
 9134SOL    HW128301   5.447   5.289   0.736
 9134SOL    HW228302   5.575   5.354   0.813
 9135SOL     OW28303   6.420   6.876   1.405
 9135SOL    HW128304   6.475   6.847   1.326
 9135SOL    HW228305   6.325   6.887   1.377
 9136SOL     OW28306   5.413   5.302   6.430
 9136SOL    HW128307   5.323   5.275   6.465
 9136SOL    HW228308   5.453   5.371   6.490
 9137SOL     OW28309   4.927   1.449   1.597
 9137SOL    HW128310   4.940   1.547   1.585
 9137SOL    HW228311   4.854   1.433   1.664
 9138SOL     OW28312   0.483   5.583   5.955
 9138SOL    HW128313   0.462   5.515   5.884
 9138SOL    HW228314   0.463   5.544   6.045
 9139SOL     OW28315   2.691   1.683   4.116
 9139SOL    HW128316   2.722   1.752   4.180
 9139SOL    HW228317   2.642   1.727   4.040
 9140SOL     OW28318   6.406   3.913   3.159
 9140SOL    HW128319   6.324   3.924   3.216
 9140SOL    HW228320   6.407   3.820   3.121
 9141SOL     OW28321   5.748   0.040   0.435
 9141SOL    HW128322   5.750   0.134   0.401
 9141SOL    HW228323   5.718   6.999   0.362
 9142SOL     OW28324   0.582   2.626   1.280
 9142SOL    HW128325   0.552   2.596   1.371
 9142SOL    HW228326   0.678   2.652   1.284
 9143SOL     OW28327   6.671   3.456   0.127
 9143SOL    HW128328   6.610   3.468   0.049
 9143SOL    HW228329   6.653   3.368   0.171
 9144SOL     OW28330   2.407   5.259   5.289
 9144SOL    HW128331   2.424   5.161   5.295
 9144SOL    HW228332   2.457   5.298   5.212
 9145SOL     OW28333   0.090   5.435   0.312
 9145SOL    HW128334   0.177   5.476   0.338
 9145SOL    HW228335   0.075   5.447   0.213
 9146SOL     OW28336   5.125   2.839   3.234
 9146SOL    HW128337   5.134   2.769   3.305
 9146SOL    HW228338   5.149   2.801   3.145
 9147SOL     OW28339   5.773   0.488   4.673
 9147SOL    HW128340   5.723   0.522   4.593
 9147SOL    HW228341   5.871   0.495   4.656
 9148SOL     OW28342   5.154   5.912   1.250
 9148SOL    HW128343   5.153   5.826   1.301
 9148SOL    HW228344   5.094   5.904   1.171
 9149SOL     OW28345   6.152   3.450   3.680
 9149SOL    HW128346   6.244   3.487   3.679
 9149SOL    HW228347   6.128   3.416   3.589
 9150SOL     OW28348   3.173   5.590   1.581
 9150SOL    HW128349   3.132   5.499   1.569
 9150SOL    HW228350   3.247   5.584   1.648
 9151SOL     OW28351   2.086   4.477   3.110
 9151SOL    HW128352   2.128   4.539   3.177
 9151SOL    HW228353   2.157   4.434   3.055
 9152SOL     OW28354   1.700   4.348   4.614
 9152SOL    HW128355   1.748   4.263   4.593
 9152SOL    HW228356   1.762   4.411   4.662
 9153SOL     OW28357   1.262   3.314   6.496
 9153SOL    HW128358   1.303   3.390   6.546
 9153SOL    HW228359   1.318   3.233   6.506
 9154SOL     OW28360   4.387   4.693   0.131
 9154SOL    HW128361   4.381   4.756   0.053
 9154SOL    HW228362   4.471   4.711   0.181
 9155SOL     OW28363   1.600   3.779   2.175
 9155SOL    HW128364   1.503   3.789   2.196
 9155SOL    HW228365   1.611   3.710   2.103
 9156SOL     OW28366   0.933   2.233   0.075
 9156SOL    HW128367   0.975   2.299   0.138
 9156SOL    HW228368   0.997   2.212   0.001
 9157SOL     OW28369   7.017   4.188   6.194
 9157SOL    HW128370   0.070   4.151   6.253
 9157SOL    HW228371   0.016   4.284   6.174
 9158SOL     OW28372   5.495   3.210   4.638
 9158SOL    HW128373   5.479   3.273   4.562
 9158SOL    HW228374   5.594   3.193   4.647
 9159SOL     OW28375   1.823   0.478   2.501
 9159SOL    HW128376   1.805   0.503   2.406
 9159SOL    HW228377   1.846   0.561   2.553
 9160SOL     OW28378   5.652   6.968   5.584
 9160SOL    HW128379   5.695   0.037   5.598
 9160SOL    HW228380   5.692   6.901   5.646
 9161SOL     OW28381   5.061   4.344   4.402
 9161SOL    HW128382   5.104   4.289   4.473
 9161SOL    HW228383   5.104   4.323   4.314
 9162SOL     OW28384   4.731   1.224   3.900
 9162SOL    HW128385   4.800   1.165   3.941
 9162SOL    HW228386   4.726   1.309   3.952
 9163SOL     OW28387   1.494   2.378   4.724
 9163SOL    HW128388   1.427   2.409   4.791
 9163SOL    HW228389   1.581   2.425   4.739
 9164SOL     OW28390   2.466   0.075   6.567
 9164SOL    HW128391   2.455   0.166   6.607
 9164SOL    HW228392   2.478   0.007   6.640
 9165SOL     OW28393   6.297   1.435   5.697
 9165SOL    HW128394   6.223   1.368   5.701
 9165SOL    HW228395   6.271   1.516   5.749
 9166SOL     OW28396   3.753   5.835   1.918
 9166SOL    HW128397   3.753   5.927   1.879
 9166SOL    HW228398   3.846   5.808   1.941
 9167SOL     OW28399   1.934   2.701   6.038
 9167SOL    HW128400   1.875   2.658   5.970
 9167SOL    HW228401   1.959   2.793   6.006
 9168SOL     OW28402   6.981   6.710   6.091
 9168SOL    HW128403   6.982   6.610   6.091
 9168SOL    HW228404   0.051   6.745   6.117
 9169SOL     OW28405   5.954   6.841   5.479
 9169SOL    HW128406   5.910   6.771   5.535
 9169SOL    HW228407   5.979   6.919   5.537
 9170SOL     OW28408   1.549   6.505   6.623
 9170SOL    HW128409   1.481   6.444   6.663
 9170SOL    HW228410   1.504   6.570   6.562
 9171SOL     OW28411   4.424   5.304   0.977
 9171SOL    HW128412   4.436   5.274   1.072
 9171SOL    HW228413   4.376   5.392   0.976
 9172SOL     OW28414   4.565   1.421   2.473
 9172SOL    HW128415   4.511   1.444   2.555
 9172SOL    HW228416   4.603   1.329   2.483
 9173SOL     OW28417   6.364   3.518   5.934
 9173SOL    HW128418   6.391   3.488   6.026
 9173SOL    HW228419   6.358   3.617   5.931
 9174SOL     OW28420   6.253   4.028   1.358
 9174SOL    HW128421   6.176   4.091   1.361
 9174SOL    HW228422   6.222   3.936   1.382
 9175SOL     OW28423   0.607   0.139   5.540
 9175SOL    HW128424   0.613   0.092   5.452
 9175SOL    HW228425   0.559   0.081   5.605
 9176SOL     OW28426   2.375   1.247   3.701
 9176SOL    HW128427   2.282   1.273   3.672
 9176SOL    HW228428   2.374   1.153   3.735
 9177SOL     OW28429   0.594   4.664   4.385
 9177SOL    HW128430   0.543   4.746   4.411
 9177SOL    HW228431   0.604   4.661   4.285
 9178SOL     OW28432   1.895   5.711   0.468
 9178SOL    HW128433   1.936   5.799   0.441
 9178SOL    HW228434   1.953   5.636   0.436
 9179SOL     OW28435   2.147   4.391   3.703
 9179SOL    HW128436   2.167   4.296   3.727
 9179SOL    HW228437   2.232   4.441   3.690
 9180SOL     OW28438   6.678   2.775   3.334
 9180SOL    HW128439   6.627   2.804   3.415
 9180SOL    HW228440   6.629   2.700   3.289
 9181SOL     OW28441   5.578   2.518   4.961
 9181SOL    HW128442   5.527   2.440   4.924
 9181SOL    HW228443   5.620   2.569   4.886
 9182SOL     OW28444   2.571   6.665   2.421
 9182SOL    HW128445   2.488   6.720   2.426
 9182SOL    HW228446   2.557   6.579   2.469
 9183SOL     OW28447   4.556   5.163   0.769
 9183SOL    HW128448   4.637   5.208   0.731
 9183SOL    HW228449   4.496   5.233   0.809
 9184SOL     OW28450   4.892   2.521   0.207
 9184SOL    HW128451   4.826   2.589   0.237
 9184SOL    HW228452   4.972   2.567   0.169
 9185SOL     OW28453   5.002   6.577   5.055
 9185SOL    HW128454   5.049   6.665   5.063
 9185SOL    HW228455   4.949   6.559   5.137
 9186SOL     OW28456   5.975   5.811   5.112
 9186SOL    HW128457   6.037   5.841   5.184
 9186SOL    HW228458   6.022   5.812   5.024
 9187SOL     OW28459   3.132   2.000   0.309
 9187SOL    HW128460   3.149   2.041   0.399
 9187SOL    HW228461   3.044   1.952   0.310
 9188SOL     OW28462   1.464   0.073   1.405
 9188SOL    HW128463   1.528   0.150   1.405
 9188SOL    HW228464   1.500   7.019   1.348
 9189SOL     OW28465   2.902   6.058   1.985
 9189SOL    HW128466   2.808   6.071   1.956
 9189SOL    HW228467   2.945   5.987   1.929
 9190SOL     OW28468   1.821   4.543   5.476
 9190SOL    HW128469   1.797   4.529   5.380
 9190SOL    HW228470   1.907   4.593   5.482
 9191SOL     OW28471   6.146   1.362   6.644
 9191SOL    HW128472   6.103   1.271   6.648
 9191SOL    HW228473   6.193   1.372   6.556
 9192SOL     OW28474   0.674   2.419   5.888
 9192SOL    HW128475   0.586   2.417   5.936
 9192SOL    HW228476   0.736   2.482   5.935
 9193SOL     OW28477   3.781   4.013   5.656
 9193SOL    HW128478   3.705   4.053   5.707
 9193SOL    HW228479   3.772   4.036   5.559
 9194SOL     OW28480   3.586   1.279   3.087
 9194SOL    HW128481   3.639   1.317   3.163
 9194SOL    HW228482   3.624   1.190   3.063
 9195SOL     OW28483   0.500   2.441   2.736
 9195SOL    HW128484   0.408   2.418   2.767
 9195SOL    HW228485   0.515   2.539   2.747
 9196SOL     OW28486   5.989   0.561   3.510
 9196SOL    HW128487   5.971   0.526   3.601
 9196SOL    HW228488   5.902   0.579   3.464
 9197SOL     OW28489   2.287   4.882   1.204
 9197SOL    HW128490   2.254   4.824   1.130
 9197SOL    HW228491   2.249   4.850   1.291
 9198SOL     OW28492   6.040   4.550   6.484
 9198SOL    HW128493   6.106   4.486   6.445
 9198SOL    HW228494   6.050   4.639   6.440
 9199SOL     OW28495   0.483   3.169   5.269
 9199SOL    HW128496   0.442   3.188   5.180
 9199SOL    HW228497   0.500   3.254   5.318
 9200SOL     OW28498   3.209   6.099   0.061
 9200SOL    HW128499   3.168   6.184   0.028
 9200SOL    HW228500   3.159   6.066   0.141
 9201SOL     OW28501   0.525   3.335   0.296
 9201SOL    HW128502   0.425   3.331   0.300
 9201SOL    HW228503   0.555   3.303   0.206
 9202SOL     OW28504   0.633   6.294   2.651
 9202SOL    HW128505   0.714   6.235   2.651
 9202SOL    HW228506   0.651   6.377   2.704
 9203SOL     OW28507   0.031   3.451   6.003
 9203SOL    HW128508   0.098   3.489   5.939
 9203SOL    HW228509   0.008   3.358   5.975
 9204SOL     OW28510   4.452   3.231   5.414
 9204SOL    HW128511   4.368   3.277   5.387
 9204SOL    HW228512   4.530   3.289   5.395
 9205SOL     OW28513   4.955   6.282   3.076
 9205SOL    HW128514   4.862   6.304   3.105
 9205SOL    HW228515   5.020   6.324   3.140
 9206SOL     OW28516   3.571   4.909   3.622
 9206SOL    HW128517   3.579   5.008   3.610
 9206SOL    HW228518   3.620   4.863   3.547
 9207SOL     OW28519   5.371   4.742   6.218
 9207SOL    HW128520   5.336   4.835   6.228
 9207SOL    HW228521   5.411   4.731   6.127
 9208SOL     OW28522   5.619   4.594   3.795
 9208SOL    HW128523   5.694   4.547   3.748
 9208SOL    HW228524   5.647   4.618   3.887
 9209SOL     OW28525   4.564   0.726   0.255
 9209SOL    HW128526   4.576   0.754   0.160
 9209SOL    HW228527   4.503   0.647   0.260
 9210SOL     OW28528   0.929   1.619   1.802
 9210SOL    HW128529   0.830   1.613   1.810
 9210SOL    HW228530   0.966   1.529   1.779
 9211SOL     OW28531   6.863   3.061   5.754
 9211SOL    HW128532   6.823   3.086   5.666
 9211SOL    HW228533   6.872   2.962   5.760
 9212SOL     OW28534   4.271   5.567   4.287
 9212SOL    HW128535   4.362   5.549   4.326
 9212SOL    HW228536   4.216   5.483   4.291
 9213SOL     OW28537   5.547   3.991   5.237
 9213SOL    HW128538   5.614   4.001   5.163
 9213SOL    HW228539   5.526   3.894   5.249
 9214SOL     OW28540   0.089   4.008   5.813
 9214SOL    HW128541   0.028   4.057   5.750
 9214SOL    HW228542   0.179   3.998   5.770
 9215SOL     OW28543   1.771   2.975   2.083
 9215SOL    HW128544   1.690   3.028   2.060
 9215SOL    HW228545   1.845   2.997   2.019
 9216SOL     OW28546   3.295   0.061   2.458
 9216SOL    HW128547   3.254   0.013   2.380
 9216SOL    HW228548   3.370   0.118   2.425
 9217SOL     OW28549   6.555   3.139   6.880
 9217SOL    HW128550   6.590   3.047   6.902
 9217SOL    HW228551   6.627   3.206   6.895
 9218SOL     OW28552   2.064   0.936   6.911
 9218SOL    HW128553   2.001   0.941   6.833
 9218SOL    HW228554   2.146   0.988   6.891
 9219SOL     OW28555   5.989   3.492   0.107
 9219SOL    HW128556   5.921   3.429   0.145
 9219SOL    HW228557   5.943   3.566   0.058
 9220SOL     OW28558   0.960   5.806   1.554
 9220SOL    HW128559   0.984   5.719   1.598
 9220SOL    HW228560   0.939   5.791   1.458
 9221SOL     OW28561   2.279   0.745   2.920
 9221SOL    HW128562   2.240   0.830   2.956
 9221SOL    HW228563   2.211   0.697   2.866
 9222SOL     OW28564   2.662   5.859   5.971
 9222SOL    HW128565   2.611   5.778   6.001
 9222SOL    HW228566   2.732   5.831   5.905
 9223SOL     OW28567   1.075   1.971   4.264
 9223SOL    HW128568   1.167   1.986   4.302
 9223SOL    HW228569   1.057   2.039   4.193
 9224SOL     OW28570   1.147   5.413   3.994
 9224SOL    HW128571   1.126   5.431   4.090
 9224SOL    HW228572   1.129   5.496   3.940
 9225SOL     OW28573   3.145   6.283   6.722
 9225SOL    HW128574   3.054   6.306   6.756
 9225SOL    HW228575   3.144   6.283   6.622
 9226SOL     OW28576   6.115   6.303   1.391
 9226SOL    HW128577   6.104   6.391   1.345
 9226SOL    HW228578   6.079   6.309   1.484
 9227SOL     OW28579   2.016   5.872   0.795
 9227SOL    HW128580   2.093   5.811   0.812
 9227SOL    HW228581   1.936   5.819   0.768
 9228SOL     OW28582   2.573   1.806   6.193
 9228SOL    HW128583   2.656   1.858   6.213
 9228SOL    HW228584   2.528   1.846   6.113
 9229SOL     OW28585   1.084   5.884   4.917
 9229SOL    HW128586   1.155   5.826   4.959
 9229SOL    HW228587   1.118   5.977   4.909
 9230SOL     OW28588   5.495   2.356   3.294
 9230SOL    HW128589   5.465   2.261   3.288
 9230SOL    HW228590   5.510   2.392   3.202
 9231SOL     OW28591   0.745   2.712   4.367
 9231SOL    HW128592   0.776   2.791   4.420
 9231SOL    HW228593   0.769   2.725   4.271
 9232SOL     OW28594   4.289   5.646   0.485
 9232SOL    HW128595   4.336   5.720   0.438
 9232SOL    HW228596   4.191   5.649   0.462
 9233SOL     OW28597   5.667   5.844   1.959
 9233SOL    HW128598   5.759   5.859   1.995
 9233SOL    HW228599   5.639   5.923   1.904
 9234SOL     OW28600   3.499   5.676   6.972
 9234SOL    HW128601   3.474   5.672   0.049
 9234SOL    HW228602   3.491   5.585   6.931
 9235SOL     OW28603   1.479   3.451   3.708
 9235SOL    HW128604   1.447   3.376   3.765
 9235SOL    HW228605   1.448   3.437   3.614
 9236SOL     OW28606   1.835   4.408   5.992
 9236SOL    HW128607   1.828   4.441   5.898
 9236SOL    HW228608   1.929   4.422   6.024
 9237SOL     OW28609   0.722   6.252   4.130
 9237SOL    HW128610   0.659   6.329   4.120
 9237SOL    HW228611   0.676   6.177   4.176
 9238SOL     OW28612   2.401   1.914   0.191
 9238SOL    HW128613   2.420   1.896   0.095
 9238SOL    HW228614   2.302   1.915   0.206
 9239SOL     OW28615   6.745   3.764   6.965
 9239SOL    HW128616   6.806   3.708   0.000
 9239SOL    HW228617   6.652   3.759   7.003
 9240SOL     OW28618   5.043   2.211   2.119
 9240SOL    HW128619   5.007   2.213   2.212
 9240SOL    HW228620   4.978   2.254   2.057
 9241SOL     OW28621   1.328   5.626   5.559
 9241SOL    HW128622   1.271   5.546   5.541
 9241SOL    HW228623   1.313   5.695   5.488
 9242SOL     OW28624   0.856   4.590   0.088
 9242SOL    HW128625   0.801   4.671   0.106
 9242SOL    HW228626   0.800   4.521   0.043
 9243SOL     OW28627   0.239   6.553   1.593
 9243SOL    HW128628   0.144   6.522   1.583
 9243SOL    HW228629   0.269   6.596   1.509
 9244SOL     OW28630   4.084   5.494   6.661
 9244SOL    HW128631   4.012   5.447   6.609
 9244SOL    HW228632   4.150   5.534   6.597
 9245SOL     OW28633   1.811   5.035   3.343
 9245SOL    HW128634   1.877   5.045   3.268
 9245SOL    HW228635   1.762   4.949   3.332
 9246SOL     OW28636   6.518   5.268   2.246
 9246SOL    HW128637   6.502   5.197   2.178
 9246SOL    HW228638   6.606   5.251   2.292
 9247SOL     OW28639   1.474   6.843   3.350
 9247SOL    HW128640   1.525   6.910   3.403
 9247SOL    HW228641   1.392   6.815   3.401
 9248SOL     OW28642   2.418   2.341   4.817
 9248SOL    HW128643   2.323   2.349   4.848
 9248SOL    HW228644   2.419   2.305   4.723
 9249SOL     OW28645   3.617   3.860   0.472
 9249SOL    HW128646   3.536   3.846   0.529
 9249SOL    HW228647   3.687   3.909   0.524
 9250SOL     OW28648   5.658   2.901   3.925
 9250SOL    HW128649   5.665   2.823   3.863
 9250SOL    HW228650   5.651   2.869   4.019
 9251SOL     OW28651   3.729   1.782   2.864
 9251SOL    HW128652   3.637   1.742   2.871
 9251SOL    HW228653   3.747   1.840   2.943
 9252SOL     OW28654   5.054   6.952   4.060
 9252SOL    HW128655   5.112   0.009   4.086
 9252SOL    HW228656   5.111   6.877   4.026
 9253SOL     OW28657   5.977   6.272   5.737
 9253SOL    HW128658   5.983   6.321   5.824
 9253SOL    HW228659   6.069   6.258   5.701
 9254SOL     OW28660   6.256   4.556   2.884
 9254SOL    HW128661   6.195   4.614   2.830
 9254SOL    HW228662   6.238   4.460   2.863
 9255SOL     OW28663   4.511   3.955   0.235
 9255SOL    HW128664   4.465   3.980   0.150
 9255SOL    HW228665   4.496   3.857   0.253
 9256SOL     OW28666   2.876   0.109   2.701
 9256SOL    HW128667   2.827   0.056   2.632
 9256SOL    HW228668   2.956   0.152   2.660
 9257SOL     OW28669   0.137   3.930   3.221
 9257SOL    HW128670   0.055   3.913   3.167
 9257SOL    HW228671   0.140   4.027   3.247
 9258SOL     OW28672   3.068   3.157   2.321
 9258SOL    HW128673   3.000   3.211   2.272
 9258SOL    HW228674   3.029   3.124   2.407
 9259SOL     OW28675   1.181   2.068   0.578
 9259SOL    HW128676   1.257   2.066   0.513
 9259SOL    HW228677   1.198   2.001   0.651
 9260SOL     OW28678   5.642   1.169   4.617
 9260SOL    HW128679   5.548   1.135   4.612
 9260SOL    HW228680   5.650   1.254   4.566
 9261SOL     OW28681   2.765   1.188   0.206
 9261SOL    HW128682   2.835   1.134   0.253
 9261SOL    HW228683   2.709   1.235   0.274
 9262SOL     OW28684   6.986   4.535   5.617
 9262SOL    HW128685   6.911   4.470   5.621
 9262SOL    HW228686   6.959   4.615   5.565
 9263SOL     OW28687   4.952   0.054   0.861
 9263SOL    HW128688   4.905   0.023   0.944
 9263SOL    HW228689   4.929   7.012   0.785
 9264SOL     OW28690   4.591   5.447   0.469
 9264SOL    HW128691   4.622   5.384   0.398
 9264SOL    HW228692   4.583   5.539   0.431
 9265SOL     OW28693   3.842   1.857   0.760
 9265SOL    HW128694   3.790   1.798   0.698
 9265SOL    HW228695   3.875   1.938   0.710
 9266SOL     OW28696   2.038   0.104   1.212
 9266SOL    HW128697   1.947   0.094   1.251
 9266SOL    HW228698   2.032   0.099   1.112
 9267SOL     OW28699   6.676   3.317   4.736
 9267SOL    HW128700   6.725   3.277   4.814
 9267SOL    HW228701   6.742   3.344   4.666
 9268SOL     OW28702   0.722   5.224   2.440
 9268SOL    HW128703   0.775   5.142   2.461
 9268SOL    HW228704   0.777   5.305   2.461
 9269SOL     OW28705   3.103   1.549   6.438
 9269SOL    HW128706   3.201   1.561   6.423
 9269SOL    HW228707   3.066   1.490   6.366
 9270SOL     OW28708   4.279   6.254   6.314
 9270SOL    HW128709   4.225   6.338   6.318
 9270SOL    HW228710   4.218   6.176   6.305
 9271SOL     OW28711   6.206   0.004   0.404
 9271SOL    HW128712   6.128   6.969   0.434
 9271SOL    HW228713   6.177   0.099   0.392
 9272SOL     OW28714   1.324   5.971   4.706
 9272SOL    HW128715   1.342   6.038   4.778
 9272SOL    HW228716   1.279   6.016   4.629
 9273SOL     OW28717   6.090   6.786   3.033
 9273SOL    HW128718   6.118   6.876   3.001
 9273SOL    HW228719   5.991   6.785   3.046
 9274SOL     OW28720   6.518   2.259   6.626
 9274SOL    HW128721   6.587   2.322   6.590
 9274SOL    HW228722   6.536   2.243   6.723
 9275SOL     OW28723   6.737   0.726   0.070
 9275SOL    HW128724   6.799   0.707   7.014
 9275SOL    HW228725   6.787   0.718   0.156
 9276SOL     OW28726   1.900   3.645   1.820
 9276SOL    HW128727   1.965   3.680   1.889
 9276SOL    HW228728   1.904   3.545   1.820
 9277SOL     OW28729   4.479   3.666   0.132
 9277SOL    HW128730   4.397   3.612   0.153
 9277SOL    HW228731   4.482   3.687   0.034
 9278SOL     OW28732   1.891   0.486   5.764
 9278SOL    HW128733   1.807   0.473   5.711
 9278SOL    HW228734   1.887   0.573   5.813
 9279SOL     OW28735   4.372   0.864   1.944
 9279SOL    HW128736   4.394   0.811   1.861
 9279SOL    HW228737   4.445   0.930   1.961
 9280SOL     OW28738   2.003   1.754   3.319
 9280SOL    HW128739   1.960   1.667   3.294
 9280SOL    HW228740   1.997   1.817   3.242
 9281SOL     OW28741   2.769   4.044   0.068
 9281SOL    HW128742   2.829   4.115   0.102
 9281SOL    HW228743   2.675   4.061   0.099
 9282SOL     OW28744   4.997   1.115   3.941
 9282SOL    HW128745   5.096   1.129   3.935
 9282SOL    HW228746   4.974   1.024   3.906
 9283SOL     OW28747   5.252   0.576   4.160
 9283SOL    HW128748   5.287   0.505   4.221
 9283SOL    HW228749   5.253   0.542   4.066
 9284SOL     OW28750   3.396   3.372   5.985
 9284SOL    HW128751   3.402   3.272   5.984
 9284SOL    HW228752   3.486   3.411   6.005
 9285SOL     OW28753   4.903   2.886   0.478
 9285SOL    HW128754   4.922   2.828   0.557
 9285SOL    HW228755   4.950   2.849   0.398
 9286SOL     OW28756   5.337   5.848   0.667
 9286SOL    HW128757   5.328   5.927   0.727
 9286SOL    HW228758   5.285   5.864   0.582
 9287SOL     OW28759   3.371   4.990   0.062
 9287SOL    HW128760   3.407   4.921   7.019
 9287SOL    HW228761   3.425   4.991   0.146
 9288SOL     OW28762   4.898   1.140   3.636
 9288SOL    HW128763   4.914   1.239   3.641
 9288SOL    HW228764   4.917   1.099   3.725
 9289SOL     OW28765   4.130   1.165   2.265
 9289SOL    HW128766   4.058   1.231   2.243
 9289SOL    HW228767   4.164   1.181   2.357
 9290SOL     OW28768   5.249   1.498   3.080
 9290SOL    HW128769   5.167   1.542   3.119
 9290SOL    HW228770   5.281   1.552   3.002
 9291SOL     OW28771   1.523   6.572   4.116
 9291SOL    HW128772   1.576   6.630   4.054
 9291SOL    HW228773   1.585   6.530   4.183
 9292SOL     OW28774   2.126   3.168   6.608
 9292SOL    HW128775   2.174   3.245   6.565
 9292SOL    HW228776   2.158   3.158   6.702
 9293SOL     OW28777   5.155   3.498   6.832
 9293SOL    HW128778   5.132   3.498   6.735
 9293SOL    HW228779   5.251   3.473   6.843
 9294SOL     OW28780   4.530   0.877   5.289
 9294SOL    HW128781   4.434   0.850   5.282
 9294SOL    HW228782   4.572   0.832   5.367
 9295SOL     OW28783   5.473   2.001   4.692
 9295SOL    HW128784   5.517   2.056   4.621
 9295SOL    HW228785   5.385   2.043   4.716
 9296SOL     OW28786   1.180   6.067   6.921
 9296SOL    HW128787   1.264   6.086   6.870
 9296SOL    HW228788   1.171   6.132   6.996
 9297SOL     OW28789   6.231   0.297   1.179
 9297SOL    HW128790   6.287   0.376   1.156
 9297SOL    HW228791   6.134   0.319   1.165
 9298SOL     OW28792   0.868   6.876   5.204
 9298SOL    HW128793   0.915   6.962   5.182
 9298SOL    HW228794   0.911   6.834   5.284
 9299SOL     OW28795   0.366   2.621   5.156
 9299SOL    HW128796   0.289   2.641   5.095
 9299SOL    HW228797   0.427   2.555   5.112
 9300SOL     OW28798   0.184   4.609   5.752
 9300SOL    HW128799   0.201   4.706   5.733
 9300SOL    HW228800   0.100   4.581   5.705
 9301SOL     OW28801   5.208   5.428   3.956
 9301SOL    HW128802   5.143   5.423   3.881
 9301SOL    HW228803   5.163   5.403   4.042
 9302SOL     OW28804   2.275   2.880   4.148
 9302SOL    HW128805   2.216   2.898   4.226
 9302SOL    HW228806   2.353   2.824   4.178
 9303SOL     OW28807   2.628   4.410   0.919
 9303SOL    HW128808   2.683   4.413   1.002
 9303SOL    HW228809   2.553   4.345   0.932
 9304SOL     OW28810   3.986   5.151   1.847
 9304SOL    HW128811   4.012   5.063   1.808
 9304SOL    HW228812   3.934   5.136   1.931
 9305SOL     OW28813   3.231   1.164   1.019
 9305SOL    HW128814   3.326   1.180   1.046
 9305SOL    HW228815   3.214   1.204   0.929
 9306SOL     OW28816   0.451   5.379   4.994
 9306SOL    HW128817   0.352   5.366   5.003
 9306SOL    HW228818   0.474   5.387   4.897
 9307SOL     OW28819   1.946   3.395   1.917
 9307SOL    HW128820   1.969   3.300   1.898
 9307SOL    HW228821   2.023   3.439   1.964
 9308SOL     OW28822   2.234   3.525   0.211
 9308SOL    HW128823   2.183   3.450   0.253
 9308SOL    HW228824   2.194   3.547   0.122
 9309SOL     OW28825   3.738   4.599   5.995
 9309SOL    HW128826   3.800   4.595   6.074
 9309SOL    HW228827   3.657   4.545   6.014
 9310SOL     OW28828   4.651   5.348   6.662
 9310SOL    HW128829   4.689   5.438   6.681
 9310SOL    HW228830   4.721   5.292   6.616
 9311SOL     OW28831   4.350   4.892   2.075
 9311SOL    HW128832   4.411   4.869   2.151
 9311SOL    HW228833   4.404   4.912   1.994
 9312SOL     OW28834   1.139   3.713   0.898
 9312SOL    HW128835   1.159   3.657   0.818
 9312SOL    HW228836   1.209   3.698   0.968
 9313SOL     OW28837   0.260   0.746   1.348
 9313SOL    HW128838   0.287   0.780   1.438
 9313SOL    HW228839   0.217   0.656   1.358
 9314SOL     OW28840   5.228   5.154   6.584
 9314SOL    HW128841   5.239   5.099   6.666
 9314SOL    HW228842   5.179   5.102   6.514
 9315SOL     OW28843   6.077   0.783   5.177
 9315SOL    HW128844   6.036   0.751   5.091
 9315SOL    HW228845   6.027   0.863   5.209
 9316SOL     OW28846   4.930   6.119   5.995
 9316SOL    HW128847   4.924   6.103   5.896
 9316SOL    HW228848   4.987   6.199   6.012
 9317SOL     OW28849   5.465   5.387   3.823
 9317SOL    HW128850   5.524   5.369   3.902
 9317SOL    HW228851   5.375   5.417   3.854
 9318SOL     OW28852   5.779   0.731   6.005
 9318SOL    HW128853   5.685   0.763   5.989
 9318SOL    HW228854   5.839   0.769   5.935
 9319SOL     OW28855   1.922   2.804   6.930
 9319SOL    HW128856   1.980   2.864   6.985
 9319SOL    HW228857   1.851   2.859   6.885
 9320SOL     OW28858   3.842   0.300   5.464
 9320SOL    HW128859   3.902   0.294   5.384
 9320SOL    HW228860   3.893   0.340   5.540
 9321SOL     OW28861   0.230   0.154   3.874
 9321SOL    HW128862   0.242   0.073   3.816
 9321SOL    HW228863   0.314   0.209   3.871
 9322SOL     OW28864   0.160   3.233   6.969
 9322SOL    HW128865   0.079   3.272   7.013
 9322SOL    HW228866   0.143   3.225   6.870
 9323SOL     OW28867   1.320   0.605   5.735
 9323SOL    HW128868   1.257   0.650   5.799
 9323SOL    HW228869   1.267   0.549   5.671
 9324SOL     OW28870   0.925   4.135   1.441
 9324SOL    HW128871   0.902   4.150   1.537
 9324SOL    HW228872   0.975   4.049   1.432
 9325SOL     OW28873   5.773   0.592   0.159
 9325SOL    HW128874   5.803   0.650   0.084
 9325SOL    HW228875   5.700   0.532   0.128
 9326SOL     OW28876   2.373   5.445   0.565
 9326SOL    HW128877   2.292   5.393   0.538
 9326SOL    HW228878   2.404   5.501   0.488
 9327SOL     OW28879   5.373   0.662   2.668
 9327SOL    HW128880   5.299   0.611   2.625
 9327SOL    HW228881   5.349   0.680   2.764
 9328SOL     OW28882   2.387   1.329   5.193
 9328SOL    HW128883   2.380   1.402   5.261
 9328SOL    HW228884   2.484   1.307   5.179
 9329SOL     OW28885   6.022   3.631   1.234
 9329SOL    HW128886   6.026   3.566   1.159
 9329SOL    HW228887   5.952   3.604   1.300
 9330SOL     OW28888   6.672   0.229   5.709
 9330SOL    HW128889   6.724   0.155   5.751
 9330SOL    HW228890   6.584   0.195   5.677
 9331SOL     OW28891   2.337   0.760   0.114
 9331SOL    HW128892   2.243   0.790   0.123
 9331SOL    HW228893   2.397   0.839   0.107
 9332SOL     OW28894   4.167   4.238   1.307
 9332SOL    HW128895   4.219   4.317   1.273
 9332SOL    HW228896   4.203   4.154   1.266
 9333SOL     OW28897   4.117   3.863   6.998
 9333SOL    HW128898   4.126   3.830   0.072
 9333SOL    HW228899   4.150   3.957   6.993
 9334SOL     OW28900   5.631   6.148   3.136
 9334SOL    HW128901   5.533   6.166   3.148
 9334SOL    HW228902   5.672   6.129   3.224
 9335SOL     OW28903   0.949   0.901   6.846
 9335SOL    HW128904   1.039   0.920   6.887
 9335SOL    HW228905   0.936   0.957   6.765
 9336SOL     OW28906   3.327   5.854   5.952
 9336SOL    HW128907   3.329   5.808   6.041
 9336SOL    HW228908   3.234   5.883   5.932
 9337SOL     OW28909   4.081   1.569   4.655
 9337SOL    HW128910   4.104   1.658   4.617
 9337SOL    HW228911   4.016   1.580   4.730
 9338SOL     OW28912   5.197   0.028   2.053
 9338SOL    HW128913   5.211   0.120   2.089
 9338SOL    HW228914   5.099   0.011   2.043
 9339SOL     OW28915   5.848   6.428   1.101
 9339SOL    HW128916   5.762   6.473   1.123
 9339SOL    HW228917   5.837   6.329   1.105
 9340SOL     OW28918   4.588   4.463   3.936
 9340SOL    HW128919   4.652   4.475   3.860
 9340SOL    HW228920   4.500   4.503   3.912
 9341SOL     OW28921   0.352   5.651   1.193
 9341SOL    HW128922   0.433   5.613   1.239
 9341SOL    HW228923   0.318   5.585   1.127
 9342SOL     OW28924   2.854   6.371   3.979
 9342SOL    HW128925   2.760   6.406   3.975
 9342SOL    HW228926   2.858   6.282   3.933
 9343SOL     OW28927   5.617   4.355   1.896
 9343SOL    HW128928   5.629   4.315   1.805
 9343SOL    HW228929   5.543   4.308   1.944
 9344SOL     OW28930   4.649   6.571   2.983
 9344SOL    HW128931   4.678   6.619   2.900
 9344SOL    HW228932   4.551   6.585   2.998
 9345SOL     OW28933   6.948   5.653   2.029
 9345SOL    HW128934   7.004   5.726   1.988
 9345SOL    HW228935   6.853   5.665   2.002
 9346SOL     OW28936   5.336   1.096   1.131
 9346SOL    HW128937   5.337   1.003   1.168
 9346SOL    HW228938   5.423   1.114   1.085
 9347SOL     OW28939   2.690   3.770   0.023
 9347SOL    HW128940   2.727   3.848   6.992
 9347SOL    HW228941   2.679   3.795   0.119
 9348SOL     OW28942   2.864   6.711   2.327
 9348SOL    HW128943   2.768   6.693   2.348
 9348SOL    HW228944   2.899   6.781   2.388
 9349SOL     OW28945   6.476   5.049   2.975
 9349SOL    HW128946   6.474   5.046   2.875
 9349SOL    HW228947   6.456   5.141   3.006
 9350SOL     OW28948   6.794   2.825   5.327
 9350SOL    HW128949   6.752   2.789   5.244
 9350SOL    HW228950   6.857   2.758   5.364
 9351SOL     OW28951   2.965   6.992   0.122
 9351SOL    HW128952   3.052   6.956   0.088
 9351SOL    HW228953   2.892   6.925   0.106
 9352SOL     OW28954   3.451   1.689   6.167
 9352SOL    HW128955   3.408   1.613   6.215
 9352SOL    HW228956   3.491   1.752   6.233
 9353SOL     OW28957   0.416   4.061   1.035
 9353SOL    HW128958   0.387   3.979   0.987
 9353SOL    HW228959   0.429   4.040   1.132
 9354SOL     OW28960   0.619   1.516   6.354
 9354SOL    HW128961   0.561   1.586   6.397
 9354SOL    HW228962   0.573   1.481   6.272
 9355SOL     OW28963   0.125   2.289   4.539
 9355SOL    HW128964   0.199   2.256   4.481
 9355SOL    HW228965   0.077   2.364   4.492
 9356SOL     OW28966   4.672   0.044   2.604
 9356SOL    HW128967   4.586   0.091   2.627
 9356SOL    HW228968   4.691   6.994   2.673
 9357SOL     OW28969   1.959   3.594   5.903
 9357SOL    HW128970   1.971   3.690   5.877
 9357SOL    HW228971   1.928   3.542   5.823
 9358SOL     OW28972   0.058   3.052   1.716
 9358SOL    HW128973   0.106   3.061   1.629
 9358SOL    HW228974   0.124   3.052   1.791
 9359SOL     OW28975   1.820   4.189   5.386
 9359SOL    HW128976   1.920   4.183   5.392
 9359SOL    HW228977   1.792   4.176   5.291
 9360SOL     OW28978   0.736   4.555   6.647
 9360SOL    HW128979   0.771   4.617   6.577
 9360SOL    HW228980   0.666   4.496   6.607
 9361SOL     OW28981   1.446   5.517   2.804
 9361SOL    HW128982   1.415   5.512   2.709
 9361SOL    HW228983   1.436   5.427   2.846
 9362SOL     OW28984   1.977   2.754   2.733
 9362SOL    HW128985   1.968   2.761   2.833
 9362SOL    HW228986   2.065   2.793   2.705
 9363SOL     OW28987   3.183   6.071   1.702
 9363SOL    HW128988   3.208   6.115   1.615
 9363SOL    HW228989   3.263   6.023   1.738
 9364SOL     OW28990   2.918   3.087   6.602
 9364SOL    HW128991   2.991   3.153   6.620
 9364SOL    HW228992   2.945   3.029   6.524
 9365SOL     OW28993   2.636   2.120   4.177
 9365SOL    HW128994   2.719   2.139   4.125
 9365SOL    HW228995   2.555   2.135   4.119
 9366SOL     OW28996   3.828   5.455   6.121
 9366SOL    HW128997   3.806   5.361   6.147
 9366SOL    HW228998   3.921   5.457   6.082
 9367SOL     OW28999   6.787   6.653   2.447
 9367SOL    HW129000   6.861   6.710   2.481
 9367SOL    HW229001   6.779   6.665   2.348
 9368SOL     OW29002   3.445   0.355   3.288
 9368SOL    HW129003   3.449   0.257   3.267
 9368SOL    HW229004   3.537   0.388   3.309
 9369SOL     OW29005   0.030   6.595   3.840
 9369SOL    HW129006   0.067   6.676   3.885
 9369SOL    HW229007   0.038   6.604   3.741
 9370SOL     OW29008   5.383   0.425   4.370
 9370SOL    HW129009   5.428   0.499   4.421
 9370SOL    HW229010   5.303   0.393   4.421
 9371SOL     OW29011   2.308   4.838   0.323
 9371SOL    HW129012   2.370   4.767   0.357
 9371SOL    HW229013   2.361   4.915   0.289
 9372SOL     OW29014   4.871   7.005   1.235
 9372SOL    HW129015   4.840   6.914   1.210
 9372SOL    HW229016   4.793   0.040   1.267
 9373SOL     OW29017   4.829   2.225   1.453
 9373SOL    HW129018   4.925   2.203   1.465
 9373SOL    HW229019   4.777   2.140   1.440
 9374SOL     OW29020   0.299   2.603   0.115
 9374SOL    HW129021   0.372   2.556   0.066
 9374SOL    HW229022   0.329   2.696   0.139
 9375SOL     OW29023   0.612   1.609   0.973
 9375SOL    HW129024   0.709   1.624   0.954
 9375SOL    HW229025   0.566   1.697   0.985
 9376SOL     OW29026   2.426   4.094   1.466
 9376SOL    HW129027   2.380   4.012   1.501
 9376SOL    HW229028   2.498   4.122   1.529
 9377SOL     OW29029   1.836   5.262   3.509
 9377SOL    HW129030   1.886   5.336   3.464
 9377SOL    HW229031   1.825   5.186   3.444
 9378SOL     OW29032   2.322   1.449   3.304
 9378SOL    HW129033   2.317   1.486   3.397
 9378SOL    HW229034   2.397   1.493   3.254
 9379SOL     OW29035   5.127   6.897   5.565
 9379SOL    HW129036   5.212   6.950   5.562
 9379SOL    HW229037   5.050   6.958   5.585
 9380SOL     OW29038   4.151   5.750   5.607
 9380SOL    HW129039   4.096   5.736   5.524
 9380SOL    HW229040   4.169   5.848   5.619
 9381SOL     OW29041   4.954   2.985   5.898
 9381SOL    HW129042   4.989   2.940   5.980
 9381SOL    HW229043   4.891   3.058   5.924
 9382SOL     OW29044   4.077   0.214   4.243
 9382SOL    HW129045   4.157   0.159   4.221
 9382SOL    HW229046   4.105   0.300   4.285
 9383SOL     OW29047   5.548   5.087   4.179
 9383SOL    HW129048   5.605   5.057   4.103
 9383SOL    HW229049   5.453   5.095   4.148
 9384SOL     OW29050   4.289   0.169   1.817
 9384SOL    HW129051   4.253   0.252   1.858
 9384SOL    HW229052   4.215   0.102   1.807
 9385SOL     OW29053   4.810   1.460   4.062
 9385SOL    HW129054   4.754   1.540   4.081
 9385SOL    HW229055   4.883   1.453   4.131
 9386SOL     OW29056   3.178   6.157   5.166
 9386SOL    HW129057   3.218   6.077   5.122
 9386SOL    HW229058   3.114   6.128   5.237
 9387SOL     OW29059   2.742   2.111   0.283
 9387SOL    HW129060   2.735   2.192   0.342
 9387SOL    HW229061   2.747   2.139   0.187
 9388SOL     OW29062   2.542   6.025   3.492
 9388SOL    HW129063   2.556   5.979   3.404
 9388SOL    HW229064   2.628   6.067   3.521
 9389SOL     OW29065   2.877   6.945   3.229
 9389SOL    HW129066   2.882   7.020   3.296
 9389SOL    HW229067   2.874   6.983   3.137
 9390SOL     OW29068   5.424   4.610   6.454
 9390SOL    HW129069   5.429   4.645   6.361
 9390SOL    HW229070   5.514   4.577   6.482
 9391SOL     OW29071   0.931   0.663   5.776
 9391SOL    HW129072   1.028   0.685   5.790
 9391SOL    HW229073   0.878   0.694   5.855
 9392SOL     OW29074   5.276   5.184   5.922
 9392SOL    HW129075   5.370   5.195   5.889
 9392SOL    HW229076   5.262   5.243   6.002
 9393SOL     OW29077   2.645   7.019   5.871
 9393SOL    HW129078   2.606   6.929   5.892
 9393SOL    HW229079   2.715   0.022   5.939
 9394SOL     OW29080   6.433   0.790   1.505
 9394SOL    HW129081   6.364   0.851   1.466
 9394SOL    HW229082   6.449   0.714   1.443
 9395SOL     OW29083   2.537   0.926   0.773
 9395SOL    HW129084   2.599   1.004   0.764
 9395SOL    HW229085   2.446   0.951   0.742
 9396SOL     OW29086   1.977   4.307   4.916
 9396SOL    HW129087   1.930   4.221   4.936
 9396SOL    HW229088   2.073   4.299   4.944
 9397SOL     OW29089   3.060   5.893   5.933
 9397SOL    HW129090   3.008   5.893   6.018
 9397SOL    HW229091   3.011   5.841   5.863
 9398SOL     OW29092   6.146   1.233   5.793
 9398SOL    HW129093   6.239   1.197   5.789
 9398SOL    HW229094   6.122   1.253   5.887
 9399SOL     OW29095   0.950   2.849   4.762
 9399SOL    HW129096   1.012   2.918   4.724
 9399SOL    HW229097   0.981   2.823   4.853
 9400SOL     OW29098   5.005   1.022   1.404
 9400SOL    HW129099   4.921   1.063   1.371
 9400SOL    HW229100   5.053   1.087   1.464
 9401SOL     OW29101   6.803   2.057   2.677
 9401SOL    HW129102   6.836   2.036   2.586
 9401SOL    HW229103   6.704   2.043   2.681
 9402SOL     OW29104   1.356   4.447   3.322
 9402SOL    HW129105   1.409   4.503   3.385
 9402SOL    HW229106   1.259   4.473   3.326
 9403SOL     OW29107   6.159   1.735   2.067
 9403SOL    HW129108   6.164   1.666   2.140
 9403SOL    HW229109   6.162   1.826   2.108
 9404SOL     OW29110   0.789   1.959   1.393
 9404SOL    HW129111   0.726   2.035   1.405
 9404SOL    HW229112   0.738   1.873   1.394
 9405SOL     OW29113   2.343   4.268   3.484
 9405SOL    HW129114   2.307   4.217   3.406
 9405SOL    HW229115   2.317   4.222   3.569
 9406SOL     OW29116   1.040   2.350   6.633
 9406SOL    HW129117   1.093   2.429   6.604
 9406SOL    HW229118   0.943   2.365   6.615
 9407SOL     OW29119   2.672   5.115   3.970
 9407SOL    HW129120   2.610   5.159   3.905
 9407SOL    HW229121   2.620   5.083   4.049
 9408SOL     OW29122   6.668   3.051   6.013
 9408SOL    HW129123   6.649   2.954   6.001
 9408SOL    HW229124   6.723   3.084   5.937
 9409SOL     OW29125   6.824   5.882   1.192
 9409SOL    HW129126   6.817   5.783   1.205
 9409SOL    HW229127   6.891   5.920   1.256
 9410SOL     OW29128   2.819   0.504   2.195
 9410SOL    HW129129   2.828   0.557   2.112
 9410SOL    HW229130   2.777   0.416   2.174
 9411SOL     OW29131   3.534   3.121   3.283
 9411SOL    HW129132   3.632   3.113   3.302
 9411SOL    HW229133   3.490   3.033   3.301
 9412SOL     OW29134   1.936   0.979   2.056
 9412SOL    HW129135   1.886   0.977   1.969
 9412SOL    HW229136   1.972   0.888   2.076
 9413SOL     OW29137   4.736   4.880   3.308
 9413SOL    HW129138   4.645   4.862   3.346
 9413SOL    HW229139   4.751   4.979   3.302
 9414SOL     OW29140   2.889   1.510   3.441
 9414SOL    HW129141   2.824   1.450   3.488
 9414SOL    HW229142   2.876   1.604   3.472
 9415SOL     OW29143   2.306   6.792   2.343
 9415SOL    HW129144   2.316   6.821   2.248
 9415SOL    HW229145   2.218   6.746   2.356
 9416SOL     OW29146   0.327   0.894   5.893
 9416SOL    HW129147   0.295   0.799   5.889
 9416SOL    HW229148   0.301   0.935   5.980
 9417SOL     OW29149   3.398   0.511   0.959
 9417SOL    HW129150   3.349   0.511   0.872
 9417SOL    HW229151   3.396   0.603   0.998
 9418SOL     OW29152   2.321   0.980   1.368
 9418SOL    HW129153   2.347   1.072   1.336
 9418SOL    HW229154   2.403   0.930   1.396
 9419SOL     OW29155   1.930   3.874   6.214
 9419SOL    HW129156   1.999   3.812   6.251
 9419SOL    HW229157   1.974   3.944   6.157
 9420SOL     OW29158   5.833   4.337   0.546
 9420SOL    HW129159   5.756   4.278   0.571
 9420SOL    HW229160   5.917   4.302   0.587
 9421SOL     OW29161   2.950   6.105   4.791
 9421SOL    HW129162   3.047   6.127   4.780
 9421SOL    HW229163   2.930   6.096   4.889
 9422SOL     OW29164   2.934   5.743   3.104
 9422SOL    HW129165   2.863   5.813   3.096
 9422SOL    HW229166   3.023   5.784   3.088
 9423SOL     OW29167   4.264   6.375   3.366
 9423SOL    HW129168   4.362   6.375   3.386
 9423SOL    HW229169   4.215   6.426   3.437
 9424SOL     OW29170   5.242   2.111   4.754
 9424SOL    HW129171   5.233   2.137   4.850
 9424SOL    HW229172   5.152   2.115   4.710
 9425SOL     OW29173   5.641   4.247   1.651
 9425SOL    HW129174   5.610   4.252   1.556
 9425SOL    HW229175   5.736   4.218   1.654
 9426SOL     OW29176   3.349   1.496   6.291
 9426SOL    HW129177   3.383   1.448   6.372
 9426SOL    HW229178   3.328   1.430   6.219
 9427SOL     OW29179   2.865   5.325   3.085
 9427SOL    HW129180   2.812   5.407   3.064
 9427SOL    HW229181   2.944   5.320   3.024
 9428SOL     OW29182   0.456   0.398   0.868
 9428SOL    HW129183   0.376   0.409   0.926
 9428SOL    HW229184   0.521   0.335   0.911
 9429SOL     OW29185   2.113   3.527   4.187
 9429SOL    HW129186   2.114   3.543   4.088
 9429SOL    HW229187   2.139   3.433   4.205
 9430SOL     OW29188   0.112   2.366   4.811
 9430SOL    HW129189   0.161   2.312   4.879
 9430SOL    HW229190   0.154   2.354   4.721
 9431SOL     OW29191   6.446   4.680   1.324
 9431SOL    HW129192   6.415   4.775   1.317
 9431SOL    HW229193   6.481   4.649   1.235
 9432SOL     OW29194   6.498   0.804   4.174
 9432SOL    HW129195   6.454   0.894   4.170
 9432SOL    HW229196   6.429   0.732   4.163
 9433SOL     OW29197   3.195   6.465   2.761
 9433SOL    HW129198   3.110   6.468   2.708
 9433SOL    HW229199   3.229   6.558   2.774
 9434SOL     OW29200   5.533   5.951   2.496
 9434SOL    HW129201   5.557   5.857   2.470
 9434SOL    HW229202   5.459   5.949   2.563
 9435SOL     OW29203   6.817   1.798   2.923
 9435SOL    HW129204   6.853   1.880   2.878
 9435SOL    HW229205   6.848   1.796   3.018
 9436SOL     OW29206   1.807   1.650   2.453
 9436SOL    HW129207   1.766   1.639   2.363
 9436SOL    HW229208   1.813   1.748   2.475
 9437SOL     OW29209   0.030   6.168   3.158
 9437SOL    HW129210   0.014   6.185   3.061
 9437SOL    HW229211   0.077   6.246   3.198
 9438SOL     OW29212   0.954   0.068   1.815
 9438SOL    HW129213   0.862   0.054   1.851
 9438SOL    HW229214   0.972   0.166   1.804
 9439SOL     OW29215   0.808   2.766   0.826
 9439SOL    HW129216   0.889   2.770   0.885
 9439SOL    HW229217   0.742   2.835   0.856
 9440SOL     OW29218   3.992   4.810   3.279
 9440SOL    HW129219   4.070   4.795   3.340
 9440SOL    HW229220   3.924   4.868   3.324
 9441SOL     OW29221   6.649   5.155   6.014
 9441SOL    HW129222   6.665   5.253   6.000
 9441SOL    HW229223   6.595   5.119   5.938
 9442SOL     OW29224   4.910   3.370   1.787
 9442SOL    HW129225   4.984   3.360   1.720
 9442SOL    HW229226   4.917   3.297   1.855
 9443SOL     OW29227   2.490   5.544   0.296
 9443SOL    HW129228   2.540   5.580   0.217
 9443SOL    HW229229   2.451   5.620   0.349
 9444SOL     OW29230   1.603   4.174   0.800
 9444SOL    HW129231   1.689   4.215   0.769
 9444SOL    HW229232   1.545   4.245   0.839
 9445SOL     OW29233   6.847   3.540   3.576
 9445SOL    HW129234   6.828   3.555   3.673
 9445SOL    HW229235   6.779   3.476   3.538
 9446SOL     OW29236   6.739   5.630   4.676
 9446SOL    HW129237   6.683   5.549   4.693
 9446SOL    HW229238   6.822   5.603   4.627
 9447SOL     OW29239   5.464   5.101   3.898
 9447SOL    HW129240   5.551   5.084   3.852
 9447SOL    HW229241   5.434   5.195   3.879
 9448SOL     OW29242   6.589   0.257   6.281
 9448SOL    HW129243   6.625   0.224   6.369
 9448SOL    HW229244   6.489   0.250   6.281
 9449SOL     OW29245   5.644   6.933   0.207
 9449SOL    HW129246   5.605   6.953   0.117
 9449SOL    HW229247   5.571   6.920   0.273
 9450SOL     OW29248   2.064   5.658   3.297
 9450SOL    HW129249   2.016   5.591   3.240
 9450SOL    HW229250   1.997   5.710   3.351
 9451SOL     OW29251   3.753   5.690   5.215
 9451SOL    HW129252   3.670   5.726   5.257
 9451SOL    HW229253   3.729   5.621   5.146
 9452SOL     OW29254   0.949   4.013   0.243
 9452SOL    HW129255   0.941   4.014   0.343
 9452SOL    HW229256   1.022   4.075   0.215
 9453SOL     OW29257   2.965   5.450   2.726
 9453SOL    HW129258   2.878   5.481   2.687
 9453SOL    HW229259   2.985   5.502   2.809
 9454SOL     OW29260   3.871   3.760   6.322
 9454SOL    HW129261   3.778   3.773   6.358
 9454SOL    HW229262   3.874   3.792   6.227
 9455SOL     OW29263   2.400   1.931   3.229
 9455SOL    HW129264   2.485   1.918   3.178
 9455SOL    HW229265   2.338   1.989   3.175
 9456SOL     OW29266   6.570   3.502   0.745
 9456SOL    HW129267   6.483   3.542   0.773
 9456SOL    HW229268   6.642   3.572   0.748
 9457SOL     OW29269   0.887   4.765   4.506
 9457SOL    HW129270   0.803   4.762   4.452
 9457SOL    HW229271   0.892   4.684   4.565
 9458SOL     OW29272   0.947   3.877   6.803
 9458SOL    HW129273   0.938   3.973   6.827
 9458SOL    HW229274   0.932   3.866   6.704
 9459SOL     OW29275   5.435   4.798   4.051
 9459SOL    HW129276   5.443   4.897   4.057
 9459SOL    HW229277   5.526   4.756   4.060
 9460SOL     OW29278   1.986   3.807   5.068
 9460SOL    HW129279   2.053   3.749   5.116
 9460SOL    HW229280   1.894   3.783   5.100
 9461SOL     OW29281   0.698   1.854   1.867
 9461SOL    HW129282   0.771   1.887   1.926
 9461SOL    HW229283   0.612   1.848   1.918
 9462SOL     OW29284   1.438   2.874   3.349
 9462SOL    HW129285   1.478   2.918   3.430
 9462SOL    HW229286   1.341   2.857   3.364
 9463SOL     OW29287   5.448   6.919   1.490
 9463SOL    HW129288   5.424   6.942   1.584
 9463SOL    HW229289   5.434   6.821   1.475
 9464SOL     OW29290   5.953   0.331   0.608
 9464SOL    HW129291   6.009   0.394   0.662
 9464SOL    HW229292   5.995   0.318   0.518
 9465SOL     OW29293   0.529   3.310   1.970
 9465SOL    HW129294   0.530   3.344   2.064
 9465SOL    HW229295   0.569   3.219   1.967
 9466SOL     OW29296   3.453   4.318   5.632
 9466SOL    HW129297   3.360   4.312   5.596
 9466SOL    HW229298   3.518   4.331   5.557
 9467SOL     OW29299   0.748   3.356   0.907
 9467SOL    HW129300   0.829   3.414   0.918
 9467SOL    HW229301   0.700   3.350   0.994
 9468SOL     OW29302   5.843   3.856   6.819
 9468SOL    HW129303   5.912   3.925   6.801
 9468SOL    HW229304   5.780   3.850   6.742
 9469SOL     OW29305   0.574   5.547   1.390
 9469SOL    HW129306   0.659   5.498   1.369
 9469SOL    HW229307   0.539   5.517   1.478
 9470SOL     OW29308   4.918   3.577   6.939
 9470SOL    HW129309   4.899   3.672   6.917
 9470SOL    HW229310   5.009   3.552   6.905
 9471SOL     OW29311   6.367   2.125   4.604
 9471SOL    HW129312   6.343   2.153   4.511
 9471SOL    HW229313   6.319   2.183   4.670
 9472SOL     OW29314   0.142   3.728   5.655
 9472SOL    HW129315   0.190   3.807   5.693
 9472SOL    HW229316   0.088   3.756   5.575
 9473SOL     OW29317   3.369   4.679   0.226
 9473SOL    HW129318   3.390   4.583   0.242
 9473SOL    HW229319   3.271   4.694   0.233
 9474SOL     OW29320   6.179   3.552   1.943
 9474SOL    HW129321   6.092   3.599   1.955
 9474SOL    HW229322   6.163   3.455   1.924
 9475SOL     OW29323   3.702   3.594   1.071
 9475SOL    HW129324   3.643   3.524   1.111
 9475SOL    HW229325   3.680   3.683   1.111
 9476SOL     OW29326   3.974   3.787   4.575
 9476SOL    HW129327   3.991   3.693   4.545
 9476SOL    HW229328   4.036   3.808   4.651
 9477SOL     OW29329   0.207   2.631   0.957
 9477SOL    HW129330   0.170   2.692   0.887
 9477SOL    HW229331   0.307   2.636   0.956
 9478SOL     OW29332   5.573   3.053   0.880
 9478SOL    HW129333   5.543   3.052   0.784
 9478SOL    HW229334   5.496   3.081   0.938
 9479SOL     OW29335   4.672   6.531   1.026
 9479SOL    HW129336   4.683   6.549   0.928
 9479SOL    HW229337   4.603   6.459   1.038
 9480SOL     OW29338   6.343   5.093   0.297
 9480SOL    HW129339   6.429   5.138   0.272
 9480SOL    HW229340   6.343   5.000   0.262
 9481SOL     OW29341   4.950   2.520   2.617
 9481SOL    HW129342   5.030   2.500   2.674
 9481SOL    HW229343   4.958   2.470   2.531
 9482SOL     OW29344   0.000   0.763   3.145
 9482SOL    HW129345   0.040   0.742   3.056
 9482SOL    HW229346   0.058   0.726   3.218
 9483SOL     OW29347   2.073   0.894   0.415
 9483SOL    HW129348   2.063   0.874   0.317
 9483SOL    HW229349   2.032   0.983   0.435
 9484SOL     OW29350   3.612   0.613   4.601
 9484SOL    HW129351   3.669   0.589   4.679
 9484SOL    HW229352   3.662   0.675   4.541
 9485SOL     OW29353   0.641   1.486   1.248
 9485SOL    HW129354   0.633   1.510   1.151
 9485SOL    HW229355   0.613   1.391   1.261
 9486SOL     OW29356   4.619   5.977   0.952
 9486SOL    HW129357   4.548   5.941   1.012
 9486SOL    HW229358   4.635   5.914   0.876
 9487SOL     OW29359   3.424   4.106   3.421
 9487SOL    HW129360   3.351   4.100   3.489
 9487SOL    HW229361   3.391   4.155   3.340
 9488SOL     OW29362   2.654   6.938   1.013
 9488SOL    HW129363   2.734   6.999   1.021
 9488SOL    HW229364   2.574   6.992   0.988
 9489SOL     OW29365   5.241   4.031   1.442
 9489SOL    HW129366   5.236   3.985   1.531
 9489SOL    HW229367   5.160   4.008   1.388
 9490SOL     OW29368   6.480   5.641   3.457
 9490SOL    HW129369   6.492   5.725   3.510
 9490SOL    HW229370   6.387   5.607   3.469
 9491SOL     OW29371   5.240   5.670   3.629
 9491SOL    HW129372   5.212   5.762   3.657
 9491SOL    HW229373   5.162   5.608   3.634
 9492SOL     OW29374   3.384   3.254   4.679
 9492SOL    HW129375   3.385   3.249   4.779
 9492SOL    HW229376   3.372   3.349   4.650
 9493SOL     OW29377   2.969   5.737   4.565
 9493SOL    HW129378   2.908   5.801   4.610
 9493SOL    HW229379   2.929   5.709   4.478
 9494SOL     OW29380   5.606   3.039   2.613
 9494SOL    HW129381   5.618   3.134   2.587
 9494SOL    HW229382   5.693   2.990   2.601
 9495SOL     OW29383   6.518   2.149   3.007
 9495SOL    HW129384   6.586   2.218   2.981
 9495SOL    HW229385   6.551   2.098   3.086
 9496SOL     OW29386   5.580   3.510   1.791
 9496SOL    HW129387   5.560   3.602   1.822
 9496SOL    HW229388   5.497   3.454   1.798
 9497SOL     OW29389   4.956   5.881   4.813
 9497SOL    HW129390   4.944   5.962   4.756
 9497SOL    HW229391   4.910   5.895   4.901
 9498SOL     OW29392   6.014   4.773   4.748
 9498SOL    HW129393   5.980   4.749   4.657
 9498SOL    HW229394   5.939   4.770   4.814
 9499SOL     OW29395   1.604   6.039   5.492
 9499SOL    HW129396   1.689   6.076   5.529
 9499SOL    HW229397   1.621   5.950   5.450
 9500SOL     OW29398   4.251   6.461   0.235
 9500SOL    HW129399   4.254   6.402   0.154
 9500SOL    HW229400   4.211   6.549   0.210
 9501SOL     OW29401   2.259   1.426   4.928
 9501SOL    HW129402   2.347   1.380   4.936
 9501SOL    HW229403   2.262   1.513   4.977
 9502SOL     OW29404   5.574   2.975   5.213
 9502SOL    HW129405   5.530   2.966   5.123
 9502SOL    HW229406   5.666   2.937   5.208
 9503SOL     OW29407   6.721   2.207   0.700
 9503SOL    HW129408   6.714   2.127   0.639
 9503SOL    HW229409   6.761   2.283   0.650
 9504SOL     OW29410   6.867   3.626   1.369
 9504SOL    HW129411   6.788   3.570   1.393
 9504SOL    HW229412   6.859   3.716   1.412
 9505SOL     OW29413   4.909   4.488   5.298
 9505SOL    HW129414   4.877   4.480   5.204
 9505SOL    HW229415   4.832   4.499   5.359
 9506SOL     OW29416   1.742   2.778   0.356
 9506SOL    HW129417   1.711   2.716   0.284
 9506SOL    HW229418   1.763   2.867   0.317
 9507SOL     OW29419   0.478   0.904   2.152
 9507SOL    HW129420   0.402   0.869   2.098
 9507SOL    HW229421   0.544   0.949   2.092
 9508SOL     OW29422   6.065   1.905   2.457
 9508SOL    HW129423   6.162   1.882   2.455
 9508SOL    HW229424   6.037   1.941   2.368
 9509SOL     OW29425   0.275   0.845   3.834
 9509SOL    HW129426   0.223   0.931   3.834
 9509SOL    HW229427   0.231   0.779   3.774
 9510SOL     OW29428   1.677   4.095   3.983
 9510SOL    HW129429   1.674   4.159   3.906
 9510SOL    HW229430   1.586   4.085   4.022
 9511SOL     OW29431   2.118   0.427   0.791
 9511SOL    HW129432   2.085   0.441   0.697
 9511SOL    HW229433   2.216   0.448   0.795
 9512SOL     OW29434   6.870   1.864   0.810
 9512SOL    HW129435   6.932   1.796   0.770
 9512SOL    HW229436   6.901   1.888   0.902
 9513SOL     OW29437   2.837   4.205   6.305
 9513SOL    HW129438   2.777   4.126   6.288
 9513SOL    HW229439   2.904   4.181   6.375
 9514SOL     OW29440   2.383   4.858   6.478
 9514SOL    HW129441   2.306   4.795   6.491
 9514SOL    HW229442   2.391   4.881   6.381
 9515SOL     OW29443   1.831   6.102   2.216
 9515SOL    HW129444   1.847   6.198   2.239
 9515SOL    HW229445   1.866   6.044   2.289
 9516SOL     OW29446   5.652   4.762   6.825
 9516SOL    HW129447   5.735   4.813   6.804
 9516SOL    HW229448   5.658   4.725   6.917
 9517SOL     OW29449   1.709   4.108   1.432
 9517SOL    HW129450   1.691   4.178   1.501
 9517SOL    HW229451   1.622   4.078   1.392
 9518SOL     OW29452   1.851   1.610   0.768
 9518SOL    HW129453   1.911   1.570   0.837
 9518SOL    HW229454   1.851   1.709   0.777
 9519SOL     OW29455   3.540   3.014   5.019
 9519SOL    HW129456   3.529   2.940   5.085
 9519SOL    HW229457   3.469   3.006   4.948
 9520SOL     OW29458   2.669   1.152   3.007
 9520SOL    HW129459   2.755   1.123   3.049
 9520SOL    HW229460   2.681   1.244   2.968
 9521SOL     OW29461   5.163   5.719   2.528
 9521SOL    HW129462   5.208   5.809   2.526
 9521SOL    HW229463   5.231   5.648   2.547
 9522SOL     OW29464   3.031   5.968   1.252
 9522SOL    HW129465   3.054   5.932   1.343
 9522SOL    HW229466   2.971   6.047   1.262
 9523SOL     OW29467   3.626   5.228   4.972
 9523SOL    HW129468   3.612   5.225   5.071
 9523SOL    HW229469   3.640   5.136   4.937
 9524SOL     OW29470   3.969   2.314   1.081
 9524SOL    HW129471   4.008   2.360   1.002
 9524SOL    HW229472   4.030   2.240   1.110
 9525SOL     OW29473   2.578   2.827   5.963
 9525SOL    HW129474   2.589   2.886   6.043
 9525SOL    HW229475   2.526   2.746   5.989
 9526SOL     OW29476   4.846   5.647   1.543
 9526SOL    HW129477   4.865   5.732   1.592
 9526SOL    HW229478   4.758   5.611   1.572
 9527SOL     OW29479   0.770   0.521   2.463
 9527SOL    HW129480   0.853   0.521   2.519
 9527SOL    HW229481   0.766   0.606   2.410
 9528SOL     OW29482   6.750   0.460   0.618
 9528SOL    HW129483   6.708   0.452   0.528
 9528SOL    HW229484   6.686   0.429   0.688
 9529SOL     OW29485   6.138   3.071   5.385
 9529SOL    HW129486   6.189   3.099   5.466
 9529SOL    HW229487   6.184   3.105   5.303
 9530SOL     OW29488   2.162   3.232   3.383
 9530SOL    HW129489   2.174   3.146   3.333
 9530SOL    HW229490   2.069   3.237   3.419
 9531SOL     OW29491   3.857   5.461   2.880
 9531SOL    HW129492   3.842   5.510   2.794
 9531SOL    HW229493   3.934   5.398   2.868
 9532SOL     OW29494   0.690   6.620   1.733
 9532SOL    HW129495   0.622   6.553   1.704
 9532SOL    HW229496   0.653   6.674   1.809
 9533SOL     OW29497   6.940   0.662   4.730
 9533SOL    HW129498   6.870   0.629   4.666
 9533SOL    HW229499   6.915   0.753   4.762
 9534SOL     OW29500   5.328   3.122   5.271
 9534SOL    HW129501   5.409   3.065   5.255
 9534SOL    HW229502   5.253   3.089   5.214
 9535SOL     OW29503   2.672   1.574   5.403
 9535SOL    HW129504   2.665   1.585   5.502
 9535SOL    HW229505   2.745   1.508   5.381
 9536SOL     OW29506   3.017   4.820   5.187
 9536SOL    HW129507   2.960   4.758   5.135
 9536SOL    HW229508   3.011   4.797   5.285
 9537SOL     OW29509   2.335   6.860   2.100
 9537SOL    HW129510   2.322   6.813   2.012
 9537SOL    HW229511   2.383   6.946   2.086
 9538SOL     OW29512   6.352   2.058   4.124
 9538SOL    HW129513   6.327   2.084   4.031
 9538SOL    HW229514   6.298   2.112   4.189
 9539SOL     OW29515   1.925   3.829   5.436
 9539SOL    HW129516   1.916   3.742   5.389
 9539SOL    HW229517   2.021   3.849   5.452
 9540SOL     OW29518   4.763   4.163   4.881
 9540SOL    HW129519   4.787   4.103   4.958
 9540SOL    HW229520   4.719   4.245   4.916
 9541SOL     OW29521   2.457   1.912   5.927
 9541SOL    HW129522   2.427   1.937   5.835
 9541SOL    HW229523   2.550   1.877   5.923
 9542SOL     OW29524   4.878   3.839   4.987
 9542SOL    HW129525   4.836   3.749   4.997
 9542SOL    HW229526   4.841   3.900   5.056
 9543SOL     OW29527   3.748   1.044   4.305
 9543SOL    HW129528   3.743   1.121   4.242
 9543SOL    HW229529   3.820   0.981   4.275
 9544SOL     OW29530   6.579   1.151   2.323
 9544SOL    HW129531   6.566   1.100   2.408
 9544SOL    HW229532   6.540   1.243   2.333
 9545SOL     OW29533   6.361   5.151   3.856
 9545SOL    HW129534   6.276   5.171   3.904
 9545SOL    HW229535   6.340   5.128   3.761
 9546SOL     OW29536   2.189   2.703   6.561
 9546SOL    HW129537   2.143   2.764   6.625
 9546SOL    HW229538   2.174   2.734   6.468
 9547SOL     OW29539   1.964   6.094   4.128
 9547SOL    HW129540   1.957   6.031   4.051
 9547SOL    HW229541   1.878   6.096   4.179
 9548SOL     OW29542   6.462   5.950   4.744
 9548SOL    HW129543   6.372   5.954   4.787
 9548SOL    HW229544   6.511   5.869   4.776
 9549SOL     OW29545   2.773   4.025   1.484
 9549SOL    HW129546   2.760   4.017   1.385
 9549SOL    HW229547   2.848   4.088   1.503
 9550SOL     OW29548   6.833   1.228   6.549
 9550SOL    HW129549   6.924   1.205   6.515
 9550SOL    HW229550   6.824   1.327   6.555
 9551SOL     OW29551   0.017   7.019   4.303
 9551SOL    HW129552   0.068   6.972   4.375
 9551SOL    HW229553   6.951   0.035   4.340
 9552SOL     OW29554   0.492   6.514   2.206
 9552SOL    HW129555   0.543   6.448   2.150
 9552SOL    HW229556   0.537   6.603   2.201
 9553SOL     OW29557   5.881   3.891   6.508
 9553SOL    HW129558   5.846   3.983   6.525
 9553SOL    HW229559   5.807   3.825   6.516
 9554SOL     OW29560   2.602   0.685   1.170
 9554SOL    HW129561   2.691   0.725   1.189
 9554SOL    HW229562   2.579   0.697   1.073
 9555SOL     OW29563   0.004   1.653   0.719
 9555SOL    HW129564   6.974   1.595   0.654
 9555SOL    HW229565   0.102   1.637   0.709
 9556SOL     OW29566   2.155   2.383   1.092
 9556SOL    HW129567   2.178   2.357   1.185
 9556SOL    HW229568   2.080   2.325   1.059
 9557SOL     OW29569   6.383   0.716   2.635
 9557SOL    HW129570   6.340   0.781   2.572
 9557SOL    HW229571   6.316   0.646   2.660
 9558SOL     OW29572   5.641   5.370   4.060
 9558SOL    HW129573   5.658   5.279   4.099
 9558SOL    HW229574   5.729   5.411   4.033
 9559SOL     OW29575   0.183   3.386   1.607
 9559SOL    HW129576   0.237   3.335   1.540
 9559SOL    HW229577   0.214   3.363   1.699
 9560SOL     OW29578   1.201   1.364   2.425
 9560SOL    HW129579   1.200   1.350   2.326
 9560SOL    HW229580   1.295   1.356   2.458
 9561SOL     OW29581   2.230   6.285   1.048
 9561SOL    HW129582   2.287   6.225   0.991
 9561SOL    HW229583   2.150   6.315   0.995
 9562SOL     OW29584   2.961   6.594   5.150
 9562SOL    HW129585   3.012   6.528   5.206
 9562SOL    HW229586   2.884   6.547   5.106
 9563SOL     OW29587   6.683   6.088   0.079
 9563SOL    HW129588   6.685   6.114   7.002
 9563SOL    HW229589   6.665   5.990   0.086
 9564SOL     OW29590   2.714   0.246   6.529
 9564SOL    HW129591   2.737   0.205   6.617
 9564SOL    HW229592   2.626   0.293   6.535
 9565SOL     OW29593   4.529   5.935   4.993
 9565SOL    HW129594   4.458   5.934   4.923
 9565SOL    HW229595   4.504   5.874   5.068
 9566SOL     OW29596   3.056   4.415   0.308
 9566SOL    HW129597   3.013   4.437   0.396
 9566SOL    HW229598   3.066   4.316   0.300
 9567SOL     OW29599   6.334   5.464   6.516
 9567SOL    HW129600   6.425   5.460   6.476
 9567SOL    HW229601   6.341   5.479   6.614
 9568SOL     OW29602   3.968   3.193   6.159
 9568SOL    HW129603   3.953   3.127   6.233
 9568SOL    HW229604   3.977   3.144   6.073
 9569SOL     OW29605   6.617   1.027   1.097
 9569SOL    HW129606   6.543   1.094   1.108
 9569SOL    HW229607   6.690   1.066   1.040
 9570SOL     OW29608   0.988   1.840   1.645
 9570SOL    HW129609   1.086   1.833   1.627
 9570SOL    HW229610   0.960   1.767   1.708
 9571SOL     OW29611   3.275   3.764   0.127
 9571SOL    HW129612   3.259   3.676   0.083
 9571SOL    HW229613   3.197   3.825   0.110
 9572SOL     OW29614   2.093   5.480   0.660
 9572SOL    HW129615   2.119   5.442   0.571
 9572SOL    HW229616   2.015   5.427   0.696
 9573SOL     OW29617   0.561   1.274   6.597
 9573SOL    HW129618   0.571   1.367   6.633
 9573SOL    HW229619   0.650   1.243   6.561
 9574SOL     OW29620   3.922   3.090   4.805
 9574SOL    HW129621   3.881   3.011   4.850
 9574SOL    HW229622   3.939   3.068   4.709
 9575SOL     OW29623   5.356   0.794   0.760
 9575SOL    HW129624   5.398   0.718   0.709
 9575SOL    HW229625   5.407   0.810   0.844
 9576SOL     OW29626   3.076   1.833   3.206
 9576SOL    HW129627   3.164   1.795   3.235
 9576SOL    HW229628   3.091   1.905   3.139
 9577SOL     OW29629   1.506   0.577   2.465
 9577SOL    HW129630   1.536   0.500   2.409
 9577SOL    HW229631   1.539   0.662   2.425
 9578SOL     OW29632   6.229   3.321   3.054
 9578SOL    HW129633   6.302   3.326   2.985
 9578SOL    HW229634   6.192   3.228   3.058
 9579SOL     OW29635   1.408   6.408   2.607
 9579SOL    HW129636   1.339   6.415   2.535
 9579SOL    HW229637   1.366   6.423   2.696
 9580SOL     OW29638   5.335   3.744   0.369
 9580SOL    HW129639   5.255   3.737   0.309
 9580SOL    HW229640   5.306   3.726   0.463
 9581SOL     OW29641   2.448   4.895   6.206
 9581SOL    HW129642   2.448   4.839   6.123
 9581SOL    HW229643   2.384   4.971   6.194
 9582SOL     OW29644   4.462   4.626   4.196
 9582SOL    HW129645   4.434   4.615   4.291
 9582SOL    HW229646   4.384   4.656   4.141
 9583SOL     OW29647   2.137   3.203   1.965
 9583SOL    HW129648   2.220   3.173   1.918
 9583SOL    HW229649   2.156   3.289   2.013
 9584SOL     OW29650   5.888   5.671   6.769
 9584SOL    HW129651   5.986   5.673   6.747
 9584SOL    HW229652   5.857   5.576   6.772
 9585SOL     OW29653   6.657   0.704   2.532
 9585SOL    HW129654   6.572   0.710   2.585
 9585SOL    HW229655   6.687   0.796   2.506
 9586SOL     OW29656   6.108   3.537   2.896
 9586SOL    HW129657   6.153   3.465   2.949
 9586SOL    HW229658   6.038   3.581   2.952
 9587SOL     OW29659   6.237   0.364   2.111
 9587SOL    HW129660   6.276   0.305   2.039
 9587SOL    HW229661   6.210   0.307   2.189
 9588SOL     OW29662   0.366   1.336   1.508
 9588SOL    HW129663   0.453   1.379   1.531
 9588SOL    HW229664   0.292   1.382   1.558
 9589SOL     OW29665   2.638   5.657   0.117
 9589SOL    HW129666   2.619   5.749   0.083
 9589SOL    HW229667   2.650   5.595   0.039
 9590SOL     OW29668   0.361   4.283   2.447
 9590SOL    HW129669   0.403   4.357   2.499
 9590SOL    HW229670   0.301   4.321   2.377
 9591SOL     OW29671   2.902   5.856   0.546
 9591SOL    HW129672   2.978   5.834   0.485
 9591SOL    HW229673   2.857   5.771   0.574
 9592SOL     OW29674   4.052   5.283   2.839
 9592SOL    HW129675   4.104   5.201   2.863
 9592SOL    HW229676   4.097   5.330   2.762
 9593SOL     OW29677   4.889   1.895   4.809
 9593SOL    HW129678   4.909   1.983   4.767
 9593SOL    HW229679   4.973   1.840   4.812
 9594SOL     OW29680   6.615   6.384   2.924
 9594SOL    HW129681   6.548   6.311   2.934
 9594SOL    HW229682   6.572   6.472   2.947
 9595SOL     OW29683   2.175   5.439   5.093
 9595SOL    HW129684   2.243   5.371   5.065
 9595SOL    HW229685   2.153   5.426   5.189
 9596SOL     OW29686   0.390   4.631   6.474
 9596SOL    HW129687   0.330   4.687   6.531
 9596SOL    HW229688   0.351   4.539   6.466
 9597SOL     OW29689   0.241   3.863   1.700
 9597SOL    HW129690   0.162   3.903   1.654
 9597SOL    HW229691   0.293   3.807   1.635
 9598SOL     OW29692   0.404   4.085   5.405
 9598SOL    HW129693   0.361   4.016   5.347
 9598SOL    HW229694   0.502   4.070   5.407
 9599SOL     OW29695   3.650   0.536   5.054
 9599SOL    HW129696   3.566   0.485   5.037
 9599SOL    HW229697   3.726   0.472   5.065
 9600SOL     OW29698   1.517   6.968   6.006
 9600SOL    HW129699   1.554   0.001   5.929
 9600SOL    HW229700   1.418   6.968   6.002
 9601SOL     OW29701   6.178   3.965   6.527
 9601SOL    HW129702   6.255   3.916   6.486
 9601SOL    HW229703   6.117   3.899   6.572
 9602SOL     OW29704   6.697   4.973   6.373
 9602SOL    HW129705   6.735   4.927   6.454
 9602SOL    HW229706   6.722   5.069   6.374
 9603SOL     OW29707   2.502   6.805   4.290
 9603SOL    HW129708   2.455   6.721   4.318
 9603SOL    HW229709   2.442   6.884   4.306
 9604SOL     OW29710   4.876   0.882   7.016
 9604SOL    HW129711   4.867   0.969   6.968
 9604SOL    HW229712   4.964   0.878   0.043
 9605SOL     OW29713   1.208   5.158   5.703
 9605SOL    HW129714   1.240   5.065   5.679
 9605SOL    HW229715   1.141   5.152   5.777
 9606SOL     OW29716   0.919   0.108   4.125
 9606SOL    HW129717   0.961   0.185   4.173
 9606SOL    HW229718   0.958   0.022   4.159
 9607SOL     OW29719   1.028   1.193   1.849
 9607SOL    HW129720   1.120   1.188   1.890
 9607SOL    HW229721   0.960   1.203   1.922
 9608SOL     OW29722   6.819   0.058   2.828
 9608SOL    HW129723   6.874   0.079   2.747
 9608SOL    HW229724   6.760   6.999   2.809
 9609SOL     OW29725   1.187   3.871   4.645
 9609SOL    HW129726   1.107   3.929   4.658
 9609SOL    HW229727   1.232   3.856   4.733
 9610SOL     OW29728   1.109   3.320   5.951
 9610SOL    HW129729   1.073   3.408   5.982
 9610SOL    HW229730   1.192   3.334   5.897
 9611SOL     OW29731   6.865   6.859   1.542
 9611SOL    HW129732   6.904   6.847   1.633
 9611SOL    HW229733   6.909   6.937   1.497
 9612SOL     OW29734   6.604   2.718   0.566
 9612SOL    HW129735   6.595   2.639   0.626
 9612SOL    HW229736   6.516   2.738   0.524
 9613SOL     OW29737   5.736   6.405   4.531
 9613SOL    HW129738   5.663   6.469   4.508
 9613SOL    HW229739   5.794   6.390   4.451
 9614SOL     OW29740   4.181   3.435   1.905
 9614SOL    HW129741   4.192   3.363   1.837
 9614SOL    HW229742   4.200   3.398   1.996
 9615SOL     OW29743   2.094   5.299   3.322
 9615SOL    HW129744   2.171   5.358   3.301
 9615SOL    HW229745   2.122   5.231   3.390
 9616SOL     OW29746   4.177   2.919   1.318
 9616SOL    HW129747   4.165   2.836   1.264
 9616SOL    HW229748   4.104   2.984   1.295
 9617SOL     OW29749   1.013   3.628   3.422
 9617SOL    HW129750   0.953   3.637   3.343
 9617SOL    HW229751   1.040   3.719   3.454
 9618SOL     OW29752   3.709   0.746   6.695
 9618SOL    HW129753   3.768   0.819   6.660
 9618SOL    HW229754   3.632   0.732   6.633
 9619SOL     OW29755   1.085   6.185   0.933
 9619SOL    HW129756   1.025   6.182   0.854
 9619SOL    HW229757   1.032   6.171   1.016
 9620SOL     OW29758   4.185   1.337   6.899
 9620SOL    HW129759   4.107   1.305   6.845
 9620SOL    HW229760   4.252   1.380   6.840
 9621SOL     OW29761   1.671   0.745   1.911
 9621SOL    HW129762   1.572   0.757   1.911
 9621SOL    HW229763   1.715   0.833   1.892
 9622SOL     OW29764   6.637   0.711   6.521
 9622SOL    HW129765   6.642   0.799   6.568
 9622SOL    HW229766   6.680   0.641   6.578
 9623SOL     OW29767   4.776   5.512   7.001
 9623SOL    HW129768   4.841   5.436   7.000
 9623SOL    HW229769   4.773   5.555   6.911
 9624SOL     OW29770   4.867   5.197   5.623
 9624SOL    HW129771   4.876   5.240   5.533
 9624SOL    HW229772   4.957   5.191   5.666
 9625SOL     OW29773   5.019   4.355   6.760
 9625SOL    HW129774   4.944   4.340   6.824
 9625SOL    HW229775   4.991   4.421   6.690
 9626SOL     OW29776   1.775   4.976   4.510
 9626SOL    HW129777   1.837   5.054   4.500
 9626SOL    HW229778   1.807   4.900   4.453
 9627SOL     OW29779   1.115   4.612   4.818
 9627SOL    HW129780   1.191   4.620   4.753
 9627SOL    HW229781   1.116   4.520   4.859
 9628SOL     OW29782   6.163   4.130   0.675
 9628SOL    HW129783   6.239   4.116   0.612
 9628SOL    HW229784   6.162   4.057   0.743
 9629SOL     OW29785   6.767   6.540   3.520
 9629SOL    HW129786   6.686   6.597   3.522
 9629SOL    HW229787   6.787   6.506   3.613
 9630SOL     OW29788   6.085   6.093   5.479
 9630SOL    HW129789   6.018   6.137   5.538
 9630SOL    HW229790   6.176   6.099   5.521
 9631SOL     OW29791   4.179   0.899   1.687
 9631SOL    HW129792   4.229   0.985   1.677
 9631SOL    HW229793   4.218   0.847   1.763
 9632SOL     OW29794   1.909   5.400   1.698
 9632SOL    HW129795   1.883   5.328   1.633
 9632SOL    HW229796   1.829   5.456   1.719
 9633SOL     OW29797   4.007   3.310   1.586
 9633SOL    HW129798   4.097   3.348   1.565
 9633SOL    HW229799   3.936   3.371   1.550
 9634SOL     OW29800   6.040   4.996   3.199
 9634SOL    HW129801   5.988   4.912   3.185
 9634SOL    HW229802   6.006   5.067   3.137
 9635SOL     OW29803   0.117   4.901   5.050
 9635SOL    HW129804   0.192   4.965   5.036
 9635SOL    HW229805   0.037   4.950   5.086
 9636SOL     OW29806   3.994   1.250   5.967
 9636SOL    HW129807   4.025   1.189   6.040
 9636SOL    HW229808   3.981   1.342   6.003
 9637SOL     OW29809   3.173   3.489   1.265
 9637SOL    HW129810   3.103   3.555   1.240
 9637SOL    HW229811   3.170   3.471   1.363
 9638SOL     OW29812   6.798   4.033   6.115
 9638SOL    HW129813   6.876   4.093   6.132
 9638SOL    HW229814   6.763   3.998   6.201
 9639SOL     OW29815   4.602   2.729   1.816
 9639SOL    HW129816   4.613   2.828   1.817
 9639SOL    HW229817   4.572   2.699   1.726
 9640SOL     OW29818   3.675   1.207   1.993
 9640SOL    HW129819   3.744   1.135   1.985
 9640SOL    HW229820   3.619   1.189   2.074
 9641SOL     OW29821   4.865   5.966   2.761
 9641SOL    HW129822   4.929   5.967   2.837
 9641SOL    HW229823   4.899   6.023   2.687
 9642SOL     OW29824   1.219   0.322   4.002
 9642SOL    HW129825   1.293   0.325   4.068
 9642SOL    HW229826   1.204   0.228   3.971
 9643SOL     OW29827   4.767   4.207   3.603
 9643SOL    HW129828   4.863   4.210   3.631
 9643SOL    HW229829   4.726   4.297   3.615
 9644SOL     OW29830   1.913   6.219   5.266
 9644SOL    HW129831   1.918   6.311   5.304
 9644SOL    HW229832   1.941   6.153   5.336
 9645SOL     OW29833   1.074   4.285   5.234
 9645SOL    HW129834   0.995   4.331   5.193
 9645SOL    HW229835   1.043   4.225   5.308
 9646SOL     OW29836   2.209   6.258   3.133
 9646SOL    HW129837   2.217   6.304   3.221
 9646SOL    HW229838   2.236   6.163   3.142
 9647SOL     OW29839   6.864   6.501   2.875
 9647SOL    HW129840   6.788   6.451   2.915
 9647SOL    HW229841   6.887   6.579   2.933
 9648SOL     OW29842   5.341   3.093   1.045
 9648SOL    HW129843   5.264   3.129   1.096
 9648SOL    HW229844   5.327   2.996   1.027
 9649SOL     OW29845   2.509   3.887   6.493
 9649SOL    HW129846   2.544   3.832   6.569
 9649SOL    HW229847   2.476   3.827   6.420
 9650SOL     OW29848   5.552   5.051   3.452
 9650SOL    HW129849   5.475   4.996   3.420
 9650SOL    HW229850   5.518   5.140   3.483
 9651SOL     OW29851   3.935   1.715   1.438
 9651SOL    HW129852   3.974   1.631   1.476
 9651SOL    HW229853   3.843   1.729   1.474
 9652SOL     OW29854   0.797   4.790   1.255
 9652SOL    HW129855   0.703   4.755   1.256
 9652SOL    HW229856   0.814   4.839   1.169
 9653SOL     OW29857   4.565   4.390   5.769
 9653SOL    HW129858   4.591   4.350   5.681
 9653SOL    HW229859   4.577   4.323   5.842
 9654SOL     OW29860   3.398   3.417   2.462
 9654SOL    HW129861   3.321   3.426   2.399
 9654SOL    HW229862   3.473   3.475   2.431
 9655SOL     OW29863   0.368   1.890   0.489
 9655SOL    HW129864   0.429   1.822   0.530
 9655SOL    HW229865   0.293   1.843   0.443
 9656SOL     OW29866   4.471   2.133   0.745
 9656SOL    HW129867   4.489   2.205   0.677
 9656SOL    HW229868   4.522   2.155   0.829
 9657SOL     OW29869   5.261   4.213   3.829
 9657SOL    HW129870   5.322   4.138   3.801
 9657SOL    HW229871   5.316   4.290   3.861
 9658SOL     OW29872   5.747   2.084   2.235
 9658SOL    HW129873   5.662   2.038   2.207
 9658SOL    HW229874   5.732   2.183   2.238
 9659SOL     OW29875   1.643   2.185   0.140
 9659SOL    HW129876   1.619   2.257   0.206
 9659SOL    HW229877   1.742   2.183   0.128
 9660SOL     OW29878   0.564   0.367   1.372
 9660SOL    HW129879   0.561   0.431   1.296
 9660SOL    HW229880   0.644   0.387   1.429
 9661SOL     OW29881   4.178   5.798   1.377
 9661SOL    HW129882   4.122   5.723   1.340
 9661SOL    HW229883   4.256   5.760   1.426
 9662SOL     OW29884   5.052   3.677   0.648
 9662SOL    HW129885   5.018   3.592   0.689
 9662SOL    HW229886   5.152   3.676   0.648
 9663SOL     OW29887   0.228   4.554   2.825
 9663SOL    HW129888   0.269   4.473   2.868
 9663SOL    HW229889   0.240   4.548   2.726
 9664SOL     OW29890   5.295   3.974   5.072
 9664SOL    HW129891   5.226   4.020   5.128
 9664SOL    HW229892   5.353   3.918   5.131
 9665SOL     OW29893   6.353   6.092   5.558
 9665SOL    HW129894   6.361   6.180   5.603
 9665SOL    HW229895   6.432   6.077   5.498
 9666SOL     OW29896   6.037   4.145   2.004
 9666SOL    HW129897   6.086   4.225   1.971
 9666SOL    HW229898   6.090   4.102   2.077
 9667SOL     OW29899   4.047   4.125   0.938
 9667SOL    HW129900   4.116   4.122   1.010
 9667SOL    HW229901   4.077   4.186   0.865
 9668SOL     OW29902   1.311   1.102   6.117
 9668SOL    HW129903   1.233   1.162   6.133
 9668SOL    HW229904   1.308   1.067   6.023
 9669SOL     OW29905   2.250   6.583   1.169
 9669SOL    HW129906   2.228   6.506   1.109
 9669SOL    HW229907   2.257   6.551   1.263
 9670SOL     OW29908   0.340   5.382   5.503
 9670SOL    HW129909   0.255   5.330   5.507
 9670SOL    HW229910   0.320   5.475   5.470
 9671SOL     OW29911   6.796   4.929   0.496
 9671SOL    HW129912   6.727   4.861   0.470
 9671SOL    HW229913   6.799   5.001   0.427
 9672SOL     OW29914   1.703   4.518   3.322
 9672SOL    HW129915   1.736   4.473   3.405
 9672SOL    HW229916   1.735   4.467   3.242
 9673SOL     OW29917   3.654   3.868   1.172
 9673SOL    HW129918   3.721   3.880   1.245
 9673SOL    HW229919   3.685   3.917   1.090
 9674SOL     OW29920   3.902   6.152   3.099
 9674SOL    HW129921   3.863   6.213   3.167
 9674SOL    HW229922   3.912   6.060   3.138
 9675SOL     OW29923   4.838   3.118   6.687
 9675SOL    HW129924   4.870   3.037   6.637
 9675SOL    HW229925   4.769   3.165   6.632
 9676SOL     OW29926   1.189   3.322   5.366
 9676SOL    HW129927   1.238   3.277   5.292
 9676SOL    HW229928   1.192   3.265   5.448
 9677SOL     OW29929   6.813   5.190   6.246
 9677SOL    HW129930   6.817   5.266   6.311
 9677SOL    HW229931   6.743   5.208   6.177
 9678SOL     OW29932   3.248   3.819   4.150
 9678SOL    HW129933   3.297   3.876   4.084
 9678SOL    HW229934   3.169   3.869   4.186
 9679SOL     OW29935   2.778   0.884   4.368
 9679SOL    HW129936   2.834   0.962   4.397
 9679SOL    HW229937   2.788   0.809   4.433
 9680SOL     OW29938   4.481   0.078   5.678
 9680SOL    HW129939   4.383   0.076   5.699
 9680SOL    HW229940   4.533   0.095   5.761
 9681SOL     OW29941   3.390   2.007   0.704
 9681SOL    HW129942   3.309   2.028   0.649
 9681SOL    HW229943   3.400   2.075   0.776
 9682SOL     OW29944   4.728   4.229   3.979
 9682SOL    HW129945   4.699   4.175   4.058
 9682SOL    HW229946   4.649   4.279   3.943
 9683SOL     OW29947   3.313   6.060   0.612
 9683SOL    HW129948   3.337   6.149   0.650
 9683SOL    HW229949   3.277   6.002   0.685
 9684SOL     OW29950   0.271   3.915   5.240
 9684SOL    HW129951   0.245   3.829   5.197
 9684SOL    HW229952   0.262   3.990   5.174
 9685SOL     OW29953   4.753   3.541   0.586
 9685SOL    HW129954   4.757   3.638   0.611
 9685SOL    HW229955   4.828   3.493   0.630
 9686SOL     OW29956   0.986   2.700   6.736
 9686SOL    HW129957   1.013   2.758   6.658
 9686SOL    HW229958   1.066   2.652   6.770
 9687SOL     OW29959   6.491   0.999   2.111
 9687SOL    HW129960   6.397   0.973   2.135
 9687SOL    HW229961   6.525   1.064   2.179
 9688SOL     OW29962   0.878   3.201   0.582
 9688SOL    HW129963   0.884   3.129   0.512
 9688SOL    HW229964   0.841   3.284   0.540
 9689SOL     OW29965   0.717   4.137   6.578
 9689SOL    HW129966   0.722   4.054   6.634
 9689SOL    HW229967   0.675   4.210   6.631
 9690SOL     OW29968   4.608   6.361   5.723
 9690SOL    HW129969   4.585   6.296   5.650
 9690SOL    HW229970   4.554   6.444   5.712
 9691SOL     OW29971   3.073   3.996   2.014
 9691SOL    HW129972   3.122   3.914   1.982
 9691SOL    HW229973   3.013   4.029   1.941
 9692SOL     OW29974   4.825   6.089   1.085
 9692SOL    HW129975   4.741   6.079   1.032
 9692SOL    HW229976   4.864   5.999   1.103
 9693SOL     OW29977   5.729   4.243   3.470
 9693SOL    HW129978   5.667   4.201   3.537
 9693SOL    HW229979   5.702   4.215   3.378
 9694SOL     OW29980   3.583   0.961   2.158
 9694SOL    HW129981   3.494   0.997   2.186
 9694SOL    HW229982   3.633   0.930   2.239
 9695SOL     OW29983   6.914   2.885   3.319
 9695SOL    HW129984   6.902   2.984   3.312
 9695SOL    HW229985   6.824   2.841   3.316
 9696SOL     OW29986   6.185   2.687   1.883
 9696SOL    HW129987   6.117   2.662   1.815
 9696SOL    HW229988   6.249   2.753   1.843
 9697SOL     OW29989   0.313   6.336   0.606
 9697SOL    HW129990   0.377   6.301   0.675
 9697SOL    HW229991   0.359   6.342   0.518
 9698SOL     OW29992   5.047   2.866   6.128
 9698SOL    HW129993   5.144   2.885   6.143
 9698SOL    HW229994   4.993   2.905   6.203
 9699SOL     OW29995   0.410   5.364   0.185
 9699SOL    HW129996   0.446   5.455   0.203
 9699SOL    HW229997   0.421   5.307   0.267
 9700SOL     OW29998   6.472   5.455   4.724
 9700SOL    HW129999   6.484   5.367   4.770
 9700SOL    HW230000   6.456   5.526   4.792
 9701SOL     OW30001   4.583   3.966   5.602
 9701SOL    HW130002   4.494   3.947   5.644
 9701SOL    HW230003   4.656   3.936   5.663
 9702SOL     OW30004   4.336   2.263   0.049
 9702SOL    HW130005   4.301   2.186   7.015
 9702SOL    HW230006   4.434   2.271   0.036
 9703SOL     OW30007   4.851   3.833   4.091
 9703SOL    HW130008   4.823   3.880   4.007
 9703SOL    HW230009   4.884   3.741   4.068
 9704SOL     OW30010   3.606   5.717   2.443
 9704SOL    HW130011   3.559   5.639   2.485
 9704SOL    HW230012   3.538   5.783   2.411
 9705SOL     OW30013   5.536   4.556   5.880
 9705SOL    HW130014   5.519   4.653   5.864
 9705SOL    HW230015   5.550   4.540   5.977
 9706SOL     OW30016   2.859   2.125   1.524
 9706SOL    HW130017   2.800   2.057   1.568
 9706SOL    HW230018   2.813   2.163   1.444
 9707SOL     OW30019   5.351   5.164   2.268
 9707SOL    HW130020   5.251   5.168   2.261
 9707SOL    HW230021   5.378   5.124   2.355
 9708SOL     OW30022   0.866   1.540   3.099
 9708SOL    HW130023   0.880   1.513   3.003
 9708SOL    HW230024   0.796   1.482   3.140
 9709SOL     OW30025   5.525   4.754   2.111
 9709SOL    HW130026   5.534   4.655   2.108
 9709SOL    HW230027   5.478   4.781   2.195
 9710SOL     OW30028   6.305   0.973   1.078
 9710SOL    HW130029   6.378   0.937   1.137
 9710SOL    HW230030   6.345   1.036   1.012
 9711SOL     OW30031   3.887   5.480   6.446
 9711SOL    HW130032   3.851   5.441   6.362
 9711SOL    HW230033   3.814   5.528   6.495
 9712SOL     OW30034   5.841   3.277   0.207
 9712SOL    HW130035   5.806   3.210   0.141
 9712SOL    HW230036   5.771   3.295   0.276
 9713SOL     OW30037   2.675   5.144   3.433
 9713SOL    HW130038   2.590   5.093   3.443
 9713SOL    HW230039   2.732   5.128   3.513
 9714SOL     OW30040   4.096   6.460   6.347
 9714SOL    HW130041   4.102   6.537   6.411
 9714SOL    HW230042   4.005   6.458   6.306
 9715SOL     OW30043   5.809   4.101   0.147
 9715SOL    HW130044   5.780   4.008   0.122
 9715SOL    HW230045   5.729   4.155   0.175
 9716SOL     OW30046   3.806   4.509   0.060
 9716SOL    HW130047   3.738   4.444   0.024
 9716SOL    HW230048   3.805   4.591   0.004
 9717SOL     OW30049   4.862   6.226   6.568
 9717SOL    HW130050   4.922   6.240   6.646
 9717SOL    HW230051   4.901   6.270   6.487
 9718SOL     OW30052   4.961   2.933   1.247
 9718SOL    HW130053   5.051   2.903   1.278
 9718SOL    HW230054   4.968   2.970   1.155
 9719SOL     OW30055   5.426   6.738   5.976
 9719SOL    HW130056   5.463   6.714   6.066
 9719SOL    HW230057   5.342   6.790   5.988
 9720SOL     OW30058   1.103   3.667   2.362
 9720SOL    HW130059   1.152   3.583   2.341
 9720SOL    HW230060   1.034   3.685   2.292
 9721SOL     OW30061   6.957   0.904   6.709
 9721SOL    HW130062   6.917   0.928   6.621
 9721SOL    HW230063   6.926   0.970   6.778
 9722SOL     OW30064   3.293   0.559   5.277
 9722SOL    HW130065   3.282   0.586   5.182
 9722SOL    HW230066   3.260   0.631   5.337
 9723SOL     OW30067   4.578   5.791   4.262
 9723SOL    HW130068   4.666   5.757   4.230
 9723SOL    HW230069   4.515   5.714   4.275
 9724SOL     OW30070   1.359   4.526   0.363
 9724SOL    HW130071   1.419   4.561   0.435
 9724SOL    HW230072   1.352   4.594   0.290
 9725SOL     OW30073   3.787   6.757   6.391
 9725SOL    HW130074   3.874   6.706   6.390
 9725SOL    HW230075   3.799   6.842   6.441
 9726SOL     OW30076   4.833   1.726   4.360
 9726SOL    HW130077   4.854   1.629   4.344
 9726SOL    HW230078   4.759   1.733   4.426
 9727SOL     OW30079   1.168   1.884   6.429
 9727SOL    HW130080   1.101   1.959   6.434
 9727SOL    HW230081   1.244   1.904   6.491
 9728SOL     OW30082   0.535   1.700   4.979
 9728SOL    HW130083   0.603   1.626   4.977
 9728SOL    HW230084   0.460   1.675   5.040
 9729SOL     OW30085   1.239   4.597   3.743
 9729SOL    HW130086   1.330   4.573   3.708
 9729SOL    HW230087   1.239   4.693   3.773
 9730SOL     OW30088   1.053   4.538   3.556
 9730SOL    HW130089   1.118   4.575   3.622
 9730SOL    HW230090   1.046   4.439   3.568
 9731SOL     OW30091   4.974   5.329   1.560
 9731SOL    HW130092   4.982   5.427   1.575
 9731SOL    HW230093   5.065   5.291   1.542
 9732SOL     OW30094   1.328   3.806   2.259
 9732SOL    HW130095   1.270   3.758   2.324
 9732SOL    HW230096   1.318   3.904   2.271
 9733SOL     OW30097   5.337   5.510   0.003
 9733SOL    HW130098   5.347   5.566   0.086
 9733SOL    HW230099   5.246   5.523   6.984
 9734SOL     OW30100   6.712   0.149   0.404
 9734SOL    HW130101   6.655   0.185   0.478
 9734SOL    HW230102   6.659   0.143   0.320
 9735SOL     OW30103   1.694   3.173   3.523
 9735SOL    HW130104   1.663   3.114   3.598
 9735SOL    HW230105   1.756   3.121   3.464
 9736SOL     OW30106   5.653   2.051   6.138
 9736SOL    HW130107   5.609   1.963   6.122
 9736SOL    HW230108   5.723   2.067   6.067
 9737SOL     OW30109   5.131   2.332   2.936
 9737SOL    HW130110   5.186   2.272   2.993
 9737SOL    HW230111   5.184   2.361   2.856
 9738SOL     OW30112   1.787   6.518   0.907
 9738SOL    HW130113   1.798   6.589   0.976
 9738SOL    HW230114   1.813   6.553   0.817
 9739SOL     OW30115   5.209   5.570   0.594
 9739SOL    HW130116   5.147   5.620   0.534
 9739SOL    HW230117   5.193   5.472   0.585
 9740SOL     OW30118   0.333   1.297   2.989
 9740SOL    HW130119   0.425   1.323   2.959
 9740SOL    HW230120   0.305   1.356   3.065
 9741SOL     OW30121   2.436   0.926   3.167
 9741SOL    HW130122   2.414   1.023   3.158
 9741SOL    HW230123   2.522   0.907   3.120
 9742SOL     OW30124   4.372   1.240   0.572
 9742SOL    HW130125   4.366   1.170   0.500
 9742SOL    HW230126   4.403   1.326   0.532
 9743SOL     OW30127   6.585   4.239   2.941
 9743SOL    HW130128   6.607   4.203   3.032
 9743SOL    HW230129   6.607   4.336   2.937
 9744SOL     OW30130   1.637   0.143   2.395
 9744SOL    HW130131   1.596   0.110   2.480
 9744SOL    HW230132   1.604   0.235   2.375
 9745SOL     OW30133   4.375   3.147   6.359
 9745SOL    HW130134   4.357   3.189   6.448
 9745SOL    HW230135   4.437   3.069   6.370
 9746SOL     OW30136   5.386   6.587   5.735
 9746SOL    HW130137   5.394   6.638   5.821
 9746SOL    HW230138   5.462   6.611   5.675
 9747SOL     OW30139   3.054   2.132   1.975
 9747SOL    HW130140   3.103   2.151   1.890
 9747SOL    HW230141   2.989   2.206   1.992
 9748SOL     OW30142   6.820   6.462   3.765
 9748SOL    HW130143   6.753   6.448   3.838
 9748SOL    HW230144   6.909   6.483   3.805
 9749SOL     OW30145   0.545   1.022   3.841
 9749SOL    HW130146   0.629   0.968   3.845
 9749SOL    HW230147   0.498   1.018   3.929
 9750SOL     OW30148   5.632   5.365   3.452
 9750SOL    HW130149   5.539   5.401   3.455
 9750SOL    HW230150   5.681   5.390   3.536
 9751SOL     OW30151   2.179   6.878   1.154
 9751SOL    HW130152   2.113   6.931   1.207
 9751SOL    HW230153   2.198   6.792   1.201
 9752SOL     OW30154   4.652   1.542   5.287
 9752SOL    HW130155   4.636   1.519   5.191
 9752SOL    HW230156   4.686   1.461   5.335
 9753SOL     OW30157   0.832   5.254   5.746
 9753SOL    HW130158   0.829   5.321   5.672
 9753SOL    HW230159   0.759   5.275   5.812
 9754SOL     OW30160   2.617   0.979   0.412
 9754SOL    HW130161   2.628   1.030   0.497
 9754SOL    HW230162   2.587   0.885   0.433
 9755SOL     OW30163   2.956   3.897   4.217
 9755SOL    HW130164   2.873   3.952   4.209
 9755SOL    HW230165   2.952   3.843   4.301
 9756SOL     OW30166   6.007   2.611   6.300
 9756SOL    HW130167   6.066   2.685   6.332
 9756SOL    HW230168   5.914   2.626   6.333
 9757SOL     OW30169   6.075   4.474   4.845
 9757SOL    HW130170   6.164   4.475   4.890
 9757SOL    HW230171   6.084   4.510   4.752
 9758SOL     OW30172   1.925   1.501   0.497
 9758SOL    HW130173   1.907   1.451   0.582
 9758SOL    HW230174   1.876   1.457   0.422
 9759SOL     OW30175   1.456   1.092   0.462
 9759SOL    HW130176   1.444   1.184   0.500
 9759SOL    HW230177   1.551   1.081   0.431
 9760SOL     OW30178   4.827   3.112   5.388
 9760SOL    HW130179   4.765   3.190   5.388
 9760SOL    HW230180   4.848   3.086   5.483
 9761SOL     OW30181   0.810   2.497   1.759
 9761SOL    HW130182   0.811   2.597   1.760
 9761SOL    HW230183   0.818   2.464   1.665
 9762SOL     OW30184   3.634   1.824   4.959
 9762SOL    HW130185   3.543   1.788   4.976
 9762SOL    HW230186   3.664   1.796   4.867
 9763SOL     OW30187   5.231   1.172   3.572
 9763SOL    HW130188   5.213   1.271   3.567
 9763SOL    HW230189   5.158   1.123   3.525
 9764SOL     OW30190   6.627   2.511   2.659
 9764SOL    HW130191   6.586   2.543   2.574
 9764SOL    HW230192   6.724   2.535   2.659
 9765SOL     OW30193   6.454   6.193   3.002
 9765SOL    HW130194   6.499   6.126   3.061
 9765SOL    HW230195   6.401   6.256   3.059
 9766SOL     OW30196   2.262   6.212   1.865
 9766SOL    HW130197   2.172   6.232   1.827
 9766SOL    HW230198   2.252   6.169   1.955
 9767SOL     OW30199   2.433   2.533   5.760
 9767SOL    HW130200   2.461   2.590   5.683
 9767SOL    HW230201   2.334   2.534   5.768
 9768SOL     OW30202   4.699   1.404   1.750
 9768SOL    HW130203   4.699   1.310   1.715
 9768SOL    HW230204   4.604   1.435   1.759
 9769SOL     OW30205   3.389   1.391   4.423
 9769SOL    HW130206   3.412   1.342   4.507
 9769SOL    HW230207   3.473   1.416   4.374
 9770SOL     OW30208   3.724   0.834   5.594
 9770SOL    HW130209   3.707   0.919   5.644
 9770SOL    HW230210   3.642   0.778   5.595
 9771SOL     OW30211   2.512   5.766   0.977
 9771SOL    HW130212   2.556   5.830   1.040
 9771SOL    HW230213   2.572   5.688   0.962
 9772SOL     OW30214   1.675   6.109   1.967
 9772SOL    HW130215   1.723   6.180   1.916
 9772SOL    HW230216   1.697   6.118   2.064
 9773SOL     OW30217   4.775   5.666   3.647
 9773SOL    HW130218   4.852   5.611   3.616
 9773SOL    HW230219   4.689   5.620   3.624
 9774SOL     OW30220   0.127   4.926   2.816
 9774SOL    HW130221   0.031   4.934   2.789
 9774SOL    HW230222   0.183   4.979   2.752
 9775SOL     OW30223   3.434   0.132   3.776
 9775SOL    HW130224   3.435   0.033   3.795
 9775SOL    HW230225   3.506   0.177   3.829
 9776SOL     OW30226   0.951   5.130   5.932
 9776SOL    HW130227   0.919   5.167   5.845
 9776SOL    HW230228   0.895   5.167   6.006
 9777SOL     OW30229   6.207   5.213   0.866
 9777SOL    HW130230   6.262   5.226   0.948
 9777SOL    HW230231   6.140   5.140   0.881
 9778SOL     OW30232   0.235   1.449   4.668
 9778SOL    HW130233   0.285   1.434   4.753
 9778SOL    HW230234   0.197   1.541   4.668
 9779SOL     OW30235   0.303   1.631   3.777
 9779SOL    HW130236   0.382   1.581   3.742
 9779SOL    HW230237   0.219   1.595   3.735
 9780SOL     OW30238   2.185   2.146   0.307
 9780SOL    HW130239   2.214   2.110   0.395
 9780SOL    HW230240   2.261   2.141   0.242
 9781SOL     OW30241   1.966   2.855   4.643
 9781SOL    HW130242   1.909   2.848   4.561
 9781SOL    HW230243   1.996   2.763   4.670
 9782SOL     OW30244   0.532   1.992   0.195
 9782SOL    HW130245   0.543   1.944   0.108
 9782SOL    HW230246   0.445   2.040   0.196
 9783SOL     OW30247   4.380   2.364   3.042
 9783SOL    HW130248   4.334   2.309   2.973
 9783SOL    HW230249   4.351   2.333   3.133
 9784SOL     OW30250   3.809   0.944   6.234
 9784SOL    HW130251   3.834   0.851   6.259
 9784SOL    HW230252   3.819   1.003   6.315
 9785SOL     OW30253   0.111   2.202   5.510
 9785SOL    HW130254   0.177   2.181   5.583
 9785SOL    HW230255   0.021   2.219   5.551
 9786SOL     OW30256   2.359   3.680   0.389
 9786SOL    HW130257   2.452   3.648   0.403
 9786SOL    HW230258   2.314   3.623   0.320
 9787SOL     OW30259   3.404   2.875   2.597
 9787SOL    HW130260   3.457   2.959   2.601
 9787SOL    HW230261   3.432   2.814   2.671
 9788SOL     OW30262   0.654   6.616   2.610
 9788SOL    HW130263   0.731   6.672   2.641
 9788SOL    HW230264   0.604   6.665   2.539
 9789SOL     OW30265   1.507   5.915   0.177
 9789SOL    HW130266   1.568   5.886   0.251
 9789SOL    HW230267   1.436   5.846   0.164
 9790SOL     OW30268   6.236   4.436   6.341
 9790SOL    HW130269   6.252   4.340   6.366
 9790SOL    HW230270   6.321   4.476   6.307
 9791SOL     OW30271   0.724   6.734   6.528
 9791SOL    HW130272   0.786   6.788   6.584
 9791SOL    HW230273   0.776   6.687   6.456
 9792SOL     OW30274   2.890   4.517   0.581
 9792SOL    HW130275   2.811   4.539   0.639
 9792SOL    HW230276   2.874   4.430   0.534
 9793SOL     OW30277   4.246   0.539   2.508
 9793SOL    HW130278   4.268   0.455   2.459
 9793SOL    HW230279   4.206   0.516   2.597
 9794SOL     OW30280   6.403   4.165   6.188
 9794SOL    HW130281   6.377   4.147   6.283
 9794SOL    HW230282   6.341   4.233   6.149
 9795SOL     OW30283   1.455   2.101   4.745
 9795SOL    HW130284   1.475   2.199   4.746
 9795SOL    HW230285   1.445   2.069   4.839
 9796SOL     OW30286   4.027   3.633   2.411
 9796SOL    HW130287   4.067   3.680   2.489
 9796SOL    HW230288   4.085   3.556   2.385
 9797SOL     OW30289   2.148   5.719   0.230
 9797SOL    HW130290   2.085   5.714   0.153
 9797SOL    HW230291   2.240   5.696   0.198
 9798SOL     OW30292   2.730   1.024   2.484
 9798SOL    HW130293   2.761   1.112   2.449
 9798SOL    HW230294   2.719   0.960   2.408
 9799SOL     OW30295   3.026   4.430   5.859
 9799SOL    HW130296   2.935   4.400   5.887
 9799SOL    HW230297   3.074   4.471   5.936
 9800SOL     OW30298   4.857   5.167   5.209
 9800SOL    HW130299   4.896   5.159   5.117
 9800SOL    HW230300   4.866   5.261   5.241
 9801SOL     OW30301   4.549   4.311   6.813
 9801SOL    HW130302   4.497   4.267   6.887
 9801SOL    HW230303   4.505   4.396   6.787
 9802SOL     OW30304   6.097   4.679   0.841
 9802SOL    HW130305   6.024   4.681   0.773
 9802SOL    HW230306   6.086   4.600   0.901
 9803SOL     OW30307   2.119   2.819   6.281
 9803SOL    HW130308   2.110   2.881   6.204
 9803SOL    HW230309   2.045   2.752   6.280
 9804SOL     OW30310   0.763   6.434   2.902
 9804SOL    HW130311   0.737   6.494   2.978
 9804SOL    HW230312   0.794   6.346   2.938
 9805SOL     OW30313   0.458   6.717   2.438
 9805SOL    HW130314   0.493   6.708   2.345
 9805SOL    HW230315   0.467   6.812   2.467
 9806SOL     OW30316   1.351   1.865   6.672
 9806SOL    HW130317   1.438   1.814   6.674
 9806SOL    HW230318   1.275   1.800   6.679
 9807SOL     OW30319   2.952   3.658   1.219
 9807SOL    HW130320   2.934   3.665   1.317
 9807SOL    HW230321   2.865   3.658   1.169
 9808SOL     OW30322   4.115   6.091   5.200
 9808SOL    HW130323   4.127   6.187   5.227
 9808SOL    HW230324   4.030   6.081   5.148
 9809SOL     OW30325   0.860   3.405   6.762
 9809SOL    HW130326   0.844   3.421   6.664
 9809SOL    HW230327   0.953   3.432   6.785
 9810SOL     OW30328   3.199   2.079   4.760
 9810SOL    HW130329   3.185   2.118   4.669
 9810SOL    HW230330   3.126   2.110   4.821
 9811SOL     OW30331   5.661   4.838   3.707
 9811SOL    HW130332   5.619   4.887   3.630
 9811SOL    HW230333   5.611   4.753   3.723
 9812SOL     OW30334   3.615   1.526   5.221
 9812SOL    HW130335   3.594   1.491   5.129
 9812SOL    HW230336   3.628   1.449   5.283
 9813SOL     OW30337   4.919   1.964   0.842
 9813SOL    HW130338   4.998   1.904   0.833
 9813SOL    HW230339   4.950   2.059   0.838
 9814SOL     OW30340   6.992   0.107   6.501
 9814SOL    HW130341   7.019   0.126   6.595
 9814SOL    HW230342   0.053   0.086   6.446
 9815SOL     OW30343   4.874   3.274   4.661
 9815SOL    HW130344   4.878   3.201   4.729
 9815SOL    HW230345   4.859   3.361   4.707
 9816SOL     OW30346   0.550   0.921   5.729
 9816SOL    HW130347   0.511   0.944   5.640
 9816SOL    HW230348   0.479   0.885   5.788
 9817SOL     OW30349   1.984   6.632   3.240
 9817SOL    HW130350   1.948   6.556   3.294
 9817SOL    HW230351   1.932   6.641   3.156
 9818SOL     OW30352   6.720   0.840   4.003
 9818SOL    HW130353   6.735   0.935   3.975
 9818SOL    HW230354   6.646   0.836   4.069
 9819SOL     OW30355   5.249   3.684   3.659
 9819SOL    HW130356   5.236   3.645   3.568
 9819SOL    HW230357   5.345   3.676   3.686
 9820SOL     OW30358   3.085   3.076   6.889
 9820SOL    HW130359   3.065   3.105   6.795
 9820SOL    HW230360   3.161   3.130   6.925
 9821SOL     OW30361   5.763   1.414   6.379
 9821SOL    HW130362   5.766   1.351   6.301
 9821SOL    HW230363   5.670   1.447   6.392
 9822SOL     OW30364   1.856   0.456   3.295
 9822SOL    HW130365   1.815   0.495   3.212
 9822SOL    HW230366   1.913   0.378   3.269
 9823SOL     OW30367   2.494   0.535   0.090
 9823SOL    HW130368   2.427   0.609   0.084
 9823SOL    HW230369   2.580   0.571   0.127
 9824SOL     OW30370   2.268   4.823   4.838
 9824SOL    HW130371   2.250   4.893   4.907
 9824SOL    HW230372   2.354   4.844   4.792
 9825SOL     OW30373   4.185   5.117   6.073
 9825SOL    HW130374   4.088   5.091   6.068
 9825SOL    HW230375   4.218   5.138   5.981
 9826SOL     OW30376   5.267   5.324   6.155
 9826SOL    HW130377   5.276   5.282   6.245
 9826SOL    HW230378   5.259   5.423   6.166
 9827SOL     OW30379   2.129   3.596   3.876
 9827SOL    HW130380   2.064   3.654   3.826
 9827SOL    HW230381   2.174   3.534   3.811
 9828SOL     OW30382   2.653   2.983   6.147
 9828SOL    HW130383   2.691   3.066   6.106
 9828SOL    HW230384   2.597   3.008   6.226
 9829SOL     OW30385   3.882   5.428   0.143
 9829SOL    HW130386   3.943   5.490   0.093
 9829SOL    HW230387   3.819   5.385   0.078
 9830SOL     OW30388   6.133   2.759   2.139
 9830SOL    HW130389   6.158   2.717   2.052
 9830SOL    HW230390   6.213   2.760   2.199
 9831SOL     OW30391   2.202   5.274   0.966
 9831SOL    HW130392   2.260   5.333   0.909
 9831SOL    HW230393   2.219   5.179   0.943
 9832SOL     OW30394   4.909   5.626   2.898
 9832SOL    HW130395   4.828   5.598   2.949
 9832SOL    HW230396   4.886   5.635   2.801
 9833SOL     OW30397   3.693   3.800   5.188
 9833SOL    HW130398   3.729   3.711   5.157
 9833SOL    HW230399   3.722   3.871   5.124
 9834SOL     OW30400   3.117   4.561   5.400
 9834SOL    HW130401   3.049   4.532   5.332
 9834SOL    HW230402   3.208   4.559   5.359
 9835SOL     OW30403   3.431   3.019   5.666
 9835SOL    HW130404   3.346   3.073   5.664
 9835SOL    HW230405   3.428   2.949   5.595
 9836SOL     OW30406   6.092   4.553   3.957
 9836SOL    HW130407   6.169   4.499   3.991
 9836SOL    HW230408   6.113   4.586   3.864
 9837SOL     OW30409   3.240   0.004   3.049
 9837SOL    HW130410   3.334   6.992   3.035
 9837SOL    HW230411   3.231   0.097   3.015
 9838SOL     OW30412   1.504   6.944   6.397
 9838SOL    HW130413   1.417   6.972   6.358
 9838SOL    HW230414   1.576   6.954   6.329
 9839SOL     OW30415   5.738   1.027   3.612
 9839SOL    HW130416   5.680   1.108   3.618
 9839SOL    HW230417   5.824   1.043   3.661
 9840SOL     OW30418   6.994   1.738   1.095
 9840SOL    HW130419   0.061   1.766   1.054
 9840SOL    HW230420   6.951   1.816   1.141
 9841SOL     OW30421   1.810   4.115   4.588
 9841SOL    HW130422   1.761   4.056   4.525
 9841SOL    HW230423   1.852   4.060   4.660
 9842SOL     OW30424   4.093   3.360   2.331
 9842SOL    HW130425   4.066   3.291   2.398
 9842SOL    HW230426   4.179   3.333   2.288
 9843SOL     OW30427   5.345   0.825   1.217
 9843SOL    HW130428   5.334   0.830   1.316
 9843SOL    HW230429   5.310   0.737   1.184
 9844SOL     OW30430   6.035   0.994   2.015
 9844SOL    HW130431   5.957   0.933   2.000
 9844SOL    HW230432   6.049   1.050   1.933
 9845SOL     OW30433   2.842   2.238   4.047
 9845SOL    HW130434   2.809   2.313   4.103
 9845SOL    HW230435   2.816   2.253   3.951
 9846SOL     OW30436   3.903   3.326   1.830
 9846SOL    HW130437   3.935   3.309   1.737
 9846SOL    HW230438   3.873   3.239   1.870
 9847SOL     OW30439   3.599   2.910   4.173
 9847SOL    HW130440   3.514   2.857   4.174
 9847SOL    HW230441   3.598   2.975   4.248
 9848SOL     OW30442   3.314   3.316   5.419
 9848SOL    HW130443   3.267   3.284   5.501
 9848SOL    HW230444   3.249   3.367   5.362
 9849SOL     OW30445   0.717   6.969   6.996
 9849SOL    HW130446   0.750   6.993   0.068
 9849SOL    HW230447   0.623   6.999   6.986
 9850SOL     OW30448   5.751   0.161   3.782
 9850SOL    HW130449   5.684   0.232   3.803
 9850SOL    HW230450   5.756   0.147   3.684
 9851SOL     OW30451   5.154   0.711   4.939
 9851SOL    HW130452   5.124   0.796   4.895
 9851SOL    HW230453   5.196   0.651   4.871
 9852SOL     OW30454   4.095   1.820   2.689
 9852SOL    HW130455   4.167   1.786   2.629
 9852SOL    HW230456   4.016   1.758   2.686
 9853SOL     OW30457   5.021   4.202   4.789
 9853SOL    HW130458   4.925   4.191   4.815
 9853SOL    HW230459   5.076   4.221   4.871
 9854SOL     OW30460   0.275   6.131   4.481
 9854SOL    HW130461   0.304   6.039   4.507
 9854SOL    HW230462   0.219   6.127   4.399
 9855SOL     OW30463   2.399   2.713   0.763
 9855SOL    HW130464   2.341   2.669   0.832
 9855SOL    HW230465   2.473   2.650   0.737
 9856SOL     OW30466   5.045   4.738   5.254
 9856SOL    HW130467   5.013   4.644   5.251
 9856SOL    HW230468   5.037   4.773   5.348
 9857SOL     OW30469   4.597   2.504   3.485
 9857SOL    HW130470   4.633   2.517   3.393
 9857SOL    HW230471   4.559   2.412   3.494
 9858SOL     OW30472   0.173   1.078   0.465
 9858SOL    HW130473   0.126   0.992   0.445
 9858SOL    HW230474   0.263   1.078   0.422
 9859SOL     OW30475   6.534   0.037   1.925
 9859SOL    HW130476   6.451   0.090   1.906
 9859SOL    HW230477   6.516   6.959   1.913
 9860SOL     OW30478   0.931   1.433   3.699
 9860SOL    HW130479   0.841   1.464   3.727
 9860SOL    HW230480   0.945   1.455   3.602
 9861SOL     OW30481   3.316   0.129   3.282
 9861SOL    HW130482   3.276   0.135   3.191
 9861SOL    HW230483   3.250   0.091   3.346
 9862SOL     OW30484   3.862   3.854   0.254
 9862SOL    HW130485   3.762   3.843   0.251
 9862SOL    HW230486   3.888   3.887   0.345
 9863SOL     OW30487   3.070   0.249   2.554
 9863SOL    HW130488   3.098   0.336   2.513
 9863SOL    HW230489   3.137   0.178   2.530
 9864SOL     OW30490   3.846   6.704   4.054
 9864SOL    HW130491   3.832   6.687   3.957
 9864SOL    HW230492   3.863   6.617   4.101
 9865SOL     OW30493   1.354   1.252   4.273
 9865SOL    HW130494   1.329   1.270   4.368
 9865SOL    HW230495   1.364   1.153   4.259
 9866SOL     OW30496   4.627   4.914   6.379
 9866SOL    HW130497   4.542   4.941   6.333
 9866SOL    HW230498   4.635   4.814   6.377
 9867SOL     OW30499   6.133   1.235   0.637
 9867SOL    HW130500   6.089   1.211   0.724
 9867SOL    HW230501   6.087   1.189   0.562
 9868SOL     OW30502   0.551   3.657   6.240
 9868SOL    HW130503   0.558   3.559   6.260
 9868SOL    HW230504   0.572   3.709   6.323
 9869SOL     OW30505   1.843   3.228   2.239
 9869SOL    HW130506   1.800   3.238   2.329
 9869SOL    HW230507   1.779   3.186   2.176
 9870SOL     OW30508   3.823   5.590   2.282
 9870SOL    HW130509   3.907   5.599   2.335
 9870SOL    HW230510   3.744   5.608   2.341
 9871SOL     OW30511   0.442   5.757   5.727
 9871SOL    HW130512   0.354   5.723   5.695
 9871SOL    HW230513   0.477   5.698   5.799
 9872SOL     OW30514   2.066   4.952   4.187
 9872SOL    HW130515   2.078   5.009   4.106
 9872SOL    HW230516   1.988   4.890   4.173
 9873SOL     OW30517   2.648   2.471   6.929
 9873SOL    HW130518   2.566   2.527   6.916
 9873SOL    HW230519   2.668   2.463   0.006
 9874SOL     OW30520   0.092   3.383   5.098
 9874SOL    HW130521   0.167   3.317   5.103
 9874SOL    HW230522   0.099   3.435   5.012
 9875SOL     OW30523   6.372   5.849   1.983
 9875SOL    HW130524   6.471   5.849   1.967
 9875SOL    HW230525   6.341   5.755   1.997
 9876SOL     OW30526   6.520   0.338   2.866
 9876SOL    HW130527   6.420   0.338   2.860
 9876SOL    HW230528   6.553   0.432   2.871
 9877SOL     OW30529   6.939   6.240   4.051
 9877SOL    HW130530   6.867   6.177   4.021
 9877SOL    HW230531   6.898   6.316   4.100
 9878SOL     OW30532   2.606   4.727   5.057
 9878SOL    HW130533   2.689   4.684   5.022
 9878SOL    HW230534   2.627   4.821   5.085
 9879SOL     OW30535   5.634   5.532   4.928
 9879SOL    HW130536   5.646   5.435   4.909
 9879SOL    HW230537   5.584   5.575   4.853
 9880SOL     OW30538   3.345   0.827   5.984
 9880SOL    HW130539   3.264   0.782   6.021
 9880SOL    HW230540   3.368   0.787   5.895
 9881SOL     OW30541   0.735   0.888   4.820
 9881SOL    HW130542   0.679   0.861   4.741
 9881SOL    HW230543   0.704   0.977   4.854
 9882SOL     OW30544   1.294   3.773   3.696
 9882SOL    HW130545   1.259   3.835   3.625
 9882SOL    HW230546   1.248   3.685   3.689
 9883SOL     OW30547   1.266   6.701   0.289
 9883SOL    HW130548   1.223   6.778   0.337
 9883SOL    HW230549   1.342   6.735   0.234
 9884SOL     OW30550   5.289   2.294   2.025
 9884SOL    HW130551   5.202   2.264   2.063
 9884SOL    HW230552   5.279   2.383   1.982
 9885SOL     OW30553   6.505   2.344   4.850
 9885SOL    HW130554   6.428   2.280   4.856
 9885SOL    HW230555   6.508   2.399   4.933
 9886SOL     OW30556   1.106   4.646   2.935
 9886SOL    HW130557   1.070   4.686   2.851
 9886SOL    HW230558   1.172   4.710   2.977
 9887SOL     OW30559   4.276   0.492   6.328
 9887SOL    HW130560   4.294   0.525   6.235
 9887SOL    HW230561   4.181   0.512   6.352
 9888SOL     OW30562   5.404   4.684   3.120
 9888SOL    HW130563   5.437   4.772   3.087
 9888SOL    HW230564   5.307   4.691   3.142
 9889SOL     OW30565   6.508   5.059   1.750
 9889SOL    HW130566   6.408   5.062   1.751
 9889SOL    HW230567   6.544   5.137   1.802
 9890SOL     OW30568   1.535   2.284   0.405
 9890SOL    HW130569   1.621   2.313   0.446
 9890SOL    HW230570   1.512   2.192   0.436
 9891SOL     OW30571   5.012   3.551   2.056
 9891SOL    HW130572   5.006   3.616   2.132
 9891SOL    HW230573   4.942   3.572   1.988
 9892SOL     OW30574   0.553   4.666   1.203
 9892SOL    HW130575   0.621   4.596   1.181
 9892SOL    HW230576   0.466   4.643   1.158
 9893SOL     OW30577   0.699   0.677   1.378
 9893SOL    HW130578   0.628   0.645   1.315
 9893SOL    HW230579   0.789   0.669   1.333
 9894SOL     OW30580   3.460   2.610   0.238
 9894SOL    HW130581   3.374   2.586   0.281
 9894SOL    HW230582   3.534   2.557   0.279
 9895SOL     OW30583   5.830   4.920   4.954
 9895SOL    HW130584   5.880   4.865   5.021
 9895SOL    HW230585   5.732   4.906   4.966
 9896SOL     OW30586   6.125   1.081   6.834
 9896SOL    HW130587   6.031   1.094   6.803
 9896SOL    HW230588   6.160   1.167   6.872
 9897SOL     OW30589   5.365   6.476   2.478
 9897SOL    HW130590   5.296   6.535   2.520
 9897SOL    HW230591   5.451   6.485   2.528
 9898SOL     OW30592   1.616   5.343   4.938
 9898SOL    HW130593   1.519   5.334   4.918
 9898SOL    HW230594   1.647   5.261   4.988
 9899SOL     OW30595   1.698   6.068   0.600
 9899SOL    HW130596   1.772   6.108   0.655
 9899SOL    HW230597   1.636   6.017   0.661
 9900SOL     OW30598   1.818   2.428   3.174
 9900SOL    HW130599   1.778   2.500   3.116
 9900SOL    HW230600   1.745   2.383   3.226
 9901SOL     OW30601   3.115   0.446   6.793
 9901SOL    HW130602   3.176   0.429   6.870
 9901SOL    HW230603   3.026   0.477   6.826
 9902SOL     OW30604   3.494   4.920   1.570
 9902SOL    HW130605   3.516   4.965   1.657
 9902SOL    HW230606   3.486   4.821   1.584
 9903SOL     OW30607   5.852   2.468   2.003
 9903SOL    HW130608   5.772   2.409   2.014
 9903SOL    HW230609   5.935   2.418   2.029
 9904SOL     OW30610   0.760   3.699   6.959
 9904SOL    HW130611   0.672   3.726   6.919
 9904SOL    HW230612   0.828   3.770   6.940
 9905SOL     OW30613   1.913   0.750   5.931
 9905SOL    HW130614   1.824   0.796   5.932
 9905SOL    HW230615   1.980   0.807   5.883
 9906SOL     OW30616   1.877   3.496   0.845
 9906SOL    HW130617   1.852   3.431   0.916
 9906SOL    HW230618   1.900   3.585   0.886
 9907SOL     OW30619   1.098   0.201   1.178
 9907SOL    HW130620   1.166   0.213   1.251
 9907SOL    HW230621   1.054   0.289   1.159
 9908SOL     OW30622   6.345   1.478   5.429
 9908SOL    HW130623   6.336   1.459   5.527
 9908SOL    HW230624   6.256   1.508   5.393
 9909SOL     OW30625   4.621   1.232   3.130
 9909SOL    HW130626   4.588   1.321   3.163
 9909SOL    HW230627   4.668   1.244   3.043
 9910SOL     OW30628   1.546   4.841   1.854
 9910SOL    HW130629   1.582   4.752   1.824
 9910SOL    HW230630   1.480   4.827   1.928
 9911SOL     OW30631   3.182   6.160   2.279
 9911SOL    HW130632   3.271   6.195   2.250
 9911SOL    HW230633   3.118   6.164   2.202
 9912SOL     OW30634   3.732   0.629   1.012
 9912SOL    HW130635   3.774   0.717   0.987
 9912SOL    HW230636   3.635   0.630   0.986
 9913SOL     OW30637   6.560   3.955   0.757
 9913SOL    HW130638   6.481   3.894   0.760
 9913SOL    HW230639   6.579   3.989   0.849
 9914SOL     OW30640   5.972   1.017   4.713
 9914SOL    HW130641   5.931   0.988   4.626
 9914SOL    HW230642   5.981   1.117   4.713
 9915SOL     OW30643   6.469   0.975   3.808
 9915SOL    HW130644   6.375   1.005   3.788
 9915SOL    HW230645   6.491   0.897   3.750
 9916SOL     OW30646   2.031   2.802   3.012
 9916SOL    HW130647   2.118   2.838   2.979
 9916SOL    HW230648   1.984   2.873   3.064
 9917SOL     OW30649   4.275   3.727   6.315
 9917SOL    HW130650   4.261   3.804   6.254
 9917SOL    HW230651   4.267   3.758   6.410
 9918SOL     OW30652   1.940   1.939   3.137
 9918SOL    HW130653   1.928   1.918   3.040
 9918SOL    HW230654   1.956   2.037   3.148
 9919SOL     OW30655   0.947   5.167   0.997
 9919SOL    HW130656   0.993   5.217   0.924
 9919SOL    HW230657   0.992   5.186   1.084
 9920SOL     OW30658   5.118   0.716   2.259
 9920SOL    HW130659   5.126   0.742   2.355
 9920SOL    HW230660   5.053   0.640   2.251
 9921SOL     OW30661   4.041   6.264   4.730
 9921SOL    HW130662   4.095   6.223   4.656
 9921SOL    HW230663   4.095   6.262   4.815
 9922SOL     OW30664   2.582   4.201   0.424
 9922SOL    HW130665   2.548   4.294   0.437
 9922SOL    HW230666   2.520   4.137   0.469
 9923SOL     OW30667   5.855   4.613   0.137
 9923SOL    HW130668   5.911   4.693   0.160
 9923SOL    HW230669   5.760   4.629   0.165
 9924SOL     OW30670   5.951   1.834   3.197
 9924SOL    HW130671   5.866   1.839   3.249
 9924SOL    HW230672   5.999   1.921   3.202
 9925SOL     OW30673   0.264   5.021   4.236
 9925SOL    HW130674   0.186   5.084   4.236
 9925SOL    HW230675   0.269   4.975   4.325
 9926SOL     OW30676   4.381   3.033   1.436
 9926SOL    HW130677   4.329   2.962   1.388
 9926SOL    HW230678   4.413   2.998   1.524
 9927SOL     OW30679   1.586   0.139   0.666
 9927SOL    HW130680   1.638   0.207   0.614
 9927SOL    HW230681   1.542   0.183   0.744
 9928SOL     OW30682   5.164   5.029   2.991
 9928SOL    HW130683   5.153   4.979   2.906
 9928SOL    HW230684   5.117   4.980   3.065
 9929SOL     OW30685   3.107   4.078   4.780
 9929SOL    HW130686   3.090   4.173   4.808
 9929SOL    HW230687   3.054   4.016   4.838
 9930SOL     OW30688   6.975   6.564   5.494
 9930SOL    HW130689   0.051   6.534   5.485
 9930SOL    HW230690   6.942   6.595   5.405
 9931SOL     OW30691   0.492   5.802   4.151
 9931SOL    HW130692   0.569   5.803   4.088
 9931SOL    HW230693   0.460   5.708   4.163
 9932SOL     OW30694   2.727   3.622   6.199
 9932SOL    HW130695   2.779   3.553   6.150
 9932SOL    HW230696   2.766   3.635   6.290
 9933SOL     OW30697   1.547   0.152   3.812
 9933SOL    HW130698   1.496   0.235   3.790
 9933SOL    HW230699   1.498   0.100   3.881
 9934SOL     OW30700   6.166   2.294   5.797
 9934SOL    HW130701   6.211   2.380   5.821
 9934SOL    HW230702   6.202   2.220   5.854
 9935SOL     OW30703   2.748   6.718   0.867
 9935SOL    HW130704   2.722   6.622   0.879
 9935SOL    HW230705   2.687   6.775   0.922
 9936SOL     OW30706   6.531   4.706   0.801
 9936SOL    HW130707   6.505   4.792   0.757
 9936SOL    HW230708   6.469   4.633   0.773
 9937SOL     OW30709   0.464   1.996   1.498
 9937SOL    HW130710   0.364   1.997   1.500
 9937SOL    HW230711   0.496   1.909   1.460
 9938SOL     OW30712   6.068   5.324   3.967
 9938SOL    HW130713   6.045   5.258   4.038
 9938SOL    HW230714   6.146   5.379   3.997
 9939SOL     OW30715   4.797   2.703   1.277
 9939SOL    HW130716   4.709   2.715   1.230
 9939SOL    HW230717   4.861   2.774   1.247
 9940SOL     OW30718   1.027   1.067   1.604
 9940SOL    HW130719   0.929   1.045   1.605
 9940SOL    HW230720   1.053   1.108   1.692
 9941SOL     OW30721   3.376   2.931   4.794
 9941SOL    HW130722   3.330   2.955   4.708
 9941SOL    HW230723   3.355   2.836   4.817
 9942SOL     OW30724   2.480   5.450   2.830
 9942SOL    HW130725   2.506   5.353   2.834
 9942SOL    HW230726   2.534   5.496   2.760
 9943SOL     OW30727   0.513   3.989   6.184
 9943SOL    HW130728   0.428   3.980   6.130
 9943SOL    HW230729   0.545   4.083   6.180
 9944SOL     OW30730   0.904   4.309   6.468
 9944SOL    HW130731   0.830   4.371   6.441
 9944SOL    HW230732   0.866   4.217   6.483
 9945SOL     OW30733   4.780   5.866   6.829
 9945SOL    HW130734   4.817   5.928   6.898
 9945SOL    HW230735   4.789   5.908   6.738
 9946SOL     OW30736   5.746   0.855   3.392
 9946SOL    HW130737   5.743   0.891   3.486
 9946SOL    HW230738   5.840   0.857   3.359
 9947SOL     OW30739   2.971   2.201   4.886
 9947SOL    HW130740   2.891   2.257   4.905
 9947SOL    HW230741   3.045   2.226   4.949
 9948SOL     OW30742   6.059   4.652   6.156
 9948SOL    HW130743   6.120   4.576   6.182
 9948SOL    HW230744   6.096   4.738   6.191
 9949SOL     OW30745   6.277   4.863   3.910
 9949SOL    HW130746   6.304   4.779   3.862
 9949SOL    HW230747   6.264   4.936   3.843
 9950SOL     OW30748   5.718   6.197   5.646
 9950SOL    HW130749   5.660   6.141   5.706
 9950SOL    HW230750   5.803   6.220   5.694
 9951SOL     OW30751   1.021   1.850   3.968
 9951SOL    HW130752   0.987   1.939   3.998
 9951SOL    HW230753   0.990   1.779   4.030
 9952SOL     OW30754   1.106   4.621   0.383
 9952SOL    HW130755   1.078   4.624   0.287
 9952SOL    HW230756   1.199   4.586   0.389
 9953SOL     OW30757   5.852   2.238   5.027
 9953SOL    HW130758   5.784   2.199   4.964
 9953SOL    HW230759   5.897   2.164   5.078
 9954SOL     OW30760   0.674   0.750   5.921
 9954SOL    HW130761   0.632   0.820   5.862
 9954SOL    HW230762   0.620   0.740   6.004
 9955SOL     OW30763   5.706   3.779   5.970
 9955SOL    HW130764   5.797   3.747   5.996
 9955SOL    HW230765   5.644   3.773   6.049
 9956SOL     OW30766   0.144   5.817   2.807
 9956SOL    HW130767   0.127   5.908   2.770
 9956SOL    HW230768   0.171   5.825   2.903
 9957SOL     OW30769   5.708   6.640   2.009
 9957SOL    HW130770   5.701   6.731   1.968
 9957SOL    HW230771   5.682   6.570   1.942
 9958SOL     OW30772   2.144   5.245   6.827
 9958SOL    HW130773   2.190   5.164   6.791
 9958SOL    HW230774   2.202   5.288   6.896
 9959SOL     OW30775   4.097   3.522   4.536
 9959SOL    HW130776   4.004   3.488   4.524
 9959SOL    HW230777   4.132   3.555   4.449
 9960SOL     OW30778   0.100   0.269   2.237
 9960SOL    HW130779   0.170   0.247   2.169
 9960SOL    HW230780   0.017   0.300   2.190
 9961SOL     OW30781   1.790   6.073   4.354
 9961SOL    HW130782   1.742   6.131   4.420
 9961SOL    HW230783   1.872   6.035   4.398
 9962SOL     OW30784   4.923   6.977   1.819
 9962SOL    HW130785   4.896   6.893   1.772
 9962SOL    HW230786   4.974   0.016   1.756
 9963SOL     OW30787   2.518   3.093   6.397
 9963SOL    HW130788   2.566   3.053   6.475
 9963SOL    HW230789   2.421   3.070   6.402
 9964SOL     OW30790   4.616   3.643   5.703
 9964SOL    HW130791   4.640   3.728   5.750
 9964SOL    HW230792   4.672   3.633   5.620
 9965SOL     OW30793   3.591   5.338   6.616
 9965SOL    HW130794   3.620   5.424   6.658
 9965SOL    HW230795   3.596   5.347   6.516
 9966SOL     OW30796   2.426   5.353   1.971
 9966SOL    HW130797   2.401   5.377   1.877
 9966SOL    HW230798   2.422   5.435   2.029
 9967SOL     OW30799   5.996   6.872   2.410
 9967SOL    HW130800   5.973   6.776   2.394
 9967SOL    HW230801   5.912   6.924   2.423
 9968SOL     OW30802   3.267   3.558   6.934
 9968SOL    HW130803   3.193   3.578   6.869
 9968SOL    HW230804   3.352   3.598   6.899
 9969SOL     OW30805   2.095   2.947   3.911
 9969SOL    HW130806   2.080   2.876   3.843
 9969SOL    HW230807   2.171   2.921   3.971
 9970SOL     OW30808   5.290   3.786   2.854
 9970SOL    HW130809   5.353   3.855   2.891
 9970SOL    HW230810   5.197   3.807   2.883
 9971SOL     OW30811   2.685   3.835   0.289
 9971SOL    HW130812   2.727   3.769   0.351
 9971SOL    HW230813   2.610   3.881   0.335
 9972SOL     OW30814   3.806   4.452   1.020
 9972SOL    HW130815   3.735   4.517   1.047
 9972SOL    HW230816   3.800   4.371   1.077
 9973SOL     OW30817   3.933   2.130   4.311
 9973SOL    HW130818   3.834   2.139   4.323
 9973SOL    HW230819   3.952   2.048   4.257
 9974SOL     OW30820   6.357   3.835   3.654
 9974SOL    HW130821   6.414   3.766   3.610
 9974SOL    HW230822   6.405   3.923   3.653
 9975SOL     OW30823   6.902   4.564   0.373
 9975SOL    HW130824   6.848   4.499   0.425
 9975SOL    HW230825   6.967   4.611   0.434
 9976SOL     OW30826   0.620   5.694   5.477
 9976SOL    HW130827   0.616   5.725   5.382
 9976SOL    HW230828   0.559   5.750   5.532
 9977SOL     OW30829   7.012   5.377   5.987
 9977SOL    HW130830   0.049   5.458   5.974
 9977SOL    HW230831   7.000   5.331   5.899
 9978SOL     OW30832   6.337   3.005   3.294
 9978SOL    HW130833   6.316   2.907   3.289
 9978SOL    HW230834   6.384   3.024   3.380
 9979SOL     OW30835   6.443   4.687   5.755
 9979SOL    HW130836   6.396   4.650   5.835
 9979SOL    HW230837   6.535   4.649   5.751
 9980SOL     OW30838   1.930   2.072   6.185
 9980SOL    HW130839   1.898   2.027   6.102
 9980SOL    HW230840   1.982   2.007   6.240
 9981SOL     OW30841   2.957   1.900   1.831
 9981SOL    HW130842   3.009   1.985   1.833
 9981SOL    HW230843   2.940   1.870   1.925
 9982SOL     OW30844   0.520   1.047   3.272
 9982SOL    HW130845   0.620   1.044   3.275
 9982SOL    HW230846   0.483   1.038   3.365
 9983SOL     OW30847   0.847   2.867   3.516
 9983SOL    HW130848   0.858   2.938   3.447
 9983SOL    HW230849   0.838   2.778   3.471
 9984SOL     OW30850   2.042   1.170   0.034
 9984SOL    HW130851   2.064   1.137   0.126
 9984SOL    HW230852   2.048   1.094   6.989
 9985SOL     OW30853   2.343   0.928   1.893
 9985SOL    HW130854   2.420   0.955   1.952
 9985SOL    HW230855   2.334   0.994   1.819
 9986SOL     OW30856   4.491   4.142   6.581
 9986SOL    HW130857   4.521   4.171   6.672
 9986SOL    HW230858   4.546   4.188   6.511
 9987SOL     OW30859   6.128   2.071   3.394
 9987SOL    HW130860   6.112   2.169   3.379
 9987SOL    HW230861   6.162   2.029   3.310
 9988SOL     OW30862   0.423   5.900   4.563
 9988SOL    HW130863   0.424   5.810   4.520
 9988SOL    HW230864   0.514   5.920   4.600
 9989SOL     OW30865   5.995   4.110   3.896
 9989SOL    HW130866   6.086   4.150   3.902
 9989SOL    HW230867   5.952   4.136   3.810
 9990SOL     OW30868   2.773   6.476   2.188
 9990SOL    HW130869   2.742   6.463   2.094
 9990SOL    HW230870   2.835   6.554   2.192
 9991SOL     OW30871   1.910   3.142   4.158
 9991SOL    HW130872   1.835   3.086   4.122
 9991SOL    HW230873   1.873   3.229   4.190
 9992SOL     OW30874   4.955   4.432   0.636
 9992SOL    HW130875   5.047   4.423   0.599
 9992SOL    HW230876   4.915   4.518   0.605
 9993SOL     OW30877   3.833   0.471   1.906
 9993SOL    HW130878   3.736   0.444   1.902
 9993SOL    HW230879   3.839   0.569   1.921
 9994SOL     OW30880   6.997   4.698   3.895
 9994SOL    HW130881   6.971   4.653   3.809
 9994SOL    HW230882   0.032   4.779   3.875
 9995SOL     OW30883   3.898   1.083   3.227
 9995SOL    HW130884   3.828   1.070   3.157
 9995SOL    HW230885   3.988   1.090   3.184
 9996SOL     OW30886   2.557   3.296   1.768
 9996SOL    HW130887   2.494   3.372   1.782
 9996SOL    HW230888   2.639   3.309   1.825
 9997SOL     OW30889   3.598   1.621   1.010
 9997SOL    HW130890   3.689   1.647   0.976
 9997SOL    HW230891   3.555   1.700   1.054
 9998SOL     OW30892   5.915   4.127   1.035
 9998SOL    HW130893   5.835   4.185   1.053
 9998SOL    HW230894   5.941   4.078   1.118
 9999SOL     OW30895   6.546   2.641   5.245
 9999SOL    HW130896   6.447   2.653   5.243
 9999SOL    HW230897   6.580   2.657   5.338
10000SOL     OW30898   6.950   3.294   0.352
10000SOL    HW130899   6.936   3.389   0.380
10000SOL    HW230900   0.022   3.265   0.378
10001SOL     OW30901   4.859   0.525   1.927
10001SOL    HW130902   4.829   0.461   1.857
10001SOL    HW230903   4.959   0.526   1.932
10002SOL     OW30904   1.835   0.418   2.167
10002SOL    HW130905   1.854   0.321   2.151
10002SOL    HW230906   1.922   0.467   2.176
10003SOL     OW30907   3.450   1.646   3.848
10003SOL    HW130908   3.541   1.643   3.806
10003SOL    HW230909   3.444   1.724   3.911
10004SOL     OW30910   4.730   2.706   3.943
10004SOL    HW130911   4.764   2.616   3.973
10004SOL    HW230912   4.686   2.697   3.854
10005SOL     OW30913   4.209   0.656   3.623
10005SOL    HW130914   4.207   0.584   3.553
10005SOL    HW230915   4.201   0.615   3.714
10006SOL     OW30916   5.176   0.150   4.160
10006SOL    HW130917   5.261   0.169   4.112
10006SOL    HW230918   5.109   0.222   4.142
10007SOL     OW30919   0.759   5.598   4.726
10007SOL    HW130920   0.711   5.531   4.782
10007SOL    HW230921   0.857   5.581   4.730
10008SOL     OW30922   4.262   1.094   4.713
10008SOL    HW130923   4.309   1.085   4.801
10008SOL    HW230924   4.186   1.158   4.723
10009SOL     OW30925   2.017   3.935   1.730
10009SOL    HW130926   1.951   3.865   1.759
10009SOL    HW230927   2.107   3.914   1.769
10010SOL     OW30928   1.610   0.059   5.770
10010SOL    HW130929   1.542   7.016   5.731
10010SOL    HW230930   1.633   0.129   5.703
10011SOL     OW30931   5.860   1.467   4.398
10011SOL    HW130932   5.894   1.375   4.413
10011SOL    HW230933   5.935   1.527   4.371
10012SOL     OW30934   4.674   1.266   3.529
10012SOL    HW130935   4.727   1.203   3.586
10012SOL    HW230936   4.737   1.324   3.476
10013SOL     OW30937   0.922   1.635   3.445
10013SOL    HW130938   0.960   1.677   3.362
10013SOL    HW230939   0.824   1.620   3.432
10014SOL     OW30940   6.772   3.917   0.580
10014SOL    HW130941   6.692   3.937   0.637
10014SOL    HW230942   6.742   3.870   0.497
10015SOL     OW30943   1.644   3.675   0.276
10015SOL    HW130944   1.734   3.633   0.281
10015SOL    HW230945   1.633   3.742   0.349
10016SOL     OW30946   1.537   0.783   6.143
10016SOL    HW130947   1.461   0.821   6.196
10016SOL    HW230948   1.590   0.721   6.200
10017SOL     OW30949   2.861   2.153   2.944
10017SOL    HW130950   2.804   2.234   2.961
10017SOL    HW230951   2.805   2.082   2.900
10018SOL     OW30952   4.547   6.630   5.378
10018SOL    HW130953   4.628   6.632   5.320
10018SOL    HW230954   4.475   6.687   5.337
10019SOL     OW30955   6.871   2.295   2.900
10019SOL    HW130956   6.869   2.227   2.974
10019SOL    HW230957   6.877   2.248   2.812
10020SOL     OW30958   1.306   2.090   1.620
10020SOL    HW130959   1.301   2.130   1.711
10020SOL    HW230960   1.334   1.994   1.626
10021SOL     OW30961   0.312   2.754   1.409
10021SOL    HW130962   0.369   2.706   1.476
10021SOL    HW230963   0.232   2.697   1.387
10022SOL     OW30964   2.714   6.979   6.341
10022SOL    HW130965   2.770   0.004   6.272
10022SOL    HW230966   2.667   0.028   6.396
10023SOL     OW30967   1.160   5.124   6.754
10023SOL    HW130968   1.227   5.058   6.718
10023SOL    HW230969   1.208   5.195   6.805
10024SOL     OW30970   1.560   6.417   1.930
10024SOL    HW130971   1.484   6.399   1.867
10024SOL    HW230972   1.528   6.405   2.024
10025SOL     OW30973   1.883   1.312   1.021
10025SOL    HW130974   1.799   1.338   1.070
10025SOL    HW230975   1.963   1.342   1.074
10026SOL     OW30976   5.400   6.302   3.342
10026SOL    HW130977   5.331   6.284   3.413
10026SOL    HW230978   5.490   6.281   3.379
10027SOL     OW30979   6.232   3.915   5.086
10027SOL    HW130980   6.235   3.842   5.154
10027SOL    HW230981   6.315   3.970   5.092
10028SOL     OW30982   1.815   0.962   1.811
10028SOL    HW130983   1.878   0.941   1.737
10028SOL    HW230984   1.745   1.025   1.778
10029SOL     OW30985   4.629   1.977   4.744
10029SOL    HW130986   4.609   2.034   4.824
10029SOL    HW230987   4.702   1.913   4.767
10030SOL     OW30988   2.693   6.858   3.590
10030SOL    HW130989   2.729   6.819   3.505
10030SOL    HW230990   2.686   6.958   3.580
10031SOL     OW30991   6.342   5.232   4.876
10031SOL    HW130992   6.273   5.304   4.870
10031SOL    HW230993   6.307   5.158   4.935
10032SOL     OW30994   2.298   1.765   5.285
10032SOL    HW130995   2.273   1.847   5.234
10032SOL    HW230996   2.257   1.768   5.376
10033SOL     OW30997   5.576   2.529   4.315
10033SOL    HW130998   5.478   2.522   4.330
10033SOL    HW230999   5.624   2.521   4.402
10034SOL     OW31000   3.076   0.198   4.094
10034SOL    HW131001   3.066   0.135   4.172
10034SOL    HW231002   3.066   0.292   4.126
10035SOL     OW31003   6.278   4.165   1.713
10035SOL    HW131004   6.375   4.167   1.688
10035SOL    HW231005   6.222   4.190   1.634
10036SOL     OW31006   6.432   2.499   1.318
10036SOL    HW131007   6.491   2.575   1.288
10036SOL    HW231008   6.465   2.464   1.406
10037SOL     OW31009   6.827   1.457   0.524
10037SOL    HW131010   6.783   1.506   0.449
10037SOL    HW231011   6.773   1.375   0.545
10038SOL     OW31012   5.122   0.539   6.657
10038SOL    HW131013   5.155   0.608   6.593
10038SOL    HW231014   5.200   0.497   6.704
10039SOL     OW31015   3.073   0.722   3.520
10039SOL    HW131016   3.063   0.648   3.587
10039SOL    HW231017   3.110   0.685   3.435
10040SOL     OW31018   5.035   5.387   6.585
10040SOL    HW131019   5.088   5.303   6.597
10040SOL    HW231020   5.082   5.447   6.521
10041SOL     OW31021   4.325   5.704   6.946
10041SOL    HW131022   4.341   5.736   6.853
10041SOL    HW231023   4.402   5.649   6.976
10042SOL     OW31024   0.615   2.676   3.629
10042SOL    HW131025   0.632   2.621   3.547
10042SOL    HW231026   0.696   2.731   3.649
10043SOL     OW31027   6.601   1.082   4.862
10043SOL    HW131028   6.565   1.062   4.953
10043SOL    HW231029   6.525   1.087   4.797
10044SOL     OW31030   1.843   2.243   4.293
10044SOL    HW131031   1.808   2.219   4.383
10044SOL    HW231032   1.776   2.217   4.223
10045SOL     OW31033   4.219   0.353   2.028
10045SOL    HW131034   4.126   0.380   2.052
10045SOL    HW231035   4.285   0.402   2.085
10046SOL     OW31036   1.951   3.460   0.588
10046SOL    HW131037   1.925   3.460   0.684
10046SOL    HW231038   1.996   3.547   0.565
10047SOL     OW31039   0.752   3.120   4.466
10047SOL    HW131040   0.801   3.185   4.524
10047SOL    HW231041   0.660   3.106   4.502
10048SOL     OW31042   0.333   6.930   2.188
10048SOL    HW131043   0.389   6.896   2.113
10048SOL    HW231044   0.284   6.854   2.231
10049SOL     OW31045   1.993   1.443   5.726
10049SOL    HW131046   2.012   1.372   5.658
10049SOL    HW231047   1.917   1.413   5.784
10050SOL     OW31048   5.911   4.117   5.306
10050SOL    HW131049   5.971   4.144   5.230
10050SOL    HW231050   5.868   4.198   5.345
10051SOL     OW31051   0.476   4.305   4.655
10051SOL    HW131052   0.418   4.225   4.673
10051SOL    HW231053   0.568   4.287   4.689
10052SOL     OW31054   2.163   1.160   3.340
10052SOL    HW131055   2.236   1.177   3.274
10052SOL    HW231056   2.199   1.109   3.418
10053SOL     OW31057   4.211   5.801   4.420
10053SOL    HW131058   4.188   5.863   4.345
10053SOL    HW231059   4.241   5.713   4.383
10054SOL     OW31060   5.938   4.932   5.845
10054SOL    HW131061   5.860   4.983   5.811
10054SOL    HW231062   6.005   4.996   5.884
10055SOL     OW31063   6.348   1.756   5.284
10055SOL    HW131064   6.360   1.853   5.261
10055SOL    HW231065   6.271   1.747   5.347
10056SOL     OW31066   5.438   4.685   3.555
10056SOL    HW131067   5.416   4.588   3.551
10056SOL    HW231068   5.374   4.736   3.497
10057SOL     OW31069   5.429   4.244   5.075
10057SOL    HW131070   5.511   4.291   5.108
10057SOL    HW231071   5.421   4.154   5.118
10058SOL     OW31072   6.104   3.829   4.838
10058SOL    HW131073   6.122   3.875   4.925
10058SOL    HW231074   6.176   3.762   4.819
10059SOL     OW31075   6.843   1.450   0.064
10059SOL    HW131076   6.823   1.512   7.007
10059SOL    HW231077   6.816   1.495   0.150
10060SOL     OW31078   2.220   2.367   2.891
10060SOL    HW131079   2.151   2.435   2.918
10060SOL    HW231080   2.178   2.300   2.830
10061SOL     OW31081   4.575   0.996   3.867
10061SOL    HW131082   4.493   1.011   3.812
10061SOL    HW231083   4.625   1.083   3.877
10062SOL     OW31084   6.745   0.046   4.436
10062SOL    HW131085   6.721   6.977   4.397
10062SOL    HW231086   6.750   0.038   4.536
10063SOL     OW31087   3.183   1.286   4.778
10063SOL    HW131088   3.110   1.339   4.736
10063SOL    HW231089   3.242   1.347   4.831
10064SOL     OW31090   4.752   5.971   6.588
10064SOL    HW131091   4.774   6.057   6.543
10064SOL    HW231092   4.660   5.941   6.561
10065SOL     OW31093   2.105   1.354   1.168
10065SOL    HW131094   2.107   1.413   1.249
10065SOL    HW231095   2.175   1.283   1.177
10066SOL     OW31096   0.034   2.617   4.740
10066SOL    HW131097   0.111   2.679   4.752
10066SOL    HW231098   0.063   2.523   4.759
10067SOL     OW31099   0.156   2.894   6.568
10067SOL    HW131100   0.172   2.857   6.476
10067SOL    HW231101   0.138   2.818   6.631
10068SOL     OW31102   1.072   4.271   3.590
10068SOL    HW131103   1.106   4.199   3.650
10068SOL    HW231104   1.055   4.233   3.499
10069SOL     OW31105   3.112   4.932   1.616
10069SOL    HW131106   3.051   4.949   1.539
10069SOL    HW231107   3.112   5.012   1.677
10070SOL     OW31108   0.566   5.265   5.414
10070SOL    HW131109   0.583   5.195   5.483
10070SOL    HW231110   0.478   5.309   5.432
10071SOL     OW31111   1.007   0.184   3.857
10071SOL    HW131112   0.964   0.169   3.946
10071SOL    HW231113   1.082   0.119   3.844
10072SOL     OW31114   0.530   1.353   3.872
10072SOL    HW131115   0.446   1.362   3.926
10072SOL    HW231116   0.549   1.256   3.856
10073SOL     OW31117   6.915   4.092   3.955
10073SOL    HW131118   6.974   4.022   3.916
10073SOL    HW231119   6.936   4.181   3.915
10074SOL     OW31120   1.699   6.145   0.256
10074SOL    HW131121   1.603   6.127   0.280
10074SOL    HW231122   1.750   6.059   0.257
10075SOL     OW31123   1.867   0.714   2.635
10075SOL    HW131124   1.770   0.711   2.660
10075SOL    HW231125   1.908   0.798   2.672
10076SOL     OW31126   5.161   5.650   3.135
10076SOL    HW131127   5.169   5.741   3.177
10076SOL    HW231128   5.099   5.655   3.058
10077SOL     OW31129   5.242   2.852   1.281
10077SOL    HW131130   5.251   2.782   1.352
10077SOL    HW231131   5.287   2.820   1.198
10078SOL     OW31132   0.468   6.228   4.663
10078SOL    HW131133   0.437   6.204   4.571
10078SOL    HW231134   0.388   6.245   4.722
10079SOL     OW31135   5.607   2.194   2.580
10079SOL    HW131136   5.669   2.264   2.616
10079SOL    HW231137   5.658   2.135   2.517
10080SOL     OW31138   4.869   0.965   6.315
10080SOL    HW131139   4.790   1.024   6.334
10080SOL    HW231140   4.853   0.915   6.229
10081SOL     OW31141   0.314   1.351   7.011
10081SOL    HW131142   0.348   1.444   7.006
10081SOL    HW231143   0.346   1.299   6.932
10082SOL     OW31144   0.883   5.757   3.044
10082SOL    HW131145   0.981   5.763   3.026
10082SOL    HW231146   0.863   5.670   3.089
10083SOL     OW31147   3.367   6.877   3.771
10083SOL    HW131148   3.340   6.780   3.776
10083SOL    HW231149   3.322   6.920   3.693
10084SOL     OW31150   0.051   6.869   5.234
10084SOL    HW131151   0.011   6.945   5.286
10084SOL    HW231152   6.998   6.819   5.187
10085SOL     OW31153   4.302   0.077   0.598
10085SOL    HW131154   4.311   6.999   0.613
10085SOL    HW231155   4.377   0.125   0.645
10086SOL     OW31156   5.725   6.679   3.339
10086SOL    HW131157   5.655   6.737   3.381
10086SOL    HW231158   5.732   6.699   3.242
10087SOL     OW31159   6.890   6.359   4.484
10087SOL    HW131160   6.846   6.403   4.562
10087SOL    HW231161   6.989   6.357   4.499
10088SOL     OW31162   6.633   0.739   1.039
10088SOL    HW131163   6.605   0.834   1.055
10088SOL    HW231164   6.680   0.704   1.120
10089SOL     OW31165   3.074   1.850   3.493
10089SOL    HW131166   3.052   1.844   3.395
10089SOL    HW231167   2.995   1.821   3.547
10090SOL     OW31168   0.509   4.723   2.077
10090SOL    HW131169   0.523   4.774   1.992
10090SOL    HW231170   0.549   4.774   2.154
10091SOL     OW31171   6.402   6.173   6.826
10091SOL    HW131172   6.368   6.163   6.919
10091SOL    HW231173   6.500   6.191   6.828
10092SOL     OW31174   1.197   3.015   5.162
10092SOL    HW131175   1.150   3.095   5.126
10092SOL    HW231176   1.296   3.028   5.155
10093SOL     OW31177   4.945   3.551   4.808
10093SOL    HW131178   5.029   3.504   4.835
10093SOL    HW231179   4.880   3.551   4.884
10094SOL     OW31180   2.232   6.830   0.628
10094SOL    HW131181   2.290   6.900   0.670
10094SOL    HW231182   2.279   6.742   0.629
10095SOL     OW31183   5.598   1.581   5.049
10095SOL    HW131184   5.666   1.615   4.985
10095SOL    HW231185   5.544   1.508   5.005
10096SOL     OW31186   5.083   0.601   2.721
10096SOL    HW131187   5.065   0.506   2.695
10096SOL    HW231188   5.063   0.661   2.643
10097SOL     OW31189   2.070   2.365   6.479
10097SOL    HW131190   2.151   2.353   6.536
10097SOL    HW231191   2.088   2.333   6.387
10098SOL     OW31192   2.812   6.542   4.556
10098SOL    HW131193   2.728   6.528   4.503
10098SOL    HW231194   2.871   6.462   4.548
10099SOL     OW31195   6.429   4.497   2.168
10099SOL    HW131196   6.350   4.459   2.215
10099SOL    HW231197   6.466   4.429   2.104
10100SOL     OW31198   5.581   5.459   5.746
10100SOL    HW131199   5.547   5.378   5.794
10100SOL    HW231200   5.516   5.484   5.674
10101SOL     OW31201   6.868   2.775   1.955
10101SOL    HW131202   6.817   2.803   1.873
10101SOL    HW231203   6.820   2.807   2.037
10102SOL     OW31204   5.842   0.620   0.836
10102SOL    HW131205   5.817   0.687   0.766
10102SOL    HW231206   5.894   0.666   0.908
10103SOL     OW31207   1.637   0.613   4.847
10103SOL    HW131208   1.556   0.661   4.880
10103SOL    HW231209   1.611   0.551   4.772
10104SOL     OW31210   2.262   1.206   5.780
10104SOL    HW131211   2.162   1.202   5.783
10104SOL    HW231212   2.296   1.137   5.716
10105SOL     OW31213   2.794   1.178   5.808
10105SOL    HW131214   2.872   1.200   5.866
10105SOL    HW231215   2.709   1.195   5.859
10106SOL     OW31216   3.919   6.119   1.504
10106SOL    HW131217   3.829   6.152   1.476
10106SOL    HW231218   3.936   6.029   1.464
10107SOL     OW31219   4.958   2.887   6.559
10107SOL    HW131220   4.971   2.831   6.641
10107SOL    HW231221   5.047   2.918   6.525
10108SOL     OW31222   1.328   2.720   0.942
10108SOL    HW131223   1.242   2.683   0.977
10108SOL    HW231224   1.319   2.738   0.844
10109SOL     OW31225   0.614   0.731   0.059
10109SOL    HW131226   0.550   0.790   0.011
10109SOL    HW231227   0.564   0.670   0.121
10110SOL     OW31228   4.867   4.882   2.922
10110SOL    HW131229   4.767   4.880   2.919
10110SOL    HW231230   4.898   4.862   3.015
10111SOL     OW31231   0.866   2.956   2.696
10111SOL    HW131232   0.914   2.963   2.609
10111SOL    HW231233   0.805   3.035   2.706
10112SOL     OW31234   6.557   3.671   3.299
10112SOL    HW131235   6.476   3.651   3.244
10112SOL    HW231236   6.619   3.594   3.296
10113SOL     OW31237   3.923   0.991   7.001
10113SOL    HW131238   3.976   0.969   6.919
10113SOL    HW231239   3.870   1.074   6.985
10114SOL     OW31240   3.758   1.988   3.040
10114SOL    HW131241   3.683   2.022   3.097
10114SOL    HW231242   3.781   2.057   2.972
10115SOL     OW31243   3.916   1.521   4.276
10115SOL    HW131244   3.894   1.602   4.331
10115SOL    HW231245   3.976   1.548   4.201
10116SOL     OW31246   6.420   0.166   5.608
10116SOL    HW131247   6.377   0.109   5.539
10116SOL    HW231248   6.350   0.215   5.660
10117SOL     OW31249   6.909   5.758   5.711
10117SOL    HW131250   6.867   5.712   5.633
10117SOL    HW231251   6.853   5.837   5.738
10118SOL     OW31252   2.631   4.613   4.232
10118SOL    HW131253   2.583   4.540   4.184
10118SOL    HW231254   2.619   4.602   4.331
10119SOL     OW31255   6.987   5.667   4.060
10119SOL    HW131256   0.051   5.621   4.031
10119SOL    HW231257   6.938   5.701   3.979
10120SOL     OW31258   1.391   3.206   3.430
10120SOL    HW131259   1.374   3.225   3.333
10120SOL    HW231260   1.489   3.190   3.444
10121SOL     OW31261   5.906   4.438   0.897
10121SOL    HW131262   5.958   4.483   0.970
10121SOL    HW231263   5.957   4.444   0.811
10122SOL     OW31264   6.373   2.167   3.836
10122SOL    HW131265   6.384   2.080   3.787
10122SOL    HW231266   6.345   2.238   3.772
10123SOL     OW31267   6.316   6.493   0.550
10123SOL    HW131268   6.254   6.462   0.479
10123SOL    HW231269   6.279   6.467   0.640
10124SOL     OW31270   2.030   5.015   1.829
10124SOL    HW131271   2.063   5.108   1.816
10124SOL    HW231272   1.931   5.012   1.815
10125SOL     OW31273   2.329   1.057   1.656
10125SOL    HW131274   2.306   1.018   1.567
10125SOL    HW231275   2.255   1.115   1.688
10126SOL     OW31276   6.180   6.772   6.128
10126SOL    HW131277   6.213   6.850   6.073
10126SOL    HW231278   6.230   6.690   6.102
10127SOL     OW31279   1.427   4.508   5.775
10127SOL    HW131280   1.429   4.608   5.772
10127SOL    HW231281   1.352   4.475   5.718
10128SOL     OW31282   2.603   0.649   6.704
10128SOL    HW131283   2.631   0.729   6.757
10128SOL    HW231284   2.570   0.578   6.766
10129SOL     OW31285   0.143   1.452   1.611
10129SOL    HW131286   0.053   1.467   1.653
10129SOL    HW231287   0.186   1.541   1.592
10130SOL     OW31288   1.097   2.694   1.527
10130SOL    HW131289   1.166   2.677   1.457
10130SOL    HW231290   1.008   2.664   1.495
10131SOL     OW31291   1.950   0.807   3.994
10131SOL    HW131292   2.019   0.849   4.053
10131SOL    HW231293   1.859   0.841   4.019
10132SOL     OW31294   0.500   0.658   2.271
10132SOL    HW131295   0.594   0.691   2.284
10132SOL    HW231296   0.436   0.734   2.278
10133SOL     OW31297   4.517   6.125   1.228
10133SOL    HW131298   4.581   6.049   1.241
10133SOL    HW231299   4.423   6.091   1.237
10134SOL     OW31300   0.144   0.983   2.800
10134SOL    HW131301   0.167   1.078   2.777
10134SOL    HW231302   0.110   0.979   2.894
10135SOL     OW31303   5.926   1.022   3.786
10135SOL    HW131304   5.918   1.120   3.802
10135SOL    HW231305   5.939   0.975   3.874
10136SOL     OW31306   4.686   2.694   2.518
10136SOL    HW131307   4.767   2.638   2.534
10136SOL    HW231308   4.632   2.699   2.602
10137SOL     OW31309   0.666   4.681   6.069
10137SOL    HW131310   0.624   4.633   5.992
10137SOL    HW231311   0.597   4.694   6.141
10138SOL     OW31312   5.658   1.923   0.106
10138SOL    HW131313   5.668   1.990   0.179
10138SOL    HW231314   5.659   1.970   0.018
10139SOL     OW31315   3.806   2.930   4.984
10139SOL    HW131316   3.842   2.866   5.052
10139SOL    HW231317   3.713   2.958   5.010
10140SOL     OW31318   6.531   6.650   6.131
10140SOL    HW131319   6.524   6.625   6.228
10140SOL    HW231320   6.614   6.609   6.092
10141SOL     OW31321   3.892   0.822   3.348
10141SOL    HW131322   3.953   0.860   3.418
10141SOL    HW231323   3.847   0.897   3.300
10142SOL     OW31324   5.776   6.716   4.856
10142SOL    HW131325   5.790   6.618   4.845
10142SOL    HW231326   5.811   6.764   4.775
10143SOL     OW31327   6.059   2.968   6.930
10143SOL    HW131328   6.061   2.983   0.009
10143SOL    HW231329   6.099   2.879   6.909
10144SOL     OW31330   4.128   0.178   5.498
10144SOL    HW131331   4.162   0.178   5.592
10144SOL    HW231332   4.095   0.270   5.475
10145SOL     OW31333   4.128   6.080   2.596
10145SOL    HW131334   4.101   6.162   2.646
10145SOL    HW231335   4.227   6.068   2.605
10146SOL     OW31336   6.863   4.238   4.664
10146SOL    HW131337   6.804   4.175   4.716
10146SOL    HW231338   6.810   4.318   4.637
10147SOL     OW31339   4.555   4.830   0.299
10147SOL    HW131340   4.490   4.895   0.340
10147SOL    HW231341   4.642   4.835   0.347
10148SOL     OW31342   6.690   4.661   1.456
10148SOL    HW131343   6.593   4.684   1.443
10148SOL    HW231344   6.703   4.563   1.443
10149SOL     OW31345   4.787   4.460   1.368
10149SOL    HW131346   4.802   4.558   1.366
10149SOL    HW231347   4.874   4.413   1.383
10150SOL     OW31348   5.201   3.385   1.952
10150SOL    HW131349   5.131   3.448   1.987
10150SOL    HW231350   5.230   3.324   2.026
10151SOL     OW31351   0.199   0.165   5.326
10151SOL    HW131352   0.220   0.248   5.377
10151SOL    HW231353   0.122   0.118   5.368
10152SOL     OW31354   5.822   5.759   3.350
10152SOL    HW131355   5.852   5.822   3.278
10152SOL    HW231356   5.812   5.667   3.311
10153SOL     OW31357   4.175   6.057   3.838
10153SOL    HW131358   4.266   6.095   3.818
10153SOL    HW231359   4.182   5.959   3.854
10154SOL     OW31360   4.305   5.158   5.827
10154SOL    HW131361   4.353   5.074   5.802
10154SOL    HW231362   4.372   5.228   5.852
10155SOL     OW31363   4.815   2.070   5.833
10155SOL    HW131364   4.741   2.110   5.779
10155SOL    HW231365   4.889   2.137   5.842
10156SOL     OW31366   4.363   0.369   1.029
10156SOL    HW131367   4.375   0.305   1.104
10156SOL    HW231368   4.299   0.441   1.056
10157SOL     OW31369   6.969   1.993   0.333
10157SOL    HW131370   6.978   1.898   0.301
10157SOL    HW231371   6.965   2.054   0.254
10158SOL     OW31372   6.031   6.592   2.347
10158SOL    HW131373   5.963   6.569   2.277
10158SOL    HW231374   6.068   6.508   2.387
10159SOL     OW31375   3.125   2.945   2.522
10159SOL    HW131376   3.221   2.919   2.531
10159SOL    HW231377   3.082   2.888   2.451
10160SOL     OW31378   2.472   4.509   2.806
10160SOL    HW131379   2.471   4.415   2.773
10160SOL    HW231380   2.542   4.561   2.756
10161SOL     OW31381   3.789   4.697   6.711
10161SOL    HW131382   3.795   4.745   6.798
10161SOL    HW231383   3.781   4.763   6.637
10162SOL     OW31384   1.777   4.601   1.945
10162SOL    HW131385   1.691   4.554   1.929
10162SOL    HW231386   1.767   4.664   2.022
10163SOL     OW31387   0.982   5.970   5.727
10163SOL    HW131388   0.948   5.948   5.636
10163SOL    HW231389   1.069   6.020   5.719
10164SOL     OW31390   6.618   3.373   3.542
10164SOL    HW131391   6.663   3.317   3.612
10164SOL    HW231392   6.522   3.346   3.534
10165SOL     OW31393   5.389   2.781   3.773
10165SOL    HW131394   5.381   2.796   3.871
10165SOL    HW231395   5.367   2.866   3.724
10166SOL     OW31396   1.560   2.682   1.142
10166SOL    HW131397   1.557   2.607   1.209
10166SOL    HW231398   1.488   2.669   1.075
10167SOL     OW31399   7.003   4.931   6.993
10167SOL    HW131400   6.928   4.994   7.011
10167SOL    HW231401   7.017   4.872   0.053
10168SOL     OW31402   5.761   1.210   6.215
10168SOL    HW131403   5.795   1.116   6.209
10168SOL    HW231404   5.664   1.212   6.189
10169SOL     OW31405   0.044   3.923   2.646
10169SOL    HW131406   0.129   3.915   2.594
10169SOL    HW231407   7.000   3.982   2.596
10170SOL     OW31408   6.688   5.583   6.583
10170SOL    HW131409   6.698   5.656   6.651
10170SOL    HW231410   6.619   5.517   6.615
10171SOL     OW31411   1.019   3.014   5.540
10171SOL    HW131412   1.019   2.925   5.494
10171SOL    HW231413   1.114   3.045   5.552
10172SOL     OW31414   0.257   6.942   3.715
10172SOL    HW131415   0.341   6.902   3.677
10172SOL    HW231416   0.215   7.001   3.646
10173SOL     OW31417   3.480   4.413   0.216
10173SOL    HW131418   3.404   4.385   0.158
10173SOL    HW231419   3.500   4.340   0.282
10174SOL     OW31420   5.382   6.289   3.079
10174SOL    HW131421   5.383   6.295   3.179
10174SOL    HW231422   5.430   6.368   3.040
10175SOL     OW31423   6.423   1.821   3.269
10175SOL    HW131424   6.347   1.838   3.207
10175SOL    HW231425   6.504   1.796   3.216
10176SOL     OW31426   6.532   3.777   5.725
10176SOL    HW131427   6.629   3.755   5.731
10176SOL    HW231428   6.486   3.746   5.808
10177SOL     OW31429   1.934   0.490   1.000
10177SOL    HW131430   2.013   0.469   0.942
10177SOL    HW231431   1.961   0.492   1.096
10178SOL     OW31432   1.990   0.707   0.628
10178SOL    HW131433   2.027   0.717   0.720
10178SOL    HW231434   2.025   0.781   0.570
10179SOL     OW31435   0.159   4.119   0.140
10179SOL    HW131436   0.240   4.071   0.174
10179SOL    HW231437   0.158   4.116   0.040
10180SOL     OW31438   4.826   0.270   6.991
10180SOL    HW131439   4.759   0.345   6.988
10180SOL    HW231440   4.862   0.262   0.064
10181SOL     OW31441   6.620   2.987   1.330
10181SOL    HW131442   6.612   3.032   1.419
10181SOL    HW231443   6.553   3.027   1.267
10182SOL     OW31444   5.288   0.853   0.317
10182SOL    HW131445   5.243   0.904   0.390
10182SOL    HW231446   5.354   0.789   0.357
10183SOL     OW31447   5.717   3.170   5.879
10183SOL    HW131448   5.775   3.152   5.799
10183SOL    HW231449   5.701   3.268   5.888
10184SOL     OW31450   5.308   2.961   6.193
10184SOL    HW131451   5.359   3.023   6.133
10184SOL    HW231452   5.358   2.948   6.278
10185SOL     OW31453   4.394   6.115   2.507
10185SOL    HW131454   4.476   6.063   2.529
10185SOL    HW231455   4.376   6.109   2.409
10186SOL     OW31456   5.007   3.687   5.233
10186SOL    HW131457   4.936   3.666   5.165
10186SOL    HW231458   5.088   3.723   5.186
10187SOL     OW31459   2.234   3.898   5.289
10187SOL    HW131460   2.150   3.950   5.274
10187SOL    HW231461   2.311   3.946   5.248
10188SOL     OW31462   3.015   5.954   6.683
10188SOL    HW131463   2.931   5.920   6.724
10188SOL    HW231464   2.997   5.984   6.589
10189SOL     OW31465   1.699   0.838   0.203
10189SOL    HW131466   1.633   0.805   0.271
10189SOL    HW231467   1.720   0.764   0.139
10190SOL     OW31468   3.378   3.766   1.060
10190SOL    HW131469   3.399   3.670   1.044
10190SOL    HW231470   3.457   3.811   1.102
10191SOL     OW31471   5.614   5.756   1.396
10191SOL    HW131472   5.632   5.740   1.494
10191SOL    HW231473   5.653   5.681   1.343
10192SOL     OW31474   2.005   1.839   4.801
10192SOL    HW131475   1.938   1.836   4.875
10192SOL    HW231476   1.958   1.826   4.713
10193SOL     OW31477   3.576   3.731   2.275
10193SOL    HW131478   3.632   3.767   2.201
10193SOL    HW231479   3.481   3.726   2.245
10194SOL     OW31480   3.370   0.012   5.226
10194SOL    HW131481   3.454   6.994   5.188
10194SOL    HW231482   3.346   0.095   5.176
10195SOL     OW31483   6.274   6.865   1.066
10195SOL    HW131484   6.332   6.944   1.047
10195SOL    HW231485   6.181   6.883   1.033
10196SOL     OW31486   5.935   1.991   3.549
10196SOL    HW131487   5.869   2.065   3.558
10196SOL    HW231488   5.998   2.011   3.474
10197SOL     OW31489   5.962   0.572   3.787
10197SOL    HW131490   5.981   0.483   3.829
10197SOL    HW231491   5.866   0.596   3.802
10198SOL     OW31492   3.973   6.678   0.506
10198SOL    HW131493   4.018   6.605   0.557
10198SOL    HW231494   3.874   6.674   0.522
10199SOL     OW31495   0.795   1.345   6.790
10199SOL    HW131496   0.773   1.383   6.880
10199SOL    HW231497   0.808   1.420   6.725
10200SOL     OW31498   5.152   3.153   5.766
10200SOL    HW131499   5.085   3.096   5.812
10200SOL    HW231500   5.107   3.235   5.729
10201SOL     OW31501   0.623   6.052   1.563
10201SOL    HW131502   0.622   5.960   1.600
10201SOL    HW231503   0.541   6.068   1.509
10202SOL     OW31504   1.173   3.594   0.648
10202SOL    HW131505   1.208   3.502   0.627
10202SOL    HW231506   1.073   3.593   0.644
10203SOL     OW31507   1.435   2.353   2.102
10203SOL    HW131508   1.479   2.418   2.041
10203SOL    HW231509   1.504   2.308   2.159
10204SOL     OW31510   3.667   4.849   6.276
10204SOL    HW131511   3.596   4.799   6.227
10204SOL    HW231512   3.644   4.946   6.278
10205SOL     OW31513   4.245   1.213   3.349
10205SOL    HW131514   4.212   1.208   3.255
10205SOL    HW231515   4.344   1.195   3.351
10206SOL     OW31516   5.173   6.051   6.219
10206SOL    HW131517   5.176   6.125   6.287
10206SOL    HW231518   5.149   6.090   6.130
10207SOL     OW31519   1.767   0.262   1.018
10207SOL    HW131520   1.829   0.186   1.002
10207SOL    HW231521   1.816   0.348   1.007
10208SOL     OW31522   6.785   5.342   5.384
10208SOL    HW131523   6.805   5.371   5.290
10208SOL    HW231524   6.691   5.308   5.388
10209SOL     OW31525   0.170   0.877   5.649
10209SOL    HW131526   0.236   0.888   5.723
10209SOL    HW231527   0.188   0.946   5.578
10210SOL     OW31528   5.186   6.737   1.256
10210SOL    HW131529   5.144   6.684   1.330
10210SOL    HW231530   5.222   6.823   1.293
10211SOL     OW31531   3.915   6.446   5.903
10211SOL    HW131532   3.978   6.444   5.826
10211SOL    HW231533   3.944   6.379   5.972
10212SOL     OW31534   0.478   1.098   4.434
10212SOL    HW131535   0.475   1.000   4.413
10212SOL    HW231536   0.571   1.132   4.419
10213SOL     OW31537   6.214   1.633   2.621
10213SOL    HW131538   6.255   1.545   2.644
10213SOL    HW231539   6.266   1.707   2.665
10214SOL     OW31540   0.433   0.930   2.777
10214SOL    HW131541   0.337   0.956   2.791
10214SOL    HW231542   0.443   0.889   2.687
10215SOL     OW31543   3.554   2.789   5.177
10215SOL    HW131544   3.634   2.753   5.225
10215SOL    HW231545   3.471   2.749   5.216
10216SOL     OW31546   0.070   0.006   0.859
10216SOL    HW131547   0.090   6.928   0.853
10216SOL    HW231548   0.155   0.057   0.878
10217SOL     OW31549   2.612   1.320   3.752
10217SOL    HW131550   2.518   1.293   3.732
10217SOL    HW231551   2.635   1.294   3.846
10218SOL     OW31552   0.853   1.058   1.269
10218SOL    HW131553   0.950   1.069   1.251
10218SOL    HW231554   0.802   1.068   1.183
10219SOL     OW31555   0.433   2.906   1.925
10219SOL    HW131556   0.526   2.943   1.930
10219SOL    HW231557   0.415   2.850   2.006
10220SOL     OW31558   4.125   1.789   2.123
10220SOL    HW131559   4.170   1.769   2.037
10220SOL    HW231560   4.117   1.705   2.177
10221SOL     OW31561   1.530   1.800   4.055
10221SOL    HW131562   1.433   1.783   4.073
10221SOL    HW231563   1.566   1.728   3.996
10222SOL     OW31564   0.468   3.782   5.479
10222SOL    HW131565   0.527   3.860   5.459
10222SOL    HW231566   0.384   3.788   5.425
10223SOL     OW31567   2.200   5.662   6.641
10223SOL    HW131568   2.123   5.706   6.688
10223SOL    HW231569   2.204   5.694   6.547
10224SOL     OW31570   0.833   0.845   4.479
10224SOL    HW131571   0.794   0.921   4.427
10224SOL    HW231572   0.929   0.865   4.499
10225SOL     OW31573   1.630   6.559   5.434
10225SOL    HW131574   1.545   6.511   5.410
10225SOL    HW231575   1.608   6.652   5.462
10226SOL     OW31576   2.906   0.242   6.978
10226SOL    HW131577   2.926   0.314   0.025
10226SOL    HW231578   2.967   0.164   6.995
10227SOL     OW31579   4.768   4.910   1.194
10227SOL    HW131580   4.713   4.827   1.182
10227SOL    HW231581   4.752   4.972   1.117
10228SOL     OW31582   1.006   5.339   2.249
10228SOL    HW131583   0.984   5.350   2.153
10228SOL    HW231584   1.019   5.242   2.270
10229SOL     OW31585   0.894   1.263   3.934
10229SOL    HW131586   0.917   1.190   3.870
10229SOL    HW231587   0.903   1.352   3.888
10230SOL     OW31588   6.892   0.473   3.527
10230SOL    HW131589   6.893   0.570   3.501
10230SOL    HW231590   6.812   0.428   3.488
10231SOL     OW31591   0.039   6.383   5.711
10231SOL    HW131592   0.066   6.461   5.767
10231SOL    HW231593   6.997   6.412   5.639
10232SOL     OW31594   3.487   0.946   4.323
10232SOL    HW131595   3.449   0.992   4.242
10232SOL    HW231596   3.580   0.979   4.339
10233SOL     OW31597   5.115   2.927   5.149
10233SOL    HW131598   5.155   2.858   5.088
10233SOL    HW231599   5.107   2.889   5.241
10234SOL     OW31600   5.525   0.303   0.709
10234SOL    HW131601   5.608   0.271   0.663
10234SOL    HW231602   5.521   0.263   0.801
10235SOL     OW31603   4.499   1.660   0.357
10235SOL    HW131604   4.560   1.591   0.319
10235SOL    HW231605   4.450   1.705   0.283
10236SOL     OW31606   1.394   5.980   1.989
10236SOL    HW131607   1.334   6.002   1.911
10236SOL    HW231608   1.477   6.034   1.983
10237SOL     OW31609   6.156   3.852   1.135
10237SOL    HW131610   6.102   3.772   1.162
10237SOL    HW231611   6.252   3.827   1.128
10238SOL     OW31612   3.397   4.171   4.209
10238SOL    HW131613   3.425   4.153   4.303
10238SOL    HW231614   3.311   4.223   4.209
10239SOL     OW31615   1.526   4.023   4.843
10239SOL    HW131616   1.427   4.008   4.850
10239SOL    HW231617   1.545   4.121   4.842
10240SOL     OW31618   1.480   4.830   3.019
10240SOL    HW131619   1.576   4.808   3.035
10240SOL    HW231620   1.453   4.906   3.079
10241SOL     OW31621   0.121   0.942   1.753
10241SOL    HW131622   0.025   0.945   1.727
10241SOL    HW231623   0.176   0.906   1.678
10242SOL     OW31624   0.009   2.051   6.521
10242SOL    HW131625   0.102   2.020   6.544
10242SOL    HW231626   6.974   2.055   6.605
10243SOL     OW31627   0.422   5.217   1.375
10243SOL    HW131628   0.513   5.244   1.343
10243SOL    HW231629   0.426   5.125   1.413
10244SOL     OW31630   1.541   4.887   0.072
10244SOL    HW131631   1.633   4.874   0.036
10244SOL    HW231632   1.546   4.930   0.161
10245SOL     OW31633   2.366   4.111   0.166
10245SOL    HW131634   2.402   4.183   0.226
10245SOL    HW231635   2.290   4.148   0.113
10246SOL     OW31636   3.008   3.802   3.923
10246SOL    HW131637   2.927   3.824   3.977
10246SOL    HW231638   3.047   3.715   3.955
10247SOL     OW31639   0.650   5.559   4.358
10247SOL    HW131640   0.598   5.615   4.294
10247SOL    HW231641   0.674   5.472   4.314
10248SOL     OW31642   3.064   0.122   1.889
10248SOL    HW131643   3.111   0.051   1.835
10248SOL    HW231644   2.965   0.111   1.879
10249SOL     OW31645   2.648   0.795   5.958
10249SOL    HW131646   2.624   0.706   5.996
10249SOL    HW231647   2.607   0.806   5.867
10250SOL     OW31648   0.117   2.115   1.166
10250SOL    HW131649   0.128   2.212   1.143
10250SOL    HW231650   0.186   2.062   1.118
10251SOL     OW31651   1.997   2.555   5.183
10251SOL    HW131652   1.951   2.477   5.141
10251SOL    HW231653   2.034   2.615   5.112
10252SOL     OW31654   6.875   6.004   0.446
10252SOL    HW131655   6.961   6.044   0.478
10252SOL    HW231656   6.887   5.971   0.352
10253SOL     OW31657   5.398   6.165   0.488
10253SOL    HW131658   5.462   6.242   0.493
10253SOL    HW231659   5.448   6.079   0.494
10254SOL     OW31660   3.955   2.160   4.856
10254SOL    HW131661   4.035   2.219   4.847
10254SOL    HW231662   3.922   2.163   4.951
10255SOL     OW31663   2.717   5.312   1.506
10255SOL    HW131664   2.628   5.348   1.533
10255SOL    HW231665   2.714   5.212   1.505
10256SOL     OW31666   5.443   0.338   2.089
10256SOL    HW131667   5.359   0.390   2.103
10256SOL    HW231668   5.448   0.308   1.994
10257SOL     OW31669   1.971   4.770   4.442
10257SOL    HW131670   1.906   4.709   4.397
10257SOL    HW231671   2.007   4.726   4.525
10258SOL     OW31672   4.793   0.032   4.097
10258SOL    HW131673   4.884   7.019   4.070
10258SOL    HW231674   4.781   0.126   4.066
10259SOL     OW31675   0.832   5.930   3.280
10259SOL    HW131676   0.866   6.023   3.261
10259SOL    HW231677   0.853   5.871   3.202
10260SOL     OW31678   6.793   0.597   3.165
10260SOL    HW131679   6.830   0.504   3.163
10260SOL    HW231680   6.867   0.663   3.157
10261SOL     OW31681   6.825   6.521   1.976
10261SOL    HW131682   6.789   6.484   1.891
10261SOL    HW231683   6.923   6.500   1.983
10262SOL     OW31684   2.755   5.899   4.680
10262SOL    HW131685   2.738   5.937   4.589
10262SOL    HW231686   2.841   5.935   4.715
10263SOL     OW31687   4.857   1.549   6.184
10263SOL    HW131688   4.907   1.583   6.264
10263SOL    HW231689   4.878   1.453   6.170
10264SOL     OW31690   5.973   1.867   6.875
10264SOL    HW131691   6.057   1.842   6.826
10264SOL    HW231692   5.896   1.870   6.811
10265SOL     OW31693   3.836   2.127   2.814
10265SOL    HW131694   3.885   2.135   2.727
10265SOL    HW231695   3.739   2.142   2.799
10266SOL     OW31696   3.551   2.743   5.483
10266SOL    HW131697   3.596   2.768   5.397
10266SOL    HW231698   3.545   2.644   5.490
10267SOL     OW31699   6.425   1.889   6.146
10267SOL    HW131700   6.510   1.931   6.178
10267SOL    HW231701   6.445   1.822   6.075
10268SOL     OW31702   3.835   6.460   1.717
10268SOL    HW131703   3.812   6.549   1.756
10268SOL    HW231704   3.795   6.387   1.772
10269SOL     OW31705   1.908   1.807   5.377
10269SOL    HW131706   1.839   1.778   5.310
10269SOL    HW231707   1.873   1.789   5.469
10270SOL     OW31708   2.232   5.477   2.698
10270SOL    HW131709   2.204   5.571   2.717
10270SOL    HW231710   2.325   5.463   2.730
10271SOL     OW31711   3.414   3.149   0.549
10271SOL    HW131712   3.469   3.111   0.475
10271SOL    HW231713   3.324   3.176   0.514
10272SOL     OW31714   1.076   0.741   4.570
10272SOL    HW131715   1.106   0.773   4.660
10272SOL    HW231716   0.997   0.681   4.580
10273SOL     OW31717   4.585   5.475   3.628
10273SOL    HW131718   4.514   5.450   3.562
10273SOL    HW231719   4.547   5.536   3.697
10274SOL     OW31720   1.216   4.429   5.418
10274SOL    HW131721   1.281   4.490   5.371
10274SOL    HW231722   1.174   4.368   5.351
10275SOL     OW31723   1.120   6.978   2.022
10275SOL    HW131724   1.064   0.002   1.951
10275SOL    HW231725   1.065   6.910   2.070
10276SOL     OW31726   6.673   5.683   5.951
10276SOL    HW131727   6.745   5.749   5.931
10276SOL    HW231728   6.606   5.725   6.012
10277SOL     OW31729   2.345   6.245   3.815
10277SOL    HW131730   2.443   6.238   3.797
10277SOL    HW231731   2.309   6.155   3.838
10278SOL     OW31732   5.841   0.695   4.997
10278SOL    HW131733   5.772   0.626   5.021
10278SOL    HW231734   5.795   0.780   4.970
10279SOL     OW31735   3.052   0.032   4.310
10279SOL    HW131736   2.965   7.009   4.286
10279SOL    HW231737   3.118   6.982   4.338
10280SOL     OW31738   2.062   3.708   0.973
10280SOL    HW131739   2.028   3.776   1.038
10280SOL    HW231740   2.100   3.630   1.023
10281SOL     OW31741   6.188   2.568   2.699
10281SOL    HW131742   6.090   2.585   2.693
10281SOL    HW231743   6.212   2.491   2.638
10282SOL     OW31744   6.221   3.694   4.586
10282SOL    HW131745   6.218   3.757   4.508
10282SOL    HW231746   6.148   3.625   4.575
10283SOL     OW31747   1.064   2.946   0.598
10283SOL    HW131748   1.025   2.995   0.676
10283SOL    HW231749   0.991   2.920   0.535
10284SOL     OW31750   4.938   4.646   5.921
10284SOL    HW131751   4.853   4.683   5.958
10284SOL    HW231752   4.923   4.552   5.890
10285SOL     OW31753   4.577   6.983   1.037
10285SOL    HW131754   4.504   6.999   1.103
10285SOL    HW231755   4.637   6.911   1.070
10286SOL     OW31756   3.192   2.090   3.780
10286SOL    HW131757   3.168   2.099   3.877
10286SOL    HW231758   3.239   2.003   3.766
10287SOL     OW31759   1.693   6.472   1.673
10287SOL    HW131760   1.638   6.553   1.696
10287SOL    HW231761   1.724   6.428   1.758
10288SOL     OW31762   5.183   6.268   2.360
10288SOL    HW131763   5.244   6.346   2.342
10288SOL    HW231764   5.124   6.253   2.281
10289SOL     OW31765   3.153   0.836   2.286
10289SOL    HW131766   3.176   0.789   2.371
10289SOL    HW231767   3.064   0.804   2.253
10290SOL     OW31768   3.732   3.977   2.595
10290SOL    HW131769   3.668   4.000   2.521
10290SOL    HW231770   3.692   4.002   2.683
10291SOL     OW31771   4.066   0.578   4.074
10291SOL    HW131772   4.082   0.525   4.157
10291SOL    HW231773   3.970   0.607   4.071
10292SOL     OW31774   0.849   1.524   4.542
10292SOL    HW131775   0.863   1.622   4.550
10292SOL    HW231776   0.769   1.506   4.485
10293SOL     OW31777   1.754   6.040   2.626
10293SOL    HW131778   1.686   6.033   2.553
10293SOL    HW231779   1.714   6.010   2.713
10294SOL     OW31780   4.959   3.557   3.409
10294SOL    HW131781   4.944   3.607   3.324
10294SOL    HW231782   4.931   3.614   3.486
10295SOL     OW31783   6.232   4.854   6.259
10295SOL    HW131784   6.271   4.872   6.169
10295SOL    HW231785   6.191   4.938   6.295
10296SOL     OW31786   5.142   4.026   6.929
10296SOL    HW131787   5.202   4.098   6.963
10296SOL    HW231788   5.047   4.049   6.947
10297SOL     OW31789   2.428   6.675   4.689
10297SOL    HW131790   2.342   6.649   4.734
10297SOL    HW231791   2.421   6.657   4.591
10298SOL     OW31792   4.322   4.631   2.845
10298SOL    HW131793   4.272   4.647   2.930
10298SOL    HW231794   4.258   4.634   2.768
10299SOL     OW31795   4.368   4.638   2.391
10299SOL    HW131796   4.376   4.590   2.304
10299SOL    HW231797   4.410   4.728   2.384
10300SOL     OW31798   1.840   4.683   2.628
10300SOL    HW131799   1.811   4.634   2.710
10300SOL    HW231800   1.805   4.637   2.547
10301SOL     OW31801   5.830   1.965   2.621
10301SOL    HW131802   5.795   1.877   2.654
10301SOL    HW231803   5.918   1.950   2.576
10302SOL     OW31804   1.279   6.093   3.902
10302SOL    HW131805   1.323   6.173   3.945
10302SOL    HW231806   1.311   6.084   3.808
10303SOL     OW31807   3.482   5.106   1.053
10303SOL    HW131808   3.481   5.201   1.084
10303SOL    HW231809   3.480   5.045   1.132
10304SOL     OW31810   5.974   1.169   2.773
10304SOL    HW131811   6.017   1.191   2.685
10304SOL    HW231812   5.881   1.203   2.774
10305SOL     OW31813   0.396   5.393   6.487
10305SOL    HW131814   0.468   5.325   6.479
10305SOL    HW231815   0.307   5.347   6.490
10306SOL     OW31816   4.451   6.140   6.501
10306SOL    HW131817   4.381   6.162   6.433
10306SOL    HW231818   4.408   6.102   6.583
10307SOL     OW31819   2.362   1.963   4.908
10307SOL    HW131820   2.294   1.988   4.839
10307SOL    HW231821   2.444   2.020   4.897
10308SOL     OW31822   2.837   4.786   4.149
10308SOL    HW131823   2.768   4.721   4.180
10308SOL    HW231824   2.824   4.874   4.196
10309SOL     OW31825   6.296   0.204   3.614
10309SOL    HW131826   6.372   0.267   3.629
10309SOL    HW231827   6.270   0.161   3.701
10310SOL     OW31828   3.822   2.826   1.621
10310SOL    HW131829   3.774   2.790   1.701
10310SOL    HW231830   3.917   2.847   1.645
10311SOL     OW31831   0.526   5.375   0.914
10311SOL    HW131832   0.554   5.402   0.821
10311SOL    HW231833   0.592   5.412   0.979
10312SOL     OW31834   3.671   5.491   1.219
10312SOL    HW131835   3.723   5.499   1.304
10312SOL    HW231836   3.582   5.449   1.238
10313SOL     OW31837   3.678   6.900   2.411
10313SOL    HW131838   3.732   6.948   2.343
10313SOL    HW231839   3.597   6.859   2.368
10314SOL     OW31840   5.614   1.174   1.662
10314SOL    HW131841   5.537   1.172   1.598
10314SOL    HW231842   5.684   1.110   1.632
10315SOL     OW31843   6.449   6.403   4.558
10315SOL    HW131844   6.410   6.479   4.609
10315SOL    HW231845   6.447   6.424   4.460
10316SOL     OW31846   6.681   3.584   4.799
10316SOL    HW131847   6.659   3.489   4.776
10316SOL    HW231848   6.643   3.645   4.729
10317SOL     OW31849   3.509   5.097   6.642
10317SOL    HW131850   3.531   5.194   6.633
10317SOL    HW231851   3.445   5.071   6.570
10318SOL     OW31852   6.267   5.721   1.244
10318SOL    HW131853   6.303   5.813   1.256
10318SOL    HW231854   6.287   5.666   1.325
10319SOL     OW31855   1.257   4.132   4.901
10319SOL    HW131856   1.185   4.075   4.941
10319SOL    HW231857   1.237   4.228   4.917
10320SOL     OW31858   0.565   0.691   0.620
10320SOL    HW131859   0.487   0.633   0.600
10320SOL    HW231860   0.625   0.696   0.540
10321SOL     OW31861   3.912   0.139   4.815
10321SOL    HW131862   3.838   0.149   4.749
10321SOL    HW231863   3.984   0.082   4.775
10322SOL     OW31864   6.549   5.848   0.058
10322SOL    HW131865   6.492   5.822   0.136
10322SOL    HW231866   6.490   5.877   7.002
10323SOL     OW31867   6.430   3.452   6.201
10323SOL    HW131868   6.456   3.361   6.167
10323SOL    HW231869   6.510   3.512   6.197
10324SOL     OW31870   3.187   3.056   3.514
10324SOL    HW131871   3.127   3.075   3.592
10324SOL    HW231872   3.137   3.072   3.429
10325SOL     OW31873   6.537   4.477   4.111
10325SOL    HW131874   6.497   4.567   4.089
10325SOL    HW231875   6.495   4.442   4.194
10326SOL     OW31876   4.773   2.699   6.902
10326SOL    HW131877   4.697   2.675   6.962
10326SOL    HW231878   4.777   2.799   6.892
10327SOL     OW31879   2.516   1.709   2.280
10327SOL    HW131880   2.486   1.661   2.362
10327SOL    HW231881   2.606   1.675   2.253
10328SOL     OW31882   5.954   3.728   2.010
10328SOL    HW131883   5.903   3.811   1.988
10328SOL    HW231884   5.891   3.651   2.021
10329SOL     OW31885   2.536   0.168   4.671
10329SOL    HW131886   2.474   0.090   4.679
10329SOL    HW231887   2.483   0.251   4.656
10330SOL     OW31888   3.457   5.031   2.712
10330SOL    HW131889   3.394   4.970   2.761
10330SOL    HW231890   3.516   5.078   2.777
10331SOL     OW31891   6.076   0.899   2.764
10331SOL    HW131892   6.041   0.980   2.813
10331SOL    HW231893   6.053   0.907   2.667
10332SOL     OW31894   6.974   1.729   6.944
10332SOL    HW131895   0.002   1.745   6.858
10332SOL    HW231896   6.884   1.690   6.925
10333SOL     OW31897   5.943   4.305   4.207
10333SOL    HW131898   5.890   4.360   4.272
10333SOL    HW231899   5.883   4.276   4.132
10334SOL     OW31900   2.098   5.706   3.939
10334SOL    HW131901   2.195   5.719   3.959
10334SOL    HW231902   2.076   5.608   3.945
10335SOL     OW31903   1.640   4.389   6.726
10335SOL    HW131904   1.590   4.400   6.812
10335SOL    HW231905   1.592   4.323   6.668
10336SOL     OW31906   4.826   6.563   2.761
10336SOL    HW131907   4.843   6.588   2.667
10336SOL    HW231908   4.867   6.474   2.780
10337SOL     OW31909   6.892   5.062   5.412
10337SOL    HW131910   6.890   5.161   5.395
10337SOL    HW231911   6.920   5.045   5.507
10338SOL     OW31912   3.524   6.535   1.185
10338SOL    HW131913   3.500   6.612   1.243
10338SOL    HW231914   3.477   6.453   1.217
10339SOL     OW31915   3.686   4.727   1.160
10339SOL    HW131916   3.759   4.751   1.095
10339SOL    HW231917   3.602   4.709   1.110
10340SOL     OW31918   1.695   5.636   6.752
10340SOL    HW131919   1.660   5.614   6.660
10340SOL    HW231920   1.684   5.556   6.811
10341SOL     OW31921   2.140   2.578   1.847
10341SOL    HW131922   2.113   2.534   1.762
10341SOL    HW231923   2.190   2.662   1.827
10342SOL     OW31924   2.059   5.865   5.889
10342SOL    HW131925   2.130   5.933   5.868
10342SOL    HW231926   2.000   5.901   5.961
10343SOL     OW31927   2.333   3.849   0.056
10343SOL    HW131928   2.345   3.900   0.141
10343SOL    HW231929   2.236   3.826   0.045
10344SOL     OW31930   4.109   3.641   3.522
10344SOL    HW131931   4.174   3.655   3.597
10344SOL    HW231932   4.076   3.546   3.524
10345SOL     OW31933   1.791   1.269   6.692
10345SOL    HW131934   1.704   1.220   6.700
10345SOL    HW231935   1.787   1.353   6.746
10346SOL     OW31936   5.722   0.352   1.366
10346SOL    HW131937   5.693   0.281   1.302
10346SOL    HW231938   5.774   0.422   1.317
10347SOL     OW31939   5.074   2.211   0.852
10347SOL    HW131940   5.147   2.207   0.783
10347SOL    HW231941   5.031   2.301   0.850
10348SOL     OW31942   6.618   0.726   6.234
10348SOL    HW131943   6.644   0.631   6.218
10348SOL    HW231944   6.647   0.754   6.326
10349SOL     OW31945   5.955   0.406   1.170
10349SOL    HW131946   5.939   0.374   1.076
10349SOL    HW231947   5.933   0.503   1.176
10350SOL     OW31948   3.775   6.120   4.753
10350SOL    HW131949   3.711   6.170   4.811
10350SOL    HW231950   3.840   6.184   4.711
10351SOL     OW31951   5.944   4.621   5.895
10351SOL    HW131952   5.936   4.712   5.854
10351SOL    HW231953   5.990   4.629   5.984
10352SOL     OW31954   5.283   1.941   6.521
10352SOL    HW131955   5.332   2.004   6.461
10352SOL    HW231956   5.186   1.942   6.499
10353SOL     OW31957   7.016   3.050   4.102
10353SOL    HW131958   0.053   2.971   4.125
10353SOL    HW231959   0.031   3.094   4.019
10354SOL     OW31960   0.339   3.694   1.258
10354SOL    HW131961   0.311   3.653   1.346
10354SOL    HW231962   0.260   3.739   1.216
10355SOL     OW31963   1.103   0.869   1.125
10355SOL    HW131964   1.089   0.966   1.145
10355SOL    HW231965   1.182   0.859   1.064
10356SOL     OW31966   0.598   3.338   6.614
10356SOL    HW131967   0.667   3.347   6.542
10356SOL    HW231968   0.508   3.322   6.572
10357SOL     OW31969   2.302   2.192   6.033
10357SOL    HW131970   2.385   2.241   6.057
10357SOL    HW231971   2.322   2.095   6.021
10358SOL     OW31972   1.814   3.730   2.881
10358SOL    HW131973   1.748   3.778   2.938
10358SOL    HW231974   1.767   3.656   2.831
10359SOL     OW31975   4.684   2.330   2.394
10359SOL    HW131976   4.597   2.281   2.406
10359SOL    HW231977   4.669   2.412   2.339
10360SOL     OW31978   5.127   4.958   2.350
10360SOL    HW131979   5.114   4.986   2.445
10360SOL    HW231980   5.196   4.885   2.347
10361SOL     OW31981   2.567   0.928   2.056
10361SOL    HW131982   2.621   0.913   2.139
10361SOL    HW231983   2.628   0.959   1.983
10362SOL     OW31984   0.544   4.588   3.003
10362SOL    HW131985   0.567   4.599   2.906
10362SOL    HW231986   0.446   4.599   3.016
10363SOL     OW31987   4.717   2.617   0.507
10363SOL    HW131988   4.651   2.676   0.554
10363SOL    HW231989   4.726   2.648   0.412
10364SOL     OW31990   5.389   4.681   1.582
10364SOL    HW131991   5.402   4.620   1.660
10364SOL    HW231992   5.446   4.650   1.506
10365SOL     OW31993   5.911   4.709   0.608
10365SOL    HW131994   5.991   4.754   0.569
10365SOL    HW231995   5.870   4.649   0.540
10366SOL     OW31996   4.533   6.947   3.580
10366SOL    HW131997   4.439   6.968   3.608
10366SOL    HW231998   4.582   6.907   3.658
10367SOL     OW31999   0.244   2.000   2.125
10367SOL    HW132000   0.193   1.932   2.178
10367SOL    HW232001   0.179   2.057   2.074
10368SOL     OW32002   2.205   1.057   2.775
10368SOL    HW132003   2.132   0.994   2.749
10368SOL    HW232004   2.240   1.103   2.694
10369SOL     OW32005   2.896   6.343   6.024
10369SOL    HW132006   2.820   6.408   6.024
10369SOL    HW232007   2.909   6.307   6.117
10370SOL     OW32008   6.181   1.474   4.750
10370SOL    HW132009   6.166   1.522   4.837
10370SOL    HW232010   6.266   1.421   4.756
10371SOL     OW32011   3.191   6.627   3.375
10371SOL    HW132012   3.164   6.579   3.291
10371SOL    HW232013   3.115   6.685   3.406
10372SOL     OW32014   2.797   0.574   1.520
10372SOL    HW132015   2.747   0.552   1.604
10372SOL    HW232016   2.887   0.610   1.544
10373SOL     OW32017   0.596   6.894   4.686
10373SOL    HW132018   0.626   6.985   4.713
10373SOL    HW232019   0.511   6.871   4.735
10374SOL     OW32020   3.047   6.637   4.781
10374SOL    HW132021   3.035   6.539   4.768
10374SOL    HW232022   2.991   6.687   4.714
10375SOL     OW32023   3.216   2.287   6.627
10375SOL    HW132024   3.208   2.189   6.607
10375SOL    HW232025   3.188   2.303   6.722
10376SOL     OW32026   1.380   6.108   3.655
10376SOL    HW132027   1.447   6.034   3.649
10376SOL    HW232028   1.330   6.115   3.569
10377SOL     OW32029   0.809   2.031   1.682
10377SOL    HW132030   0.876   1.965   1.648
10377SOL    HW232031   0.742   1.984   1.739
10378SOL     OW32032   6.750   5.411   6.027
10378SOL    HW132033   6.848   5.397   6.036
10378SOL    HW232034   6.732   5.503   5.991
10379SOL     OW32035   3.531   5.608   3.619
10379SOL    HW132036   3.526   5.707   3.621
10379SOL    HW232037   3.527   5.576   3.524
10380SOL     OW32038   1.325   2.168   4.998
10380SOL    HW132039   1.348   2.265   4.996
10380SOL    HW232040   1.228   2.157   5.019
10381SOL     OW32041   4.111   4.177   0.507
10381SOL    HW132042   4.115   4.250   0.439
10381SOL    HW232043   4.148   4.211   0.594
10382SOL     OW32044   3.177   6.347   1.852
10382SOL    HW132045   3.120   6.337   1.934
10382SOL    HW232046   3.156   6.274   1.788
10383SOL     OW32047   1.667   3.775   0.534
10383SOL    HW132048   1.723   3.801   0.613
10383SOL    HW232049   1.574   3.756   0.564
10384SOL     OW32050   6.775   6.582   0.705
10384SOL    HW132051   6.787   6.531   0.620
10384SOL    HW232052   6.776   6.519   0.783
10385SOL     OW32053   3.700   6.055   6.065
10385SOL    HW132054   3.618   6.080   6.013
10385SOL    HW232055   3.677   5.983   6.130
10386SOL     OW32056   0.823   0.998   5.629
10386SOL    HW132057   0.751   0.930   5.618
10386SOL    HW232058   0.913   0.954   5.621
10387SOL     OW32059   4.753   2.583   2.824
10387SOL    HW132060   4.808   2.525   2.764
10387SOL    HW232061   4.798   2.592   2.913
10388SOL     OW32062   2.464   6.636   0.958
10388SOL    HW132063   2.428   6.667   0.870
10388SOL    HW232064   2.399   6.660   1.031
10389SOL     OW32065   5.323   3.626   0.621
10389SOL    HW132066   5.371   3.640   0.707
10389SOL    HW232067   5.358   3.544   0.575
10390SOL     OW32068   1.442   2.552   6.902
10390SOL    HW132069   1.538   2.549   6.874
10390SOL    HW232070   1.436   2.545   7.001
10391SOL     OW32071   1.765   6.238   3.705
10391SOL    HW132072   1.721   6.208   3.789
10391SOL    HW232073   1.862   6.258   3.723
10392SOL     OW32074   5.923   5.160   5.585
10392SOL    HW132075   5.929   5.257   5.561
10392SOL    HW232076   5.850   5.146   5.652
10393SOL     OW32077   1.910   3.845   3.654
10393SOL    HW132078   1.857   3.870   3.735
10393SOL    HW232079   1.908   3.745   3.642
10394SOL     OW32080   2.258   5.474   4.575
10394SOL    HW132081   2.238   5.487   4.672
10394SOL    HW232082   2.326   5.402   4.564
10395SOL     OW32083   0.313   6.655   1.357
10395SOL    HW132084   0.393   6.623   1.305
10395SOL    HW232085   0.288   6.747   1.325
10396SOL     OW32086   4.101   1.755   3.820
10396SOL    HW132087   4.089   1.830   3.885
10396SOL    HW232088   4.199   1.733   3.813
10397SOL     OW32089   2.937   1.885   3.887
10397SOL    HW132090   3.018   1.929   3.926
10397SOL    HW232091   2.901   1.817   3.951
10398SOL     OW32092   6.334   2.515   1.072
10398SOL    HW132093   6.360   2.431   1.024
10398SOL    HW232094   6.366   2.511   1.166
10399SOL     OW32095   5.955   2.090   3.001
10399SOL    HW132096   5.905   2.150   3.063
10399SOL    HW232097   5.946   2.125   2.907
10400SOL     OW32098   4.603   5.788   0.599
10400SOL    HW132099   4.525   5.847   0.621
10400SOL    HW232100   4.606   5.770   0.501
10401SOL     OW32101   0.024   6.732   2.539
10401SOL    HW132102   0.060   6.640   2.527
10401SOL    HW232103   0.049   6.766   2.630
10402SOL     OW32104   6.405   2.002   5.212
10402SOL    HW132105   6.452   1.991   5.125
10402SOL    HW232106   6.329   2.067   5.202
10403SOL     OW32107   5.211   2.002   3.411
10403SOL    HW132108   5.291   1.972   3.462
10403SOL    HW232109   5.181   2.091   3.446
10404SOL     OW32110   6.186   6.034   4.766
10404SOL    HW132111   6.244   6.062   4.689
10404SOL    HW232112   6.112   6.101   4.777
10405SOL     OW32113   1.365   0.301   4.677
10405SOL    HW132114   1.282   0.345   4.710
10405SOL    HW232115   1.425   0.370   4.637
10406SOL     OW32116   2.472   4.465   3.172
10406SOL    HW132117   2.440   4.370   3.171
10406SOL    HW232118   2.514   4.485   3.261
10407SOL     OW32119   2.249   6.726   6.163
10407SOL    HW132120   2.239   6.629   6.187
10407SOL    HW232121   2.241   6.736   6.064
10408SOL     OW32122   4.380   6.729   1.471
10408SOL    HW132123   4.480   6.717   1.476
10408SOL    HW232124   4.356   6.822   1.497
10409SOL     OW32125   0.333   4.591   1.082
10409SOL    HW132126   0.274   4.667   1.055
10409SOL    HW232127   0.337   4.524   1.008
10410SOL     OW32128   5.493   2.042   2.107
10410SOL    HW132129   5.442   1.968   2.063
10410SOL    HW232130   5.437   2.125   2.106
10411SOL     OW32131   3.517   6.340   3.258
10411SOL    HW132132   3.508   6.440   3.253
10411SOL    HW232133   3.568   6.316   3.341
10412SOL     OW32134   0.560   1.185   6.869
10412SOL    HW132135   0.572   1.202   6.771
10412SOL    HW232136   0.642   1.215   6.918
10413SOL     OW32137   6.916   2.869   0.279
10413SOL    HW132138   7.010   2.888   0.251
10413SOL    HW232139   6.859   2.949   0.264
10414SOL     OW32140   3.942   5.282   5.828
10414SOL    HW132141   3.993   5.366   5.847
10414SOL    HW232142   4.002   5.216   5.784
10415SOL     OW32143   1.802   3.662   4.833
10415SOL    HW132144   1.862   3.641   4.910
10415SOL    HW232145   1.807   3.587   4.766
10416SOL     OW32146   6.112   0.425   4.943
10416SOL    HW132147   6.210   0.424   4.963
10416SOL    HW232148   6.086   0.515   4.910
10417SOL     OW32149   3.071   5.190   3.955
10417SOL    HW132150   3.167   5.174   3.978
10417SOL    HW232151   3.022   5.103   3.961
10418SOL     OW32152   6.856   3.364   6.544
10418SOL    HW132153   6.934   3.420   6.514
10418SOL    HW232154   6.889   3.278   6.582
10419SOL     OW32155   2.198   7.008   5.901
10419SOL    HW132156   2.262   0.008   5.827
10419SOL    HW232157   2.201   0.062   5.969
10420SOL     OW32158   0.537   4.021   3.756
10420SOL    HW132159   0.577   4.103   3.798
10420SOL    HW232160   0.591   3.941   3.782
10421SOL     OW32161   0.611   2.123   3.935
10421SOL    HW132162   0.534   2.066   3.908
10421SOL    HW232163   0.588   2.172   4.019
10422SOL     OW32164   5.871   3.370   5.183
10422SOL    HW132165   5.870   3.342   5.087
10422SOL    HW232166   5.792   3.331   5.230
10423SOL     OW32167   6.478   6.126   5.301
10423SOL    HW132168   6.497   6.034   5.334
10423SOL    HW232169   6.521   6.140   5.212
10424SOL     OW32170   5.070   2.734   7.012
10424SOL    HW132171   4.980   2.706   6.977
10424SOL    HW232172   5.107   2.806   6.955
10425SOL     OW32173   1.021   0.313   1.748
10425SOL    HW132174   0.987   0.406   1.761
10425SOL    HW232175   1.120   0.315   1.740
10426SOL     OW32176   5.826   4.979   1.037
10426SOL    HW132177   5.912   5.006   0.994
10426SOL    HW232178   5.774   4.920   0.974
10427SOL     OW32179   3.788   1.010   6.661
10427SOL    HW132180   3.738   1.031   6.577
10427SOL    HW232181   3.727   1.022   6.739
10428SOL     OW32182   3.773   1.092   3.672
10428SOL    HW132183   3.678   1.117   3.692
10428SOL    HW232184   3.786   0.995   3.692
10429SOL     OW32185   6.912   4.291   1.140
10429SOL    HW132186   6.912   4.391   1.142
10429SOL    HW232187   7.003   4.258   1.114
10430SOL     OW32188   5.023   0.284   4.464
10430SOL    HW132189   5.095   0.329   4.517
10430SOL    HW232190   4.967   0.353   4.419
10431SOL     OW32191   3.031   6.123   4.234
10431SOL    HW132192   3.015   6.076   4.321
10431SOL    HW232193   2.945   6.165   4.203
10432SOL     OW32194   5.345   6.595   4.912
10432SOL    HW132195   5.416   6.598   4.842
10432SOL    HW232196   5.371   6.529   4.983
10433SOL     OW32197   1.264   5.873   1.457
10433SOL    HW132198   1.195   5.803   1.478
10433SOL    HW232199   1.263   5.892   1.359
10434SOL     OW32200   4.082   6.562   3.556
10434SOL    HW132201   3.988   6.546   3.525
10434SOL    HW232202   4.127   6.627   3.494
10435SOL     OW32203   6.789   0.864   4.808
10435SOL    HW132204   6.743   0.783   4.771
10435SOL    HW232205   6.728   0.943   4.798
10436SOL     OW32206   0.604   5.072   5.662
10436SOL    HW132207   0.703   5.086   5.664
10436SOL    HW232208   0.582   4.987   5.710
10437SOL     OW32209   5.050   4.411   5.686
10437SOL    HW132210   5.033   4.341   5.756
10437SOL    HW232211   5.145   4.441   5.691
10438SOL     OW32212   6.362   6.611   0.215
10438SOL    HW132213   6.320   6.520   0.218
10438SOL    HW232214   6.444   6.611   0.272
10439SOL     OW32215   3.856   0.913   5.364
10439SOL    HW132216   3.892   1.000   5.397
10439SOL    HW232217   3.831   0.856   5.442
10440SOL     OW32218   1.349   0.162   0.427
10440SOL    HW132219   1.434   0.116   0.401
10440SOL    HW232220   1.344   0.168   0.526
10441SOL     OW32221   2.875   0.134   1.397
10441SOL    HW132222   2.969   0.167   1.384
10441SOL    HW232223   2.848   0.079   1.319
10442SOL     OW32224   3.095   6.548   5.957
10442SOL    HW132225   3.125   6.529   5.864
10442SOL    HW232226   3.020   6.487   5.981
10443SOL     OW32227   4.797   4.089   4.587
10443SOL    HW132228   4.770   4.104   4.682
10443SOL    HW232229   4.748   4.152   4.527
10444SOL     OW32230   3.982   6.567   4.658
10444SOL    HW132231   3.889   6.604   4.647
10444SOL    HW232232   3.977   6.470   4.679
10445SOL     OW32233   0.828   4.981   4.856
10445SOL    HW132234   0.907   4.928   4.825
10445SOL    HW232235   0.816   5.061   4.798
10446SOL     OW32236   1.599   2.830   5.202
10446SOL    HW132237   1.527   2.766   5.229
10446SOL    HW232238   1.628   2.883   5.281
10447SOL     OW32239   0.665   0.696   1.971
10447SOL    HW132240   0.574   0.736   1.981
10447SOL    HW232241   0.710   0.692   2.060
10448SOL     OW32242   3.797   1.134   2.468
10448SOL    HW132243   3.716   1.181   2.502
10448SOL    HW232244   3.878   1.191   2.483
10449SOL     OW32245   2.463   5.485   4.967
10449SOL    HW132246   2.551   5.453   4.933
10449SOL    HW232247   2.400   5.408   4.975
10450SOL     OW32248   0.507   1.716   0.657
10450SOL    HW132249   0.567   1.636   0.653
10450SOL    HW232250   0.534   1.775   0.734
10451SOL     OW32251   1.139   5.770   2.241
10451SOL    HW132252   1.185   5.681   2.241
10451SOL    HW232253   1.043   5.758   2.264
10452SOL     OW32254   6.675   3.812   2.259
10452SOL    HW132255   6.601   3.876   2.279
10452SOL    HW232256   6.755   3.862   2.228
10453SOL     OW32257   3.695   6.055   1.738
10453SOL    HW132258   3.740   5.995   1.672
10453SOL    HW232259   3.632   6.116   1.691
10454SOL     OW32260   4.480   3.702   0.910
10454SOL    HW132261   4.541   3.778   0.933
10454SOL    HW232262   4.388   3.723   0.942
10455SOL     OW32263   6.307   6.349   3.484
10455SOL    HW132264   6.218   6.306   3.495
10455SOL    HW232265   6.339   6.336   3.391
10456SOL     OW32266   3.384   6.603   0.964
10456SOL    HW132267   3.293   6.568   0.985
10456SOL    HW232268   3.440   6.603   1.047
10457SOL     OW32269   3.254   3.515   1.815
10457SOL    HW132270   3.244   3.443   1.884
10457SOL    HW232271   3.351   3.531   1.797
10458SOL     OW32272   0.637   1.487   6.041
10458SOL    HW132273   0.730   1.450   6.040
10458SOL    HW232274   0.575   1.421   5.997
10459SOL     OW32275   4.397   5.732   1.570
10459SOL    HW132276   4.434   5.799   1.634
10459SOL    HW232277   4.437   5.642   1.589
10460SOL     OW32278   1.456   4.545   1.550
10460SOL    HW132279   1.414   4.461   1.584
10460SOL    HW232280   1.393   4.622   1.564
10461SOL     OW32281   0.894   5.028   5.459
10461SOL    HW132282   0.960   5.013   5.386
10461SOL    HW232283   0.923   4.980   5.542
10462SOL     OW32284   6.152   2.389   3.871
10462SOL    HW132285   6.168   2.295   3.900
10462SOL    HW232286   6.059   2.416   3.895
10463SOL     OW32287   3.789   2.935   5.563
10463SOL    HW132288   3.732   2.865   5.607
10463SOL    HW232289   3.873   2.948   5.615
10464SOL     OW32290   6.580   6.826   1.181
10464SOL    HW132291   6.637   6.745   1.197
10464SOL    HW232292   6.579   6.848   1.084
10465SOL     OW32293   6.831   5.658   1.691
10465SOL    HW132294   6.835   5.590   1.618
10465SOL    HW232295   6.893   5.734   1.670
10466SOL     OW32296   4.492   5.319   5.974
10466SOL    HW132297   4.571   5.275   5.930
10466SOL    HW232298   4.494   5.300   6.072
10467SOL     OW32299   1.514   2.278   5.937
10467SOL    HW132300   1.570   2.244   5.861
10467SOL    HW232301   1.564   2.267   6.023
10468SOL     OW32302   4.043   4.826   2.820
10468SOL    HW132303   4.054   4.912   2.770
10468SOL    HW232304   4.075   4.751   2.763
10469SOL     OW32305   3.961   3.056   5.922
10469SOL    HW132306   3.971   3.008   5.835
10469SOL    HW232307   3.866   3.086   5.932
10470SOL     OW32308   2.688   2.277   3.817
10470SOL    HW132309   2.636   2.305   3.897
10470SOL    HW232310   2.687   2.177   3.810
10471SOL     OW32311   2.544   2.406   1.235
10471SOL    HW132312   2.625   2.458   1.259
10471SOL    HW232313   2.521   2.423   1.139
10472SOL     OW32314   2.860   5.227   0.658
10472SOL    HW132315   2.877   5.323   0.680
10472SOL    HW232316   2.813   5.183   0.734
10473SOL     OW32317   6.092   0.836   6.955
10473SOL    HW132318   6.173   0.777   6.963
10473SOL    HW232319   6.120   0.928   6.929
10474SOL     OW32320   4.453   1.624   4.352
10474SOL    HW132321   4.396   1.676   4.289
10474SOL    HW232322   4.399   1.551   4.394
10475SOL     OW32323   5.107   6.985   2.738
10475SOL    HW132324   5.047   7.019   2.811
10475SOL    HW232325   5.201   6.984   2.770
10476SOL     OW32326   0.196   6.482   6.917
10476SOL    HW132327   0.279   6.522   6.878
10476SOL    HW232328   0.212   6.458   7.013
10477SOL     OW32329   6.433   1.692   3.997
10477SOL    HW132330   6.412   1.723   3.904
10477SOL    HW232331   6.416   1.767   4.061
10478SOL     OW32332   0.571   0.579   1.151
10478SOL    HW132333   0.599   0.656   1.093
10478SOL    HW232334   0.471   0.574   1.152
10479SOL     OW32335   0.576   2.716   1.777
10479SOL    HW132336   0.543   2.773   1.852
10479SOL    HW232337   0.671   2.741   1.755
10480SOL     OW32338   6.105   0.561   1.482
10480SOL    HW132339   6.075   0.471   1.452
10480SOL    HW232340   6.182   0.552   1.545
10481SOL     OW32341   2.492   0.166   4.324
10481SOL    HW132342   2.472   0.195   4.230
10481SOL    HW232343   2.588   0.181   4.344
10482SOL     OW32344   0.233   5.655   4.664
10482SOL    HW132345   0.251   5.735   4.722
10482SOL    HW232346   0.315   5.632   4.613
10483SOL     OW32347   0.270   5.595   0.448
10483SOL    HW132348   0.342   5.664   0.437
10483SOL    HW232349   0.230   5.604   0.540
10484SOL     OW32350   6.194   0.964   1.449
10484SOL    HW132351   6.196   1.009   1.538
10484SOL    HW232352   6.205   1.033   1.377
10485SOL     OW32353   3.194   3.431   2.259
10485SOL    HW132354   3.171   3.372   2.182
10485SOL    HW232355   3.123   3.424   2.329
10486SOL     OW32356   6.450   0.531   5.976
10486SOL    HW132357   6.480   0.484   6.059
10486SOL    HW232358   6.352   0.514   5.962
10487SOL     OW32359   4.491   2.021   1.572
10487SOL    HW132360   4.409   2.078   1.581
10487SOL    HW232361   4.551   2.036   1.651
10488SOL     OW32362   2.112   1.875   6.338
10488SOL    HW132363   2.136   1.880   6.241
10488SOL    HW232364   2.105   1.780   6.366
10489SOL     OW32365   5.922   6.587   3.549
10489SOL    HW132366   5.903   6.553   3.457
10489SOL    HW232367   6.021   6.587   3.564
10490SOL     OW32368   5.819   2.009   0.576
10490SOL    HW132369   5.813   2.081   0.645
10490SOL    HW232370   5.739   1.948   0.584
10491SOL     OW32371   1.942   2.174   5.396
10491SOL    HW132372   2.027   2.214   5.431
10491SOL    HW232373   1.952   2.156   5.298
10492SOL     OW32374   4.868   6.337   1.185
10492SOL    HW132375   4.791   6.349   1.248
10492SOL    HW232376   4.858   6.250   1.137
10493SOL     OW32377   2.830   6.497   1.914
10493SOL    HW132378   2.863   6.413   1.871
10493SOL    HW232379   2.836   6.572   1.848
10494SOL     OW32380   5.980   4.354   5.963
10494SOL    HW132381   5.884   4.332   5.947
10494SOL    HW232382   5.993   4.453   5.960
10495SOL     OW32383   0.194   0.303   0.613
10495SOL    HW132384   0.162   0.291   0.518
10495SOL    HW232385   0.116   0.327   0.671
10496SOL     OW32386   6.263   5.076   5.583
10496SOL    HW132387   6.169   5.066   5.616
10496SOL    HW232388   6.326   5.081   5.660
10497SOL     OW32389   1.103   6.481   2.541
10497SOL    HW132390   1.061   6.485   2.632
10497SOL    HW232391   1.186   6.537   2.540
10498SOL     OW32392   5.754   5.793   0.815
10498SOL    HW132393   5.852   5.799   0.798
10498SOL    HW232394   5.704   5.824   0.734
10499SOL     OW32395   4.487   6.994   1.801
10499SOL    HW132396   4.429   6.916   1.777
10499SOL    HW232397   4.432   0.040   1.854
10500SOL     OW32398   5.843   2.047   5.924
10500SOL    HW132399   5.774   1.994   5.874
10500SOL    HW232400   5.830   2.144   5.905
10501SOL     OW32401   2.412   5.623   2.101
10501SOL    HW132402   2.332   5.671   2.138
10501SOL    HW232403   2.466   5.685   2.045
10502SOL     OW32404   2.553   3.523   0.840
10502SOL    HW132405   2.508   3.605   0.803
10502SOL    HW232406   2.483   3.460   0.874
10503SOL     OW32407   5.806   3.441   0.766
10503SOL    HW132408   5.861   3.437   0.683
10503SOL    HW232409   5.749   3.523   0.765
10504SOL     OW32410   0.207   2.591   5.622
10504SOL    HW132411   0.213   2.532   5.703
10504SOL    HW232412   0.239   2.540   5.542
10505SOL     OW32413   5.723   6.698   1.416
10505SOL    HW132414   5.786   6.697   1.493
10505SOL    HW232415   5.684   6.790   1.406
10506SOL     OW32416   0.449   3.595   6.692
10506SOL    HW132417   0.391   3.605   6.612
10506SOL    HW232418   0.418   3.517   6.746
10507SOL     OW32419   2.574   5.286   0.023
10507SOL    HW132420   2.589   5.302   0.121
10507SOL    HW232421   2.609   5.363   6.990
10508SOL     OW32422   0.561   6.037   3.870
10508SOL    HW132423   0.629   6.095   3.824
10508SOL    HW232424   0.608   5.972   3.930
10509SOL     OW32425   6.259   4.842   4.832
10509SOL    HW132426   6.278   4.914   4.899
10509SOL    HW232427   6.163   4.816   4.838
10510SOL     OW32428   4.683   6.460   0.567
10510SOL    HW132429   4.645   6.374   0.532
10510SOL    HW232430   4.736   6.441   0.649
10511SOL     OW32431   3.084   1.456   2.368
10511SOL    HW132432   3.032   1.433   2.450
10511SOL    HW232433   3.057   1.547   2.335
10512SOL     OW32434   3.505   0.180   5.971
10512SOL    HW132435   3.509   0.114   6.046
10512SOL    HW232436   3.539   0.138   5.887
10513SOL     OW32437   6.595   3.161   3.246
10513SOL    HW132438   6.541   3.241   3.218
10513SOL    HW232439   6.535   3.081   3.252
10514SOL     OW32440   1.359   1.802   1.606
10514SOL    HW132441   1.432   1.823   1.671
10514SOL    HW232442   1.325   1.710   1.622
10515SOL     OW32443   1.435   3.424   4.623
10515SOL    HW132444   1.393   3.440   4.712
10515SOL    HW232445   1.376   3.460   4.550
10516SOL     OW32446   2.885   1.870   0.258
10516SOL    HW132447   2.838   1.952   0.288
10516SOL    HW232448   2.832   1.825   0.186
10517SOL     OW32449   1.601   3.725   1.458
10517SOL    HW132450   1.535   3.800   1.462
10517SOL    HW232451   1.631   3.703   1.550
10518SOL     OW32452   0.029   6.106   1.928
10518SOL    HW132453   0.064   6.070   2.014
10518SOL    HW232454   6.950   6.091   1.923
10519SOL     OW32455   2.659   4.653   0.008
10519SOL    HW132456   2.690   4.747   7.016
10519SOL    HW232457   2.562   4.647   7.006
10520SOL     OW32458   0.143   2.247   5.879
10520SOL    HW132459   0.118   2.297   5.962
10520SOL    HW232460   0.062   2.238   5.821
10521SOL     OW32461   0.050   5.767   1.532
10521SOL    HW132462   0.136   5.780   1.583
10521SOL    HW232463   0.072   5.741   1.438
10522SOL     OW32464   0.213   2.733   3.621
10522SOL    HW132465   0.259   2.767   3.538
10522SOL    HW232466   0.225   2.634   3.628
10523SOL     OW32467   0.500   4.438   3.619
10523SOL    HW132468   0.474   4.489   3.537
10523SOL    HW232469   0.590   4.468   3.650
10524SOL     OW32470   0.515   6.410   4.155
10524SOL    HW132471   0.430   6.358   4.148
10524SOL    HW232472   0.521   6.452   4.245
10525SOL     OW32473   3.984   0.237   5.235
10525SOL    HW132474   4.059   0.170   5.239
10525SOL    HW232475   4.015   0.318   5.185
10526SOL     OW32476   0.859   6.739   1.545
10526SOL    HW132477   0.845   6.677   1.622
10526SOL    HW232478   0.938   6.798   1.565
10527SOL     OW32479   1.158   0.695   5.939
10527SOL    HW132480   1.198   0.652   6.021
10527SOL    HW232481   1.098   0.770   5.967
10528SOL     OW32482   1.082   4.405   6.215
10528SOL    HW132483   1.012   4.345   6.255
10528SOL    HW232484   1.079   4.397   6.115
10529SOL     OW32485   2.009   5.937   4.462
10529SOL    HW132486   2.049   5.889   4.385
10529SOL    HW232487   2.035   5.890   4.547
10530SOL     OW32488   0.961   6.747   5.917
10530SOL    HW132489   1.047   6.723   5.963
10530SOL    HW232490   0.967   6.840   5.882
10531SOL     OW32491   3.156   2.177   4.523
10531SOL    HW132492   3.059   2.194   4.509
10531SOL    HW232493   3.206   2.264   4.517
10532SOL     OW32494   6.843   6.930   6.069
10532SOL    HW132495   6.749   6.901   6.052
10532SOL    HW232496   6.893   6.857   6.116
10533SOL     OW32497   3.190   5.906   3.554
10533SOL    HW132498   3.130   5.867   3.484
10533SOL    HW232499   3.227   5.832   3.610
10534SOL     OW32500   6.656   5.286   1.834
10534SOL    HW132501   6.668   5.345   1.914
10534SOL    HW232502   6.745   5.253   1.803
10535SOL     OW32503   2.250   1.881   1.959
10535SOL    HW132504   2.167   1.877   1.903
10535SOL    HW232505   2.295   1.969   1.946
10536SOL     OW32506   4.477   0.631   4.178
10536SOL    HW132507   4.404   0.669   4.121
10536SOL    HW232508   4.565   0.666   4.147
10537SOL     OW32509   5.483   6.416   4.008
10537SOL    HW132510   5.547   6.389   4.081
10537SOL    HW232511   5.411   6.348   4.001
10538SOL     OW32512   6.631   3.325   0.979
10538SOL    HW132513   6.730   3.313   0.981
10538SOL    HW232514   6.603   3.365   0.892
10539SOL     OW32515   6.453   5.553   1.134
10539SOL    HW132516   6.443   5.554   1.034
10539SOL    HW232517   6.400   5.628   1.174
10540SOL     OW32518   2.002   2.922   5.304
10540SOL    HW132519   1.924   2.906   5.244
10540SOL    HW232520   2.014   2.843   5.365
10541SOL     OW32521   4.087   3.260   3.478
10541SOL    HW132522   4.077   3.339   3.417
10541SOL    HW232523   4.172   3.211   3.455
10542SOL     OW32524   6.482   0.367   4.732
10542SOL    HW132525   6.440   0.427   4.664
10542SOL    HW232526   6.444   0.386   4.822
10543SOL     OW32527   0.882   1.815   4.317
10543SOL    HW132528   0.955   1.878   4.289
10543SOL    HW232529   0.886   1.802   4.416
10544SOL     OW32530   2.207   5.744   2.225
10544SOL    HW132531   2.139   5.754   2.151
10544SOL    HW232532   2.160   5.719   2.309
10545SOL     OW32533   1.955   2.285   1.472
10545SOL    HW132534   1.894   2.207   1.485
10545SOL    HW232535   1.922   2.341   1.396
10546SOL     OW32536   3.029   6.550   0.945
10546SOL    HW132537   3.008   6.593   1.033
10546SOL    HW232538   2.944   6.537   0.894
10547SOL     OW32539   5.384   2.440   4.012
10547SOL    HW132540   5.476   2.400   4.016
10547SOL    HW232541   5.390   2.540   4.016
10548SOL     OW32542   0.160   4.447   3.975
10548SOL    HW132543   0.208   4.360   3.991
10548SOL    HW232544   0.124   4.447   3.881
10549SOL     OW32545   0.298   1.384   0.385
10549SOL    HW132546   0.342   1.403   0.473
10549SOL    HW232547   0.203   1.413   0.388
10550SOL     OW32548   4.504   6.429   3.689
10550SOL    HW132549   4.447   6.367   3.742
10550SOL    HW232550   4.551   6.492   3.751
10551SOL     OW32551   1.763   2.003   6.776
10551SOL    HW132552   1.797   2.057   6.699
10551SOL    HW232553   1.700   2.058   6.830
10552SOL     OW32554   2.093   0.979   5.199
10552SOL    HW132555   2.112   1.076   5.217
10552SOL    HW232556   2.045   0.970   5.112
10553SOL     OW32557   0.483   4.262   1.271
10553SOL    HW132558   0.491   4.162   1.276
10553SOL    HW232559   0.572   4.303   1.292
10554SOL     OW32560   5.227   5.365   2.000
10554SOL    HW132561   5.183   5.437   1.947
10554SOL    HW232562   5.159   5.322   2.061
10555SOL     OW32563   2.537   2.509   0.965
10555SOL    HW132564   2.562   2.522   0.869
10555SOL    HW232565   2.536   2.598   1.011
10556SOL     OW32566   2.791   0.921   3.854
10556SOL    HW132567   2.761   1.007   3.894
10556SOL    HW232568   2.815   0.856   3.926
10557SOL     OW32569   1.371   3.262   3.881
10557SOL    HW132570   1.442   3.198   3.855
10557SOL    HW232571   1.333   3.235   3.970
10558SOL     OW32572   3.841   5.752   6.170
10558SOL    HW132573   3.863   5.821   6.239
10558SOL    HW232574   3.831   5.663   6.215
10559SOL     OW32575   3.723   0.135   1.969
10559SOL    HW132576   3.672   0.060   2.012
10559SOL    HW232577   3.666   0.216   1.965
10560SOL     OW32578   4.935   0.127   2.921
10560SOL    HW132579   4.881   0.208   2.943
10560SOL    HW232580   4.876   0.046   2.923
10561SOL     OW32581   3.898   4.162   1.732
10561SOL    HW132582   3.982   4.173   1.678
10561SOL    HW232583   3.828   4.224   1.697
10562SOL     OW32584   4.782   5.245   0.669
10562SOL    HW132585   4.861   5.185   0.659
10562SOL    HW232586   4.771   5.300   0.586
10563SOL     OW32587   1.036   0.603   1.717
10563SOL    HW132588   1.004   0.658   1.793
10563SOL    HW232589   1.074   0.663   1.646
10564SOL     OW32590   5.579   6.535   3.567
10564SOL    HW132591   5.588   6.601   3.641
10564SOL    HW232592   5.633   6.565   3.488
10565SOL     OW32593   6.690   6.351   5.394
10565SOL    HW132594   6.785   6.380   5.382
10565SOL    HW232595   6.647   6.340   5.305
10566SOL     OW32596   3.375   1.965   6.652
10566SOL    HW132597   3.380   1.995   6.747
10566SOL    HW232598   3.459   1.917   6.628
10567SOL     OW32599   1.976   3.035   5.764
10567SOL    HW132600   2.068   3.017   5.798
10567SOL    HW232601   1.925   2.949   5.757
10568SOL     OW32602   6.007   2.735   1.097
10568SOL    HW132603   5.915   2.754   1.064
10568SOL    HW232604   6.013   2.640   1.128
10569SOL     OW32605   5.813   0.618   1.865
10569SOL    HW132606   5.883   0.582   1.928
10569SOL    HW232607   5.809   0.717   1.875
10570SOL     OW32608   1.485   4.525   3.619
10570SOL    HW132609   1.479   4.425   3.610
10570SOL    HW232610   1.581   4.553   3.611
10571SOL     OW32611   6.868   4.160   5.130
10571SOL    HW132612   6.926   4.150   5.049
10571SOL    HW232613   6.791   4.220   5.109
10572SOL     OW32614   0.006   5.070   3.084
10572SOL    HW132615   6.937   5.048   3.043
10572SOL    HW232616   0.073   5.088   3.012
10573SOL     OW32617   5.239   0.326   4.617
10573SOL    HW132618   5.214   0.368   4.705
10573SOL    HW232619   5.329   0.283   4.625
10574SOL     OW32620   6.899   1.592   4.417
10574SOL    HW132621   6.959   1.523   4.377
10574SOL    HW232622   6.949   1.678   4.426
10575SOL     OW32623   6.757   1.278   3.647
10575SOL    HW132624   6.707   1.192   3.645
10575SOL    HW232625   6.835   1.270   3.710
10576SOL     OW32626   0.455   6.103   3.295
10576SOL    HW132627   0.392   6.172   3.261
10576SOL    HW232628   0.483   6.127   3.388
10577SOL     OW32629   1.614   4.374   0.409
10577SOL    HW132630   1.660   4.405   0.492
10577SOL    HW232631   1.515   4.387   0.419
10578SOL     OW32632   4.535   1.115   3.372
10578SOL    HW132633   4.593   1.180   3.421
10578SOL    HW232634   4.540   1.133   3.274
10579SOL     OW32635   3.552   2.925   1.585
10579SOL    HW132636   3.619   2.852   1.580
10579SOL    HW232637   3.591   3.004   1.634
10580SOL     OW32638   6.267   6.217   5.824
10580SOL    HW132639   6.359   6.178   5.825
10580SOL    HW232640   6.265   6.296   5.762
10581SOL     OW32641   5.633   0.627   2.175
10581SOL    HW132642   5.637   0.726   2.160
10581SOL    HW232643   5.540   0.595   2.157
10582SOL     OW32644   4.659   4.567   6.336
10582SOL    HW132645   4.705   4.636   6.280
10582SOL    HW232646   4.592   4.519   6.280
10583SOL     OW32647   4.488   0.356   4.159
10583SOL    HW132648   4.479   0.310   4.247
10583SOL    HW232649   4.457   0.451   4.167
10584SOL     OW32650   6.260   7.010   6.977
10584SOL    HW132651   6.306   6.982   6.893
10584SOL    HW232652   6.310   6.974   0.037
10585SOL     OW32653   2.287   2.009   5.700
10585SOL    HW132654   2.191   1.999   5.727
10585SOL    HW232655   2.293   2.015   5.600
10586SOL     OW32656   5.018   5.492   5.766
10586SOL    HW132657   4.930   5.538   5.781
10586SOL    HW232658   5.011   5.397   5.798
10587SOL     OW32659   6.487   4.864   6.973
10587SOL    HW132660   6.424   4.805   6.921
10587SOL    HW232661   6.457   4.867   0.049
10588SOL     OW32662   1.789   1.908   4.955
10588SOL    HW132663   1.707   1.856   4.981
10588SOL    HW232664   1.839   1.934   5.037
10589SOL     OW32665   5.333   0.229   4.967
10589SOL    HW132666   5.276   0.284   5.029
10589SOL    HW232667   5.405   0.286   4.928
10590SOL     OW32668   0.250   6.915   1.264
10590SOL    HW132669   0.188   6.988   1.236
10590SOL    HW232670   0.335   6.921   1.212
10591SOL     OW32671   2.207   1.973   0.747
10591SOL    HW132672   2.278   2.026   0.702
10591SOL    HW232673   2.219   1.876   0.727
10592SOL     OW32674   5.414   3.412   4.457
10592SOL    HW132675   5.321   3.427   4.493
10592SOL    HW232676   5.410   3.404   4.357
10593SOL     OW32677   2.855   5.829   0.870
10593SOL    HW132678   2.791   5.905   0.886
10593SOL    HW232679   2.806   5.754   0.825
10594SOL     OW32680   4.860   1.595   2.961
10594SOL    HW132681   4.774   1.585   2.911
10594SOL    HW232682   4.911   1.673   2.924
10595SOL     OW32683   5.889   0.026   6.641
10595SOL    HW132684   5.922   6.967   6.694
10595SOL    HW232685   5.834   0.085   6.700
10596SOL     OW32686   4.617   0.763   0.005
10596SOL    HW132687   4.707   0.805   7.010
10596SOL    HW232688   4.548   0.811   6.971
10597SOL     OW32689   3.057   1.252   5.960
10597SOL    HW132690   3.117   1.187   6.006
10597SOL    HW232691   3.101   1.284   5.876
10598SOL     OW32692   3.355   2.481   6.494
10598SOL    HW132693   3.345   2.575   6.528
10598SOL    HW232694   3.281   2.425   6.532
10599SOL     OW32695   6.388   3.741   6.809
10599SOL    HW132696   6.448   3.720   6.732
10599SOL    HW232697   6.342   3.828   6.794
10600SOL     OW32698   3.510   2.603   1.570
10600SOL    HW132699   3.429   2.625   1.515
10600SOL    HW232700   3.577   2.556   1.513
10601SOL     OW32701   1.475   5.011   5.681
10601SOL    HW132702   1.492   5.098   5.727
10601SOL    HW232703   1.527   5.007   5.595
10602SOL     OW32704   0.932   0.672   1.242
10602SOL    HW132705   1.002   0.676   1.313
10602SOL    HW232706   0.956   0.736   1.169
10603SOL     OW32707   4.453   0.215   3.177
10603SOL    HW132708   4.491   0.213   3.084
10603SOL    HW232709   4.506   0.278   3.233
10604SOL     OW32710   6.795   5.387   4.906
10604SOL    HW132711   6.761   5.347   4.820
10604SOL    HW232712   6.762   5.331   4.983
10605SOL     OW32713   2.125   6.219   6.699
10605SOL    HW132714   2.138   6.263   6.610
10605SOL    HW232715   2.066   6.275   6.756
10606SOL     OW32716   6.789   1.325   1.110
10606SOL    HW132717   6.737   1.310   1.026
10606SOL    HW232718   6.887   1.323   1.090
10607SOL     OW32719   3.769   4.977   0.329
10607SOL    HW132720   3.859   4.950   0.363
10607SOL    HW232721   3.767   4.965   0.230
10608SOL     OW32722   6.833   3.724   4.255
10608SOL    HW132723   6.870   3.723   4.348
10608SOL    HW232724   6.909   3.730   4.190
10609SOL     OW32725   3.091   6.765   6.981
10609SOL    HW132726   3.094   6.680   0.013
10609SOL    HW232727   3.179   6.812   6.989
10610SOL     OW32728   0.415   2.248   4.105
10610SOL    HW132729   0.331   2.224   4.056
10610SOL    HW232730   0.408   2.342   4.138
10611SOL     OW32731   2.747   5.093   6.597
10611SOL    HW132732   2.712   5.043   6.517
10611SOL    HW232733   2.746   5.191   6.578
10612SOL     OW32734   5.120   2.244   4.267
10612SOL    HW132735   5.052   2.279   4.331
10612SOL    HW232736   5.102   2.147   4.249
10613SOL     OW32737   6.569   5.914   5.441
10613SOL    HW132738   6.650   5.886   5.389
10613SOL    HW232739   6.587   5.905   5.539
10614SOL     OW32740   5.357   1.304   4.474
10614SOL    HW132741   5.455   1.325   4.473
10614SOL    HW232742   5.335   1.252   4.556
10615SOL     OW32743   3.228   1.058   6.031
10615SOL    HW132744   3.276   0.971   6.018
10615SOL    HW232745   3.200   1.066   6.126
10616SOL     OW32746   3.144   6.431   0.248
10616SOL    HW132747   3.227   6.478   0.217
10616SOL    HW232748   3.110   6.372   0.174
10617SOL     OW32749   2.989   4.156   1.529
10617SOL    HW132750   3.035   4.227   1.474
10617SOL    HW232751   3.055   4.085   1.552
10618SOL     OW32752   1.714   4.857   5.751
10618SOL    HW132753   1.618   4.873   5.729
10618SOL    HW232754   1.764   4.833   5.667
10619SOL     OW32755   0.386   2.828   3.431
10619SOL    HW132756   0.460   2.765   3.452
10619SOL    HW232757   0.423   2.920   3.415
10620SOL     OW32758   1.255   0.123   5.042
10620SOL    HW132759   1.338   0.100   4.990
10620SOL    HW232760   1.280   0.177   5.122
10621SOL     OW32761   0.658   4.491   2.094
10621SOL    HW132762   0.581   4.553   2.079
10621SOL    HW232763   0.624   4.399   2.115
10622SOL     OW32764   4.416   2.435   2.166
10622SOL    HW132765   4.458   2.517   2.205
10622SOL    HW232766   4.484   2.386   2.112
10623SOL     OW32767   6.618   5.498   5.715
10623SOL    HW132768   6.640   5.574   5.776
10623SOL    HW232769   6.551   5.528   5.646
10624SOL     OW32770   0.330   2.652   5.884
10624SOL    HW132771   0.261   2.687   5.820
10624SOL    HW232772   0.358   2.560   5.856
10625SOL     OW32773   0.477   3.954   1.305
10625SOL    HW132774   0.441   3.862   1.290
10625SOL    HW232775   0.574   3.949   1.328
10626SOL     OW32776   3.476   3.051   0.802
10626SOL    HW132777   3.400   3.057   0.867
10626SOL    HW232778   3.441   3.062   0.709
10627SOL     OW32779   5.697   1.512   0.231
10627SOL    HW132780   5.703   1.426   0.182
10627SOL    HW232781   5.760   1.579   0.190
10628SOL     OW32782   4.168   6.952   1.128
10628SOL    HW132783   4.202   6.861   1.153
10628SOL    HW232784   4.168   6.962   1.029
10629SOL     OW32785   2.979   5.139   4.348
10629SOL    HW132786   2.899   5.081   4.333
10629SOL    HW232787   3.045   5.125   4.274
10630SOL     OW32788   6.204   1.634   2.354
10630SOL    HW132789   6.261   1.714   2.335
10630SOL    HW232790   6.200   1.617   2.452
10631SOL     OW32791   3.857   4.536   5.545
10631SOL    HW132792   3.894   4.451   5.583
10631SOL    HW232793   3.790   4.574   5.609
10632SOL     OW32794   5.389   6.418   3.746
10632SOL    HW132795   5.424   6.417   3.839
10632SOL    HW232796   5.462   6.443   3.683
10633SOL     OW32797   2.304   2.674   1.289
10633SOL    HW132798   2.343   2.663   1.381
10633SOL    HW232799   2.369   2.640   1.221
10634SOL     OW32800   2.121   5.040   0.484
10634SOL    HW132801   2.051   5.007   0.546
10634SOL    HW232802   2.212   5.021   0.523
10635SOL     OW32803   1.759   3.192   6.156
10635SOL    HW132804   1.751   3.270   6.095
10635SOL    HW232805   1.850   3.150   6.145
10636SOL     OW32806   0.617   2.186   1.390
10636SOL    HW132807   0.641   2.272   1.435
10636SOL    HW232808   0.551   2.136   1.446
10637SOL     OW32809   1.368   5.039   6.016
10637SOL    HW132810   1.440   4.970   6.026
10637SOL    HW232811   1.281   4.995   5.994
10638SOL     OW32812   5.047   6.344   2.818
10638SOL    HW132813   5.017   6.307   2.906
10638SOL    HW232814   5.082   6.437   2.831
10639SOL     OW32815   0.996   3.744   2.608
10639SOL    HW132816   1.058   3.750   2.530
10639SOL    HW232817   0.921   3.682   2.585
10640SOL     OW32818   4.431   0.432   3.587
10640SOL    HW132819   4.468   0.346   3.623
10640SOL    HW232820   4.373   0.474   3.656
10641SOL     OW32821   2.222   1.792   2.867
10641SOL    HW132822   2.280   1.873   2.870
10641SOL    HW232823   2.273   1.713   2.901
10642SOL     OW32824   6.444   1.638   0.855
10642SOL    HW132825   6.365   1.620   0.796
10642SOL    HW232826   6.467   1.555   0.905
10643SOL     OW32827   2.499   5.637   5.186
10643SOL    HW132828   2.505   5.579   5.104
10643SOL    HW232829   2.436   5.712   5.169
10644SOL     OW32830   5.330   2.832   1.004
10644SOL    HW132831   5.393   2.773   0.953
10644SOL    HW232832   5.246   2.844   0.952
10645SOL     OW32833   1.298   2.937   4.316
10645SOL    HW132834   1.310   2.862   4.381
10645SOL    HW232835   1.201   2.955   4.302
10646SOL     OW32836   0.236   0.650   5.848
10646SOL    HW132837   0.277   0.585   5.784
10646SOL    HW232838   0.144   0.617   5.874
10647SOL     OW32839   2.972   5.398   4.461
10647SOL    HW132840   2.969   5.303   4.430
10647SOL    HW232841   3.068   5.426   4.470
10648SOL     OW32842   5.911   4.866   6.671
10648SOL    HW132843   5.920   4.949   6.725
10648SOL    HW232844   5.880   4.889   6.579
10649SOL     OW32845   0.434   3.936   3.226
10649SOL    HW132846   0.459   3.841   3.244
10649SOL    HW232847   0.335   3.947   3.232
10650SOL     OW32848   0.675   0.578   3.838
10650SOL    HW132849   0.594   0.574   3.780
10650SOL    HW232850   0.731   0.656   3.813
10651SOL     OW32851   6.343   6.292   6.392
10651SOL    HW132852   6.379   6.201   6.416
10651SOL    HW232853   6.244   6.286   6.382
10652SOL     OW32854   2.578   6.201   6.213
10652SOL    HW132855   2.644   6.133   6.245
10652SOL    HW232856   2.622   6.259   6.143
10653SOL     OW32857   4.268   5.673   4.010
10653SOL    HW132858   4.194   5.711   3.955
10653SOL    HW232859   4.234   5.593   4.060
10654SOL     OW32860   5.205   0.232   6.600
10654SOL    HW132861   5.182   0.212   6.695
10654SOL    HW232862   5.225   0.147   6.552
10655SOL     OW32863   1.902   5.690   0.104
10655SOL    HW132864   1.897   5.618   0.035
10655SOL    HW232865   1.901   5.779   0.058
10656SOL     OW32866   6.728   1.842   2.397
10656SOL    HW132867   6.817   1.854   2.439
10656SOL    HW232868   6.720   1.902   2.317
10657SOL     OW32869   6.083   0.677   4.827
10657SOL    HW132870   5.985   0.697   4.823
10657SOL    HW232871   6.135   0.762   4.830
10658SOL     OW32872   6.915   4.591   4.674
10658SOL    HW132873   6.987   4.528   4.643
10658SOL    HW232874   6.826   4.559   4.642
10659SOL     OW32875   0.830   5.638   0.778
10659SOL    HW132876   0.829   5.724   0.829
10659SOL    HW232877   0.921   5.598   0.782
10660SOL     OW32878   5.544   3.752   6.188
10660SOL    HW132879   5.485   3.812   6.242
10660SOL    HW232880   5.487   3.699   6.124
10661SOL     OW32881   1.062   6.641   0.876
10661SOL    HW132882   1.112   6.718   0.837
10661SOL    HW232883   1.127   6.572   0.909
10662SOL     OW32884   4.494   0.570   2.376
10662SOL    HW132885   4.471   0.624   2.295
10662SOL    HW232886   4.415   0.565   2.436
10663SOL     OW32887   0.703   1.264   2.463
10663SOL    HW132888   0.675   1.220   2.377
10663SOL    HW232889   0.635   1.244   2.534
10664SOL     OW32890   6.226   4.284   5.153
10664SOL    HW132891   6.253   4.230   5.233
10664SOL    HW232892   6.157   4.351   5.179
10665SOL     OW32893   0.946   1.694   0.144
10665SOL    HW132894   0.885   1.630   0.190
10665SOL    HW232895   1.034   1.697   0.191
10666SOL     OW32896   3.193   3.962   1.501
10666SOL    HW132897   3.240   3.955   1.589
10666SOL    HW232898   3.117   3.897   1.499
10667SOL     OW32899   4.875   2.303   4.387
10667SOL    HW132900   4.805   2.242   4.423
10667SOL    HW232901   4.832   2.385   4.349
10668SOL     OW32902   2.914   1.523   5.019
10668SOL    HW132903   2.993   1.557   5.070
10668SOL    HW232904   2.833   1.575   5.045
10669SOL     OW32905   5.142   0.537   1.879
10669SOL    HW132906   5.239   0.559   1.886
10669SOL    HW232907   5.117   0.526   1.783
10670SOL     OW32908   5.630   5.256   4.905
10670SOL    HW132909   5.603   5.170   4.861
10670SOL    HW232910   5.700   5.237   4.974
10671SOL     OW32911   1.659   2.209   4.070
10671SOL    HW132912   1.633   2.210   3.974
10671SOL    HW232913   1.615   2.132   4.116
10672SOL     OW32914   6.730   3.825   1.755
10672SOL    HW132915   6.750   3.858   1.663
10672SOL    HW232916   6.786   3.875   1.821
10673SOL     OW32917   0.063   1.168   6.410
10673SOL    HW132918   0.025   1.113   6.336
10673SOL    HW232919   0.156   1.137   6.430
10674SOL     OW32920   4.119   3.448   3.295
10674SOL    HW132921   4.132   3.546   3.280
10674SOL    HW232922   4.089   3.405   3.210
10675SOL     OW32923   1.895   6.684   6.996
10675SOL    HW132924   1.806   6.689   6.950
10675SOL    HW232925   1.961   6.739   6.945
10676SOL     OW32926   6.553   6.398   5.171
10676SOL    HW132927   6.459   6.364   5.178
10676SOL    HW232928   6.584   6.392   5.076
10677SOL     OW32929   1.701   0.539   1.527
10677SOL    HW132930   1.633   0.610   1.508
10677SOL    HW232931   1.793   0.577   1.518
10678SOL     OW32932   4.839   5.746   4.175
10678SOL    HW132933   4.833   5.758   4.076
10678SOL    HW232934   4.933   5.725   4.201
10679SOL     OW32935   4.384   5.320   6.633
10679SOL    HW132936   4.348   5.401   6.586
10679SOL    HW232937   4.480   5.336   6.657
10680SOL     OW32938   3.732   2.154   4.032
10680SOL    HW132939   3.678   2.170   3.949
10680SOL    HW232940   3.687   2.199   4.109
10681SOL     OW32941   0.753   3.449   0.411
10681SOL    HW132942   0.665   3.468   0.366
10681SOL    HW232943   0.822   3.429   0.341
10682SOL     OW32944   0.491   1.399   5.359
10682SOL    HW132945   0.548   1.344   5.420
10682SOL    HW232946   0.522   1.388   5.265
10683SOL     OW32947   5.063   1.822   3.645
10683SOL    HW132948   5.053   1.916   3.677
10683SOL    HW232949   5.006   1.762   3.700
10684SOL     OW32950   5.239   5.227   3.326
10684SOL    HW132951   5.173   5.166   3.369
10684SOL    HW232952   5.315   5.244   3.388
10685SOL     OW32953   0.972   5.474   1.588
10685SOL    HW132954   0.935   5.385   1.617
10685SOL    HW232955   0.998   5.470   1.492
10686SOL     OW32956   0.700   4.417   5.439
10686SOL    HW132957   0.621   4.414   5.501
10686SOL    HW232958   0.748   4.504   5.450
10687SOL     OW32959   6.090   5.791   3.507
10687SOL    HW132960   6.144   5.720   3.553
10687SOL    HW232961   5.998   5.757   3.489
10688SOL     OW32962   6.742   3.531   2.377
10688SOL    HW132963   6.708   3.465   2.310
10688SOL    HW232964   6.770   3.615   2.330
10689SOL     OW32965   0.196   0.122   3.526
10689SOL    HW132966   0.149   0.192   3.580
10689SOL    HW232967   0.261   0.166   3.464
10690SOL     OW32968   0.171   5.998   3.739
10690SOL    HW132969   0.238   5.946   3.793
10690SOL    HW232970   0.137   6.075   3.793
10691SOL     OW32971   0.559   2.215   2.568
10691SOL    HW132972   0.571   2.285   2.638
10691SOL    HW232973   0.622   2.234   2.492
10692SOL     OW32974   3.131   6.337   3.743
10692SOL    HW132975   3.103   6.256   3.691
10692SOL    HW232976   3.052   6.397   3.757
10693SOL     OW32977   1.865   6.265   0.452
10693SOL    HW132978   1.943   6.211   0.420
10693SOL    HW232979   1.780   6.223   0.418
10694SOL     OW32980   5.364   6.796   0.864
10694SOL    HW132981   5.419   6.746   0.797
10694SOL    HW232982   5.355   6.741   0.947
10695SOL     OW32983   0.171   2.349   2.796
10695SOL    HW132984   0.152   2.265   2.745
10695SOL    HW232985   0.153   2.334   2.893
10696SOL     OW32986   6.826   4.228   3.558
10696SOL    HW132987   6.875   4.260   3.478
10696SOL    HW232988   6.849   4.286   3.637
10697SOL     OW32989   6.851   6.003   4.668
10697SOL    HW132990   6.810   5.951   4.743
10697SOL    HW232991   6.792   6.081   4.646
10698SOL     OW32992   5.071   4.189   6.200
10698SOL    HW132993   5.034   4.188   6.292
10698SOL    HW232994   5.130   4.269   6.189
10699SOL     OW32995   3.545   4.105   1.887
10699SOL    HW132996   3.590   4.192   1.867
10699SOL    HW232997   3.601   4.030   1.851
10700SOL     OW32998   6.249   0.180   0.809
10700SOL    HW132999   6.206   0.267   0.834
10700SOL    HW233000   6.310   0.195   0.731
10701SOL     OW33001   2.964   6.468   6.830
10701SOL    HW133002   2.866   6.485   6.840
10701SOL    HW233003   2.995   6.502   6.741
10702SOL     OW33004   5.609   3.466   1.511
10702SOL    HW133005   5.554   3.387   1.483
10702SOL    HW233006   5.612   3.471   1.611
10703SOL     OW33007   3.141   3.049   4.946
10703SOL    HW133008   3.208   3.016   4.879
10703SOL    HW233009   3.099   2.970   4.992
10704SOL     OW33010   6.115   5.891   1.538
10704SOL    HW133011   6.187   5.955   1.511
10704SOL    HW233012   6.041   5.894   1.471
10705SOL     OW33013   5.452   5.061   2.512
10705SOL    HW133014   5.448   5.012   2.599
10705SOL    HW233015   5.543   5.054   2.473
10706SOL     OW33016   5.331   0.010   2.463
10706SOL    HW133017   5.405   0.075   2.479
10706SOL    HW233018   5.248   0.059   2.439
10707SOL     OW33019   6.762   6.781   4.269
10707SOL    HW133020   6.824   6.712   4.306
10707SOL    HW233021   6.810   6.837   4.202
10708SOL     OW33022   4.107   0.665   2.028
10708SOL    HW133023   4.032   0.687   1.966
10708SOL    HW233024   4.155   0.748   2.055
10709SOL     OW33025   5.901   5.428   5.523
10709SOL    HW133026   5.888   5.468   5.613
10709SOL    HW233027   5.851   5.482   5.455
10710SOL     OW33028   0.357   0.054   4.337
10710SOL    HW133029   0.281   0.107   4.375
10710SOL    HW233030   0.439   0.111   4.331
10711SOL     OW33031   1.983   6.920   4.577
10711SOL    HW133032   1.914   6.900   4.507
10711SOL    HW233033   2.059   6.970   4.535
10712SOL     OW33034   3.271   0.943   1.617
10712SOL    HW133035   3.347   0.878   1.616
10712SOL    HW233036   3.259   0.979   1.710
10713SOL     OW33037   0.946   3.725   1.614
10713SOL    HW133038   0.915   3.638   1.575
10713SOL    HW233039   0.999   3.774   1.546
10714SOL     OW33040   5.987   3.889   4.596
10714SOL    HW133041   6.042   3.858   4.673
10714SOL    HW233042   6.048   3.919   4.522
10715SOL     OW33043   5.069   0.698   2.973
10715SOL    HW133044   5.064   0.654   2.884
10715SOL    HW233045   5.165   0.701   3.003
10716SOL     OW33046   5.873   2.307   4.337
10716SOL    HW133047   5.833   2.229   4.288
10716SOL    HW233048   5.945   2.348   4.282
10717SOL     OW33049   1.421   1.985   1.016
10717SOL    HW133050   1.458   1.893   1.013
10717SOL    HW233051   1.374   1.999   1.104
10718SOL     OW33052   1.326   3.053   6.421
10718SOL    HW133053   1.267   2.977   6.393
10718SOL    HW233054   1.420   3.020   6.434
10719SOL     OW33055   6.345   5.690   2.286
10719SOL    HW133056   6.351   5.660   2.191
10719SOL    HW233057   6.284   5.769   2.292
10720SOL     OW33058   0.753   4.300   4.759
10720SOL    HW133059   0.818   4.238   4.715
10720SOL    HW233060   0.770   4.393   4.729
10721SOL     OW33061   5.642   4.371   5.174
10721SOL    HW133062   5.683   4.448   5.127
10721SOL    HW233063   5.682   4.362   5.265
10722SOL     OW33064   1.151   4.892   0.509
10722SOL    HW133065   1.213   4.953   0.460
10722SOL    HW233066   1.147   4.804   0.462
10723SOL     OW33067   0.218   3.450   6.208
10723SOL    HW133068   0.274   3.369   6.190
10723SOL    HW233069   0.151   3.461   6.135
10724SOL     OW33070   5.711   1.002   6.745
10724SOL    HW133071   5.672   1.024   6.834
10724SOL    HW233072   5.678   0.913   6.715
10725SOL     OW33073   1.081   5.293   4.499
10725SOL    HW133074   1.023   5.369   4.530
10725SOL    HW233075   1.033   5.207   4.514
10726SOL     OW33076   5.158   6.858   5.907
10726SOL    HW133077   5.091   6.818   5.970
10726SOL    HW233078   5.138   6.827   5.814
10727SOL     OW33079   0.610   4.941   5.034
10727SOL    HW133080   0.681   4.933   4.965
10727SOL    HW233081   0.648   4.917   5.124
10728SOL     OW33082   0.215   6.033   0.324
10728SOL    HW133083   0.178   6.105   0.265
10728SOL    HW233084   0.187   6.049   0.419
10729SOL     OW33085   5.414   1.068   1.484
10729SOL    HW133086   5.397   1.013   1.566
10729SOL    HW233087   5.333   1.066   1.426
10730SOL     OW33088   1.966   0.347   1.724
10730SOL    HW133089   1.898   0.330   1.795
10730SOL    HW233090   1.934   0.310   1.637
10731SOL     OW33091   3.101   6.052   0.826
10731SOL    HW133092   3.077   5.963   0.865
10731SOL    HW233093   3.030   6.081   0.762
10732SOL     OW33094   5.692   5.133   3.700
10732SOL    HW133095   5.788   5.159   3.703
10732SOL    HW233096   5.662   5.124   3.605
10733SOL     OW33097   6.328   1.954   1.169
10733SOL    HW133098   6.237   1.951   1.212
10733SOL    HW233099   6.318   1.938   1.071
10734SOL     OW33100   0.832   0.371   6.799
10734SOL    HW133101   0.790   0.431   6.867
10734SOL    HW233102   0.762   0.340   6.735
10735SOL     OW33103   1.719   3.529   3.353
10735SOL    HW133104   1.701   3.466   3.278
10735SOL    HW233105   1.700   3.484   3.440
10736SOL     OW33106   1.558   0.423   3.174
10736SOL    HW133107   1.530   0.344   3.120
10736SOL    HW233108   1.633   0.396   3.235
10737SOL     OW33109   2.015   1.832   0.387
10737SOL    HW133110   2.029   1.919   0.434
10737SOL    HW233111   1.917   1.817   0.373
10738SOL     OW33112   3.178   0.287   3.836
10738SOL    HW133113   3.255   0.245   3.789
10738SOL    HW233114   3.171   0.252   3.929
10739SOL     OW33115   0.394   1.434   1.039
10739SOL    HW133116   0.432   1.351   0.999
10739SOL    HW233117   0.450   1.512   1.012
10740SOL     OW33118   0.241   4.533   5.296
10740SOL    HW133119   0.240   4.625   5.336
10740SOL    HW233120   0.180   4.531   5.217
10741SOL     OW33121   6.664   0.113   1.697
10741SOL    HW133122   6.748   0.060   1.683
10741SOL    HW233123   6.619   0.084   1.781
10742SOL     OW33124   5.877   0.702   1.401
10742SOL    HW133125   5.967   0.679   1.438
10742SOL    HW233126   5.807   0.674   1.466
10743SOL     OW33127   2.788   1.889   5.129
10743SOL    HW133128   2.767   1.893   5.227
10743SOL    HW233129   2.886   1.908   5.115
10744SOL     OW33130   3.508   1.068   1.349
10744SOL    HW133131   3.580   0.999   1.350
10744SOL    HW233132   3.504   1.110   1.259
10745SOL     OW33133   0.183   5.185   0.035
10745SOL    HW133134   0.090   5.154   0.055
10745SOL    HW233135   0.191   5.202   6.956
10746SOL     OW33136   2.282   4.047   1.191
10746SOL    HW133137   2.365   4.081   1.235
10746SOL    HW233138   2.206   4.047   1.256
10747SOL     OW33139   4.326   0.891   3.574
10747SOL    HW133140   4.418   0.892   3.536
10747SOL    HW233141   4.296   0.797   3.587
10748SOL     OW33142   3.743   0.802   1.563
10748SOL    HW133143   3.734   0.888   1.612
10748SOL    HW233144   3.839   0.777   1.556
10749SOL     OW33145   0.204   5.728   3.617
10749SOL    HW133146   0.180   5.809   3.671
10749SOL    HW233147   0.143   5.722   3.538
10750SOL     OW33148   4.482   6.228   5.086
10750SOL    HW133149   4.495   6.132   5.062
10750SOL    HW233150   4.464   6.235   5.184
10751SOL     OW33151   1.402   4.670   4.058
10751SOL    HW133152   1.464   4.594   4.035
10751SOL    HW233153   1.428   4.751   4.007
10752SOL     OW33154   5.923   4.076   6.068
10752SOL    HW133155   5.965   4.147   6.010
10752SOL    HW233156   5.994   4.019   6.109
10753SOL     OW33157   4.354   6.916   4.498
10753SOL    HW133158   4.257   6.896   4.508
10753SOL    HW233159   4.396   6.924   4.589
10754SOL     OW33160   1.155   1.395   3.308
10754SOL    HW133161   1.080   1.334   3.282
10754SOL    HW233162   1.123   1.490   3.305
10755SOL     OW33163   6.981   0.945   6.233
10755SOL    HW133164   6.903   1.005   6.222
10755SOL    HW233165   6.954   0.863   6.284
10756SOL     OW33166   6.880   4.168   0.326
10756SOL    HW133167   6.878   4.161   0.226
10756SOL    HW233168   6.803   4.116   0.364
10757SOL     OW33169   1.357   2.918   0.314
10757SOL    HW133170   1.448   2.877   0.319
10757SOL    HW233171   1.355   2.988   0.243
10758SOL     OW33172   0.863   6.602   4.245
10758SOL    HW133173   0.891   6.644   4.331
10758SOL    HW233174   0.932   6.536   4.217
10759SOL     OW33175   1.777   2.998   0.918
10759SOL    HW133176   1.747   2.906   0.893
10759SOL    HW233177   1.875   3.008   0.901
10760SOL     OW33178   6.478   1.333   1.330
10760SOL    HW133179   6.437   1.317   1.420
10760SOL    HW233180   6.563   1.384   1.340
10761SOL     OW33181   1.026   0.919   6.041
10761SOL    HW133182   1.108   0.938   6.095
10761SOL    HW233183   0.954   0.985   6.064
10762SOL     OW33184   4.134   1.820   4.600
10762SOL    HW133185   4.212   1.862   4.646
10762SOL    HW233186   4.063   1.889   4.585
10763SOL     OW33187   4.620   6.243   2.230
10763SOL    HW133188   4.644   6.154   2.268
10763SOL    HW233189   4.695   6.274   2.171
10764SOL     OW33190   5.547   2.325   6.057
10764SOL    HW133191   5.637   2.314   6.016
10764SOL    HW233192   5.480   2.270   6.007
10765SOL     OW33193   5.354   2.322   0.440
10765SOL    HW133194   5.278   2.320   0.376
10765SOL    HW233195   5.426   2.382   0.405
10766SOL     OW33196   5.114   3.209   1.145
10766SOL    HW133197   5.035   3.194   1.086
10766SOL    HW233198   5.127   3.308   1.159
10767SOL     OW33199   1.023   0.519   7.010
10767SOL    HW133200   1.088   0.591   6.983
10767SOL    HW233201   0.930   0.547   6.984
10768SOL     OW33202   4.649   4.299   1.190
10768SOL    HW133203   4.667   4.213   1.237
10768SOL    HW233204   4.696   4.373   1.237
10769SOL     OW33205   2.526   4.545   4.646
10769SOL    HW133206   2.468   4.579   4.719
10769SOL    HW233207   2.618   4.528   4.681
10770SOL     OW33208   5.622   0.524   5.085
10770SOL    HW133209   5.634   0.467   5.167
10770SOL    HW233210   5.535   0.572   5.090
10771SOL     OW33211   5.425   1.317   3.169
10771SOL    HW133212   5.470   1.345   3.254
10771SOL    HW233213   5.348   1.378   3.150
10772SOL     OW33214   6.882   6.816   4.817
10772SOL    HW133215   6.813   6.868   4.767
10772SOL    HW233216   6.919   6.744   4.759
10773SOL     OW33217   6.941   5.456   0.040
10773SOL    HW133218   6.861   5.501   0.081
10773SOL    HW233219   6.951   5.487   6.965
10774SOL     OW33220   1.493   1.341   6.213
10774SOL    HW133221   1.408   1.360   6.262
10774SOL    HW233222   1.543   1.267   6.260
10775SOL     OW33223   0.188   4.083   1.330
10775SOL    HW133224   0.129   4.040   1.399
10775SOL    HW233225   0.279   4.043   1.334
10776SOL     OW33226   0.829   6.707   6.955
10776SOL    HW133227   0.752   6.647   6.979
10776SOL    HW233228   0.795   6.801   6.945
10777SOL     OW33229   3.772   6.120   2.816
10777SOL    HW133230   3.699   6.185   2.798
10777SOL    HW233231   3.806   6.132   2.909
10778SOL     OW33232   5.860   6.847   4.615
10778SOL    HW133233   5.855   6.830   4.517
10778SOL    HW233234   5.838   6.943   4.634
10779SOL     OW33235   6.452   4.871   3.583
10779SOL    HW133236   6.530   4.885   3.644
10779SOL    HW233237   6.467   4.920   3.497
10780SOL     OW33238   2.301   0.687   3.645
10780SOL    HW133239   2.265   0.721   3.732
10780SOL    HW233240   2.225   0.660   3.586
10781SOL     OW33241   4.258   0.495   3.363
10781SOL    HW133242   4.305   0.554   3.298
10781SOL    HW233243   4.322   0.465   3.434
10782SOL     OW33244   5.710   1.587   2.549
10782SOL    HW133245   5.707   1.652   2.473
10782SOL    HW233246   5.673   1.630   2.631
10783SOL     OW33247   0.879   3.906   3.531
10783SOL    HW133248   0.814   3.970   3.490
10783SOL    HW233249   0.834   3.853   3.602
10784SOL     OW33250   3.627   0.601   4.286
10784SOL    HW133251   3.555   0.548   4.331
10784SOL    HW233252   3.674   0.658   4.354
10785SOL     OW33253   0.222   4.954   2.083
10785SOL    HW133254   0.246   4.884   2.015
10785SOL    HW233255   0.289   5.028   2.078
10786SOL     OW33256   5.370   4.987   3.267
10786SOL    HW133257   5.326   4.917   3.324
10786SOL    HW233258   5.307   5.065   3.256
10787SOL     OW33259   2.102   1.414   4.692
10787SOL    HW133260   2.169   1.419   4.766
10787SOL    HW233261   2.023   1.472   4.714
10788SOL     OW33262   2.042   4.767   6.140
10788SOL    HW133263   2.050   4.852   6.192
10788SOL    HW233264   2.016   4.693   6.202
10789SOL     OW33265   7.006   2.776   6.285
10789SOL    HW133266   7.015   2.784   6.186
10789SOL    HW233267   6.912   2.797   6.312
10790SOL     OW33268   1.459   1.079   1.986
10790SOL    HW133269   1.545   1.100   2.033
10790SOL    HW233270   1.451   0.980   1.972
10791SOL     OW33271   0.754   7.008   1.089
10791SOL    HW133272   0.742   0.032   1.178
10791SOL    HW233273   0.753   6.908   1.101
10792SOL     OW33274   3.427   3.661   3.653
10792SOL    HW133275   3.391   3.602   3.726
10792SOL    HW233276   3.472   3.741   3.694
10793SOL     OW33277   6.119   3.274   4.350
10793SOL    HW133278   6.160   3.209   4.286
10793SOL    HW233279   6.050   3.329   4.302
10794SOL     OW33280   3.109   3.876   3.448
10794SOL    HW133281   3.134   3.948   3.512
10794SOL    HW233282   3.095   3.915   3.357
10795SOL     OW33283   6.542   4.454   2.639
10795SOL    HW133284   6.445   4.476   2.623
10795SOL    HW233285   6.573   4.498   2.723
10796SOL     OW33286   5.647   6.660   0.294
10796SOL    HW133287   5.601   6.749   0.290
10796SOL    HW233288   5.730   6.668   0.348
10797SOL     OW33289   4.425   2.614   1.402
10797SOL    HW133290   4.422   2.636   1.304
10797SOL    HW233291   4.342   2.564   1.427
10798SOL     OW33292   2.883   6.109   0.654
10798SOL    HW133293   2.893   6.012   0.634
10798SOL    HW233294   2.908   6.163   0.574
10799SOL     OW33295   3.904   0.743   1.865
10799SOL    HW133296   3.813   0.779   1.884
10799SOL    HW233297   3.920   0.743   1.767
10800SOL     OW33298   0.512   6.850   6.386
10800SOL    HW133299   0.521   6.788   6.308
10800SOL    HW233300   0.579   6.825   6.456
10801SOL     OW33301   0.713   5.720   5.984
10801SOL    HW133302   0.628   5.672   5.962
10801SOL    HW233303   0.706   5.758   6.076
10802SOL     OW33304   0.251   1.948   3.387
10802SOL    HW133305   0.190   1.932   3.464
10802SOL    HW233306   0.333   1.893   3.397
10803SOL     OW33307   3.314   4.258   5.974
10803SOL    HW133308   3.277   4.237   5.884
10803SOL    HW233309   3.379   4.186   6.001
10804SOL     OW33310   5.771   3.513   1.995
10804SOL    HW133311   5.768   3.424   2.040
10804SOL    HW233312   5.719   3.509   1.909
10805SOL     OW33313   4.208   0.142   0.177
10805SOL    HW133314   4.186   0.216   0.113
10805SOL    HW233315   4.174   0.167   0.268
10806SOL     OW33316   4.859   4.009   6.109
10806SOL    HW133317   4.893   3.930   6.058
10806SOL    HW233318   4.932   4.077   6.118
10807SOL     OW33319   1.317   0.161   2.025
10807SOL    HW133320   1.284   0.073   2.058
10807SOL    HW233321   1.353   0.151   1.933
10808SOL     OW33322   6.937   3.158   6.228
10808SOL    HW133323   6.865   3.227   6.240
10808SOL    HW233324   6.970   3.161   6.134
10809SOL     OW33325   3.068   5.345   3.331
10809SOL    HW133326   3.008   5.423   3.345
10809SOL    HW233327   3.085   5.332   3.233
10810SOL     OW33328   1.845   0.546   4.004
10810SOL    HW133329   1.795   0.521   3.921
10810SOL    HW233330   1.893   0.632   3.989
10811SOL     OW33331   4.142   4.316   6.406
10811SOL    HW133332   4.186   4.226   6.413
10811SOL    HW233333   4.213   4.386   6.395
10812SOL     OW33334   0.634   4.084   0.866
10812SOL    HW133335   0.572   4.078   0.944
10812SOL    HW233336   0.721   4.040   0.889
10813SOL     OW33337   1.983   4.515   6.823
10813SOL    HW133338   1.906   4.473   6.776
10813SOL    HW233339   2.069   4.478   6.787
10814SOL     OW33340   1.236   6.234   6.406
10814SOL    HW133341   1.304   6.174   6.362
10814SOL    HW233342   1.273   6.327   6.412
10815SOL     OW33343   4.519   4.509   3.230
10815SOL    HW133344   4.482   4.463   3.149
10815SOL    HW233345   4.546   4.440   3.298
10816SOL     OW33346   2.929   3.375   2.159
10816SOL    HW133347   2.887   3.403   2.246
10816SOL    HW233348   2.964   3.455   2.111
10817SOL     OW33349   4.295   0.165   3.438
10817SOL    HW133350   4.272   0.119   3.524
10817SOL    HW233351   4.388   0.204   3.445
10818SOL     OW33352   4.541   4.450   5.479
10818SOL    HW133353   4.489   4.366   5.489
10818SOL    HW233354   4.621   4.448   5.540
10819SOL     OW33355   6.469   4.599   6.649
10819SOL    HW133356   6.567   4.582   6.635
10819SOL    HW233357   6.430   4.641   6.567
10820SOL     OW33358   6.460   5.807   3.710
10820SOL    HW133359   6.367   5.799   3.746
10820SOL    HW233360   6.523   5.826   3.785
10821SOL     OW33361   5.902   0.074   1.960
10821SOL    HW133362   5.910   0.132   1.879
10821SOL    HW233363   5.993   0.046   1.991
10822SOL     OW33364   7.016   3.307   3.101
10822SOL    HW133365   6.930   3.353   3.080
10822SOL    HW233366   0.033   3.265   3.018
10823SOL     OW33367   1.532   6.141   1.324
10823SOL    HW133368   1.454   6.092   1.361
10823SOL    HW233369   1.535   6.130   1.224
10824SOL     OW33370   6.625   1.609   3.253
10824SOL    HW133371   6.582   1.610   3.162
10824SOL    HW233372   6.673   1.523   3.266
10825SOL     OW33373   2.517   1.325   6.156
10825SOL    HW133374   2.533   1.272   6.072
10825SOL    HW233375   2.419   1.335   6.171
10826SOL     OW33376   1.277   3.152   4.105
10826SOL    HW133377   1.183   3.166   4.137
10826SOL    HW233378   1.334   3.128   4.183
10827SOL     OW33379   6.675   3.471   4.423
10827SOL    HW133380   6.604   3.524   4.470
10827SOL    HW233381   6.734   3.532   4.370
10828SOL     OW33382   0.838   4.708   0.797
10828SOL    HW133383   0.836   4.667   0.707
10828SOL    HW233384   0.745   4.723   0.830
10829SOL     OW33385   4.265   2.503   0.617
10829SOL    HW133386   4.250   2.585   0.562
10829SOL    HW233387   4.284   2.425   0.557
10830SOL     OW33388   5.416   1.969   2.670
10830SOL    HW133389   5.438   1.935   2.762
10830SOL    HW233390   5.500   1.989   2.621
10831SOL     OW33391   2.629   5.809   2.496
10831SOL    HW133392   2.534   5.819   2.467
10831SOL    HW233393   2.682   5.887   2.462
10832SOL     OW33394   0.826   2.560   6.053
10832SOL    HW133395   0.910   2.611   6.035
10832SOL    HW233396   0.843   2.493   6.125
10833SOL     OW33397   1.042   0.729   2.297
10833SOL    HW133398   1.030   0.828   2.295
10833SOL    HW233399   1.041   0.698   2.392
10834SOL     OW33400   0.533   1.664   0.272
10834SOL    HW133401   0.450   1.616   0.301
10834SOL    HW233402   0.536   1.754   0.315
10835SOL     OW33403   5.864   2.381   0.275
10835SOL    HW133404   5.855   2.434   0.359
10835SOL    HW233405   5.865   2.443   0.197
10836SOL     OW33406   6.403   1.341   4.887
10836SOL    HW133407   6.466   1.281   4.838
10836SOL    HW233408   6.408   1.320   4.985
10837SOL     OW33409   7.004   5.221   1.434
10837SOL    HW133410   0.063   5.282   1.437
10837SOL    HW233411   0.015   5.127   1.448
10838SOL     OW33412   5.787   5.590   4.557
10838SOL    HW133413   5.872   5.642   4.546
10838SOL    HW233414   5.801   5.517   4.623
10839SOL     OW33415   4.432   2.949   1.697
10839SOL    HW133416   4.388   2.860   1.708
10839SOL    HW233417   4.507   2.957   1.763
10840SOL     OW33418   2.294   5.748   2.692
10840SOL    HW133419   2.333   5.834   2.722
10840SOL    HW233420   2.281   5.750   2.593
10841SOL     OW33421   5.644   5.187   6.117
10841SOL    HW133422   5.607   5.272   6.154
10841SOL    HW233423   5.743   5.186   6.131
10842SOL     OW33424   4.869   2.606   1.954
10842SOL    HW133425   4.806   2.661   2.008
10842SOL    HW233426   4.863   2.633   1.858
10843SOL     OW33427   1.218   2.003   1.213
10843SOL    HW133428   1.171   2.089   1.228
10843SOL    HW233429   1.170   1.930   1.262
10844SOL     OW33430   6.926   6.887   3.370
10844SOL    HW133431   6.845   6.887   3.311
10844SOL    HW233432   6.913   6.951   3.445
10845SOL     OW33433   3.092   0.233   5.459
10845SOL    HW133434   3.020   0.295   5.489
10845SOL    HW233435   3.178   0.283   5.451
10846SOL     OW33436   4.716   1.518   0.253
10846SOL    HW133437   4.759   1.518   0.162
10846SOL    HW233438   4.774   1.468   0.317
10847SOL     OW33439   3.517   3.279   6.879
10847SOL    HW133440   3.562   3.190   6.870
10847SOL    HW233441   3.582   3.345   6.918
10848SOL     OW33442   3.028   3.460   6.735
10848SOL    HW133443   3.047   3.558   6.742
10848SOL    HW233444   2.931   3.446   6.713
10849SOL     OW33445   2.008   5.666   3.662
10849SOL    HW133446   2.047   5.690   3.751
10849SOL    HW233447   1.996   5.567   3.658
10850SOL     OW33448   2.672   5.522   6.897
10850SOL    HW133449   2.767   5.518   6.867
10850SOL    HW233450   2.612   5.501   6.820
10851SOL     OW33451   1.910   3.337   6.558
10851SOL    HW133452   1.955   3.248   6.551
10851SOL    HW233453   1.847   3.349   6.482
10852SOL     OW33454   1.386   0.303   6.993
10852SOL    HW133455   1.297   0.273   0.008
10852SOL    HW233456   1.438   0.346   0.047
10853SOL     OW33457   1.514   2.449   5.352
10853SOL    HW133458   1.592   2.399   5.391
10853SOL    HW233459   1.433   2.391   5.353
10854SOL     OW33460   4.250   5.102   5.316
10854SOL    HW133461   4.227   5.187   5.267
10854SOL    HW233462   4.344   5.075   5.293
10855SOL     OW33463   3.093   6.865   0.593
10855SOL    HW133464   3.036   6.851   0.674
10855SOL    HW233465   3.150   6.784   0.577
10856SOL     OW33466   5.541   1.249   0.258
10856SOL    HW133467   5.491   1.307   0.322
10856SOL    HW233468   5.536   1.287   0.166
10857SOL     OW33469   6.609   2.893   2.722
10857SOL    HW133470   6.639   2.846   2.805
10857SOL    HW233471   6.517   2.862   2.697
10858SOL     OW33472   0.845   1.669   6.279
10858SOL    HW133473   0.907   1.627   6.212
10858SOL    HW233474   0.760   1.617   6.284
10859SOL     OW33475   1.429   4.286   4.262
10859SOL    HW133476   1.425   4.189   4.288
10859SOL    HW233477   1.361   4.304   4.191
10860SOL     OW33478   6.665   1.822   5.506
10860SOL    HW133479   6.674   1.830   5.406
10860SOL    HW233480   6.644   1.728   5.530
10861SOL     OW33481   3.508   3.328   2.974
10861SOL    HW133482   3.478   3.236   2.999
10861SOL    HW233483   3.605   3.325   2.949
10862SOL     OW33484   2.480   1.680   6.869
10862SOL    HW133485   2.524   1.730   6.794
10862SOL    HW233486   2.507   1.722   6.956
10863SOL     OW33487   3.594   0.774   3.602
10863SOL    HW133488   3.514   0.718   3.624
10863SOL    HW233489   3.565   0.865   3.574
10864SOL     OW33490   2.645   5.496   0.953
10864SOL    HW133491   2.629   5.457   1.043
10864SOL    HW233492   2.704   5.436   0.900
10865SOL     OW33493   0.202   1.022   2.119
10865SOL    HW133494   0.108   0.988   2.118
10865SOL    HW233495   0.256   0.972   2.052
10866SOL     OW33496   5.227   4.560   0.753
10866SOL    HW133497   5.293   4.626   0.718
10866SOL    HW233498   5.221   4.482   0.690
10867SOL     OW33499   3.347   3.690   0.397
10867SOL    HW133500   3.300   3.716   0.313
10867SOL    HW233501   3.416   3.621   0.377
10868SOL     OW33502   3.947   2.157   3.717
10868SOL    HW133503   3.853   2.127   3.731
10868SOL    HW233504   4.001   2.081   3.682
10869NA      NA33505   0.062   2.074   5.316
10870NA      NA33506   4.466   4.516   5.274
10871NA      NA33507   2.065   3.903   2.217
10872NA      NA33508   4.945   3.935   4.521
10873NA      NA33509   4.397   2.469   5.137
10874NA      NA33510   3.221   4.741   1.708
10875NA      NA33511   0.064   4.237   0.450
10876NA      NA33512   3.266   3.696   3.486
10877NA      NA33513   5.413   5.610   0.723
10878NA      NA33514   2.976   6.806   5.614
10879NA      NA33515   5.783   5.474   1.697
10880NA      NA33516   2.047   0.748   4.493
10881NA      NA33517   3.736   5.041   2.321
10882NA      NA33518   3.965   3.578   1.867
   7.01972   7.01972   7.01972
