Generated by trjconv : CNT in water t=  88.00000
33518
    1C        C    1   2.840   2.764   4.744
    1C        C    2   2.897   2.717   4.864
    1C        C    3   2.842   2.770   4.982
    1C        C    4   2.844   2.771   4.257
    1C        C    5   2.896   2.726   4.380
    1C        C    6   2.844   2.773   4.503
    1C        C    7   3.009   2.635   4.622
    1C        C    8   2.893   2.715   4.622
    1C        C    9   3.072   2.599   4.743
    1C        C   10   3.009   2.631   4.865
    1C        C   11   3.184   2.496   4.975
    1C        C   12   3.059   2.560   4.975
    1C        C   13   2.848   2.770   3.769
    1C        C   14   2.897   2.718   3.891
    1C        C   15   2.844   2.766   4.012
    1C        C   16   3.013   2.641   4.137
    1C        C   17   2.897   2.723   4.135
    1C        C   18   3.075   2.610   4.260
    1C        C   19   3.014   2.647   4.382
    1C        C   20   3.206   2.547   4.501
    1C        C   21   3.077   2.606   4.501
    1C        C   22   3.270   2.520   4.623
    1C        C   23   3.202   2.542   4.745
    1C        C   24   3.414   2.482   4.863
    1C        C   25   3.272   2.505   4.863
    1C        C   26   3.492   2.468   4.978
    1C        C   27   2.849   2.771   3.279
    1C        C   28   2.903   2.724   3.401
    1C        C   29   2.855   2.773   3.524
    1C        C   30   3.020   2.643   3.648
    1C        C   31   2.903   2.723   3.648
    1C        C   32   3.078   2.606   3.771
    1C        C   33   3.014   2.638   3.893
    1C        C   34   3.204   2.546   4.015
    1C        C   35   3.075   2.604   4.016
    1C        C   36   3.272   2.526   4.137
    1C        C   37   3.205   2.554   4.258
    1C        C   38   3.412   2.503   4.382
    1C        C   39   3.273   2.526   4.379
    1C        C   40   3.484   2.494   4.504
    1C        C   41   3.410   2.502   4.624
    1C        C   42   3.629   2.484   4.741
    1C        C   43   3.487   2.485   4.741
    1C        C   44   3.706   2.488   4.860
    1C        C   45   3.631   2.479   4.978
    1C        C   46   2.840   2.757   2.793
    1C        C   47   2.893   2.708   2.914
    1C        C   48   2.848   2.764   3.036
    1C        C   49   3.016   2.635   3.162
    1C        C   50   2.904   2.721   3.158
    1C        C   51   3.080   2.603   3.284
    1C        C   52   3.018   2.641   3.405
    1C        C   53   3.209   2.545   3.526
    1C        C   54   3.081   2.606   3.526
    1C        C   55   3.276   2.523   3.649
    1C        C   56   3.208   2.551   3.769
    1C        C   57   3.413   2.509   3.892
    1C        C   58   3.274   2.531   3.893
    1C        C   59   3.483   2.495   4.015
    1C        C   60   3.411   2.504   4.136
    1C        C   61   3.622   2.497   4.256
    1C        C   62   3.481   2.499   4.259
    1C        C   63   3.696   2.504   4.376
    1C        C   64   3.625   2.500   4.498
    1C        C   65   3.832   2.548   4.622
    1C        C   66   3.697   2.508   4.619
    1C        C   67   3.902   2.568   4.743
    1C        C   68   3.842   2.523   4.862
    1C        C   69   4.052   2.586   4.977
    1C        C   70   3.924   2.529   4.976
    1C        C   71   2.824   2.732   2.305
    1C        C   72   2.884   2.696   2.428
    1C        C   73   2.827   2.742   2.548
    1C        C   74   3.007   2.630   2.673
    1C        C   75   2.886   2.702   2.671
    1C        C   76   3.069   2.592   2.794
    1C        C   77   3.011   2.631   2.917
    1C        C   78   3.206   2.545   3.036
    1C        C   79   3.076   2.599   3.039
    1C        C   80   3.277   2.525   3.157
    1C        C   81   3.210   2.550   3.279
    1C        C   82   3.414   2.499   3.400
    1C        C   83   3.275   2.526   3.403
    1C        C   84   3.484   2.491   3.522
    1C        C   85   3.414   2.496   3.645
    1C        C   86   3.623   2.497   3.768
    1C        C   87   3.481   2.496   3.769
    1C        C   88   3.693   2.504   3.891
    1C        C   89   3.624   2.493   4.014
    1C        C   90   3.830   2.547   4.134
    1C        C   91   3.694   2.508   4.135
    1C        C   92   3.896   2.577   4.255
    1C        C   93   3.830   2.551   4.377
    1C        C   94   4.024   2.633   4.495
    1C        C   95   3.898   2.570   4.499
    1C        C   96   4.087   2.672   4.615
    1C        C   97   4.030   2.631   4.738
    1C        C   98   4.191   2.764   4.862
    1C        C   99   4.095   2.658   4.861
    1C        C  100   4.208   2.847   4.974
    1C        C  101   2.814   2.725   2.068
    1C        C  102   2.985   2.585   2.188
    1C        C  103   2.873   2.675   2.185
    1C        C  104   3.057   2.574   2.310
    1C        C  105   2.999   2.613   2.432
    1C        C  106   3.194   2.525   2.547
    1C        C  107   3.068   2.588   2.552
    1C        C  108   3.265   2.513   2.670
    1C        C  109   3.199   2.537   2.792
    1C        C  110   3.410   2.498   2.913
    1C        C  111   3.270   2.518   2.913
    1C        C  112   3.484   2.486   3.032
    1C        C  113   3.414   2.493   3.155
    1C        C  114   3.625   2.492   3.278
    1C        C  115   3.484   2.489   3.278
    1C        C  116   3.696   2.501   3.400
    1C        C  117   3.625   2.497   3.522
    1C        C  118   3.830   2.540   3.643
    1C        C  119   3.693   2.507   3.646
    1C        C  120   3.893   2.570   3.766
    1C        C  121   3.827   2.546   3.889
    1C        C  122   4.020   2.639   4.009
    1C        C  123   3.895   2.572   4.011
    1C        C  124   4.083   2.674   4.130
    1C        C  125   4.025   2.636   4.253
    1C        C  126   4.187   2.774   4.374
    1C        C  127   4.083   2.679   4.375
    1C        C  128   4.242   2.820   4.496
    1C        C  129   4.193   2.766   4.617
    1C        C  130   4.324   2.932   4.737
    1C        C  131   4.240   2.818   4.740
    1C        C  132   4.356   3.001   4.856
    1C        C  133   4.291   2.958   4.973
    1C        C  134   3.169   2.463   2.080
    1C        C  135   3.035   2.505   2.081
    1C        C  136   3.257   2.479   2.188
    1C        C  137   3.190   2.524   2.304
    1C        C  138   3.402   2.485   2.425
    1C        C  139   3.262   2.508   2.425
    1C        C  140   3.475   2.488   2.546
    1C        C  141   3.404   2.493   2.668
    1C        C  142   3.618   2.489   2.788
    1C        C  143   3.477   2.490   2.789
    1C        C  144   3.693   2.498   2.908
    1C        C  145   3.625   2.485   3.031
    1C        C  146   3.830   2.531   3.154
    1C        C  147   3.693   2.495   3.154
    1C        C  148   3.899   2.557   3.274
    1C        C  149   3.833   2.537   3.397
    1C        C  150   4.023   2.626   3.520
    1C        C  151   3.897   2.562   3.521
    1C        C  152   4.080   2.669   3.642
    1C        C  153   4.018   2.636   3.765
    1C        C  154   4.191   2.762   3.887
    1C        C  155   4.077   2.678   3.886
    1C        C  156   4.244   2.810   4.009
    1C        C  157   4.194   2.761   4.132
    1C        C  158   4.340   2.919   4.249
    1C        C  159   4.243   2.817   4.252
    1C        C  160   4.378   2.982   4.370
    1C        C  161   4.333   2.929   4.493
    1C        C  162   4.441   3.110   4.614
    1C        C  163   4.368   2.990   4.616
    1C        C  164   4.475   3.180   4.732
    1C        C  165   4.434   3.119   4.853
    1C        C  166   4.514   3.316   4.972
    1C        C  167   4.473   3.184   4.970
    1C        C  168   3.472   2.441   2.070
    1C        C  169   3.397   2.463   2.186
    1C        C  170   3.615   2.469   2.304
    1C        C  171   3.473   2.461   2.305
    1C        C  172   3.689   2.487   2.423
    1C        C  173   3.616   2.480   2.544
    1C        C  174   3.822   2.540   2.663
    1C        C  175   3.687   2.500   2.665
    1C        C  176   3.890   2.566   2.784
    1C        C  177   3.828   2.537   2.908
    1C        C  178   4.022   2.620   3.030
    1C        C  179   3.896   2.556   3.031
    1C        C  180   4.084   2.660   3.151
    1C        C  181   4.022   2.626   3.273
    1C        C  182   4.193   2.748   3.398
    1C        C  183   4.082   2.661   3.396
    1C        C  184   4.244   2.800   3.519
    1C        C  185   4.192   2.754   3.642
    1C        C  186   4.333   2.915   3.761
    1C        C  187   4.240   2.809   3.763
    1C        C  188   4.374   2.974   3.883
    1C        C  189   4.333   2.920   4.007
    1C        C  190   4.445   3.102   4.126
    1C        C  191   4.382   2.976   4.127
    1C        C  192   4.470   3.171   4.247
    1C        C  193   4.440   3.108   4.370
    1C        C  194   4.506   3.312   4.491
    1C        C  195   4.467   3.176   4.492
    1C        C  196   4.530   3.384   4.610
    1C        C  197   4.515   3.316   4.733
    1C        C  198   4.552   3.532   4.849
    1C        C  199   4.532   3.390   4.854
    1C        C  200   4.573   3.615   4.964
    1C        C  201   3.610   2.417   2.071
    1C        C  202   3.824   2.508   2.177
    1C        C  203   3.689   2.461   2.183
    1C        C  204   3.893   2.537   2.297
    1C        C  205   3.826   2.519   2.420
    1C        C  206   4.017   2.617   2.540
    1C        C  207   3.892   2.551   2.541
    1C        C  208   4.080   2.657   2.661
    1C        C  209   4.016   2.629   2.783
    1C        C  210   4.187   2.750   2.905
    1C        C  211   4.076   2.663   2.907
    1C        C  212   4.244   2.793   3.027
    1C        C  213   4.194   2.748   3.152
    1C        C  214   4.329   2.910   3.270
    1C        C  215   4.242   2.798   3.275
    1C        C  216   4.367   2.969   3.392
    1C        C  217   4.329   2.913   3.516
    1C        C  218   4.431   3.100   3.637
    1C        C  219   4.370   2.973   3.638
    1C        C  220   4.459   3.166   3.759
    1C        C  221   4.438   3.100   3.882
    1C        C  222   4.497   3.304   4.001
    1C        C  223   4.469   3.166   4.003
    1C        C  224   4.514   3.376   4.122
    1C        C  225   4.511   3.306   4.245
    1C        C  226   4.521   3.518   4.363
    1C        C  227   4.517   3.377   4.367
    1C        C  228   4.522   3.592   4.483
    1C        C  229   4.536   3.525   4.606
    1C        C  230   4.500   3.737   4.723
    1C        C  231   4.540   3.601   4.726
    1C        C  232   4.495   3.815   4.840
    1C        C  233   4.547   3.752   4.954
    1C        C  234   4.015   2.608   2.060
    1C        C  235   3.890   2.548   2.060
    1C        C  236   4.082   2.647   2.177
    1C        C  237   4.017   2.608   2.296
    1C        C  238   4.192   2.733   2.418
    1C        C  239   4.078   2.649   2.416
    1C        C  240   4.244   2.787   2.538
    1C        C  241   4.189   2.747   2.662
    1C        C  242   4.330   2.906   2.782
    1C        C  243   4.241   2.797   2.783
    1C        C  244   4.375   2.960   2.905
    1C        C  245   4.334   2.903   3.027
    1C        C  246   4.434   3.094   3.147
    1C        C  247   4.369   2.968   3.147
    1C        C  248   4.462   3.159   3.269
    1C        C  249   4.430   3.096   3.391
    1C        C  250   4.491   3.300   3.512
    1C        C  251   4.454   3.163   3.513
    1C        C  252   4.512   3.368   3.634
    1C        C  253   4.506   3.300   3.757
    1C        C  254   4.522   3.513   3.876
    1C        C  255   4.514   3.372   3.878
    1C        C  256   4.517   3.588   3.995
    1C        C  257   4.516   3.517   4.118
    1C        C  258   4.489   3.727   4.236
    1C        C  259   4.516   3.588   4.240
    1C        C  260   4.467   3.795   4.358
    1C        C  261   4.489   3.730   4.481
    1C        C  262   4.423   3.935   4.601
    1C        C  263   4.474   3.803   4.600
    1C        C  264   4.400   4.007   4.720
    1C        C  265   4.437   3.943   4.841
    1C        C  266   4.317   4.126   4.953
    1C        C  267   4.383   4.004   4.955
    1C        C  268   4.261   2.770   2.060
    1C        C  269   4.195   2.732   2.178
    1C        C  270   4.345   2.885   2.298
    1C        C  271   4.253   2.777   2.298
    1C        C  272   4.383   2.950   2.418
    1C        C  273   4.339   2.891   2.539
    1C        C  274   4.443   3.081   2.658
    1C        C  275   4.377   2.956   2.658
    1C        C  276   4.472   3.147   2.780
    1C        C  277   4.445   3.083   2.903
    1C        C  278   4.498   3.291   3.022
    1C        C  279   4.466   3.154   3.024
    1C        C  280   4.504   3.363   3.144
    1C        C  281   4.493   3.297   3.268
    1C        C  282   4.509   3.510   3.387
    1C        C  283   4.503   3.369   3.389
    1C        C  284   4.512   3.580   3.510
    1C        C  285   4.521   3.509   3.632
    1C        C  286   4.494   3.721   3.750
    1C        C  287   4.519   3.582   3.752
    1C        C  288   4.473   3.792   3.870
    1C        C  289   4.492   3.727   3.994
    1C        C  290   4.424   3.929   4.113
    1C        C  291   4.476   3.798   4.115
    1C        C  292   4.391   3.991   4.236
    1C        C  293   4.421   3.929   4.359
    1C        C  294   4.328   4.125   4.475
    1C        C  295   4.391   3.999   4.479
    1C        C  296   4.281   4.182   4.595
    1C        C  297   4.324   4.127   4.718
    1C        C  298   4.199   4.311   4.835
    1C        C  299   4.281   4.194   4.836
    1C        C  300   4.176   4.399   4.946
    1C        C  301   4.347   2.879   2.064
    1C        C  302   4.470   3.065   2.175
    1C        C  303   4.397   2.942   2.178
    1C        C  304   4.476   3.143   2.293
    1C        C  305   4.442   3.078   2.414
    1C        C  306   4.508   3.281   2.534
    1C        C  307   4.473   3.144   2.535
    1C        C  308   4.515   3.354   2.655
    1C        C  309   4.506   3.284   2.778
    1C        C  310   4.522   3.498   2.898
    1C        C  311   4.516   3.357   2.898
    1C        C  312   4.515   3.572   3.019
    1C        C  313   4.510   3.504   3.143
    1C        C  314   4.492   3.718   3.263
    1C        C  315   4.510   3.578   3.263
    1C        C  316   4.480   3.792   3.383
    1C        C  317   4.494   3.720   3.505
    1C        C  318   4.423   3.920   3.626
    1C        C  319   4.472   3.788   3.627
    1C        C  320   4.391   3.986   3.746
    1C        C  321   4.420   3.923   3.869
    1C        C  322   4.318   4.112   3.989
    1C        C  323   4.388   3.989   3.990
    1C        C  324   4.277   4.171   4.110
    1C        C  325   4.317   4.111   4.232
    1C        C  326   4.184   4.279   4.352
    1C        C  327   4.281   4.177   4.352
    1C        C  328   4.134   4.334   4.472
    1C        C  329   4.189   4.289   4.593
    1C        C  330   4.027   4.435   4.712
    1C        C  331   4.143   4.353   4.711
    1C        C  332   3.973   4.489   4.831
    1C        C  333   4.059   4.476   4.940
    1C        C  334   4.543   3.266   2.057
    1C        C  335   4.526   3.127   2.058
    1C        C  336   4.531   3.348   2.170
    1C        C  337   4.514   3.280   2.293
    1C        C  338   4.526   3.494   2.409
    1C        C  339   4.523   3.353   2.414
    1C        C  340   4.517   3.565   2.531
    1C        C  341   4.518   3.495   2.653
    1C        C  342   4.491   3.706   2.774
    1C        C  343   4.511   3.566   2.775
    1C        C  344   4.475   3.778   2.894
    1C        C  345   4.493   3.711   3.017
    1C        C  346   4.427   3.914   3.135
    1C        C  347   4.470   3.780   3.138
    1C        C  348   4.394   3.980   3.255
    1C        C  349   4.430   3.923   3.379
    1C        C  350   4.318   4.102   3.500
    1C        C  351   4.396   3.984   3.503
    1C        C  352   4.275   4.161   3.621
    1C        C  353   4.315   4.105   3.744
    1C        C  354   4.173   4.264   3.863
    1C        C  355   4.270   4.161   3.866
    1C        C  356   4.121   4.314   3.985
    1C        C  357   4.178   4.272   4.107
    1C        C  358   4.013   4.404   4.229
    1C        C  359   4.128   4.322   4.229
    1C        C  360   3.951   4.446   4.349
    1C        C  361   4.016   4.413   4.471
    1C        C  362   3.828   4.514   4.588
    1C        C  363   3.957   4.458   4.591
    1C        C  364   3.763   4.543   4.710
    1C        C  365   3.842   4.541   4.827
    1C        C  366   3.633   4.586   4.949
    1C        C  367   3.771   4.572   4.944
    1C        C  368   4.505   3.564   2.051
    1C        C  369   4.522   3.489   2.168
    1C        C  370   4.502   3.705   2.288
    1C        C  371   4.517   3.565   2.287
    1C        C  372   4.486   3.775   2.409
    1C        C  373   4.497   3.705   2.532
    1C        C  374   4.432   3.909   2.646
    1C        C  375   4.480   3.777   2.652
    1C        C  376   4.395   3.973   2.766
    1C        C  377   4.430   3.912   2.889
    1C        C  378   4.318   4.092   3.009
    1C        C  379   4.400   3.977   3.011
    1C        C  380   4.274   4.152   3.129
    1C        C  381   4.316   4.098   3.252
    1C        C  382   4.171   4.250   3.374
    1C        C  383   4.274   4.153   3.376
    1C        C  384   4.118   4.301   3.495
    1C        C  385   4.175   4.260   3.617
    1C        C  386   4.002   4.384   3.740
    1C        C  387   4.120   4.307   3.739
    1C        C  388   3.941   4.422   3.861
    1C        C  389   4.002   4.390   3.984
    1C        C  390   3.818   4.489   4.106
    1C        C  391   3.948   4.433   4.107
    1C        C  392   3.750   4.514   4.227
    1C        C  393   3.819   4.496   4.349
    1C        C  394   3.614   4.556   4.472
    1C        C  395   3.752   4.526   4.469
    1C        C  396   3.548   4.561   4.597
    1C        C  397   3.623   4.560   4.716
    1C        C  398   3.411   4.544   4.836
    1C        C  399   3.551   4.566   4.837
    1C        C  400   3.339   4.508   4.951
    1C        C  401   4.506   3.703   2.051
    1C        C  402   4.454   3.915   2.163
    1C        C  403   4.493   3.779   2.168
    1C        C  404   4.414   3.977   2.284
    1C        C  405   4.432   3.905   2.404
    1C        C  406   4.327   4.094   2.523
    1C        C  407   4.395   3.970   2.524
    1C        C  408   4.276   4.145   2.644
    1C        C  409   4.314   4.089   2.768
    1C        C  410   4.172   4.249   2.885
    1C        C  411   4.272   4.149   2.889
    1C        C  412   4.120   4.296   3.007
    1C        C  413   4.177   4.256   3.130
    1C        C  414   4.003   4.378   3.249
    1C        C  415   4.121   4.300   3.252
    1C        C  416   3.941   4.413   3.371
    1C        C  417   4.002   4.381   3.494
    1C        C  418   3.813   4.476   3.616
    1C        C  419   3.941   4.418   3.617
    1C        C  420   3.747   4.503   3.738
    1C        C  421   3.811   4.479   3.862
    1C        C  422   3.609   4.536   3.983
    1C        C  423   3.747   4.505   3.985
    1C        C  424   3.539   4.552   4.105
    1C        C  425   3.611   4.542   4.226
    1C        C  426   3.403   4.549   4.355
    1C        C  427   3.544   4.555   4.349
    1C        C  428   3.334   4.536   4.478
    1C        C  429   3.407   4.552   4.597
    1C        C  430   3.194   4.512   4.722
    1C        C  431   3.334   4.540   4.718
    1C        C  432   3.124   4.491   4.844
    1C        C  433   3.201   4.494   4.961
    1C        C  434   4.380   4.122   2.046
    1C        C  435   4.448   3.999   2.052
    1C        C  436   4.302   4.159   2.160
    1C        C  437   4.339   4.098   2.283
    1C        C  438   4.180   4.247   2.399
    1C        C  439   4.285   4.153   2.401
    1C        C  440   4.122   4.293   2.520
    1C        C  441   4.173   4.242   2.642
    1C        C  442   4.001   4.371   2.764
    1C        C  443   4.119   4.292   2.762
    1C        C  444   3.940   4.413   2.884
    1C        C  445   4.003   4.376   3.005
    1C        C  446   3.812   4.470   3.128
    1C        C  447   3.941   4.411   3.127
    1C        C  448   3.745   4.493   3.250
    1C        C  449   3.811   4.467   3.372
    1C        C  450   3.607   4.525   3.495
    1C        C  451   3.746   4.500   3.493
    1C        C  452   3.537   4.537   3.618
    1C        C  453   3.609   4.533   3.739
    1C        C  454   3.398   4.543   3.865
    1C        C  455   3.539   4.544   3.861
    1C        C  456   3.328   4.531   3.987
    1C        C  457   3.399   4.538   4.109
    1C        C  458   3.196   4.498   4.236
    1C        C  459   3.331   4.538   4.234
    1C        C  460   3.129   4.480   4.359
    1C        C  461   3.196   4.505   4.481
    1C        C  462   2.997   4.428   4.603
    1C        C  463   3.125   4.488   4.601
    1C        C  464   2.926   4.403   4.723
    1C        C  465   2.990   4.442   4.844
    1C        C  466   2.801   4.336   4.957
    1C        C  467   2.909   4.425   4.961
    1C        C  468   4.121   4.275   2.037
    1C        C  469   4.183   4.239   2.157
    1C        C  470   4.007   4.370   2.278
    1C        C  471   4.124   4.289   2.277
    1C        C  472   3.941   4.403   2.399
    1C        C  473   4.005   4.372   2.520
    1C        C  474   3.810   4.460   2.641
    1C        C  475   3.939   4.401   2.641
    1C        C  476   3.742   4.486   2.762
    1C        C  477   3.810   4.468   2.884
    1C        C  478   3.604   4.519   3.006
    1C        C  479   3.743   4.491   3.007
    1C        C  480   3.534   4.525   3.129
    1C        C  481   3.606   4.520   3.251
    1C        C  482   3.395   4.535   3.376
    1C        C  483   3.536   4.533   3.373
    1C        C  484   3.326   4.522   3.498
    1C        C  485   3.396   4.530   3.620
    1C        C  486   3.189   4.502   3.744
    1C        C  487   3.327   4.532   3.743
    1C        C  488   3.125   4.474   3.867
    1C        C  489   3.190   4.498   3.990
    1C        C  490   3.002   4.410   4.112
    1C        C  491   3.127   4.476   4.115
    1C        C  492   2.945   4.377   4.237
    1C        C  493   3.000   4.421   4.360
    1C        C  494   2.824   4.302   4.482
    1C        C  495   2.937   4.387   4.481
    1C        C  496   2.769   4.256   4.604
    1C        C  497   2.815   4.314   4.724
    1C        C  498   2.663   4.162   4.846
    1C        C  499   2.751   4.272   4.843
    1C        C  500   2.593   4.117   4.959
    1C        C  501   4.009   4.357   2.042
    1C        C  502   3.815   4.464   2.153
    1C        C  503   3.943   4.403   2.157
    1C        C  504   3.745   4.479   2.275
    1C        C  505   3.809   4.454   2.398
    1C        C  506   3.603   4.508   2.519
    1C        C  507   3.742   4.481   2.519
    1C        C  508   3.530   4.518   2.639
    1C        C  509   3.603   4.510   2.760
    1C        C  510   3.393   4.523   2.883
    1C        C  511   3.534   4.517   2.884
    1C        C  512   3.323   4.518   3.006
    1C        C  513   3.393   4.524   3.129
    1C        C  514   3.188   4.491   3.256
    1C        C  515   3.326   4.520   3.253
    1C        C  516   3.121   4.464   3.377
    1C        C  517   3.188   4.491   3.498
    1C        C  518   2.997   4.409   3.623
    1C        C  519   3.122   4.475   3.622
    1C        C  520   2.939   4.372   3.746
    1C        C  521   3.004   4.401   3.868
    1C        C  522   2.834   4.277   3.995
    1C        C  523   2.943   4.366   3.991
    1C        C  524   2.791   4.229   4.121
    1C        C  525   2.834   4.290   4.241
    1C        C  526   2.691   4.132   4.364
    1C        C  527   2.777   4.245   4.362
    1C        C  528   2.650   4.076   4.487
    1C        C  529   2.684   4.143   4.606
    1C        C  530   2.578   3.960   4.731
    1C        C  531   2.634   4.091   4.727
    1C        C  532   2.541   3.900   4.854
    1C        C  533   2.524   3.995   4.959
    1C        C  534   3.617   4.555   2.038
    1C        C  535   3.753   4.519   2.041
    1C        C  536   3.536   4.527   2.152
    1C        C  537   3.605   4.502   2.274
    1C        C  538   3.393   4.503   2.396
    1C        C  539   3.534   4.510   2.396
    1C        C  540   3.320   4.499   2.517
    1C        C  541   3.389   4.510   2.640
    1C        C  542   3.182   4.483   2.764
    1C        C  543   3.320   4.513   2.763
    1C        C  544   3.120   4.459   2.889
    1C        C  545   3.187   4.481   3.011
    1C        C  546   2.998   4.393   3.133
    1C        C  547   3.121   4.461   3.135
    1C        C  548   2.940   4.357   3.257
    1C        C  549   2.996   4.399   3.380
    1C        C  550   2.829   4.272   3.504
    1C        C  551   2.936   4.364   3.503
    1C        C  552   2.780   4.227   3.629
    1C        C  553   2.829   4.284   3.749
    1C        C  554   2.700   4.117   3.876
    1C        C  555   2.786   4.229   3.871
    1C        C  556   2.658   4.061   3.998
    1C        C  557   2.697   4.124   4.119
    1C        C  558   2.593   3.943   4.246
    1C        C  559   2.658   4.068   4.243
    1C        C  560   2.565   3.880   4.369
    1C        C  561   2.591   3.947   4.490
    1C        C  562   2.530   3.746   4.616
    1C        C  563   2.560   3.884   4.613
    1C        C  564   2.513   3.678   4.738
    1C        C  565   2.517   3.759   4.855
    1C        C  566   2.527   3.547   4.976
    1C        C  567   2.525   3.686   4.975
    1C        C  568   3.327   4.469   2.037
    1C        C  569   3.395   4.504   2.154
    1C        C  570   3.184   4.464   2.277
    1C        C  571   3.321   4.503   2.275
    1C        C  572   3.113   4.450   2.399
    1C        C  573   3.180   4.483   2.519
    1C        C  574   2.988   4.400   2.647
    1C        C  575   3.112   4.468   2.642
    1C        C  576   2.934   4.355   2.769
    1C        C  577   2.999   4.387   2.890
    1C        C  578   2.826   4.263   3.015
    1C        C  579   2.936   4.352   3.012
    1C        C  580   2.780   4.210   3.137
    1C        C  581   2.832   4.266   3.256
    1C        C  582   2.694   4.112   3.385
    1C        C  583   2.780   4.224   3.380
    1C        C  584   2.661   4.050   3.508
    1C        C  585   2.699   4.112   3.629
    1C        C  586   2.590   3.935   3.754
    1C        C  587   2.658   4.059   3.754
    1C        C  588   2.563   3.873   3.878
    1C        C  589   2.591   3.937   4.001
    1C        C  590   2.527   3.738   4.126
    1C        C  591   2.567   3.874   4.125
    1C        C  592   2.520   3.670   4.249
    1C        C  593   2.527   3.743   4.370
    1C        C  594   2.512   3.535   4.495
    1C        C  595   2.517   3.676   4.494
    1C        C  596   2.522   3.465   4.617
    1C        C  597   2.519   3.536   4.739
    1C        C  598   2.536   3.325   4.860
    1C        C  599   2.524   3.466   4.862
    1C        C  600   2.525   3.245   4.975
    1C        C  601   3.192   4.441   2.039
    1C        C  602   2.982   4.384   2.157
    1C        C  603   3.115   4.437   2.156
    1C        C  604   2.921   4.356   2.282
    1C        C  605   2.984   4.394   2.403
    1C        C  606   2.824   4.261   2.527
    1C        C  607   2.929   4.355   2.527
    1C        C  608   2.769   4.215   2.649
    1C        C  609   2.823   4.267   2.769
    1C        C  610   2.684   4.108   2.894
    1C        C  611   2.778   4.213   2.892
    1C        C  612   2.646   4.049   3.016
    1C        C  613   2.692   4.100   3.140
    1C        C  614   2.581   3.927   3.266
    1C        C  615   2.650   4.050   3.266
    1C        C  616   2.561   3.862   3.390
    1C        C  617   2.595   3.925   3.511
    1C        C  618   2.521   3.730   3.638
    1C        C  619   2.562   3.865   3.635
    1C        C  620   2.509   3.664   3.763
    1C        C  621   2.522   3.738   3.882
    1C        C  622   2.505   3.526   4.008
    1C        C  623   2.511   3.668   4.004
    1C        C  624   2.511   3.456   4.130
    1C        C  625   2.513   3.529   4.250
    1C        C  626   2.535   3.323   4.378
    1C        C  627   2.508   3.462   4.374
    1C        C  628   2.557   3.251   4.498
    1C        C  629   2.540   3.325   4.617
    1C        C  630   2.590   3.118   4.738
    1C        C  631   2.547   3.254   4.739
    1C        C  632   2.612   3.046   4.858
    1C        C  633   2.567   3.111   4.977
    1C        C  634   2.778   4.300   2.054
    1C        C  635   2.891   4.382   2.047
    1C        C  636   2.747   4.224   2.168
    1C        C  637   2.809   4.268   2.286
    1C        C  638   2.672   4.107   2.409
    1C        C  639   2.761   4.216   2.409
    1C        C  640   2.635   4.044   2.530
    1C        C  641   2.681   4.104   2.649
    1C        C  642   2.577   3.923   2.775
    1C        C  643   2.642   4.048   2.773
    1C        C  644   2.556   3.857   2.898
    1C        C  645   2.583   3.923   3.020
    1C        C  646   2.521   3.723   3.146
    1C        C  647   2.558   3.859   3.144
    1C        C  648   2.506   3.657   3.270
    1C        C  649   2.521   3.727   3.392
    1C        C  650   2.504   3.519   3.519
    1C        C  651   2.508   3.660   3.516
    1C        C  652   2.509   3.450   3.642
    1C        C  653   2.508   3.523   3.763
    1C        C  654   2.532   3.315   3.885
    1C        C  655   2.511   3.454   3.886
    1C        C  656   2.548   3.248   4.009
    1C        C  657   2.530   3.316   4.132
    1C        C  658   2.609   3.124   4.255
    1C        C  659   2.551   3.253   4.256
    1C        C  660   2.631   3.055   4.376
    1C        C  661   2.596   3.115   4.498
    1C        C  662   2.704   2.932   4.623
    1C        C  663   2.626   3.049   4.620
    1C        C  664   2.744   2.869   4.743
    1C        C  665   2.697   2.930   4.862
    1C        C  666   2.743   2.867   4.978
    1C        C  667   2.672   4.020   2.053
    1C        C  668   2.678   4.101   2.167
    1C        C  669   2.579   3.912   2.291
    1C        C  670   2.639   4.041   2.289
    1C        C  671   2.554   3.845   2.412
    1C        C  672   2.579   3.914   2.533
    1C        C  673   2.505   3.718   2.656
    1C        C  674   2.546   3.853   2.656
    1C        C  675   2.497   3.649   2.779
    1C        C  676   2.518   3.721   2.899
    1C        C  677   2.497   3.514   3.032
    1C        C  678   2.508   3.655   3.023
    1C        C  679   2.502   3.442   3.153
    1C        C  680   2.499   3.516   3.273
    1C        C  681   2.532   3.309   3.399
    1C        C  682   2.504   3.447   3.397
    1C        C  683   2.552   3.241   3.522
    1C        C  684   2.531   3.310   3.644
    1C        C  685   2.603   3.111   3.770
    1C        C  686   2.550   3.241   3.766
    1C        C  687   2.636   3.050   3.893
    1C        C  688   2.605   3.119   4.013
    1C        C  689   2.708   2.932   4.135
    1C        C  690   2.638   3.055   4.135
    1C        C  691   2.749   2.875   4.258
    1C        C  692   2.708   2.936   4.378
    1C        C  693   2.751   2.879   4.500
    1C        C  694   2.625   3.889   2.056
    1C        C  695   2.518   3.704   2.173
    1C        C  696   2.570   3.835   2.173
    1C        C  697   2.502   3.634   2.295
    1C        C  698   2.514   3.710   2.414
    1C        C  699   2.482   3.503   2.541
    1C        C  700   2.491   3.644   2.537
    1C        C  701   2.497   3.436   2.665
    1C        C  702   2.502   3.508   2.786
    1C        C  703   2.524   3.302   2.909
    1C        C  704   2.500   3.441   2.911
    1C        C  705   2.542   3.234   3.032
    1C        C  706   2.523   3.302   3.154
    1C        C  707   2.598   3.107   3.277
    1C        C  708   2.542   3.237   3.278
    1C        C  709   2.629   3.045   3.400
    1C        C  710   2.601   3.109   3.523
    1C        C  711   2.713   2.931   3.646
    1C        C  712   2.639   3.051   3.647
    1C        C  713   2.756   2.878   3.769
    1C        C  714   2.712   2.932   3.892
    1C        C  715   2.751   2.873   4.015
    1C        C  716   2.443   3.497   2.058
    1C        C  717   2.497   3.626   2.058
    1C        C  718   2.458   3.419   2.176
    1C        C  719   2.480   3.494   2.295
    1C        C  720   2.512   3.291   2.420
    1C        C  721   2.482   3.429   2.421
    1C        C  722   2.538   3.228   2.544
    1C        C  723   2.521   3.297   2.666
    1C        C  724   2.592   3.098   2.789
    1C        C  725   2.540   3.229   2.789
    1C        C  726   2.628   3.039   2.912
    1C        C  727   2.595   3.104   3.033
    1C        C  728   2.711   2.927   3.156
    1C        C  729   2.630   3.042   3.156
    1C        C  730   2.755   2.876   3.280
    1C        C  731   2.711   2.930   3.403
    1C        C  732   2.761   2.878   3.524
    1C        C  733   2.489   3.198   2.069
    1C        C  734   2.486   3.279   2.183
    1C        C  735   2.579   3.082   2.306
    1C        C  736   2.522   3.213   2.303
    1C        C  737   2.615   3.022   2.428
    1C        C  738   2.589   3.096   2.545
    1C        C  739   2.701   2.915   2.667
    1C        C  740   2.623   3.033   2.667
    1C        C  741   2.746   2.862   2.790
    1C        C  742   2.704   2.920   2.912
    1C        C  743   2.750   2.866   3.034
    1C        C  744   2.550   3.073   2.071
    1C        C  745   2.680   2.894   2.185
    1C        C  746   2.609   3.017   2.184
    1C        C  747   2.726   2.836   2.305
    1C        C  748   2.688   2.901   2.424
    1C        C  749   2.737   2.851   2.547
    1C        C  750   2.738   2.842   2.068
    1C        C  751   3.645   2.287   2.008
    1C        O  752   3.615   2.179   2.065
    1C        O  753   3.715   2.281   1.887
    1C        C  754   4.614   3.042   1.974
    1C        O  755   4.626   3.046   1.849
    1C        O  756   4.743   3.004   2.014
    1C        C  757   4.444   4.225   1.961
    1C        O  758   4.533   4.296   2.014
    1C        O  759   4.385   4.290   1.852
    1C        C  760   3.574   4.649   1.932
    1C        O  761   3.504   4.754   1.941
    1C        O  762   3.591   4.602   1.801
    1C        C  763   2.893   4.491   1.946
    1C        O  764   2.901   4.464   1.823
    1C        O  765   2.871   4.624   1.984
    1C        C  766   2.331   3.473   1.963
    1C        O  767   2.343   3.532   1.853
    1C        O  768   2.203   3.487   2.018
    1C        C  769   4.667   3.588   5.075
    1C        O  770   4.614   3.607   5.188
    1C        O  771   4.799   3.626   5.046
    1C        C  772   4.285   4.453   5.031
    1C        O  773   4.270   4.451   5.156
    1C        O  774   4.336   4.582   5.011
    1C        C  775   4.145   2.513   5.066
    1C        O  776   4.228   2.428   5.025
    1C        O  777   4.169   2.547   5.200
    1C        C  778   2.887   4.539   5.052
    1C        O  779   2.843   4.651   5.014
    1C        O  780   2.833   4.523   5.180
    1C        C  781   2.468   3.038   5.059
    1C        O  782   2.351   3.014   5.020
    1C        O  783   2.504   2.960   5.168
    1C        C  784   2.412   3.990   5.056
    1C        O  785   2.305   4.044   5.016
    1C        O  786   2.422   4.020   5.192
    1C        C  787   2.943   2.424   1.997
    1C        O  788   2.908   2.482   1.891
    1C        O  789   2.888   2.304   2.039
    1C        C  790   3.178   2.376   5.063
    1C        O  791   3.183   2.259   5.017
    1C        O  792   3.164   2.394   5.201
    1C        H  793   4.316   3.002   5.067
    1C        H  794   4.133   2.848   5.050
    1C        H  795   4.493   3.123   5.056
    1C        H  796   4.590   3.338   5.045
    1C        H  797   4.613   3.815   5.010
    1C        H  798   4.381   3.954   5.050
    1C        H  799   4.258   4.145   5.040
    1C        H  800   4.028   4.516   5.034
    1C        H  801   3.825   4.636   5.011
    1C        H  802   3.585   4.617   5.039
    1C        H  803   3.397   4.508   5.041
    1C        H  804   3.170   4.430   5.040
    1C        H  805   3.895   2.476   5.065
    1C        H  806   3.682   2.465   5.071
    1C        H  807   2.992   2.550   5.058
    1C        H  808   3.444   2.409   5.053
    1C        H  809   2.846   2.711   5.071
    1C        H  810   2.707   2.893   5.075
    1C        H  811   2.453   3.276   5.048
    1C        H  812   2.533   3.500   5.072
    1C        H  813   2.586   3.728   5.052
    1C        H  814   2.600   4.175   5.048
    1C        H  815   2.783   4.288   5.051
    1C        H  816   2.748   2.905   1.983
    1C        H  817   2.774   2.656   1.998
    1C        H  818   3.207   2.446   1.982
    1C        H  819   3.435   2.466   1.973
    1C        H  820   3.830   2.563   1.972
    1C        H  821   4.053   2.633   1.963
    1C        H  822   4.292   2.694   1.992
    1C        H  823   4.360   2.928   1.970
    1C        H  824   4.613   3.298   1.984
    1C        H  825   4.526   3.526   1.953
    1C        H  826   4.520   3.753   1.957
    1C        H  827   3.789   4.482   1.947
    1C        H  828   3.974   4.392   1.948
    1C        H  829   4.127   4.206   1.955
    1C        H  830   4.498   3.977   1.960
    1C        H  831   2.690   3.819   2.006
    1C        H  832   2.704   4.062   1.959
    1C        H  833   2.709   4.295   1.973
    1C        H  834   3.371   4.499   1.944
    1C        H  835   3.143   4.457   1.945
    1C        H  836   2.513   3.008   1.994
    1C        H  837   2.474   3.241   1.972
    1C        H  838   2.504   3.673   1.962
    2V3OU   H29  839   2.808   3.543   1.444
    2V3OU   C27  840   2.786   3.498   1.544
    2V3OU   H27  841   2.729   3.574   1.603
    2V3OU   H28  842   2.734   3.400   1.532
    2V3OU   O11  843   2.912   3.471   1.607
    2V3OU   C15  844   2.917   3.399   1.725
    2V3OU   C13  845   3.046   3.375   1.776
    2V3OU   C14  846   3.070   3.269   1.864
    2V3OU   C16  847   2.967   3.188   1.910
    2V3OU    H6  848   2.988   3.102   1.975
    2V3OU   C12  849   3.212   3.235   1.893
    2V3OU    O2  850   3.238   3.127   1.950
    2V3OU   C10  851   3.324   3.315   1.843
    2V3OU    C8  852   3.457   3.274   1.850
    2V3OU   O10  853   3.489   3.157   1.910
    2V3OU   H26  854   3.406   3.111   1.929
    2V3OU    C6  855   3.566   3.348   1.794
    2V3OU    C5  856   3.535   3.467   1.728
    2V3OU    C4  857   3.704   3.292   1.786
    2V3OU    H4  858   3.721   3.225   1.875
    2V3OU    H5  859   3.710   3.229   1.693
    2V3OU    C2  860   3.814   3.399   1.780
    2V3OU    O6  861   3.808   3.477   1.900
    2V3OU   H21  862   3.765   3.556   1.862
    2V3OU    C3  863   3.778   3.496   1.667
    2V3OU    H2  864   3.860   3.572   1.660
    2V3OU    H3  865   3.781   3.438   1.572
    2V3OU   C25  866   3.948   3.326   1.780
    2V3OU    O7  867   4.002   3.290   1.676
    2V3OU   C26  868   4.027   3.289   1.905
    2V3OU   H22  869   4.056   3.383   1.958
    2V3OU   H23  870   4.115   3.225   1.878
    2V3OU    O8  871   3.958   3.209   1.998
    2V3OU   H24  872   3.914   3.269   2.061
    2V3OU    C1  873   3.643   3.562   1.688
    2V3OU    H1  874   3.620   3.614   1.590
    2V3OU    O3  875   3.652   3.655   1.796
    2V3OU   C19  876   3.622   3.794   1.780
    2V3OU    H9  877   3.519   3.809   1.735
    2V3OU    O4  878   3.715   3.844   1.687
    2V3OU   C20  879   3.841   3.872   1.748
    2V3OU   H10  880   3.888   3.770   1.760
    2V3OU   C24  881   3.610   3.853   1.920
    2V3OU   H16  882   3.548   3.789   1.987
    2V3OU   H17  883   3.562   3.954   1.907
    2V3OU   C23  884   3.749   3.874   1.982
    2V3OU   H15  885   3.788   3.770   2.009
    2V3OU    N1  886   3.736   3.957   2.101
    2V3OU   H19  887   3.807   3.919   2.161
    2V3OU   H20  888   3.649   3.935   2.145
    2V3OU   C21  889   3.848   3.942   1.884
    2V3OU   H11  890   3.953   3.923   1.923
    2V3OU    O5  891   3.834   4.083   1.878
    2V3OU   H18  892   3.780   4.104   1.956
    2V3OU   C22  893   3.908   3.951   1.637
    2V3OU   H12  894   3.855   4.048   1.617
    2V3OU   H13  895   3.905   3.891   1.543
    2V3OU   H14  896   4.018   3.958   1.658
    2V3OU   C11  897   3.153   3.472   1.744
    2V3OU    O1  898   3.130   3.585   1.696
    2V3OU    C9  899   3.293   3.433   1.770
    2V3OU    C7  900   3.398   3.506   1.715
    2V3OU    O9  901   3.390   3.615   1.632
    2V3OU   H25  902   3.294   3.630   1.628
    2V3OU   C17  903   2.815   3.312   1.769
    2V3OU    H7  904   2.710   3.336   1.759
    2V3OU   C18  905   2.840   3.209   1.859
    2V3OU    H8  906   2.752   3.149   1.889
    3SOL     OW  907   1.293   3.271   1.224
    3SOL    HW1  908   1.351   3.282   1.144
    3SOL    HW2  909   1.285   3.174   1.247
    4SOL     OW  910   5.811   0.354   1.966
    4SOL    HW1  911   5.725   0.304   1.983
    4SOL    HW2  912   5.792   0.436   1.913
    5SOL     OW  913   3.679   1.601   1.175
    5SOL    HW1  914   3.688   1.524   1.239
    5SOL    HW2  915   3.636   1.570   1.091
    6SOL     OW  916   2.821   1.719   1.665
    6SOL    HW1  917   2.834   1.818   1.673
    6SOL    HW2  918   2.855   1.674   1.747
    7SOL     OW  919   5.769   1.641   2.315
    7SOL    HW1  920   5.841   1.706   2.341
    7SOL    HW2  921   5.708   1.685   2.249
    8SOL     OW  922   2.798   0.818   4.156
    8SOL    HW1  923   2.704   0.837   4.128
    8SOL    HW2  924   2.800   0.732   4.207
    9SOL     OW  925   1.418   4.047   5.707
    9SOL    HW1  926   1.473   3.992   5.770
    9SOL    HW2  927   1.478   4.105   5.653
   10SOL     OW  928   0.959   4.152   6.831
   10SOL    HW1  929   0.918   4.061   6.843
   10SOL    HW2  930   0.968   4.197   6.919
   11SOL     OW  931   4.147   6.712   0.252
   11SOL    HW1  932   4.199   6.710   0.166
   11SOL    HW2  933   4.060   6.758   0.237
   12SOL     OW  934   5.733   6.012   2.504
   12SOL    HW1  935   5.774   6.103   2.514
   12SOL    HW2  936   5.681   5.990   2.586
   13SOL     OW  937   2.715   6.183   3.194
   13SOL    HW1  938   2.785   6.207   3.262
   13SOL    HW2  939   2.656   6.262   3.179
   14SOL     OW  940   3.682   6.532   0.796
   14SOL    HW1  941   3.600   6.512   0.848
   14SOL    HW2  942   3.662   6.525   0.698
   15SOL     OW  943   1.388   6.714   6.813
   15SOL    HW1  944   1.352   6.630   6.854
   15SOL    HW2  945   1.469   6.745   6.863
   16SOL     OW  946   6.121   2.415   6.221
   16SOL    HW1  947   6.113   2.316   6.234
   16SOL    HW2  948   6.196   2.435   6.158
   17SOL     OW  949   5.200   6.680   4.424
   17SOL    HW1  950   5.177   6.587   4.395
   17SOL    HW2  951   5.157   6.746   4.363
   18SOL     OW  952   1.740   1.854   5.703
   18SOL    HW1  953   1.644   1.842   5.728
   18SOL    HW2  954   1.746   1.899   5.613
   19SOL     OW  955   0.717   6.807   2.508
   19SOL    HW1  956   0.625   6.847   2.498
   19SOL    HW2  957   0.752   6.826   2.599
   20SOL     OW  958   3.396   1.905   3.856
   20SOL    HW1  959   3.432   1.867   3.942
   20SOL    HW2  960   3.322   1.847   3.822
   21SOL     OW  961   3.041   2.079   1.442
   21SOL    HW1  962   3.011   2.004   1.383
   21SOL    HW2  963   3.080   2.152   1.385
   22SOL     OW  964   1.369   6.503   5.626
   22SOL    HW1  965   1.331   6.428   5.572
   22SOL    HW2  966   1.469   6.497   5.626
   23SOL     OW  967   4.190   6.300   4.655
   23SOL    HW1  968   4.288   6.321   4.662
   23SOL    HW2  969   4.178   6.201   4.646
   24SOL     OW  970   4.836   1.340   5.328
   24SOL    HW1  971   4.875   1.316   5.239
   24SOL    HW2  972   4.790   1.429   5.321
   25SOL     OW  973   3.910   5.820   0.534
   25SOL    HW1  974   3.851   5.745   0.563
   25SOL    HW2  975   3.938   5.874   0.614
   26SOL     OW  976   6.436   1.522   2.291
   26SOL    HW1  977   6.405   1.471   2.371
   26SOL    HW2  978   6.498   1.595   2.321
   27SOL     OW  979   6.253   6.934   2.605
   27SOL    HW1  980   6.324   6.985   2.655
   27SOL    HW2  981   6.282   6.922   2.510
   28SOL     OW  982   3.728   0.646   0.003
   28SOL    HW1  983   3.811   0.591   0.002
   28SOL    HW2  984   3.749   0.739   0.034
   29SOL     OW  985   4.396   2.549   1.404
   29SOL    HW1  986   4.462   2.554   1.479
   29SOL    HW2  987   4.435   2.495   1.329
   30SOL     OW  988   3.229   0.985   4.775
   30SOL    HW1  989   3.311   0.964   4.722
   30SOL    HW2  990   3.227   0.931   4.859
   31SOL     OW  991   0.557   0.860   5.119
   31SOL    HW1  992   0.640   0.823   5.077
   31SOL    HW2  993   0.493   0.786   5.139
   32SOL     OW  994   0.069   2.180   1.325
   32SOL    HW1  995   7.015   2.139   1.271
   32SOL    HW2  996   0.157   2.160   1.281
   33SOL     OW  997   1.883   2.598   6.157
   33SOL    HW1  998   1.901   2.696   6.164
   33SOL    HW2  999   1.784   2.582   6.160
   34SOL     OW 1000   1.721   0.416   4.734
   34SOL    HW1 1001   1.687   0.493   4.680
   34SOL    HW2 1002   1.730   0.335   4.675
   35SOL     OW 1003   5.161   1.494   6.908
   35SOL    HW1 1004   5.177   1.416   6.847
   35SOL    HW2 1005   5.243   1.510   6.963
   36SOL     OW 1006   1.945   1.896   5.051
   36SOL    HW1 1007   2.016   1.829   5.074
   36SOL    HW2 1008   1.917   1.944   5.134
   37SOL     OW 1009   3.174   6.828   1.594
   37SOL    HW1 1010   3.162   6.864   1.502
   37SOL    HW2 1011   3.267   6.849   1.626
   38SOL     OW 1012   6.932   6.378   3.104
   38SOL    HW1 1013   6.933   6.394   3.203
   38SOL    HW2 1014   6.953   6.463   3.056
   39SOL     OW 1015   6.664   3.217   4.982
   39SOL    HW1 1016   6.625   3.202   4.892
   39SOL    HW2 1017   6.666   3.315   5.002
   40SOL     OW 1018   6.410   1.099   2.341
   40SOL    HW1 1019   6.388   1.166   2.270
   40SOL    HW2 1020   6.363   1.013   2.321
   41SOL     OW 1021   1.099   6.770   5.319
   41SOL    HW1 1022   1.137   6.856   5.353
   41SOL    HW2 1023   1.127   6.695   5.379
   42SOL     OW 1024   3.488   0.751   0.323
   42SOL    HW1 1025   3.577   0.706   0.333
   42SOL    HW2 1026   3.429   0.695   0.265
   43SOL     OW 1027   5.345   6.334   5.566
   43SOL    HW1 1028   5.364   6.331   5.467
   43SOL    HW2 1029   5.427   6.307   5.616
   44SOL     OW 1030   1.127   2.859   6.202
   44SOL    HW1 1031   1.120   2.867   6.302
   44SOL    HW2 1032   1.056   2.798   6.168
   45SOL     OW 1033   2.465   0.829   1.704
   45SOL    HW1 1034   2.533   0.868   1.766
   45SOL    HW2 1035   2.496   0.739   1.673
   46SOL     OW 1036   1.538   4.374   4.624
   46SOL    HW1 1037   1.586   4.362   4.712
   46SOL    HW2 1038   1.461   4.436   4.637
   47SOL     OW 1039   6.791   4.573   3.600
   47SOL    HW1 1040   6.797   4.517   3.682
   47SOL    HW2 1041   6.880   4.617   3.583
   48SOL     OW 1042   0.226   2.177   5.225
   48SOL    HW1 1043   0.278   2.095   5.201
   48SOL    HW2 1044   0.138   2.149   5.265
   49SOL     OW 1045   4.559   2.622   0.713
   49SOL    HW1 1046   4.654   2.591   0.714
   49SOL    HW2 1047   4.556   2.721   0.704
   50SOL     OW 1048   6.712   3.908   4.234
   50SOL    HW1 1049   6.718   3.811   4.255
   50SOL    HW2 1050   6.740   3.961   4.314
   51SOL     OW 1051   3.309   4.948   2.832
   51SOL    HW1 1052   3.221   4.901   2.840
   51SOL    HW2 1053   3.295   5.040   2.796
   52SOL     OW 1054   2.235   1.715   2.073
   52SOL    HW1 1055   2.244   1.800   2.021
   52SOL    HW2 1056   2.157   1.663   2.040
   53SOL     OW 1057   5.002   6.857   4.298
   53SOL    HW1 1058   5.044   6.851   4.208
   53SOL    HW2 1059   4.903   6.843   4.290
   54SOL     OW 1060   4.003   5.293   5.737
   54SOL    HW1 1061   3.944   5.213   5.749
   54SOL    HW2 1062   4.048   5.288   5.648
   55SOL     OW 1063   3.802   2.186   6.339
   55SOL    HW1 1064   3.844   2.178   6.248
   55SOL    HW2 1065   3.855   2.248   6.396
   56SOL     OW 1066   0.926   0.386   2.421
   56SOL    HW1 1067   0.876   0.450   2.479
   56SOL    HW2 1068   0.945   0.429   2.332
   57SOL     OW 1069   5.668   1.109   0.216
   57SOL    HW1 1070   5.572   1.082   0.218
   57SOL    HW2 1071   5.698   1.136   0.308
   58SOL     OW 1072   0.202   6.028   6.770
   58SOL    HW1 1073   0.152   6.068   6.693
   58SOL    HW2 1074   0.141   5.969   6.823
   59SOL     OW 1075   1.455   0.214   5.944
   59SOL    HW1 1076   1.535   0.165   5.978
   59SOL    HW2 1077   1.378   0.150   5.938
   60SOL     OW 1078   4.427   0.174   5.149
   60SOL    HW1 1079   4.449   0.228   5.230
   60SOL    HW2 1080   4.506   0.120   5.122
   61SOL     OW 1081   4.654   0.217   3.947
   61SOL    HW1 1082   4.731   0.279   3.932
   61SOL    HW2 1083   4.620   0.228   4.040
   62SOL     OW 1084   1.981   0.632   4.284
   62SOL    HW1 1085   2.042   0.595   4.214
   62SOL    HW2 1086   1.983   0.574   4.365
   63SOL     OW 1087   6.760   2.671   3.183
   63SOL    HW1 1088   6.773   2.644   3.278
   63SOL    HW2 1089   6.847   2.665   3.133
   64SOL     OW 1090   6.712   3.754   6.083
   64SOL    HW1 1091   6.680   3.768   6.177
   64SOL    HW2 1092   6.706   3.657   6.060
   65SOL     OW 1093   6.775   4.876   5.306
   65SOL    HW1 1094   6.705   4.862   5.376
   65SOL    HW2 1095   6.865   4.862   5.346
   66SOL     OW 1096   3.069   0.538   0.302
   66SOL    HW1 1097   2.984   0.497   0.271
   66SOL    HW2 1098   3.083   0.517   0.399
   67SOL     OW 1099   5.140   5.693   4.989
   67SOL    HW1 1100   5.185   5.773   5.028
   67SOL    HW2 1101   5.111   5.713   4.896
   68SOL     OW 1102   5.979   2.320   5.852
   68SOL    HW1 1103   5.951   2.314   5.756
   68SOL    HW2 1104   5.912   2.374   5.903
   69SOL     OW 1105   2.883   4.060   6.229
   69SOL    HW1 1106   2.926   4.084   6.316
   69SOL    HW2 1107   2.903   4.131   6.161
   70SOL     OW 1108   6.848   5.426   2.793
   70SOL    HW1 1109   6.873   5.477   2.711
   70SOL    HW2 1110   6.827   5.331   2.768
   71SOL     OW 1111   1.444   2.963   3.167
   71SOL    HW1 1112   1.502   2.892   3.206
   71SOL    HW2 1113   1.499   3.044   3.145
   72SOL     OW 1114   2.567   5.519   4.051
   72SOL    HW1 1115   2.495   5.569   4.099
   72SOL    HW2 1116   2.536   5.497   3.958
   73SOL     OW 1117   4.341   2.163   0.373
   73SOL    HW1 1118   4.382   2.242   0.417
   73SOL    HW2 1119   4.258   2.190   0.325
   74SOL     OW 1120   5.425   6.312   6.475
   74SOL    HW1 1121   5.474   6.258   6.544
   74SOL    HW2 1122   5.419   6.407   6.505
   75SOL     OW 1123   3.773   5.640   5.476
   75SOL    HW1 1124   3.854   5.695   5.492
   75SOL    HW2 1125   3.785   5.550   5.516
   76SOL     OW 1126   2.718   2.478   1.416
   76SOL    HW1 1127   2.807   2.474   1.462
   76SOL    HW2 1128   2.724   2.429   1.329
   77SOL     OW 1129   5.899   5.112   5.316
   77SOL    HW1 1130   5.925   5.060   5.397
   77SOL    HW2 1131   5.980   5.131   5.261
   78SOL     OW 1132   6.532   6.601   5.685
   78SOL    HW1 1133   6.525   6.507   5.651
   78SOL    HW2 1134   6.452   6.622   5.741
   79SOL     OW 1135   3.397   7.005   0.774
   79SOL    HW1 1136   3.447   6.939   0.718
   79SOL    HW2 1137   3.459   0.027   0.840
   80SOL     OW 1138   0.093   1.530   4.479
   80SOL    HW1 1139   0.179   1.530   4.528
   80SOL    HW2 1140   0.019   1.557   4.540
   81SOL     OW 1141   1.642   1.095   2.834
   81SOL    HW1 1142   1.678   1.037   2.907
   81SOL    HW2 1143   1.545   1.075   2.820
   82SOL     OW 1144   6.886   4.370   6.293
   82SOL    HW1 1145   6.970   4.415   6.263
   82SOL    HW2 1146   6.845   4.423   6.367
   83SOL     OW 1147   0.451   6.602   0.412
   83SOL    HW1 1148   0.394   6.522   0.428
   83SOL    HW2 1149   0.489   6.599   0.320
   84SOL     OW 1150   5.353   3.788   1.453
   84SOL    HW1 1151   5.449   3.811   1.438
   84SOL    HW2 1152   5.346   3.701   1.502
   85SOL     OW 1153   1.215   1.842   5.632
   85SOL    HW1 1154   1.244   1.751   5.602
   85SOL    HW2 1155   1.116   1.849   5.627
   86SOL     OW 1156   0.883   0.623   5.564
   86SOL    HW1 1157   0.839   0.689   5.625
   86SOL    HW2 1158   0.880   0.658   5.471
   87SOL     OW 1159   4.816   1.737   0.729
   87SOL    HW1 1160   4.895   1.694   0.685
   87SOL    HW2 1161   4.771   1.798   0.664
   88SOL     OW 1162   5.605   1.206   0.855
   88SOL    HW1 1163   5.590   1.109   0.834
   88SOL    HW2 1164   5.629   1.215   0.952
   89SOL     OW 1165   1.500   2.606   6.445
   89SOL    HW1 1166   1.414   2.584   6.492
   89SOL    HW2 1167   1.529   2.698   6.470
   90SOL     OW 1168   5.153   6.116   3.936
   90SOL    HW1 1169   5.233   6.177   3.929
   90SOL    HW2 1170   5.175   6.028   3.894
   91SOL     OW 1171   5.161   4.626   5.236
   91SOL    HW1 1172   5.126   4.623   5.142
   91SOL    HW2 1173   5.086   4.638   5.300
   92SOL     OW 1174   3.429   4.789   1.218
   92SOL    HW1 1175   3.344   4.833   1.245
   92SOL    HW2 1176   3.449   4.713   1.281
   93SOL     OW 1177   3.546   5.411   6.076
   93SOL    HW1 1178   3.533   5.499   6.030
   93SOL    HW2 1179   3.481   5.403   6.151
   94SOL     OW 1180   3.105   5.741   0.194
   94SOL    HW1 1181   3.122   5.761   0.098
   94SOL    HW2 1182   3.007   5.737   0.211
   95SOL     OW 1183   0.354   0.130   3.934
   95SOL    HW1 1184   0.320   0.036   3.946
   95SOL    HW2 1185   0.453   0.129   3.923
   96SOL     OW 1186   2.279   0.202   5.434
   96SOL    HW1 1187   2.288   0.292   5.393
   96SOL    HW2 1188   2.213   0.206   5.509
   97SOL     OW 1189   6.168   3.332   4.335
   97SOL    HW1 1190   6.087   3.337   4.277
   97SOL    HW2 1191   6.219   3.248   4.315
   98SOL     OW 1192   4.843   2.185   6.221
   98SOL    HW1 1193   4.797   2.187   6.132
   98SOL    HW2 1194   4.937   2.154   6.208
   99SOL     OW 1195   4.401   2.191   1.081
   99SOL    HW1 1196   4.301   2.183   1.081
   99SOL    HW2 1197   4.434   2.199   0.988
  100SOL     OW 1198   0.874   5.962   6.501
  100SOL    HW1 1199   0.942   5.908   6.549
  100SOL    HW2 1200   0.880   5.944   6.403
  101SOL     OW 1201   1.625   6.164   3.665
  101SOL    HW1 1202   1.680   6.172   3.748
  101SOL    HW2 1203   1.647   6.078   3.619
  102SOL     OW 1204   3.484   0.579   3.522
  102SOL    HW1 1205   3.579   0.609   3.531
  102SOL    HW2 1206   3.423   0.651   3.553
  103SOL     OW 1207   3.972   2.631   1.307
  103SOL    HW1 1208   3.872   2.628   1.300
  103SOL    HW2 1209   4.002   2.578   1.386
  104SOL     OW 1210   7.003   5.687   2.147
  104SOL    HW1 1211   0.000   5.738   2.231
  104SOL    HW2 1212   0.060   5.700   2.084
  105SOL     OW 1213   5.907   0.811   6.393
  105SOL    HW1 1214   5.885   0.849   6.303
  105SOL    HW2 1215   5.845   0.849   6.461
  106SOL     OW 1216   2.966   6.286   6.602
  106SOL    HW1 1217   2.986   6.213   6.537
  106SOL    HW2 1218   3.027   6.363   6.587
  107SOL     OW 1219   2.252   2.637   0.721
  107SOL    HW1 1220   2.282   2.542   0.708
  107SOL    HW2 1221   2.155   2.645   0.696
  108SOL     OW 1222   4.975   4.657   6.236
  108SOL    HW1 1223   5.060   4.711   6.233
  108SOL    HW2 1224   4.954   4.623   6.145
  109SOL     OW 1225   6.883   0.326   0.367
  109SOL    HW1 1226   6.954   0.383   0.326
  109SOL    HW2 1227   6.796   0.342   0.321
  110SOL     OW 1228   3.594   6.000   5.452
  110SOL    HW1 1229   3.616   6.078   5.510
  110SOL    HW2 1230   3.495   5.992   5.441
  111SOL     OW 1231   4.039   1.177   3.168
  111SOL    HW1 1232   3.993   1.088   3.159
  111SOL    HW2 1233   4.136   1.162   3.189
  112SOL     OW 1234   6.447   6.032   5.710
  112SOL    HW1 1235   6.499   6.057   5.791
  112SOL    HW2 1236   6.493   5.957   5.663
  113SOL     OW 1237   0.115   4.395   3.649
  113SOL    HW1 1238   0.029   4.420   3.693
  113SOL    HW2 1239   0.192   4.435   3.699
  114SOL     OW 1240   0.827   6.743   0.214
  114SOL    HW1 1241   0.733   6.744   0.178
  114SOL    HW2 1242   0.848   6.831   0.254
  115SOL     OW 1243   4.960   1.542   4.440
  115SOL    HW1 1244   4.934   1.512   4.532
  115SOL    HW2 1245   4.978   1.641   4.441
  116SOL     OW 1246   6.239   4.312   2.190
  116SOL    HW1 1247   6.186   4.392   2.164
  116SOL    HW2 1248   6.246   4.250   2.112
  117SOL     OW 1249   1.606   0.253   6.335
  117SOL    HW1 1250   1.544   0.314   6.286
  117SOL    HW2 1251   1.556   0.207   6.408
  118SOL     OW 1252   0.450   0.741   2.088
  118SOL    HW1 1253   0.450   0.706   2.182
  118SOL    HW2 1254   0.422   0.668   2.026
  119SOL     OW 1255   6.691   2.821   5.755
  119SOL    HW1 1256   6.716   2.757   5.829
  119SOL    HW2 1257   6.596   2.850   5.767
  120SOL     OW 1258   5.936   6.724   1.036
  120SOL    HW1 1259   5.924   6.778   0.953
  120SOL    HW2 1260   5.938   6.627   1.012
  121SOL     OW 1261   2.384   3.388   6.326
  121SOL    HW1 1262   2.351   3.462   6.267
  121SOL    HW2 1263   2.456   3.337   6.280
  122SOL     OW 1264   0.344   3.474   4.503
  122SOL    HW1 1265   0.319   3.537   4.577
  122SOL    HW2 1266   0.444   3.474   4.492
  123SOL     OW 1267   0.478   1.583   1.318
  123SOL    HW1 1268   0.444   1.674   1.297
  123SOL    HW2 1269   0.577   1.580   1.304
  124SOL     OW 1270   4.805   3.310   0.218
  124SOL    HW1 1271   4.765   3.391   0.263
  124SOL    HW2 1272   4.904   3.324   0.207
  125SOL     OW 1273   1.797   2.539   2.167
  125SOL    HW1 1274   1.851   2.598   2.108
  125SOL    HW2 1275   1.787   2.449   2.124
  126SOL     OW 1276   3.192   4.848   1.332
  126SOL    HW1 1277   3.104   4.801   1.333
  126SOL    HW2 1278   3.179   4.943   1.359
  127SOL     OW 1279   6.980   5.604   5.843
  127SOL    HW1 1280   6.890   5.645   5.856
  127SOL    HW2 1281   7.002   5.545   5.920
  128SOL     OW 1282   4.528   2.606   1.630
  128SOL    HW1 1283   4.602   2.649   1.683
  128SOL    HW2 1284   4.441   2.620   1.677
  129SOL     OW 1285   3.378   3.687   6.712
  129SOL    HW1 1286   3.298   3.736   6.675
  129SOL    HW2 1287   3.383   3.596   6.670
  130SOL     OW 1288   0.962   0.862   4.292
  130SOL    HW1 1289   0.964   0.777   4.345
  130SOL    HW2 1290   0.883   0.861   4.231
  131SOL     OW 1291   4.835   1.670   2.926
  131SOL    HW1 1292   4.935   1.669   2.934
  131SOL    HW2 1293   4.805   1.593   2.869
  132SOL     OW 1294   1.303   2.645   1.681
  132SOL    HW1 1295   1.311   2.702   1.763
  132SOL    HW2 1296   1.207   2.628   1.661
  133SOL     OW 1297   6.503   6.015   2.502
  133SOL    HW1 1298   6.564   6.014   2.581
  133SOL    HW2 1299   6.531   6.086   2.438
  134SOL     OW 1300   0.086   3.647   3.038
  134SOL    HW1 1301   7.019   3.674   2.995
  134SOL    HW2 1302   0.112   3.556   3.004
  135SOL     OW 1303   5.070   1.852   4.075
  135SOL    HW1 1304   5.070   1.753   4.089
  135SOL    HW2 1305   4.996   1.893   4.128
  136SOL     OW 1306   5.131   4.192   5.435
  136SOL    HW1 1307   5.128   4.096   5.407
  136SOL    HW2 1308   5.043   4.235   5.415
  137SOL     OW 1309   4.633   6.764   5.920
  137SOL    HW1 1310   4.720   6.747   5.966
  137SOL    HW2 1311   4.625   6.862   5.899
  138SOL     OW 1312   6.617   5.354   4.704
  138SOL    HW1 1313   6.543   5.295   4.733
  138SOL    HW2 1314   6.690   5.299   4.663
  139SOL     OW 1315   2.981   4.852   5.091
  139SOL    HW1 1316   3.078   4.832   5.105
  139SOL    HW2 1317   2.930   4.767   5.080
  140SOL     OW 1318   5.712   5.082   4.320
  140SOL    HW1 1319   5.750   4.990   4.328
  140SOL    HW2 1320   5.749   5.140   4.393
  141SOL     OW 1321   1.397   1.936   4.553
  141SOL    HW1 1322   1.349   1.995   4.617
  141SOL    HW2 1323   1.453   1.870   4.603
  142SOL     OW 1324   1.723   5.867   1.637
  142SOL    HW1 1325   1.681   5.942   1.688
  142SOL    HW2 1326   1.817   5.891   1.613
  143SOL     OW 1327   5.352   4.526   2.509
  143SOL    HW1 1328   5.296   4.586   2.450
  143SOL    HW2 1329   5.313   4.525   2.601
  144SOL     OW 1330   1.789   6.399   6.811
  144SOL    HW1 1331   1.788   6.467   6.884
  144SOL    HW2 1332   1.871   6.411   6.755
  145SOL     OW 1333   0.319   5.795   1.029
  145SOL    HW1 1334   0.401   5.752   0.993
  145SOL    HW2 1335   0.243   5.729   1.028
  146SOL     OW 1336   5.540   6.220   0.872
  146SOL    HW1 1337   5.465   6.201   0.808
  146SOL    HW2 1338   5.604   6.143   0.871
  147SOL     OW 1339   7.006   2.519   0.719
  147SOL    HW1 1340   6.953   2.602   0.735
  147SOL    HW2 1341   0.061   2.537   0.655
  148SOL     OW 1342   1.134   5.299   5.787
  148SOL    HW1 1343   1.120   5.387   5.833
  148SOL    HW2 1344   1.144   5.314   5.689
  149SOL     OW 1345   3.146   1.270   4.534
  149SOL    HW1 1346   3.069   1.207   4.525
  149SOL    HW2 1347   3.210   1.254   4.458
  150SOL     OW 1348   6.972   4.966   6.919
  150SOL    HW1 1349   6.875   4.960   6.896
  150SOL    HW2 1350   0.007   4.958   6.835
  151SOL     OW 1351   4.156   1.663   1.381
  151SOL    HW1 1352   4.167   1.702   1.472
  151SOL    HW2 1353   4.060   1.668   1.354
  152SOL     OW 1354   2.905   0.795   4.590
  152SOL    HW1 1355   2.811   0.765   4.573
  152SOL    HW2 1356   2.957   0.790   4.505
  153SOL     OW 1357   1.989   0.928   2.993
  153SOL    HW1 1358   1.907   0.924   3.050
  153SOL    HW2 1359   2.039   0.842   2.999
  154SOL     OW 1360   0.026   2.060   1.931
  154SOL    HW1 1361   0.061   2.107   1.850
  154SOL    HW2 1362   6.946   2.062   1.931
  155SOL     OW 1363   0.118   0.833   2.798
  155SOL    HW1 1364   0.139   0.870   2.888
  155SOL    HW2 1365   0.192   0.855   2.735
  156SOL     OW 1366   6.307   1.764   0.508
  156SOL    HW1 1367   6.337   1.829   0.577
  156SOL    HW2 1368   6.231   1.803   0.456
  157SOL     OW 1369   6.173   3.440   2.800
  157SOL    HW1 1370   6.248   3.467   2.740
  157SOL    HW2 1371   6.197   3.459   2.895
  158SOL     OW 1372   2.285   1.090   2.596
  158SOL    HW1 1373   2.367   1.131   2.635
  158SOL    HW2 1374   2.216   1.079   2.668
  159SOL     OW 1375   4.834   4.137   1.832
  159SOL    HW1 1376   4.854   4.198   1.756
  159SOL    HW2 1377   4.897   4.154   1.907
  160SOL     OW 1378   6.819   4.162   5.781
  160SOL    HW1 1379   6.796   4.069   5.809
  160SOL    HW2 1380   6.765   4.187   5.701
  161SOL     OW 1381   2.070   5.041   5.119
  161SOL    HW1 1382   2.138   5.009   5.185
  161SOL    HW2 1383   1.985   4.990   5.131
  162SOL     OW 1384   4.439   5.822   1.162
  162SOL    HW1 1385   4.366   5.782   1.107
  162SOL    HW2 1386   4.412   5.914   1.191
  163SOL     OW 1387   4.485   0.276   2.082
  163SOL    HW1 1388   4.536   0.191   2.093
  163SOL    HW2 1389   4.389   0.260   2.104
  164SOL     OW 1390   6.256   3.612   0.957
  164SOL    HW1 1391   6.322   3.605   0.882
  164SOL    HW2 1392   6.178   3.553   0.938
  165SOL     OW 1393   4.712   3.177   6.554
  165SOL    HW1 1394   4.708   3.124   6.469
  165SOL    HW2 1395   4.733   3.272   6.533
  166SOL     OW 1396   0.169   6.923   2.448
  166SOL    HW1 1397   0.151   6.825   2.444
  166SOL    HW2 1398   0.083   6.973   2.433
  167SOL     OW 1399   6.499   2.748   0.053
  167SOL    HW1 1400   6.488   2.672   7.009
  167SOL    HW2 1401   6.505   2.834   0.002
  168SOL     OW 1402   2.177   5.353   1.096
  168SOL    HW1 1403   2.226   5.267   1.085
  168SOL    HW2 1404   2.223   5.410   1.164
  169SOL     OW 1405   1.938   0.188   2.012
  169SOL    HW1 1406   2.009   0.123   1.985
  169SOL    HW2 1407   1.972   0.281   2.004
  170SOL     OW 1408   0.017   1.569   3.537
  170SOL    HW1 1409   0.073   1.494   3.503
  170SOL    HW2 1410   6.977   1.602   3.464
  171SOL     OW 1411   3.743   3.938   0.140
  171SOL    HW1 1412   3.770   3.944   0.044
  171SOL    HW2 1413   3.644   3.953   0.147
  172SOL     OW 1414   6.576   2.463   5.221
  172SOL    HW1 1415   6.551   2.380   5.272
  172SOL    HW2 1416   6.623   2.438   5.137
  173SOL     OW 1417   0.272   6.899   4.964
  173SOL    HW1 1418   0.240   6.853   5.047
  173SOL    HW2 1419   0.194   6.942   4.918
  174SOL     OW 1420   2.439   5.149   3.511
  174SOL    HW1 1421   2.423   5.079   3.442
  174SOL    HW2 1422   2.426   5.110   3.602
  175SOL     OW 1423   2.117   5.927   2.334
  175SOL    HW1 1424   2.203   5.881   2.311
  175SOL    HW2 1425   2.103   5.923   2.433
  176SOL     OW 1426   2.057   3.969   1.212
  176SOL    HW1 1427   1.970   3.960   1.164
  176SOL    HW2 1428   2.073   3.888   1.269
  177SOL     OW 1429   5.049   2.313   2.568
  177SOL    HW1 1430   4.970   2.266   2.609
  177SOL    HW2 1431   5.031   2.411   2.564
  178SOL     OW 1432   5.171   4.948   6.791
  178SOL    HW1 1433   5.252   4.893   6.776
  178SOL    HW2 1434   5.099   4.922   6.727
  179SOL     OW 1435   3.077   0.217   0.853
  179SOL    HW1 1436   3.060   0.238   0.757
  179SOL    HW2 1437   3.109   0.300   0.900
  180SOL     OW 1438   0.684   1.324   6.631
  180SOL    HW1 1439   0.755   1.358   6.569
  180SOL    HW2 1440   0.726   1.298   6.718
  181SOL     OW 1441   3.600   2.800   5.800
  181SOL    HW1 1442   3.620   2.797   5.898
  181SOL    HW2 1443   3.560   2.889   5.776
  182SOL     OW 1444   4.151   1.994   4.908
  182SOL    HW1 1445   4.145   1.910   4.962
  182SOL    HW2 1446   4.140   2.073   4.968
  183SOL     OW 1447   4.897   1.149   1.911
  183SOL    HW1 1448   4.996   1.161   1.918
  183SOL    HW2 1449   4.857   1.148   2.002
  184SOL     OW 1450   0.611   4.900   3.194
  184SOL    HW1 1451   0.637   4.879   3.288
  184SOL    HW2 1452   0.689   4.941   3.147
  185SOL     OW 1453   1.710   3.726   6.300
  185SOL    HW1 1454   1.644   3.656   6.324
  185SOL    HW2 1455   1.798   3.684   6.280
  186SOL     OW 1456   5.347   0.285   3.213
  186SOL    HW1 1457   5.308   0.376   3.232
  186SOL    HW2 1458   5.447   0.290   3.217
  187SOL     OW 1459   5.420   0.927   4.198
  187SOL    HW1 1460   5.465   0.909   4.285
  187SOL    HW2 1461   5.437   1.022   4.170
  188SOL     OW 1462   6.029   2.322   3.415
  188SOL    HW1 1463   5.941   2.352   3.450
  188SOL    HW2 1464   6.018   2.236   3.365
  189SOL     OW 1465   2.055   4.466   2.597
  189SOL    HW1 1466   2.072   4.532   2.524
  189SOL    HW2 1467   1.958   4.441   2.599
  190SOL     OW 1468   3.926   0.978   5.338
  190SOL    HW1 1469   3.860   0.965   5.264
  190SOL    HW2 1470   4.019   0.979   5.301
  191SOL     OW 1471   5.792   5.595   6.406
  191SOL    HW1 1472   5.891   5.576   6.407
  191SOL    HW2 1473   5.754   5.577   6.497
  192SOL     OW 1474   6.968   0.593   1.896
  192SOL    HW1 1475   6.980   0.665   1.964
  192SOL    HW2 1476   6.871   0.568   1.890
  193SOL     OW 1477   5.235   3.872   0.028
  193SOL    HW1 1478   5.298   3.909   6.979
  193SOL    HW2 1479   5.157   3.933   0.037
  194SOL     OW 1480   3.297   0.743   3.622
  194SOL    HW1 1481   3.290   0.773   3.717
  194SOL    HW2 1482   3.207   0.714   3.589
  195SOL     OW 1483   1.260   5.669   3.299
  195SOL    HW1 1484   1.256   5.658   3.199
  195SOL    HW2 1485   1.260   5.579   3.342
  196SOL     OW 1486   1.454   1.754   0.063
  196SOL    HW1 1487   1.462   1.851   0.043
  196SOL    HW2 1488   1.437   1.704   6.998
  197SOL     OW 1489   1.603   0.722   1.296
  197SOL    HW1 1490   1.611   0.749   1.391
  197SOL    HW2 1491   1.647   0.790   1.238
  198SOL     OW 1492   3.582   2.012   3.687
  198SOL    HW1 1493   3.557   1.994   3.592
  198SOL    HW2 1494   3.518   1.965   3.748
  199SOL     OW 1495   0.988   2.533   3.733
  199SOL    HW1 1496   1.005   2.440   3.765
  199SOL    HW2 1497   0.900   2.565   3.766
  200SOL     OW 1498   0.165   2.687   0.146
  200SOL    HW1 1499   0.168   2.769   0.203
  200SOL    HW2 1500   0.077   2.640   0.159
  201SOL     OW 1501   0.350   0.691   6.085
  201SOL    HW1 1502   0.348   0.615   6.020
  201SOL    HW2 1503   0.326   0.658   6.176
  202SOL     OW 1504   4.586   6.964   6.713
  202SOL    HW1 1505   4.542   0.027   6.750
  202SOL    HW2 1506   4.517   6.903   6.674
  203SOL     OW 1507   5.431   2.711   5.320
  203SOL    HW1 1508   5.446   2.794   5.373
  203SOL    HW2 1509   5.509   2.650   5.330
  204SOL     OW 1510   6.576   0.850   5.689
  204SOL    HW1 1511   6.479   0.828   5.675
  204SOL    HW2 1512   6.632   0.786   5.636
  205SOL     OW 1513   0.984   2.914   2.058
  205SOL    HW1 1514   1.051   2.985   2.082
  205SOL    HW2 1515   0.933   2.944   1.977
  206SOL     OW 1516   0.585   2.863   0.663
  206SOL    HW1 1517   0.607   2.960   0.673
  206SOL    HW2 1518   0.581   2.841   0.565
  207SOL     OW 1519   4.900   2.121   3.837
  207SOL    HW1 1520   4.911   2.201   3.777
  207SOL    HW2 1521   4.971   2.054   3.815
  208SOL     OW 1522   1.122   3.985   4.405
  208SOL    HW1 1523   1.076   3.903   4.439
  208SOL    HW2 1524   1.157   3.968   4.312
  209SOL     OW 1525   6.692   4.148   2.656
  209SOL    HW1 1526   6.672   4.051   2.672
  209SOL    HW2 1527   6.713   4.192   2.744
  210SOL     OW 1528   5.102   2.521   7.015
  210SOL    HW1 1529   5.073   2.577   0.073
  210SOL    HW2 1530   5.032   2.453   6.995
  211SOL     OW 1531   0.080   0.814   3.490
  211SOL    HW1 1532   0.108   0.756   3.567
  211SOL    HW2 1533   0.134   0.898   3.490
  212SOL     OW 1534   1.953   3.709   3.261
  212SOL    HW1 1535   1.914   3.788   3.309
  212SOL    HW2 1536   1.887   3.634   3.260
  213SOL     OW 1537   1.905   4.905   1.085
  213SOL    HW1 1538   1.817   4.948   1.067
  213SOL    HW2 1539   1.935   4.854   1.004
  214SOL     OW 1540   4.178   6.013   2.428
  214SOL    HW1 1541   4.133   6.077   2.491
  214SOL    HW2 1542   4.209   5.933   2.479
  215SOL     OW 1543   2.425   4.399   2.040
  215SOL    HW1 1544   2.447   4.428   1.946
  215SOL    HW2 1545   2.437   4.477   2.102
  216SOL     OW 1546   1.471   6.670   2.468
  216SOL    HW1 1547   1.448   6.603   2.397
  216SOL    HW2 1548   1.470   6.761   2.429
  217SOL     OW 1549   1.721   3.906   6.511
  217SOL    HW1 1550   1.778   3.867   6.584
  217SOL    HW2 1551   1.729   3.850   6.429
  218SOL     OW 1552   0.730   2.378   5.039
  218SOL    HW1 1553   0.823   2.353   5.064
  218SOL    HW2 1554   0.681   2.298   5.005
  219SOL     OW 1555   4.073   1.475   0.745
  219SOL    HW1 1556   4.162   1.442   0.712
  219SOL    HW2 1557   4.030   1.404   0.801
  220SOL     OW 1558   3.346   6.712   0.886
  220SOL    HW1 1559   3.384   6.751   0.803
  220SOL    HW2 1560   3.321   6.616   0.870
  221SOL     OW 1561   5.001   5.938   1.350
  221SOL    HW1 1562   5.101   5.927   1.348
  221SOL    HW2 1563   4.979   6.035   1.348
  222SOL     OW 1564   2.355   4.309   6.076
  222SOL    HW1 1565   2.346   4.297   5.977
  222SOL    HW2 1566   2.354   4.219   6.121
  223SOL     OW 1567   6.484   2.235   5.365
  223SOL    HW1 1568   6.441   2.145   5.357
  223SOL    HW2 1569   6.567   2.227   5.420
  224SOL     OW 1570   2.110   1.894   5.979
  224SOL    HW1 1571   2.109   1.795   5.989
  224SOL    HW2 1572   2.037   1.934   6.036
  225SOL     OW 1573   4.673   5.134   6.270
  225SOL    HW1 1574   4.684   5.183   6.184
  225SOL    HW2 1575   4.683   5.036   6.254
  226SOL     OW 1576   1.135   2.069   6.792
  226SOL    HW1 1577   1.140   1.975   6.825
  226SOL    HW2 1578   1.052   2.082   6.738
  227SOL     OW 1579   1.447   3.882   1.933
  227SOL    HW1 1580   1.431   3.790   1.899
  227SOL    HW2 1581   1.381   3.945   1.892
  228SOL     OW 1582   1.544   6.831   2.679
  228SOL    HW1 1583   1.539   6.776   2.595
  228SOL    HW2 1584   1.452   6.842   2.716
  229SOL     OW 1585   4.991   5.406   6.189
  229SOL    HW1 1586   5.078   5.449   6.211
  229SOL    HW2 1587   5.008   5.315   6.151
  230SOL     OW 1588   4.721   5.819   5.421
  230SOL    HW1 1589   4.738   5.916   5.437
  230SOL    HW2 1590   4.742   5.796   5.326
  231SOL     OW 1591   5.177   1.198   0.149
  231SOL    HW1 1592   5.171   1.161   0.056
  231SOL    HW2 1593   5.130   1.286   0.153
  232SOL     OW 1594   1.612   2.699   5.879
  232SOL    HW1 1595   1.526   2.749   5.866
  232SOL    HW2 1596   1.606   2.643   5.962
  233SOL     OW 1597   2.527   1.120   3.007
  233SOL    HW1 1598   2.576   1.033   2.998
  233SOL    HW2 1599   2.429   1.103   3.018
  234SOL     OW 1600   4.649   1.413   6.486
  234SOL    HW1 1601   4.682   1.405   6.580
  234SOL    HW2 1602   4.668   1.506   6.452
  235SOL     OW 1603   4.752   2.466   2.390
  235SOL    HW1 1604   4.695   2.540   2.354
  235SOL    HW2 1605   4.736   2.457   2.488
  236SOL     OW 1606   4.315   4.273   6.298
  236SOL    HW1 1607   4.403   4.304   6.333
  236SOL    HW2 1608   4.266   4.350   6.257
  237SOL     OW 1609   6.161   3.900   2.835
  237SOL    HW1 1610   6.142   3.998   2.839
  237SOL    HW2 1611   6.119   3.854   2.913
  238SOL     OW 1612   6.528   1.527   0.468
  238SOL    HW1 1613   6.609   1.565   0.424
  238SOL    HW2 1614   6.517   1.567   0.559
  239SOL     OW 1615   1.187   3.572   0.371
  239SOL    HW1 1616   1.107   3.601   0.424
  239SOL    HW2 1617   1.265   3.560   0.433
  240SOL     OW 1618   6.195   2.967   3.442
  240SOL    HW1 1619   6.182   2.888   3.502
  240SOL    HW2 1620   6.284   2.960   3.397
  241SOL     OW 1621   2.665   1.458   3.683
  241SOL    HW1 1622   2.582   1.503   3.716
  241SOL    HW2 1623   2.746   1.502   3.721
  242SOL     OW 1624   3.742   3.705   3.879
  242SOL    HW1 1625   3.806   3.771   3.841
  242SOL    HW2 1626   3.784   3.658   3.956
  243SOL     OW 1627   4.530   2.789   6.311
  243SOL    HW1 1628   4.597   2.772   6.383
  243SOL    HW2 1629   4.452   2.728   6.323
  244SOL     OW 1630   5.982   3.739   5.740
  244SOL    HW1 1631   5.965   3.763   5.835
  244SOL    HW2 1632   5.919   3.666   5.712
  245SOL     OW 1633   3.637   1.903   2.486
  245SOL    HW1 1634   3.565   1.843   2.451
  245SOL    HW2 1635   3.663   1.968   2.415
  246SOL     OW 1636   6.189   1.509   3.623
  246SOL    HW1 1637   6.281   1.540   3.648
  246SOL    HW2 1638   6.194   1.450   3.543
  247SOL     OW 1639   2.027   1.180   0.861
  247SOL    HW1 1640   1.978   1.243   0.922
  247SOL    HW2 1641   2.124   1.180   0.886
  248SOL     OW 1642   1.690   1.360   2.006
  248SOL    HW1 1643   1.744   1.384   2.086
  248SOL    HW2 1644   1.601   1.405   2.012
  249SOL     OW 1645   5.715   6.537   4.874
  249SOL    HW1 1646   5.801   6.542   4.925
  249SOL    HW2 1647   5.664   6.622   4.885
  250SOL     OW 1648   3.231   2.645   1.272
  250SOL    HW1 1649   3.300   2.595   1.218
  250SOL    HW2 1650   3.187   2.581   1.335
  251SOL     OW 1651   4.346   3.732   5.996
  251SOL    HW1 1652   4.307   3.769   6.081
  251SOL    HW2 1653   4.325   3.794   5.921
  252SOL     OW 1654   6.078   6.359   5.709
  252SOL    HW1 1655   5.990   6.330   5.746
  252SOL    HW2 1656   6.129   6.279   5.678
  253SOL     OW 1657   4.546   5.321   6.105
  253SOL    HW1 1658   4.585   5.337   6.014
  253SOL    HW2 1659   4.588   5.384   6.170
  254SOL     OW 1660   6.056   2.777   4.459
  254SOL    HW1 1661   5.965   2.808   4.488
  254SOL    HW2 1662   6.117   2.776   4.538
  255SOL     OW 1663   1.844   4.574   5.725
  255SOL    HW1 1664   1.837   4.482   5.762
  255SOL    HW2 1665   1.930   4.583   5.674
  256SOL     OW 1666   5.010   3.156   5.391
  256SOL    HW1 1667   5.043   3.184   5.481
  256SOL    HW2 1668   4.966   3.234   5.346
  257SOL     OW 1669   4.816   5.831   2.958
  257SOL    HW1 1670   4.771   5.833   2.869
  257SOL    HW2 1671   4.914   5.850   2.947
  258SOL     OW 1672   2.407   3.968   5.963
  258SOL    HW1 1673   2.505   3.987   5.953
  258SOL    HW2 1674   2.378   3.906   5.891
  259SOL     OW 1675   3.848   0.135   3.076
  259SOL    HW1 1676   3.806   0.075   3.007
  259SOL    HW2 1677   3.858   0.227   3.037
  260SOL     OW 1678   3.945   5.675   3.065
  260SOL    HW1 1679   3.995   5.664   3.151
  260SOL    HW2 1680   3.877   5.601   3.057
  261SOL     OW 1681   4.493   4.902   0.406
  261SOL    HW1 1682   4.469   4.921   0.502
  261SOL    HW2 1683   4.433   4.831   0.370
  262SOL     OW 1684   2.007   4.390   0.068
  262SOL    HW1 1685   2.033   4.371   6.993
  262SOL    HW2 1686   2.037   4.315   0.127
  263SOL     OW 1687   1.300   6.495   4.021
  263SOL    HW1 1688   1.293   6.424   3.952
  263SOL    HW2 1689   1.389   6.541   4.013
  264SOL     OW 1690   0.203   3.507   6.655
  264SOL    HW1 1691   0.302   3.501   6.660
  264SOL    HW2 1692   0.164   3.499   6.747
  265SOL     OW 1693   6.309   0.238   4.218
  265SOL    HW1 1694   6.348   0.309   4.159
  265SOL    HW2 1695   6.217   0.215   4.186
  266SOL     OW 1696   4.110   1.571   5.372
  266SOL    HW1 1697   4.084   1.665   5.348
  266SOL    HW2 1698   4.054   1.540   5.449
  267SOL     OW 1699   1.389   0.647   5.297
  267SOL    HW1 1700   1.439   0.563   5.277
  267SOL    HW2 1701   1.411   0.678   5.390
  268SOL     OW 1702   3.729   1.156   1.077
  268SOL    HW1 1703   3.776   1.077   1.037
  268SOL    HW2 1704   3.777   1.185   1.160
  269SOL     OW 1705   4.129   2.286   0.190
  269SOL    HW1 1706   4.085   2.201   0.161
  269SOL    HW2 1707   4.194   2.316   0.121
  270SOL     OW 1708   6.654   6.801   0.029
  270SOL    HW1 1709   6.593   6.866   7.001
  270SOL    HW2 1710   6.733   6.782   6.990
  271SOL     OW 1711   0.138   2.651   6.081
  271SOL    HW1 1712   0.136   2.600   5.995
  271SOL    HW2 1713   0.139   2.749   6.062
  272SOL     OW 1714   3.102   6.348   3.604
  272SOL    HW1 1715   3.166   6.288   3.651
  272SOL    HW2 1716   3.056   6.297   3.531
  273SOL     OW 1717   1.950   5.276   5.232
  273SOL    HW1 1718   2.049   5.290   5.220
  273SOL    HW2 1719   1.922   5.195   5.180
  274SOL     OW 1720   4.265   0.892   3.957
  274SOL    HW1 1721   4.281   0.881   4.055
  274SOL    HW2 1722   4.334   0.955   3.919
  275SOL     OW 1723   0.043   6.660   2.763
  275SOL    HW1 1724   6.976   6.621   2.731
  275SOL    HW2 1725   0.093   6.592   2.816
  276SOL     OW 1726   0.182   0.254   4.656
  276SOL    HW1 1727   0.103   0.270   4.597
  276SOL    HW2 1728   0.227   0.341   4.677
  277SOL     OW 1729   2.119   3.225   0.910
  277SOL    HW1 1730   2.117   3.125   0.902
  277SOL    HW2 1731   2.155   3.265   0.826
  278SOL     OW 1732   0.569   2.603   2.499
  278SOL    HW1 1733   0.504   2.600   2.423
  278SOL    HW2 1734   0.561   2.690   2.547
  279SOL     OW 1735   5.928   2.744   4.145
  279SOL    HW1 1736   5.873   2.739   4.228
  279SOL    HW2 1737   5.931   2.839   4.113
  280SOL     OW 1738   1.870   4.406   2.095
  280SOL    HW1 1739   1.882   4.416   1.996
  280SOL    HW2 1740   1.955   4.372   2.135
  281SOL     OW 1741   2.056   3.917   0.666
  281SOL    HW1 1742   2.146   3.892   0.702
  281SOL    HW2 1743   1.985   3.868   0.716
  282SOL     OW 1744   3.349   1.718   6.160
  282SOL    HW1 1745   3.378   1.722   6.064
  282SOL    HW2 1746   3.272   1.779   6.174
  283SOL     OW 1747   4.946   2.673   6.240
  283SOL    HW1 1748   4.869   2.705   6.185
  283SOL    HW2 1749   5.008   2.620   6.182
  284SOL     OW 1750   0.656   3.537   4.080
  284SOL    HW1 1751   0.572   3.536   4.025
  284SOL    HW2 1752   0.733   3.563   4.022
  285SOL     OW 1753   5.447   4.367   4.144
  285SOL    HW1 1754   5.543   4.346   4.126
  285SOL    HW2 1755   5.441   4.434   4.218
  286SOL     OW 1756   3.653   3.745   6.890
  286SOL    HW1 1757   3.564   3.785   6.910
  286SOL    HW2 1758   3.722   3.817   6.883
  287SOL     OW 1759   1.865   3.913   0.377
  287SOL    HW1 1760   1.916   3.989   0.416
  287SOL    HW2 1761   1.804   3.947   0.305
  288SOL     OW 1762   5.148   1.973   6.848
  288SOL    HW1 1763   5.053   1.988   6.822
  288SOL    HW2 1764   5.200   1.947   6.766
  289SOL     OW 1765   2.672   4.942   5.977
  289SOL    HW1 1766   2.758   4.989   5.995
  289SOL    HW2 1767   2.682   4.844   5.993
  290SOL     OW 1768   0.117   1.984   5.777
  290SOL    HW1 1769   0.149   2.039   5.700
  290SOL    HW2 1770   0.195   1.947   5.827
  291SOL     OW 1771   6.776   2.149   2.515
  291SOL    HW1 1772   6.863   2.124   2.559
  291SOL    HW2 1773   6.728   2.066   2.488
  292SOL     OW 1774   1.842   0.417   3.243
  292SOL    HW1 1775   1.780   0.411   3.321
  292SOL    HW2 1776   1.810   0.357   3.169
  293SOL     OW 1777   4.071   5.317   3.861
  293SOL    HW1 1778   3.972   5.308   3.875
  293SOL    HW2 1779   4.092   5.301   3.765
  294SOL     OW 1780   4.699   5.985   6.597
  294SOL    HW1 1781   4.617   6.016   6.549
  294SOL    HW2 1782   4.727   6.054   6.663
  295SOL     OW 1783   5.300   0.570   4.602
  295SOL    HW1 1784   5.393   0.564   4.568
  295SOL    HW2 1785   5.299   0.618   4.690
  296SOL     OW 1786   3.008   2.118   3.865
  296SOL    HW1 1787   2.978   2.199   3.814
  296SOL    HW2 1788   2.928   2.064   3.891
  297SOL     OW 1789   1.425   4.267   3.039
  297SOL    HW1 1790   1.339   4.307   3.007
  297SOL    HW2 1791   1.438   4.289   3.135
  298SOL     OW 1792   6.368   4.985   1.095
  298SOL    HW1 1793   6.462   4.968   1.068
  298SOL    HW2 1794   6.347   5.082   1.083
  299SOL     OW 1795   6.728   2.434   4.411
  299SOL    HW1 1796   6.817   2.458   4.372
  299SOL    HW2 1797   6.737   2.351   4.466
  300SOL     OW 1798   6.005   0.121   2.934
  300SOL    HW1 1799   6.070   0.177   2.986
  300SOL    HW2 1800   5.955   0.180   2.870
  301SOL     OW 1801   5.383   4.050   6.077
  301SOL    HW1 1802   5.320   4.001   6.017
  301SOL    HW2 1803   5.346   4.140   6.099
  302SOL     OW 1804   0.384   6.767   3.426
  302SOL    HW1 1805   0.469   6.801   3.386
  302SOL    HW2 1806   0.308   6.783   3.362
  303SOL     OW 1807   5.230   0.881   3.877
  303SOL    HW1 1808   5.235   0.786   3.847
  303SOL    HW2 1809   5.158   0.889   3.947
  304SOL     OW 1810   2.850   0.002   3.206
  304SOL    HW1 1811   2.890   0.090   3.180
  304SOL    HW2 1812   2.752   0.002   3.186
  305SOL     OW 1813   1.416   3.502   1.333
  305SOL    HW1 1814   1.360   3.584   1.342
  305SOL    HW2 1815   1.366   3.432   1.282
  306SOL     OW 1816   2.085   0.373   3.590
  306SOL    HW1 1817   1.994   0.415   3.581
  306SOL    HW2 1818   2.091   0.293   3.532
  307SOL     OW 1819   3.656   0.231   1.308
  307SOL    HW1 1820   3.719   0.153   1.309
  307SOL    HW2 1821   3.582   0.214   1.373
  308SOL     OW 1822   0.546   5.337   3.984
  308SOL    HW1 1823   0.458   5.345   4.031
  308SOL    HW2 1824   0.534   5.355   3.887
  309SOL     OW 1825   4.056   5.202   5.133
  309SOL    HW1 1826   4.075   5.281   5.192
  309SOL    HW2 1827   4.027   5.233   5.043
  310SOL     OW 1828   0.501   6.628   5.874
  310SOL    HW1 1829   0.522   6.604   5.780
  310SOL    HW2 1830   0.532   6.722   5.892
  311SOL     OW 1831   0.626   0.292   0.993
  311SOL    HW1 1832   0.641   0.359   1.066
  311SOL    HW2 1833   0.598   0.205   1.033
  312SOL     OW 1834   4.454   1.797   4.908
  312SOL    HW1 1835   4.453   1.897   4.897
  312SOL    HW2 1836   4.384   1.770   4.974
  313SOL     OW 1837   1.255   3.753   1.272
  313SOL    HW1 1838   1.157   3.770   1.271
  313SOL    HW2 1839   1.292   3.777   1.362
  314SOL     OW 1840   3.926   6.457   0.894
  314SOL    HW1 1841   3.989   6.497   0.828
  314SOL    HW2 1842   3.834   6.453   0.855
  315SOL     OW 1843   0.687   2.671   3.203
  315SOL    HW1 1844   0.613   2.671   3.136
  315SOL    HW2 1845   0.661   2.727   3.282
  316SOL     OW 1846   2.898   2.229   4.180
  316SOL    HW1 1847   2.990   2.233   4.142
  316SOL    HW2 1848   2.903   2.240   4.280
  317SOL     OW 1849   0.061   1.736   6.731
  317SOL    HW1 1850   0.013   1.716   6.817
  317SOL    HW2 1851   0.087   1.833   6.729
  318SOL     OW 1852   2.467   4.993   0.825
  318SOL    HW1 1853   2.480   4.936   0.743
  318SOL    HW2 1854   2.482   5.089   0.801
  319SOL     OW 1855   1.345   6.455   0.377
  319SOL    HW1 1856   1.380   6.415   0.292
  319SOL    HW2 1857   1.342   6.555   0.368
  320SOL     OW 1858   5.602   3.497   0.633
  320SOL    HW1 1859   5.639   3.524   0.544
  320SOL    HW2 1860   5.677   3.475   0.695
  321SOL     OW 1861   2.021   1.755   0.764
  321SOL    HW1 1862   2.116   1.775   0.741
  321SOL    HW2 1863   1.985   1.687   0.700
  322SOL     OW 1864   3.572   2.833   4.929
  322SOL    HW1 1865   3.587   2.735   4.918
  322SOL    HW2 1866   3.598   2.880   4.845
  323SOL     OW 1867   0.811   4.640   1.757
  323SOL    HW1 1868   0.823   4.648   1.658
  323SOL    HW2 1869   0.756   4.559   1.778
  324SOL     OW 1870   0.688   2.950   4.762
  324SOL    HW1 1871   0.753   2.876   4.742
  324SOL    HW2 1872   0.735   3.038   4.754
  325SOL     OW 1873   2.215   2.888   2.576
  325SOL    HW1 1874   2.276   2.814   2.606
  325SOL    HW2 1875   2.144   2.850   2.517
  326SOL     OW 1876   1.765   4.940   6.142
  326SOL    HW1 1877   1.760   4.900   6.051
  326SOL    HW2 1878   1.778   4.867   6.210
  327SOL     OW 1879   6.326   5.210   5.286
  327SOL    HW1 1880   6.336   5.296   5.236
  327SOL    HW2 1881   6.286   5.141   5.226
  328SOL     OW 1882   3.057   5.791   2.317
  328SOL    HW1 1883   3.142   5.836   2.290
  328SOL    HW2 1884   3.067   5.750   2.408
  329SOL     OW 1885   3.356   3.329   2.655
  329SOL    HW1 1886   3.344   3.364   2.562
  329SOL    HW2 1887   3.320   3.396   2.720
  330SOL     OW 1888   3.576   0.743   1.783
  330SOL    HW1 1889   3.636   0.707   1.854
  330SOL    HW2 1890   3.596   0.840   1.770
  331SOL     OW 1891   5.049   5.192   6.035
  331SOL    HW1 1892   4.962   5.143   6.038
  331SOL    HW2 1893   5.094   5.175   5.947
  332SOL     OW 1894   3.935   1.858   2.898
  332SOL    HW1 1895   3.917   1.769   2.941
  332SOL    HW2 1896   3.919   1.851   2.800
  333SOL     OW 1897   3.702   6.059   6.308
  333SOL    HW1 1898   3.675   6.141   6.256
  333SOL    HW2 1899   3.782   6.081   6.364
  334SOL     OW 1900   4.228   0.008   2.766
  334SOL    HW1 1901   4.237   0.083   2.701
  334SOL    HW2 1902   4.243   6.940   2.719
  335SOL     OW 1903   2.868   6.951   3.471
  335SOL    HW1 1904   2.952   6.983   3.514
  335SOL    HW2 1905   2.867   6.978   3.374
  336SOL     OW 1906   3.093   0.828   4.351
  336SOL    HW1 1907   3.189   0.847   4.332
  336SOL    HW2 1908   3.043   0.915   4.357
  337SOL     OW 1909   6.740   4.150   1.425
  337SOL    HW1 1910   6.700   4.223   1.370
  337SOL    HW2 1911   6.691   4.143   1.512
  338SOL     OW 1912   3.454   2.560   1.496
  338SOL    HW1 1913   3.483   2.506   1.417
  338SOL    HW2 1914   3.461   2.657   1.474
  339SOL     OW 1915   4.198   6.434   3.120
  339SOL    HW1 1916   4.122   6.472   3.173
  339SOL    HW2 1917   4.279   6.492   3.130
  340SOL     OW 1918   4.823   4.051   4.339
  340SOL    HW1 1919   4.804   3.994   4.418
  340SOL    HW2 1920   4.853   3.993   4.263
  341SOL     OW 1921   5.269   5.277   4.805
  341SOL    HW1 1922   5.366   5.282   4.830
  341SOL    HW2 1923   5.248   5.186   4.770
  342SOL     OW 1924   6.279   4.252   0.715
  342SOL    HW1 1925   6.276   4.324   0.785
  342SOL    HW2 1926   6.292   4.163   0.760
  343SOL     OW 1927   3.222   0.491   2.800
  343SOL    HW1 1928   3.164   0.425   2.752
  343SOL    HW2 1929   3.169   0.571   2.826
  344SOL     OW 1930   3.305   5.319   0.373
  344SOL    HW1 1931   3.259   5.404   0.399
  344SOL    HW2 1932   3.242   5.242   0.389
  345SOL     OW 1933   0.660   6.794   5.366
  345SOL    HW1 1934   0.705   6.880   5.392
  345SOL    HW2 1935   0.676   6.776   5.269
  346SOL     OW 1936   1.432   0.048   3.264
  346SOL    HW1 1937   1.393   0.017   3.351
  346SOL    HW2 1938   1.441   6.989   3.202
  347SOL     OW 1939   5.037   6.191   6.560
  347SOL    HW1 1940   5.077   6.231   6.478
  347SOL    HW2 1941   5.020   6.093   6.545
  348SOL     OW 1942   3.460   5.666   1.958
  348SOL    HW1 1943   3.366   5.640   1.935
  348SOL    HW2 1944   3.478   5.758   1.924
  349SOL     OW 1945   1.440   4.993   2.221
  349SOL    HW1 1946   1.376   5.053   2.173
  349SOL    HW2 1947   1.511   4.962   2.158
  350SOL     OW 1948   4.848   2.990   1.196
  350SOL    HW1 1949   4.946   2.970   1.186
  350SOL    HW2 1950   4.802   2.910   1.236
  351SOL     OW 1951   3.581   2.245   0.546
  351SOL    HW1 1952   3.566   2.150   0.574
  351SOL    HW2 1953   3.552   2.256   0.451
  352SOL     OW 1954   2.888   0.997   6.554
  352SOL    HW1 1955   2.896   0.918   6.615
  352SOL    HW2 1956   2.928   1.077   6.598
  353SOL     OW 1957   2.270   6.722   1.174
  353SOL    HW1 1958   2.366   6.727   1.203
  353SOL    HW2 1959   2.212   6.703   1.254
  354SOL     OW 1960   4.518   1.224   1.866
  354SOL    HW1 1961   4.605   1.254   1.828
  354SOL    HW2 1962   4.449   1.294   1.851
  355SOL     OW 1963   0.724   2.319   1.867
  355SOL    HW1 1964   0.689   2.234   1.829
  355SOL    HW2 1965   0.710   2.320   1.966
  356SOL     OW 1966   4.267   5.502   3.526
  356SOL    HW1 1967   4.356   5.488   3.482
  356SOL    HW2 1968   4.277   5.572   3.597
  357SOL     OW 1969   0.566   5.215   5.225
  357SOL    HW1 1970   0.553   5.180   5.133
  357SOL    HW2 1971   0.649   5.271   5.228
  358SOL     OW 1972   5.665   0.884   1.691
  358SOL    HW1 1973   5.616   0.895   1.604
  358SOL    HW2 1974   5.723   0.802   1.686
  359SOL     OW 1975   0.925   1.330   2.013
  359SOL    HW1 1976   0.939   1.337   2.111
  359SOL    HW2 1977   0.875   1.410   1.980
  360SOL     OW 1978   4.105   6.623   0.728
  360SOL    HW1 1979   4.138   6.603   0.635
  360SOL    HW2 1980   4.073   6.717   0.732
  361SOL     OW 1981   4.645   0.407   2.788
  361SOL    HW1 1982   4.649   0.470   2.865
  361SOL    HW2 1983   4.577   0.438   2.723
  362SOL     OW 1984   2.507   3.237   0.958
  362SOL    HW1 1985   2.430   3.286   0.999
  362SOL    HW2 1986   2.578   3.303   0.932
  363SOL     OW 1987   4.513   5.011   4.228
  363SOL    HW1 1988   4.520   5.083   4.297
  363SOL    HW2 1989   4.580   5.027   4.155
  364SOL     OW 1990   1.817   5.510   5.661
  364SOL    HW1 1991   1.824   5.608   5.682
  364SOL    HW2 1992   1.860   5.457   5.733
  365SOL     OW 1993   4.525   6.133   2.672
  365SOL    HW1 1994   4.572   6.197   2.733
  365SOL    HW2 1995   4.592   6.092   2.609
  366SOL     OW 1996   5.933   0.335   6.950
  366SOL    HW1 1997   5.987   0.419   6.955
  366SOL    HW2 1998   5.897   0.313   0.021
  367SOL     OW 1999   5.136   2.947   0.937
  367SOL    HW1 2000   5.104   3.032   0.896
  367SOL    HW2 2001   5.130   2.952   1.037
  368SOL     OW 2002   1.026   4.796   5.179
  368SOL    HW1 2003   1.081   4.865   5.225
  368SOL    HW2 2004   1.084   4.719   5.153
  369SOL     OW 2005   0.933   4.031   1.831
  369SOL    HW1 2006   0.917   4.123   1.796
  369SOL    HW2 2007   1.021   4.028   1.879
  370SOL     OW 2008   3.789   1.036   6.604
  370SOL    HW1 2009   3.715   0.986   6.560
  370SOL    HW2 2010   3.876   0.990   6.586
  371SOL     OW 2011   4.151   2.826   6.642
  371SOL    HW1 2012   4.223   2.894   6.628
  371SOL    HW2 2013   4.082   2.836   6.571
  372SOL     OW 2014   1.518   5.685   5.810
  372SOL    HW1 2015   1.477   5.638   5.888
  372SOL    HW2 2016   1.517   5.624   5.731
  373SOL     OW 2017   6.983   6.719   0.409
  373SOL    HW1 2018   6.886   6.739   0.394
  373SOL    HW2 2019   6.992   6.633   0.460
  374SOL     OW 2020   3.587   1.062   1.595
  374SOL    HW1 2021   3.544   1.122   1.662
  374SOL    HW2 2022   3.672   1.104   1.564
  375SOL     OW 2023   0.171   4.684   2.786
  375SOL    HW1 2024   0.240   4.619   2.818
  375SOL    HW2 2025   0.178   4.769   2.838
  376SOL     OW 2026   2.077   2.314   4.050
  376SOL    HW1 2027   2.122   2.304   3.961
  376SOL    HW2 2028   2.039   2.407   4.057
  377SOL     OW 2029   5.087   1.926   3.791
  377SOL    HW1 2030   5.103   1.881   3.879
  377SOL    HW2 2031   5.061   1.857   3.723
  378SOL     OW 2032   5.077   2.552   4.535
  378SOL    HW1 2033   5.012   2.487   4.496
  378SOL    HW2 2034   5.162   2.504   4.559
  379SOL     OW 2035   6.716   3.404   1.329
  379SOL    HW1 2036   6.640   3.357   1.285
  379SOL    HW2 2037   6.687   3.438   1.419
  380SOL     OW 2038   1.201   2.224   0.389
  380SOL    HW1 2039   1.269   2.249   0.458
  380SOL    HW2 2040   1.207   2.126   0.369
  381SOL     OW 2041   3.105   3.815   0.151
  381SOL    HW1 2042   3.158   3.795   0.069
  381SOL    HW2 2043   3.008   3.800   0.132
  382SOL     OW 2044   2.630   5.771   0.681
  382SOL    HW1 2045   2.604   5.864   0.657
  382SOL    HW2 2046   2.650   5.719   0.598
  383SOL     OW 2047   6.170   2.626   6.709
  383SOL    HW1 2048   6.227   2.635   6.791
  383SOL    HW2 2049   6.132   2.715   6.686
  384SOL     OW 2050   2.032   5.617   4.946
  384SOL    HW1 2051   2.076   5.707   4.941
  384SOL    HW2 2052   1.963   5.618   5.018
  385SOL     OW 2053   5.249   5.668   1.033
  385SOL    HW1 2054   5.173   5.731   1.048
  385SOL    HW2 2055   5.331   5.720   1.008
  386SOL     OW 2056   3.359   6.302   5.425
  386SOL    HW1 2057   3.338   6.299   5.522
  386SOL    HW2 2058   3.443   6.355   5.410
  387SOL     OW 2059   0.260   0.298   5.684
  387SOL    HW1 2060   0.327   0.316   5.612
  387SOL    HW2 2061   0.188   0.367   5.681
  388SOL     OW 2062   0.017   2.108   5.392
  388SOL    HW1 2063   6.960   2.053   5.356
  388SOL    HW2 2064   0.091   2.047   5.421
  389SOL     OW 2065   4.000   4.574   1.588
  389SOL    HW1 2066   4.060   4.501   1.554
  389SOL    HW2 2067   3.924   4.586   1.524
  390SOL     OW 2068   4.421   2.606   0.364
  390SOL    HW1 2069   4.322   2.591   0.355
  390SOL    HW2 2070   4.440   2.653   0.450
  391SOL     OW 2071   3.797   4.021   4.250
  391SOL    HW1 2072   3.869   3.975   4.301
  391SOL    HW2 2073   3.713   4.023   4.305
  392SOL     OW 2074   1.375   3.821   1.512
  392SOL    HW1 2075   1.462   3.869   1.503
  392SOL    HW2 2076   1.356   3.804   1.609
  393SOL     OW 2077   1.451   4.653   1.372
  393SOL    HW1 2078   1.442   4.689   1.465
  393SOL    HW2 2079   1.543   4.617   1.359
  394SOL     OW 2080   6.430   1.276   6.428
  394SOL    HW1 2081   6.526   1.300   6.443
  394SOL    HW2 2082   6.397   1.321   6.344
  395SOL     OW 2083   5.714   5.171   1.115
  395SOL    HW1 2084   5.631   5.223   1.137
  395SOL    HW2 2085   5.716   5.086   1.167
  396SOL     OW 2086   1.493   0.452   1.297
  396SOL    HW1 2087   1.404   0.422   1.332
  396SOL    HW2 2088   1.489   0.549   1.274
  397SOL     OW 2089   4.136   2.234   5.379
  397SOL    HW1 2090   4.232   2.227   5.350
  397SOL    HW2 2091   4.130   2.292   5.460
  398SOL     OW 2092   1.391   1.237   3.730
  398SOL    HW1 2093   1.399   1.167   3.658
  398SOL    HW2 2094   1.421   1.198   3.817
  399SOL     OW 2095   5.473   5.975   4.243
  399SOL    HW1 2096   5.460   6.055   4.183
  399SOL    HW2 2097   5.568   5.946   4.239
  400SOL     OW 2098   6.023   0.099   4.220
  400SOL    HW1 2099   6.007   0.079   4.316
  400SOL    HW2 2100   5.972   0.035   4.163
  401SOL     OW 2101   0.543   5.476   5.790
  401SOL    HW1 2102   0.594   5.474   5.875
  401SOL    HW2 2103   0.474   5.548   5.793
  402SOL     OW 2104   5.862   1.339   3.512
  402SOL    HW1 2105   5.916   1.421   3.493
  402SOL    HW2 2106   5.791   1.362   3.580
  403SOL     OW 2107   3.015   1.223   5.239
  403SOL    HW1 2108   2.941   1.238   5.175
  403SOL    HW2 2109   3.045   1.310   5.278
  404SOL     OW 2110   3.771   5.196   3.281
  404SOL    HW1 2111   3.705   5.122   3.271
  404SOL    HW2 2112   3.826   5.203   3.198
  405SOL     OW 2113   2.214   4.852   4.156
  405SOL    HW1 2114   2.292   4.809   4.112
  405SOL    HW2 2115   2.184   4.931   4.103
  406SOL     OW 2116   0.105   6.316   5.925
  406SOL    HW1 2117   0.152   6.300   5.838
  406SOL    HW2 2118   0.162   6.281   6.000
  407SOL     OW 2119   2.209   2.892   4.310
  407SOL    HW1 2120   2.220   2.969   4.374
  407SOL    HW2 2121   2.203   2.926   4.217
  408SOL     OW 2122   1.870   1.348   3.500
  408SOL    HW1 2123   1.952   1.309   3.459
  408SOL    HW2 2124   1.896   1.418   3.566
  409SOL     OW 2125   0.277   3.570   2.597
  409SOL    HW1 2126   0.237   3.557   2.506
  409SOL    HW2 2127   0.204   3.589   2.663
  410SOL     OW 2128   1.588   1.444   1.430
  410SOL    HW1 2129   1.500   1.446   1.476
  410SOL    HW2 2130   1.575   1.418   1.334
  411SOL     OW 2131   6.984   2.503   1.603
  411SOL    HW1 2132   0.040   2.568   1.612
  411SOL    HW2 2133   6.971   2.480   1.507
  412SOL     OW 2134   1.294   4.884   2.408
  412SOL    HW1 2135   1.357   4.915   2.337
  412SOL    HW2 2136   1.275   4.787   2.395
  413SOL     OW 2137   5.961   5.919   2.311
  413SOL    HW1 2138   6.004   5.999   2.268
  413SOL    HW2 2139   5.884   5.949   2.367
  414SOL     OW 2140   2.015   6.663   2.683
  414SOL    HW1 2141   1.956   6.670   2.603
  414SOL    HW2 2142   2.012   6.569   2.718
  415SOL     OW 2143   6.077   0.995   0.119
  415SOL    HW1 2144   6.170   0.970   0.147
  415SOL    HW2 2145   6.081   1.075   0.058
  416SOL     OW 2146   5.854   3.464   5.581
  416SOL    HW1 2147   5.792   3.460   5.502
  416SOL    HW2 2148   5.818   3.407   5.655
  417SOL     OW 2149   1.905   2.006   6.102
  417SOL    HW1 2150   1.903   2.017   6.201
  417SOL    HW2 2151   1.811   1.996   6.067
  418SOL     OW 2152   3.789   0.124   4.557
  418SOL    HW1 2153   3.769   0.076   4.471
  418SOL    HW2 2154   3.868   0.184   4.544
  419SOL     OW 2155   6.933   0.123   0.523
  419SOL    HW1 2156   6.951   0.209   0.475
  419SOL    HW2 2157   7.008   0.058   0.504
  420SOL     OW 2158   3.961   0.497   0.053
  420SOL    HW1 2159   4.050   0.540   0.070
  420SOL    HW2 2160   3.971   0.425   7.004
  421SOL     OW 2161   4.703   4.206   2.210
  421SOL    HW1 2162   4.642   4.211   2.131
  421SOL    HW2 2163   4.748   4.117   2.211
  422SOL     OW 2164   5.510   3.096   1.726
  422SOL    HW1 2165   5.564   3.073   1.644
  422SOL    HW2 2166   5.413   3.085   1.706
  423SOL     OW 2167   3.198   0.544   6.205
  423SOL    HW1 2168   3.150   0.539   6.117
  423SOL    HW2 2169   3.215   0.640   6.228
  424SOL     OW 2170   1.250   3.548   3.879
  424SOL    HW1 2171   1.210   3.474   3.825
  424SOL    HW2 2172   1.320   3.596   3.826
  425SOL     OW 2173   3.357   1.066   6.815
  425SOL    HW1 2174   3.277   1.064   6.875
  425SOL    HW2 2175   3.395   0.974   6.805
  426SOL     OW 2176   2.776   2.033   4.006
  426SOL    HW1 2177   2.726   2.080   3.933
  426SOL    HW2 2178   2.808   2.100   4.073
  427SOL     OW 2179   4.437   2.272   3.126
  427SOL    HW1 2180   4.338   2.272   3.139
  427SOL    HW2 2181   4.470   2.177   3.123
  428SOL     OW 2182   2.709   2.183   5.871
  428SOL    HW1 2183   2.733   2.116   5.801
  428SOL    HW2 2184   2.752   2.270   5.849
  429SOL     OW 2185   6.527   5.344   4.159
  429SOL    HW1 2186   6.503   5.335   4.062
  429SOL    HW2 2187   6.482   5.272   4.211
  430SOL     OW 2188   1.641   7.017   3.903
  430SOL    HW1 2189   1.669   0.030   3.994
  430SOL    HW2 2190   1.696   6.938   3.877
  431SOL     OW 2191   2.242   1.887   1.852
  431SOL    HW1 2192   2.285   1.961   1.801
  431SOL    HW2 2193   2.143   1.898   1.850
  432SOL     OW 2194   4.831   1.909   1.035
  432SOL    HW1 2195   4.848   1.839   1.104
  432SOL    HW2 2196   4.736   1.941   1.042
  433SOL     OW 2197   1.791   4.637   0.953
  433SOL    HW1 2198   1.718   4.615   0.888
  433SOL    HW2 2199   1.846   4.555   0.970
  434SOL     OW 2200   5.249   5.035   3.569
  434SOL    HW1 2201   5.169   5.040   3.509
  434SOL    HW2 2202   5.220   5.047   3.664
  435SOL     OW 2203   3.573   2.476   5.809
  435SOL    HW1 2204   3.588   2.515   5.900
  435SOL    HW2 2205   3.512   2.397   5.816
  436SOL     OW 2206   4.834   6.704   2.791
  436SOL    HW1 2207   4.803   6.731   2.699
  436SOL    HW2 2208   4.929   6.675   2.787
  437SOL     OW 2209   6.661   0.595   4.756
  437SOL    HW1 2210   6.646   0.641   4.844
  437SOL    HW2 2211   6.580   0.608   4.698
  438SOL     OW 2212   0.793   4.971   2.320
  438SOL    HW1 2213   0.712   5.028   2.332
  438SOL    HW2 2214   0.874   5.029   2.315
  439SOL     OW 2215   0.115   0.797   4.592
  439SOL    HW1 2216   0.046   0.731   4.564
  439SOL    HW2 2217   0.074   0.888   4.600
  440SOL     OW 2218   4.363   1.185   0.410
  440SOL    HW1 2219   4.453   1.143   0.418
  440SOL    HW2 2220   4.357   1.237   0.325
  441SOL     OW 2221   0.576   4.558   2.308
  441SOL    HW1 2222   0.550   4.600   2.221
  441SOL    HW2 2223   0.672   4.531   2.306
  442SOL     OW 2224   5.083   3.034   5.654
  442SOL    HW1 2225   5.173   3.017   5.615
  442SOL    HW2 2226   5.060   3.131   5.643
  443SOL     OW 2227   5.070   3.024   2.204
  443SOL    HW1 2228   5.158   2.980   2.184
  443SOL    HW2 2229   5.030   3.060   2.120
  444SOL     OW 2230   4.540   1.613   1.788
  444SOL    HW1 2231   4.623   1.603   1.843
  444SOL    HW2 2232   4.559   1.586   1.693
  445SOL     OW 2233   1.614   5.036   2.447
  445SOL    HW1 2234   1.583   4.997   2.534
  445SOL    HW2 2235   1.547   5.015   2.376
  446SOL     OW 2236   5.617   0.217   1.695
  446SOL    HW1 2237   5.544   0.252   1.636
  446SOL    HW2 2238   5.690   0.180   1.638
  447SOL     OW 2239   5.904   4.762   1.041
  447SOL    HW1 2240   5.959   4.709   1.106
  447SOL    HW2 2241   5.937   4.745   0.948
  448SOL     OW 2242   3.266   6.669   3.916
  448SOL    HW1 2243   3.348   6.639   3.965
  448SOL    HW2 2244   3.276   6.650   3.819
  449SOL     OW 2245   1.637   3.973   4.838
  449SOL    HW1 2246   1.651   3.919   4.922
  449SOL    HW2 2247   1.698   4.052   4.839
  450SOL     OW 2248   6.778   4.559   3.285
  450SOL    HW1 2249   6.689   4.600   3.266
  450SOL    HW2 2250   6.786   4.539   3.383
  451SOL     OW 2251   0.781   1.958   0.818
  451SOL    HW1 2252   0.684   1.955   0.797
  451SOL    HW2 2253   0.805   1.882   0.879
  452SOL     OW 2254   5.176   5.419   2.766
  452SOL    HW1 2255   5.127   5.363   2.699
  452SOL    HW2 2256   5.272   5.426   2.739
  453SOL     OW 2257   3.129   0.778   6.820
  453SOL    HW1 2258   3.210   0.825   6.856
  453SOL    HW2 2259   3.156   0.691   6.780
  454SOL     OW 2260   6.615   3.494   6.048
  454SOL    HW1 2261   6.527   3.493   6.097
  454SOL    HW2 2262   6.685   3.451   6.104
  455SOL     OW 2263   5.399   4.808   5.733
  455SOL    HW1 2264   5.397   4.713   5.762
  455SOL    HW2 2265   5.451   4.816   5.648
  456SOL     OW 2266   2.764   1.272   2.414
  456SOL    HW1 2267   2.672   1.260   2.377
  456SOL    HW2 2268   2.823   1.198   2.380
  457SOL     OW 2269   2.592   6.569   0.185
  457SOL    HW1 2270   2.497   6.599   0.182
  457SOL    HW2 2271   2.642   6.609   0.108
  458SOL     OW 2272   3.233   1.297   2.851
  458SOL    HW1 2273   3.267   1.207   2.822
  458SOL    HW2 2274   3.147   1.285   2.901
  459SOL     OW 2275   3.169   0.371   3.533
  459SOL    HW1 2276   3.219   0.392   3.449
  459SOL    HW2 2277   3.228   0.389   3.612
  460SOL     OW 2278   0.784   1.811   6.635
  460SOL    HW1 2279   0.828   1.723   6.651
  460SOL    HW2 2280   0.686   1.799   6.621
  461SOL     OW 2281   1.169   5.367   5.517
  461SOL    HW1 2282   1.208   5.303   5.450
  461SOL    HW2 2283   1.110   5.432   5.470
  462SOL     OW 2284   3.861   4.109   4.988
  462SOL    HW1 2285   3.792   4.050   5.030
  462SOL    HW2 2286   3.919   4.055   4.928
  463SOL     OW 2287   5.420   6.178   4.050
  463SOL    HW1 2288   5.478   6.201   3.972
  463SOL    HW2 2289   5.386   6.262   4.092
  464SOL     OW 2290   3.484   5.051   6.474
  464SOL    HW1 2291   3.497   5.111   6.394
  464SOL    HW2 2292   3.399   5.000   6.464
  465SOL     OW 2293   0.691   4.073   0.898
  465SOL    HW1 2294   0.741   4.051   0.982
  465SOL    HW2 2295   0.600   4.109   0.922
  466SOL     OW 2296   3.806   5.115   4.284
  466SOL    HW1 2297   3.751   5.114   4.200
  466SOL    HW2 2298   3.867   5.037   4.285
  467SOL     OW 2299   6.529   0.128   2.491
  467SOL    HW1 2300   6.573   0.213   2.520
  467SOL    HW2 2301   6.503   0.075   2.572
  468SOL     OW 2302   2.827   5.985   6.438
  468SOL    HW1 2303   2.764   6.062   6.425
  468SOL    HW2 2304   2.795   5.906   6.386
  469SOL     OW 2305   2.933   4.908   4.754
  469SOL    HW1 2306   2.933   4.857   4.840
  469SOL    HW2 2307   2.896   4.850   4.681
  470SOL     OW 2308   2.469   4.589   2.634
  470SOL    HW1 2309   2.418   4.503   2.635
  470SOL    HW2 2310   2.406   4.665   2.619
  471SOL     OW 2311   1.519   2.366   4.431
  471SOL    HW1 2312   1.618   2.377   4.424
  471SOL    HW2 2313   1.476   2.394   4.345
  472SOL     OW 2314   4.999   3.368   6.464
  472SOL    HW1 2315   4.927   3.420   6.418
  472SOL    HW2 2316   5.054   3.320   6.396
  473SOL     OW 2317   6.291   2.945   2.090
  473SOL    HW1 2318   6.208   2.956   2.035
  473SOL    HW2 2319   6.338   2.860   2.062
  474SOL     OW 2320   5.139   5.855   4.306
  474SOL    HW1 2321   5.096   5.919   4.242
  474SOL    HW2 2322   5.239   5.865   4.301
  475SOL     OW 2323   5.577   2.067   0.605
  475SOL    HW1 2324   5.492   2.061   0.657
  475SOL    HW2 2325   5.644   2.123   0.654
  476SOL     OW 2326   1.219   3.892   0.182
  476SOL    HW1 2327   1.198   3.973   0.128
  476SOL    HW2 2328   1.150   3.880   0.254
  477SOL     OW 2329   1.711   4.898   3.699
  477SOL    HW1 2330   1.642   4.911   3.628
  477SOL    HW2 2331   1.729   4.984   3.746
  478SOL     OW 2332   5.271   6.099   2.381
  478SOL    HW1 2333   5.188   6.082   2.432
  478SOL    HW2 2334   5.324   6.014   2.374
  479SOL     OW 2335   3.849   3.998   3.244
  479SOL    HW1 2336   3.808   3.990   3.335
  479SOL    HW2 2337   3.900   4.084   3.238
  480SOL     OW 2338   1.089   0.848   2.761
  480SOL    HW1 2339   1.123   0.941   2.775
  480SOL    HW2 2340   1.166   0.784   2.757
  481SOL     OW 2341   0.130   0.161   0.723
  481SOL    HW1 2342   0.181   0.079   0.748
  481SOL    HW2 2343   0.088   0.149   0.633
  482SOL     OW 2344   4.199   4.767   2.277
  482SOL    HW1 2345   4.200   4.758   2.178
  482SOL    HW2 2346   4.127   4.709   2.315
  483SOL     OW 2347   5.857   2.134   4.240
  483SOL    HW1 2348   5.910   2.109   4.159
  483SOL    HW2 2349   5.807   2.219   4.222
  484SOL     OW 2350   2.549   4.579   3.688
  484SOL    HW1 2351   2.455   4.606   3.709
  484SOL    HW2 2352   2.549   4.484   3.655
  485SOL     OW 2353   5.640   2.983   1.486
  485SOL    HW1 2354   5.652   3.073   1.442
  485SOL    HW2 2355   5.674   2.912   1.425
  486SOL     OW 2356   5.687   6.085   5.915
  486SOL    HW1 2357   5.699   6.097   6.013
  486SOL    HW2 2358   5.648   5.994   5.897
  487SOL     OW 2359   0.182   0.107   6.251
  487SOL    HW1 2360   0.108   0.041   6.269
  487SOL    HW2 2361   0.258   0.060   6.206
  488SOL     OW 2362   2.404   5.427   3.549
  488SOL    HW1 2363   2.330   5.456   3.488
  488SOL    HW2 2364   2.448   5.345   3.511
  489SOL     OW 2365   2.102   5.669   5.742
  489SOL    HW1 2366   2.122   5.588   5.688
  489SOL    HW2 2367   2.182   5.728   5.745
  490SOL     OW 2368   0.685   4.184   4.560
  490SOL    HW1 2369   0.613   4.114   4.566
  490SOL    HW2 2370   0.719   4.189   4.466
  491SOL     OW 2371   0.001   2.790   0.506
  491SOL    HW1 2372   7.009   2.803   0.605
  491SOL    HW2 2373   6.932   2.768   0.465
  492SOL     OW 2374   1.425   3.146   5.516
  492SOL    HW1 2375   1.403   3.050   5.535
  492SOL    HW2 2376   1.483   3.182   5.590
  493SOL     OW 2377   1.773   5.126   4.634
  493SOL    HW1 2378   1.842   5.058   4.613
  493SOL    HW2 2379   1.790   5.163   4.726
  494SOL     OW 2380   2.554   6.634   4.017
  494SOL    HW1 2381   2.566   6.649   3.919
  494SOL    HW2 2382   2.457   6.629   4.039
  495SOL     OW 2383   4.012   4.168   6.313
  495SOL    HW1 2384   3.993   4.071   6.303
  495SOL    HW2 2385   4.111   4.182   6.323
  496SOL     OW 2386   5.016   1.707   3.613
  496SOL    HW1 2387   4.927   1.668   3.588
  496SOL    HW2 2388   5.065   1.643   3.672
  497SOL     OW 2389   4.966   1.389   0.158
  497SOL    HW1 2390   4.878   1.357   0.192
  497SOL    HW2 2391   4.973   1.488   0.172
  498SOL     OW 2392   0.068   0.191   1.270
  498SOL    HW1 2393   0.136   0.203   1.199
  498SOL    HW2 2394   0.023   0.102   1.259
  499SOL     OW 2395   2.544   5.836   0.242
  499SOL    HW1 2396   2.559   5.737   0.253
  499SOL    HW2 2397   2.493   5.871   0.321
  500SOL     OW 2398   5.420   1.858   6.793
  500SOL    HW1 2399   5.500   1.855   6.852
  500SOL    HW2 2400   5.416   1.946   6.746
  501SOL     OW 2401   1.296   1.074   4.938
  501SOL    HW1 2402   1.302   1.025   4.852
  501SOL    HW2 2403   1.265   1.012   5.010
  502SOL     OW 2404   2.605   4.413   6.913
  502SOL    HW1 2405   2.683   4.397   6.973
  502SOL    HW2 2406   2.603   4.510   6.888
  503SOL     OW 2407   3.902   5.703   1.183
  503SOL    HW1 2408   3.869   5.787   1.138
  503SOL    HW2 2409   3.964   5.655   1.121
  504SOL     OW 2410   6.551   5.706   1.592
  504SOL    HW1 2411   6.510   5.771   1.656
  504SOL    HW2 2412   6.489   5.691   1.515
  505SOL     OW 2413   5.156   5.859   5.538
  505SOL    HW1 2414   5.180   5.914   5.618
  505SOL    HW2 2415   5.238   5.812   5.505
  506SOL     OW 2416   3.431   5.009   3.102
  506SOL    HW1 2417   3.394   4.966   3.020
  506SOL    HW2 2418   3.388   4.968   3.183
  507SOL     OW 2419   3.164   0.891   1.710
  507SOL    HW1 2420   3.227   0.813   1.706
  507SOL    HW2 2421   3.202   0.966   1.657
  508SOL     OW 2422   0.348   4.549   3.110
  508SOL    HW1 2423   0.282   4.475   3.099
  508SOL    HW2 2424   0.351   4.577   3.206
  509SOL     OW 2425   4.369   6.761   6.355
  509SOL    HW1 2426   4.277   6.724   6.368
  509SOL    HW2 2427   4.420   6.702   6.291
  510SOL     OW 2428   6.421   4.095   0.163
  510SOL    HW1 2429   6.354   4.166   0.141
  510SOL    HW2 2430   6.474   4.123   0.243
  511SOL     OW 2431   0.651   1.709   0.261
  511SOL    HW1 2432   0.567   1.755   0.232
  511SOL    HW2 2433   0.638   1.610   0.260
  512SOL     OW 2434   0.514   2.418   3.801
  512SOL    HW1 2435   0.595   2.473   3.820
  512SOL    HW2 2436   0.537   2.321   3.806
  513SOL     OW 2437   5.188   0.537   3.238
  513SOL    HW1 2438   5.110   0.492   3.193
  513SOL    HW2 2439   5.216   0.616   3.184
  514SOL     OW 2440   5.403   1.044   5.287
  514SOL    HW1 2441   5.482   0.990   5.316
  514SOL    HW2 2442   5.319   0.999   5.318
  515SOL     OW 2443   3.828   0.159   6.277
  515SOL    HW1 2444   3.871   0.100   6.208
  515SOL    HW2 2445   3.848   0.123   6.368
  516SOL     OW 2446   1.983   6.133   2.212
  516SOL    HW1 2447   2.026   6.060   2.266
  516SOL    HW2 2448   1.995   6.115   2.115
  517SOL     OW 2449   3.032   5.460   1.433
  517SOL    HW1 2450   3.096   5.536   1.421
  517SOL    HW2 2451   3.007   5.453   1.529
  518SOL     OW 2452   1.764   4.310   4.461
  518SOL    HW1 2453   1.744   4.290   4.365
  518SOL    HW2 2454   1.680   4.331   4.510
  519SOL     OW 2455   7.002   0.256   2.240
  519SOL    HW1 2456   0.010   0.344   2.278
  519SOL    HW2 2457   0.036   0.236   2.158
  520SOL     OW 2458   2.237   4.158   0.674
  520SOL    HW1 2459   2.295   4.078   0.689
  520SOL    HW2 2460   2.146   4.141   0.712
  521SOL     OW 2461   6.562   6.216   4.639
  521SOL    HW1 2462   6.579   6.118   4.647
  521SOL    HW2 2463   6.477   6.240   4.686
  522SOL     OW 2464   3.809   4.200   0.795
  522SOL    HW1 2465   3.902   4.165   0.806
  522SOL    HW2 2466   3.766   4.209   0.884
  523SOL     OW 2467   0.909   0.100   7.000
  523SOL    HW1 2468   0.933   0.017   0.030
  523SOL    HW2 2469   0.811   0.102   6.983
  524SOL     OW 2470   6.790   1.917   0.738
  524SOL    HW1 2471   6.808   1.923   0.640
  524SOL    HW2 2472   6.710   1.973   0.761
  525SOL     OW 2473   0.731   3.259   3.874
  525SOL    HW1 2474   0.830   3.250   3.875
  525SOL    HW2 2475   0.697   3.260   3.968
  526SOL     OW 2476   3.731   0.403   3.892
  526SOL    HW1 2477   3.653   0.350   3.858
  526SOL    HW2 2478   3.701   0.461   3.968
  527SOL     OW 2479   0.461   1.358   0.776
  527SOL    HW1 2480   0.556   1.376   0.801
  527SOL    HW2 2481   0.441   1.401   0.688
  528SOL     OW 2482   0.085   2.721   4.736
  528SOL    HW1 2483   0.126   2.812   4.748
  528SOL    HW2 2484   0.030   2.720   4.653
  529SOL     OW 2485   2.104   6.978   6.952
  529SOL    HW1 2486   2.200   6.950   6.944
  529SOL    HW2 2487   2.090   0.003   0.021
  530SOL     OW 2488   3.601   5.059   1.223
  530SOL    HW1 2489   3.532   5.107   1.277
  530SOL    HW2 2490   3.627   4.974   1.269
  531SOL     OW 2491   1.473   7.017   0.662
  531SOL    HW1 2492   1.543   0.025   0.727
  531SOL    HW2 2493   1.493   0.038   0.572
  532SOL     OW 2494   1.614   2.232   5.886
  532SOL    HW1 2495   1.547   2.161   5.870
  532SOL    HW2 2496   1.636   2.278   5.800
  533SOL     OW 2497   4.073   0.683   3.992
  533SOL    HW1 2498   4.012   0.742   4.045
  533SOL    HW2 2499   4.144   0.739   3.949
  534SOL     OW 2500   1.683   4.077   1.936
  534SOL    HW1 2501   1.747   4.039   2.003
  534SOL    HW2 2502   1.621   4.006   1.905
  535SOL     OW 2503   4.875   3.182   4.186
  535SOL    HW1 2504   4.953   3.167   4.246
  535SOL    HW2 2505   4.905   3.185   4.091
  536SOL     OW 2506   6.030   6.944   1.968
  536SOL    HW1 2507   6.050   6.947   1.871
  536SOL    HW2 2508   5.991   0.012   1.998
  537SOL     OW 2509   3.256   1.809   3.285
  537SOL    HW1 2510   3.258   1.774   3.379
  537SOL    HW2 2511   3.302   1.745   3.224
  538SOL     OW 2512   3.499   4.858   5.222
  538SOL    HW1 2513   3.404   4.829   5.210
  538SOL    HW2 2514   3.538   4.812   5.302
  539SOL     OW 2515   0.999   0.668   6.566
  539SOL    HW1 2516   0.940   0.680   6.646
  539SOL    HW2 2517   1.080   0.616   6.593
  540SOL     OW 2518   1.552   0.467   4.943
  540SOL    HW1 2519   1.470   0.412   4.957
  540SOL    HW2 2520   1.605   0.429   4.866
  541SOL     OW 2521   4.918   5.856   3.874
  541SOL    HW1 2522   5.017   5.855   3.874
  541SOL    HW2 2523   4.886   5.947   3.846
  542SOL     OW 2524   3.846   0.233   5.211
  542SOL    HW1 2525   3.816   0.155   5.157
  542SOL    HW2 2526   3.817   0.318   5.167
  543SOL     OW 2527   6.660   1.925   3.662
  543SOL    HW1 2528   6.630   1.925   3.758
  543SOL    HW2 2529   6.649   2.017   3.624
  544SOL     OW 2530   1.296   3.413   1.709
  544SOL    HW1 2531   1.240   3.483   1.664
  544SOL    HW2 2532   1.374   3.391   1.652
  545SOL     OW 2533   6.406   6.877   1.086
  545SOL    HW1 2534   6.343   6.953   1.073
  545SOL    HW2 2535   6.355   6.792   1.097
  546SOL     OW 2536   6.991   4.472   2.324
  546SOL    HW1 2537   6.968   4.378   2.299
  546SOL    HW2 2538   0.043   4.470   2.395
  547SOL     OW 2539   5.268   0.443   6.281
  547SOL    HW1 2540   5.300   0.533   6.251
  547SOL    HW2 2541   5.338   0.374   6.262
  548SOL     OW 2542   4.308   2.358   0.003
  548SOL    HW1 2543   4.301   2.360   6.923
  548SOL    HW2 2544   4.307   2.452   0.039
  549SOL     OW 2545   5.517   1.469   1.660
  549SOL    HW1 2546   5.479   1.385   1.700
  549SOL    HW2 2547   5.458   1.547   1.685
  550SOL     OW 2548   0.124   6.091   3.308
  550SOL    HW1 2549   0.159   6.038   3.231
  550SOL    HW2 2550   0.168   6.061   3.393
  551SOL     OW 2551   6.297   0.562   0.526
  551SOL    HW1 2552   6.287   0.502   0.447
  551SOL    HW2 2553   6.207   0.591   0.558
  552SOL     OW 2554   0.248   6.292   5.509
  552SOL    HW1 2555   0.239   6.212   5.449
  552SOL    HW2 2556   0.160   6.312   5.551
  553SOL     OW 2557   3.163   1.411   0.204
  553SOL    HW1 2558   3.130   1.350   0.276
  553SOL    HW2 2559   3.246   1.457   0.235
  554SOL     OW 2560   6.354   6.516   1.272
  554SOL    HW1 2561   6.308   6.427   1.275
  554SOL    HW2 2562   6.306   6.576   1.208
  555SOL     OW 2563   1.841   4.030   5.629
  555SOL    HW1 2564   1.781   3.968   5.680
  555SOL    HW2 2565   1.908   3.976   5.577
  556SOL     OW 2566   5.852   0.215   3.713
  556SOL    HW1 2567   5.779   0.168   3.762
  556SOL    HW2 2568   5.888   0.289   3.771
  557SOL     OW 2569   6.535   4.350   6.719
  557SOL    HW1 2570   6.561   4.306   6.633
  557SOL    HW2 2571   6.440   4.383   6.712
  558SOL     OW 2572   3.250   4.076   2.371
  558SOL    HW1 2573   3.210   4.122   2.450
  558SOL    HW2 2574   3.337   4.034   2.397
  559SOL     OW 2575   6.392   6.868   5.335
  559SOL    HW1 2576   6.369   6.954   5.290
  559SOL    HW2 2577   6.401   6.796   5.266
  560SOL     OW 2578   6.806   2.996   4.129
  560SOL    HW1 2579   6.842   2.967   4.218
  560SOL    HW2 2580   6.787   3.094   4.131
  561SOL     OW 2581   0.579   2.771   0.330
  561SOL    HW1 2582   0.485   2.803   0.320
  561SOL    HW2 2583   0.641   2.835   0.284
  562SOL     OW 2584   4.051   0.045   5.252
  562SOL    HW1 2585   4.106   0.050   5.169
  562SOL    HW2 2586   3.978   0.114   5.247
  563SOL     OW 2587   1.533   0.482   3.724
  563SOL    HW1 2588   1.597   0.412   3.758
  563SOL    HW2 2589   1.440   0.458   3.752
  564SOL     OW 2590   6.391   1.974   6.458
  564SOL    HW1 2591   6.382   2.004   6.553
  564SOL    HW2 2592   6.442   1.889   6.454
  565SOL     OW 2593   3.524   3.563   3.814
  565SOL    HW1 2594   3.434   3.596   3.786
  565SOL    HW2 2595   3.560   3.622   3.887
  566SOL     OW 2596   2.989   0.882   3.959
  566SOL    HW1 2597   2.929   0.832   3.898
  566SOL    HW2 2598   2.955   0.875   4.053
  567SOL     OW 2599   2.571   2.681   5.504
  567SOL    HW1 2600   2.593   2.644   5.594
  567SOL    HW2 2601   2.654   2.684   5.448
  568SOL     OW 2602   0.926   6.358   6.862
  568SOL    HW1 2603   0.962   6.436   6.811
  568SOL    HW2 2604   0.856   6.311   6.809
  569SOL     OW 2605   6.115   3.695   0.273
  569SOL    HW1 2606   6.072   3.783   0.250
  569SOL    HW2 2607   6.167   3.705   0.358
  570SOL     OW 2608   2.652   0.366   6.121
  570SOL    HW1 2609   2.732   0.415   6.156
  570SOL    HW2 2610   2.675   0.270   6.107
  571SOL     OW 2611   2.064   4.469   1.231
  571SOL    HW1 2612   1.974   4.439   1.262
  571SOL    HW2 2613   2.066   4.473   1.131
  572SOL     OW 2614   2.820   0.135   4.382
  572SOL    HW1 2615   2.837   0.178   4.293
  572SOL    HW2 2616   2.773   0.048   4.370
  573SOL     OW 2617   0.180   0.986   5.225
  573SOL    HW1 2618   0.167   0.899   5.275
  573SOL    HW2 2619   0.198   1.059   5.291
  574SOL     OW 2620   2.338   1.798   5.314
  574SOL    HW1 2621   2.261   1.742   5.344
  574SOL    HW2 2622   2.401   1.812   5.390
  575SOL     OW 2623   4.065   3.551   0.085
  575SOL    HW1 2624   4.012   3.548   0.000
  575SOL    HW2 2625   4.027   3.620   0.146
  576SOL     OW 2626   2.034   2.630   2.740
  576SOL    HW1 2627   2.025   2.542   2.786
  576SOL    HW2 2628   2.062   2.615   2.645
  577SOL     OW 2629   0.477   1.034   1.369
  577SOL    HW1 2630   0.424   1.108   1.411
  577SOL    HW2 2631   0.415   0.975   1.316
  578SOL     OW 2632   3.160   6.632   6.279
  578SOL    HW1 2633   3.110   6.713   6.247
  578SOL    HW2 2634   3.236   6.613   6.216
  579SOL     OW 2635   2.134   3.679   1.774
  579SOL    HW1 2636   2.208   3.614   1.787
  579SOL    HW2 2637   2.053   3.649   1.825
  580SOL     OW 2638   4.794   5.713   5.015
  580SOL    HW1 2639   4.832   5.781   5.079
  580SOL    HW2 2640   4.768   5.759   4.930
  581SOL     OW 2641   1.999   2.820   4.748
  581SOL    HW1 2642   1.975   2.785   4.838
  581SOL    HW2 2643   2.098   2.825   4.740
  582SOL     OW 2644   4.848   5.161   4.188
  582SOL    HW1 2645   4.841   5.115   4.277
  582SOL    HW2 2646   4.816   5.099   4.117
  583SOL     OW 2647   3.977   6.229   5.763
  583SOL    HW1 2648   3.897   6.221   5.823
  583SOL    HW2 2649   4.059   6.238   5.819
  584SOL     OW 2650   4.523   0.958   5.422
  584SOL    HW1 2651   4.598   1.017   5.449
  584SOL    HW2 2652   4.457   1.010   5.367
  585SOL     OW 2653   3.231   0.434   1.855
  585SOL    HW1 2654   3.274   0.491   1.925
  585SOL    HW2 2655   3.269   0.342   1.860
  586SOL     OW 2656   3.852   0.941   0.931
  586SOL    HW1 2657   3.946   0.911   0.916
  586SOL    HW2 2658   3.789   0.869   0.903
  587SOL     OW 2659   5.227   2.185   1.626
  587SOL    HW1 2660   5.129   2.173   1.608
  587SOL    HW2 2661   5.243   2.177   1.725
  588SOL     OW 2662   1.563   5.118   3.273
  588SOL    HW1 2663   1.595   5.034   3.231
  588SOL    HW2 2664   1.466   5.131   3.253
  589SOL     OW 2665   3.296   5.585   0.656
  589SOL    HW1 2666   3.221   5.545   0.708
  589SOL    HW2 2667   3.383   5.549   0.690
  590SOL     OW 2668   3.924   2.126   0.689
  590SOL    HW1 2669   3.862   2.203   0.702
  590SOL    HW2 2670   3.953   2.092   0.778
  591SOL     OW 2671   3.237   5.695   4.098
  591SOL    HW1 2672   3.311   5.702   4.166
  591SOL    HW2 2673   3.201   5.786   4.078
  592SOL     OW 2674   3.631   1.937   4.628
  592SOL    HW1 2675   3.596   1.857   4.677
  592SOL    HW2 2676   3.563   2.010   4.630
  593SOL     OW 2677   2.781   1.954   6.787
  593SOL    HW1 2678   2.691   1.955   6.831
  593SOL    HW2 2679   2.769   1.957   6.687
  594SOL     OW 2680   4.808   1.113   2.176
  594SOL    HW1 2681   4.826   1.016   2.194
  594SOL    HW2 2682   4.856   1.168   2.244
  595SOL     OW 2683   5.816   5.491   2.601
  595SOL    HW1 2684   5.750   5.435   2.550
  595SOL    HW2 2685   5.816   5.584   2.566
  596SOL     OW 2686   6.009   4.631   4.384
  596SOL    HW1 2687   6.091   4.673   4.345
  596SOL    HW2 2688   6.035   4.569   4.457
  597SOL     OW 2689   2.869   0.828   6.796
  597SOL    HW1 2690   2.967   0.810   6.811
  597SOL    HW2 2691   2.816   0.753   6.835
  598SOL     OW 2692   3.392   4.161   4.125
  598SOL    HW1 2693   3.393   4.165   4.225
  598SOL    HW2 2694   3.327   4.091   4.095
  599SOL     OW 2695   1.125   4.990   1.224
  599SOL    HW1 2696   1.202   5.051   1.238
  599SOL    HW2 2697   1.124   4.921   1.297
  600SOL     OW 2698   6.214   3.564   5.021
  600SOL    HW1 2699   6.293   3.617   4.992
  600SOL    HW2 2700   6.164   3.615   5.091
  601SOL     OW 2701   1.054   6.230   5.672
  601SOL    HW1 2702   1.114   6.164   5.718
  601SOL    HW2 2703   1.096   6.258   5.586
  602SOL     OW 2704   2.170   0.189   3.387
  602SOL    HW1 2705   2.225   0.106   3.402
  602SOL    HW2 2706   2.209   0.240   3.310
  603SOL     OW 2707   1.605   1.363   4.655
  603SOL    HW1 2708   1.688   1.407   4.620
  603SOL    HW2 2709   1.562   1.308   4.583
  604SOL     OW 2710   6.067   2.406   1.623
  604SOL    HW1 2711   5.994   2.339   1.612
  604SOL    HW2 2712   6.146   2.363   1.666
  605SOL     OW 2713   6.627   6.316   1.478
  605SOL    HW1 2714   6.583   6.281   1.561
  605SOL    HW2 2715   6.566   6.381   1.433
  606SOL     OW 2716   3.625   6.946   4.412
  606SOL    HW1 2717   3.683   6.901   4.345
  606SOL    HW2 2718   3.575   6.877   4.465
  607SOL     OW 2719   1.723   3.691   5.987
  607SOL    HW1 2720   1.629   3.658   6.001
  607SOL    HW2 2721   1.777   3.671   6.068
  608SOL     OW 2722   3.425   1.031   5.936
  608SOL    HW1 2723   3.354   1.021   5.866
  608SOL    HW2 2724   3.401   1.104   5.999
  609SOL     OW 2725   3.118   2.726   1.808
  609SOL    HW1 2726   3.080   2.755   1.720
  609SOL    HW2 2727   3.062   2.652   1.846
  610SOL     OW 2728   4.361   3.531   1.370
  610SOL    HW1 2729   4.388   3.627   1.361
  610SOL    HW2 2730   4.310   3.518   1.455
  611SOL     OW 2731   3.086   0.777   3.306
  611SOL    HW1 2732   3.114   0.862   3.350
  611SOL    HW2 2733   3.153   0.751   3.237
  612SOL     OW 2734   4.292   5.156   4.594
  612SOL    HW1 2735   4.300   5.056   4.585
  612SOL    HW2 2736   4.246   5.193   4.513
  613SOL     OW 2737   4.036   4.674   5.309
  613SOL    HW1 2738   3.948   4.627   5.318
  613SOL    HW2 2739   4.027   4.747   5.241
  614SOL     OW 2740   2.915   5.556   5.915
  614SOL    HW1 2741   2.991   5.612   5.882
  614SOL    HW2 2742   2.920   5.550   6.015
  615SOL     OW 2743   1.153   5.192   2.534
  615SOL    HW1 2744   1.136   5.170   2.438
  615SOL    HW2 2745   1.146   5.291   2.547
  616SOL     OW 2746   6.301   3.321   3.826
  616SOL    HW1 2747   6.367   3.257   3.787
  616SOL    HW2 2748   6.217   3.321   3.770
  617SOL     OW 2749   3.137   6.137   5.869
  617SOL    HW1 2750   3.038   6.141   5.855
  617SOL    HW2 2751   3.165   6.207   5.934
  618SOL     OW 2752   1.572   1.218   2.466
  618SOL    HW1 2753   1.582   1.316   2.448
  618SOL    HW2 2754   1.654   1.183   2.510
  619SOL     OW 2755   0.268   1.411   6.763
  619SOL    HW1 2756   0.321   1.342   6.715
  619SOL    HW2 2757   0.330   1.475   6.809
  620SOL     OW 2758   4.246   3.343   1.188
  620SOL    HW1 2759   4.309   3.380   1.257
  620SOL    HW2 2760   4.188   3.417   1.153
  621SOL     OW 2761   0.698   4.935   1.024
  621SOL    HW1 2762   0.766   4.887   0.970
  621SOL    HW2 2763   0.741   5.011   1.073
  622SOL     OW 2764   0.893   0.441   6.126
  622SOL    HW1 2765   0.928   0.534   6.116
  622SOL    HW2 2766   0.793   0.443   6.125
  623SOL     OW 2767   0.417   4.862   6.200
  623SOL    HW1 2768   0.501   4.836   6.249
  623SOL    HW2 2769   0.385   4.784   6.146
  624SOL     OW 2770   0.894   2.007   1.608
  624SOL    HW1 2771   0.937   2.088   1.567
  624SOL    HW2 2772   0.816   2.036   1.664
  625SOL     OW 2773   1.432   1.207   1.772
  625SOL    HW1 2774   1.509   1.184   1.832
  625SOL    HW2 2775   1.431   1.146   1.693
  626SOL     OW 2776   3.238   6.987   4.126
  626SOL    HW1 2777   3.268   6.895   4.150
  626SOL    HW2 2778   3.138   6.988   4.116
  627SOL     OW 2779   4.983   0.718   0.115
  627SOL    HW1 2780   4.960   0.649   0.184
  627SOL    HW2 2781   5.055   0.777   0.150
  628SOL     OW 2782   5.320   4.049   3.511
  628SOL    HW1 2783   5.338   3.966   3.457
  628SOL    HW2 2784   5.312   4.127   3.449
  629SOL     OW 2785   1.727   6.517   0.346
  629SOL    HW1 2786   1.648   6.510   0.285
  629SOL    HW2 2787   1.713   6.592   0.410
  630SOL     OW 2788   3.365   1.802   1.562
  630SOL    HW1 2789   3.284   1.746   1.575
  630SOL    HW2 2790   3.338   1.896   1.543
  631SOL     OW 2791   2.250   6.624   4.670
  631SOL    HW1 2792   2.238   6.577   4.758
  631SOL    HW2 2793   2.180   6.694   4.660
  632SOL     OW 2794   2.204   0.776   1.187
  632SOL    HW1 2795   2.214   0.874   1.201
  632SOL    HW2 2796   2.231   0.727   1.270
  633SOL     OW 2797   2.262   6.497   5.579
  633SOL    HW1 2798   2.196   6.454   5.641
  633SOL    HW2 2799   2.354   6.462   5.599
  634SOL     OW 2800   3.089   6.123   0.825
  634SOL    HW1 2801   3.061   6.212   0.863
  634SOL    HW2 2802   3.086   6.054   0.897
  635SOL     OW 2803   2.879   0.760   2.725
  635SOL    HW1 2804   2.819   0.688   2.761
  635SOL    HW2 2805   2.960   0.768   2.783
  636SOL     OW 2806   5.104   5.280   0.143
  636SOL    HW1 2807   5.189   5.332   0.155
  636SOL    HW2 2808   5.100   5.244   0.050
  637SOL     OW 2809   5.406   4.796   0.957
  637SOL    HW1 2810   5.412   4.880   1.011
  637SOL    HW2 2811   5.387   4.719   1.018
  638SOL     OW 2812   5.507   1.202   2.549
  638SOL    HW1 2813   5.477   1.113   2.514
  638SOL    HW2 2814   5.604   1.198   2.572
  639SOL     OW 2815   4.543   4.594   2.589
  639SOL    HW1 2816   4.526   4.542   2.505
  639SOL    HW2 2817   4.621   4.656   2.575
  640SOL     OW 2818   2.862   4.114   5.784
  640SOL    HW1 2819   2.834   4.208   5.803
  640SOL    HW2 2820   2.861   4.099   5.685
  641SOL     OW 2821   6.884   5.797   5.075
  641SOL    HW1 2822   6.797   5.839   5.100
  641SOL    HW2 2823   6.869   5.701   5.053
  642SOL     OW 2824   1.632   4.541   6.213
  642SOL    HW1 2825   1.553   4.580   6.166
  642SOL    HW2 2826   1.713   4.552   6.156
  643SOL     OW 2827   5.607   5.856   4.701
  643SOL    HW1 2828   5.596   5.952   4.676
  643SOL    HW2 2829   5.520   5.820   4.735
  644SOL     OW 2830   2.336   6.045   2.036
  644SOL    HW1 2831   2.337   6.118   1.968
  644SOL    HW2 2832   2.268   5.976   2.009
  645SOL     OW 2833   6.179   2.950   3.931
  645SOL    HW1 2834   6.178   3.016   3.855
  645SOL    HW2 2835   6.090   2.950   3.976
  646SOL     OW 2836   1.322   1.464   4.511
  646SOL    HW1 2837   1.344   1.557   4.482
  646SOL    HW2 2838   1.405   1.419   4.545
  647SOL     OW 2839   5.084   3.274   0.214
  647SOL    HW1 2840   5.124   3.364   0.232
  647SOL    HW2 2841   5.124   3.236   0.131
  648SOL     OW 2842   5.314   2.208   3.210
  648SOL    HW1 2843   5.407   2.204   3.172
  648SOL    HW2 2844   5.313   2.272   3.287
  649SOL     OW 2845   4.461   4.558   2.277
  649SOL    HW1 2846   4.378   4.609   2.255
  649SOL    HW2 2847   4.517   4.547   2.195
  650SOL     OW 2848   4.306   3.694   1.032
  650SOL    HW1 2849   4.230   3.686   1.097
  650SOL    HW2 2850   4.288   3.636   0.952
  651SOL     OW 2851   1.404   5.551   6.048
  651SOL    HW1 2852   1.348   5.568   6.129
  651SOL    HW2 2853   1.441   5.458   6.052
  652SOL     OW 2854   4.423   1.466   2.582
  652SOL    HW1 2855   4.489   1.487   2.510
  652SOL    HW2 2856   4.404   1.548   2.635
  653SOL     OW 2857   4.128   5.002   3.645
  653SOL    HW1 2858   4.122   4.949   3.560
  653SOL    HW2 2859   4.165   5.092   3.625
  654SOL     OW 2860   6.338   5.276   0.409
  654SOL    HW1 2861   6.389   5.287   0.324
  654SOL    HW2 2862   6.401   5.280   0.487
  655SOL     OW 2863   0.252   0.850   6.834
  655SOL    HW1 2864   0.274   0.862   6.931
  655SOL    HW2 2865   0.299   0.919   6.780
  656SOL     OW 2866   2.793   6.321   2.014
  656SOL    HW1 2867   2.707   6.361   2.045
  656SOL    HW2 2868   2.867   6.353   2.072
  657SOL     OW 2869   4.049   1.319   6.925
  657SOL    HW1 2870   4.018   1.356   7.013
  657SOL    HW2 2871   3.989   1.353   6.852
  658SOL     OW 2872   3.271   4.980   6.066
  658SOL    HW1 2873   3.311   5.071   6.052
  658SOL    HW2 2874   3.246   4.941   5.977
  659SOL     OW 2875   2.882   0.179   6.703
  659SOL    HW1 2876   2.878   0.197   6.604
  659SOL    HW2 2877   2.960   0.226   6.743
  660SOL     OW 2878   3.832   5.441   2.997
  660SOL    HW1 2879   3.811   5.435   2.899
  660SOL    HW2 2880   3.865   5.352   3.029
  661SOL     OW 2881   5.465   5.724   2.979
  661SOL    HW1 2882   5.468   5.675   2.892
  661SOL    HW2 2883   5.424   5.666   3.049
  662SOL     OW 2884   3.671   1.265   0.511
  662SOL    HW1 2885   3.768   1.267   0.535
  662SOL    HW2 2886   3.634   1.174   0.530
  663SOL     OW 2887   2.151   4.974   4.859
  663SOL    HW1 2888   2.230   4.914   4.876
  663SOL    HW2 2889   2.104   4.994   4.945
  664SOL     OW 2890   6.046   1.212   6.550
  664SOL    HW1 2891   6.037   1.114   6.533
  664SOL    HW2 2892   6.041   1.262   6.463
  665SOL     OW 2893   1.825   4.715   2.298
  665SOL    HW1 2894   1.850   4.769   2.379
  665SOL    HW2 2895   1.902   4.715   2.234
  666SOL     OW 2896   3.980   1.184   1.206
  666SOL    HW1 2897   3.977   1.198   1.305
  666SOL    HW2 2898   4.028   1.098   1.186
  667SOL     OW 2899   0.892   6.319   2.321
  667SOL    HW1 2900   0.848   6.230   2.326
  667SOL    HW2 2901   0.838   6.385   2.373
  668SOL     OW 2902   5.256   3.826   0.540
  668SOL    HW1 2903   5.248   3.860   0.634
  668SOL    HW2 2904   5.172   3.850   0.490
  669SOL     OW 2905   5.100   1.422   2.558
  669SOL    HW1 2906   5.048   1.373   2.627
  669SOL    HW2 2907   5.109   1.518   2.585
  670SOL     OW 2908   3.112   2.000   3.114
  670SOL    HW1 2909   3.153   1.996   3.024
  670SOL    HW2 2910   3.147   1.925   3.170
  671SOL     OW 2911   3.073   6.921   1.354
  671SOL    HW1 2912   3.054   7.013   1.319
  671SOL    HW2 2913   3.073   6.856   1.278
  672SOL     OW 2914   1.688   6.597   2.157
  672SOL    HW1 2915   1.670   6.690   2.189
  672SOL    HW2 2916   1.725   6.542   2.231
  673SOL     OW 2917   5.791   6.504   0.502
  673SOL    HW1 2918   5.716   6.538   0.558
  673SOL    HW2 2919   5.818   6.413   0.535
  674SOL     OW 2920   6.151   1.097   4.110
  674SOL    HW1 2921   6.233   1.096   4.167
  674SOL    HW2 2922   6.078   1.047   4.156
  675SOL     OW 2923   0.267   3.183   3.113
  675SOL    HW1 2924   0.278   3.231   3.200
  675SOL    HW2 2925   0.239   3.088   3.131
  676SOL     OW 2926   2.453   6.446   6.058
  676SOL    HW1 2927   2.511   6.401   6.127
  676SOL    HW2 2928   2.497   6.440   5.969
  677SOL     OW 2929   5.340   1.383   1.285
  677SOL    HW1 2930   5.379   1.439   1.358
  677SOL    HW2 2931   5.317   1.441   1.207
  678SOL     OW 2932   1.245   4.924   4.154
  678SOL    HW1 2933   1.292   4.920   4.242
  678SOL    HW2 2934   1.308   4.955   4.083
  679SOL     OW 2935   4.841   2.107   5.305
  679SOL    HW1 2936   4.905   2.048   5.255
  679SOL    HW2 2937   4.829   2.193   5.255
  680SOL     OW 2938   5.745   6.244   4.176
  680SOL    HW1 2939   5.716   6.157   4.137
  680SOL    HW2 2940   5.845   6.246   4.182
  681SOL     OW 2941   4.598   5.078   2.634
  681SOL    HW1 2942   4.635   5.115   2.549
  681SOL    HW2 2943   4.632   4.985   2.648
  682SOL     OW 2944   0.486   0.909   3.310
  682SOL    HW1 2945   0.511   0.813   3.302
  682SOL    HW2 2946   0.539   0.952   3.384
  683SOL     OW 2947   3.522   3.816   1.442
  683SOL    HW1 2948   3.569   3.833   1.528
  683SOL    HW2 2949   3.557   3.878   1.372
  684SOL     OW 2950   6.228   1.165   6.168
  684SOL    HW1 2951   6.204   1.244   6.224
  684SOL    HW2 2952   6.175   1.086   6.198
  685SOL     OW 2953   3.279   0.649   3.120
  685SOL    HW1 2954   3.348   0.650   3.048
  685SOL    HW2 2955   3.303   0.580   3.188
  686SOL     OW 2956   4.504   0.272   4.650
  686SOL    HW1 2957   4.586   0.253   4.596
  686SOL    HW2 2958   4.527   0.336   4.724
  687SOL     OW 2959   0.625   1.826   3.641
  687SOL    HW1 2960   0.685   1.758   3.599
  687SOL    HW2 2961   0.663   1.917   3.629
  688SOL     OW 2962   6.687   1.272   6.875
  688SOL    HW1 2963   6.663   1.359   6.917
  688SOL    HW2 2964   6.759   1.286   6.807
  689SOL     OW 2965   1.809   5.876   5.430
  689SOL    HW1 2966   1.909   5.872   5.432
  689SOL    HW2 2967   1.779   5.968   5.405
  690SOL     OW 2968   5.402   3.377   2.427
  690SOL    HW1 2969   5.358   3.378   2.338
  690SOL    HW2 2970   5.366   3.302   2.481
  691SOL     OW 2971   5.641   1.554   1.029
  691SOL    HW1 2972   5.673   1.580   0.938
  691SOL    HW2 2973   5.671   1.461   1.051
  692SOL     OW 2974   1.997   0.261   4.678
  692SOL    HW1 2975   2.090   0.287   4.652
  692SOL    HW2 2976   1.985   0.270   4.777
  693SOL     OW 2977   5.653   6.144   3.626
  693SOL    HW1 2978   5.555   6.129   3.641
  693SOL    HW2 2979   5.686   6.079   3.557
  694SOL     OW 2980   4.439   6.560   5.365
  694SOL    HW1 2981   4.342   6.545   5.383
  694SOL    HW2 2982   4.450   6.626   5.290
  695SOL     OW 2983   3.942   0.211   3.764
  695SOL    HW1 2984   3.883   0.287   3.793
  695SOL    HW2 2985   3.983   0.233   3.676
  696SOL     OW 2986   5.575   4.290   3.267
  696SOL    HW1 2987   5.628   4.374   3.255
  696SOL    HW2 2988   5.477   4.312   3.268
  697SOL     OW 2989   1.310   6.538   1.904
  697SOL    HW1 2990   1.405   6.524   1.931
  697SOL    HW2 2991   1.274   6.620   1.950
  698SOL     OW 2992   5.596   6.792   0.222
  698SOL    HW1 2993   5.594   6.884   0.181
  698SOL    HW2 2994   5.682   6.778   0.269
  699SOL     OW 2995   2.985   2.762   1.529
  699SOL    HW1 2996   3.020   2.675   1.494
  699SOL    HW2 2997   3.057   2.831   1.524
  700SOL     OW 2998   3.596   0.163   4.303
  700SOL    HW1 2999   3.514   0.162   4.246
  700SOL    HW2 3000   3.611   0.072   4.341
  701SOL     OW 3001   4.896   5.213   1.508
  701SOL    HW1 3002   4.941   5.255   1.430
  701SOL    HW2 3003   4.909   5.114   1.505
  702SOL     OW 3004   3.498   0.860   4.111
  702SOL    HW1 3005   3.448   0.873   4.197
  702SOL    HW2 3006   3.433   0.835   4.039
  703SOL     OW 3007   3.279   2.022   6.697
  703SOL    HW1 3008   3.373   2.050   6.717
  703SOL    HW2 3009   3.219   2.051   6.772
  704SOL     OW 3010   1.756   2.698   5.374
  704SOL    HW1 3011   1.830   2.748   5.330
  704SOL    HW2 3012   1.706   2.645   5.305
  705SOL     OW 3013   0.168   6.534   5.177
  705SOL    HW1 3014   0.162   6.634   5.167
  705SOL    HW2 3015   0.113   6.505   5.255
  706SOL     OW 3016   4.455   1.306   5.583
  706SOL    HW1 3017   4.481   1.391   5.536
  706SOL    HW2 3018   4.355   1.301   5.589
  707SOL     OW 3019   3.324   5.275   4.192
  707SOL    HW1 3020   3.249   5.339   4.174
  707SOL    HW2 3021   3.374   5.304   4.274
  708SOL     OW 3022   4.571   6.045   3.644
  708SOL    HW1 3023   4.495   6.024   3.583
  708SOL    HW2 3024   4.565   5.987   3.725
  709SOL     OW 3025   2.668   0.154   1.077
  709SOL    HW1 3026   2.749   0.138   1.135
  709SOL    HW2 3027   2.592   0.184   1.133
  710SOL     OW 3028   4.740   2.861   1.691
  710SOL    HW1 3029   4.692   2.931   1.743
  710SOL    HW2 3030   4.726   2.772   1.735
  711SOL     OW 3031   6.857   2.595   6.449
  711SOL    HW1 3032   6.773   2.634   6.411
  711SOL    HW2 3033   6.926   2.667   6.456
  712SOL     OW 3034   5.083   4.305   0.698
  712SOL    HW1 3035   5.006   4.277   0.640
  712SOL    HW2 3036   5.167   4.264   0.664
  713SOL     OW 3037   3.752   3.010   5.304
  713SOL    HW1 3038   3.677   3.040   5.362
  713SOL    HW2 3039   3.837   3.009   5.357
  714SOL     OW 3040   5.175   5.791   2.680
  714SOL    HW1 3041   5.144   5.749   2.765
  714SOL    HW2 3042   5.274   5.788   2.674
  715SOL     OW 3043   6.495   5.145   5.662
  715SOL    HW1 3044   6.543   5.219   5.708
  715SOL    HW2 3045   6.476   5.071   5.727
  716SOL     OW 3046   1.423   2.103   3.103
  716SOL    HW1 3047   1.427   2.200   3.124
  716SOL    HW2 3048   1.376   2.055   3.177
  717SOL     OW 3049   5.138   4.630   4.113
  717SOL    HW1 3050   5.150   4.557   4.181
  717SOL    HW2 3051   5.054   4.681   4.133
  718SOL     OW 3052   5.643   1.954   5.189
  718SOL    HW1 3053   5.684   2.039   5.222
  718SOL    HW2 3054   5.676   1.935   5.096
  719SOL     OW 3055   5.238   6.907   3.733
  719SOL    HW1 3056   5.213   6.944   3.822
  719SOL    HW2 3057   5.215   6.974   3.662
  720SOL     OW 3058   2.720   1.499   0.768
  720SOL    HW1 3059   2.636   1.529   0.813
  720SOL    HW2 3060   2.708   1.406   0.734
  721SOL     OW 3061   0.053   1.652   2.728
  721SOL    HW1 3062   0.124   1.585   2.747
  721SOL    HW2 3063   0.066   1.732   2.787
  722SOL     OW 3064   5.015   6.511   0.973
  722SOL    HW1 3065   4.999   6.413   0.989
  722SOL    HW2 3066   5.113   6.529   0.969
  723SOL     OW 3067   2.350   5.726   4.115
  723SOL    HW1 3068   2.417   5.792   4.081
  723SOL    HW2 3069   2.339   5.736   4.214
  724SOL     OW 3070   0.982   1.452   4.070
  724SOL    HW1 3071   0.936   1.540   4.058
  724SOL    HW2 3072   0.930   1.395   4.133
  725SOL     OW 3073   1.303   4.002   2.971
  725SOL    HW1 3074   1.211   3.977   3.003
  725SOL    HW2 3075   1.325   4.095   3.002
  726SOL     OW 3076   1.610   3.942   0.947
  726SOL    HW1 3077   1.656   3.862   0.987
  726SOL    HW2 3078   1.592   3.926   0.851
  727SOL     OW 3079   3.885   5.939   5.153
  727SOL    HW1 3080   3.865   5.841   5.148
  727SOL    HW2 3081   3.953   5.963   5.084
  728SOL     OW 3082   6.567   3.486   3.797
  728SOL    HW1 3083   6.666   3.495   3.809
  728SOL    HW2 3084   6.548   3.406   3.740
  729SOL     OW 3085   0.435   4.224   0.947
  729SOL    HW1 3086   0.440   4.311   0.898
  729SOL    HW2 3087   0.369   4.232   1.023
  730SOL     OW 3088   4.393   0.797   3.429
  730SOL    HW1 3089   4.366   0.777   3.335
  730SOL    HW2 3090   4.333   0.747   3.492
  731SOL     OW 3091   4.595   4.931   5.649
  731SOL    HW1 3092   4.535   4.952   5.726
  731SOL    HW2 3093   4.557   4.971   5.566
  732SOL     OW 3094   4.230   1.494   5.128
  732SOL    HW1 3095   4.186   1.411   5.092
  732SOL    HW2 3096   4.204   1.506   5.224
  733SOL     OW 3097   5.857   5.860   2.861
  733SOL    HW1 3098   5.827   5.767   2.881
  733SOL    HW2 3099   5.929   5.857   2.792
  734SOL     OW 3100   6.329   6.438   2.314
  734SOL    HW1 3101   6.344   6.434   2.216
  734SOL    HW2 3102   6.244   6.391   2.337
  735SOL     OW 3103   4.668   0.466   2.160
  735SOL    HW1 3104   4.698   0.496   2.070
  735SOL    HW2 3105   4.626   0.375   2.152
  736SOL     OW 3106   1.968   1.299   3.944
  736SOL    HW1 3107   2.044   1.294   3.878
  736SOL    HW2 3108   1.907   1.222   3.930
  737SOL     OW 3109   4.060   0.655   5.736
  737SOL    HW1 3110   4.142   0.656   5.679
  737SOL    HW2 3111   4.002   0.732   5.712
  738SOL     OW 3112   1.675   4.671   0.221
  738SOL    HW1 3113   1.767   4.654   0.185
  738SOL    HW2 3114   1.669   4.635   0.314
  739SOL     OW 3115   2.946   0.027   4.113
  739SOL    HW1 3116   2.876   6.975   4.122
  739SOL    HW2 3117   2.903   0.117   4.127
  740SOL     OW 3118   4.924   3.294   2.585
  740SOL    HW1 3119   4.859   3.218   2.580
  740SOL    HW2 3120   5.016   3.257   2.598
  741SOL     OW 3121   2.292   1.015   3.113
  741SOL    HW1 3122   2.296   0.915   3.123
  741SOL    HW2 3123   2.245   1.038   3.028
  742SOL     OW 3124   2.190   0.055   1.977
  742SOL    HW1 3125   2.251   0.066   1.898
  742SOL    HW2 3126   2.238   0.004   2.048
  743SOL     OW 3127   0.570   6.608   3.150
  743SOL    HW1 3128   0.656   6.620   3.101
  743SOL    HW2 3129   0.563   6.514   3.183
  744SOL     OW 3130   5.148   1.866   0.346
  744SOL    HW1 3131   5.219   1.798   0.365
  744SOL    HW2 3132   5.133   1.872   0.247
  745SOL     OW 3133   2.602   0.135   4.603
  745SOL    HW1 3134   2.652   0.190   4.537
  745SOL    HW2 3135   2.559   0.194   4.671
  746SOL     OW 3136   6.874   4.619   5.838
  746SOL    HW1 3137   6.892   4.717   5.849
  746SOL    HW2 3138   6.958   4.567   5.855
  747SOL     OW 3139   5.109   5.675   2.915
  747SOL    HW1 3140   5.042   5.671   2.989
  747SOL    HW2 3141   5.136   5.582   2.890
  748SOL     OW 3142   5.068   5.405   1.854
  748SOL    HW1 3143   5.159   5.380   1.886
  748SOL    HW2 3144   5.071   5.422   1.755
  749SOL     OW 3145   5.008   3.668   3.995
  749SOL    HW1 3146   5.105   3.678   4.019
  749SOL    HW2 3147   4.976   3.578   4.023
  750SOL     OW 3148   2.241   1.949   2.321
  750SOL    HW1 3149   2.303   1.996   2.258
  750SOL    HW2 3150   2.216   2.011   2.395
  751SOL     OW 3151   3.793   0.547   0.678
  751SOL    HW1 3152   3.711   0.496   0.653
  751SOL    HW2 3153   3.836   0.505   0.757
  752SOL     OW 3154   3.611   2.460   5.446
  752SOL    HW1 3155   3.573   2.368   5.450
  752SOL    HW2 3156   3.709   2.455   5.425
  753SOL     OW 3157   3.624   4.170   4.761
  753SOL    HW1 3158   3.680   4.159   4.844
  753SOL    HW2 3159   3.682   4.159   4.680
  754SOL     OW 3160   6.071   0.751   0.365
  754SOL    HW1 3161   6.026   0.666   0.335
  754SOL    HW2 3162   6.166   0.751   0.334
  755SOL     OW 3163   4.209   4.244   5.324
  755SOL    HW1 3164   4.231   4.308   5.250
  755SOL    HW2 3165   4.118   4.205   5.308
  756SOL     OW 3166   2.219   5.551   6.249
  756SOL    HW1 3167   2.175   5.583   6.165
  756SOL    HW2 3168   2.250   5.457   6.236
  757SOL     OW 3169   2.628   6.148   2.217
  757SOL    HW1 3170   2.609   6.064   2.267
  757SOL    HW2 3171   2.705   6.134   2.155
  758SOL     OW 3172   4.340   0.806   4.216
  758SOL    HW1 3173   4.385   0.891   4.246
  758SOL    HW2 3174   4.338   0.741   4.293
  759SOL     OW 3175   0.618   2.843   3.873
  759SOL    HW1 3176   0.715   2.850   3.851
  759SOL    HW2 3177   0.565   2.832   3.789
  760SOL     OW 3178   6.010   5.450   2.965
  760SOL    HW1 3179   5.922   5.406   2.981
  760SOL    HW2 3180   6.030   5.514   3.040
  761SOL     OW 3181   3.916   3.849   6.588
  761SOL    HW1 3182   3.846   3.896   6.643
  761SOL    HW2 3183   3.883   3.841   6.494
  762SOL     OW 3184   3.181   5.549   3.871
  762SOL    HW1 3185   3.120   5.598   3.809
  762SOL    HW2 3186   3.210   5.610   3.945
  763SOL     OW 3187   5.613   0.722   0.387
  763SOL    HW1 3188   5.657   0.797   0.436
  763SOL    HW2 3189   5.654   0.635   0.415
  764SOL     OW 3190   5.565   0.007   5.964
  764SOL    HW1 3191   5.662   0.015   5.941
  764SOL    HW2 3192   5.511   0.058   5.896
  765SOL     OW 3193   6.748   6.848   0.717
  765SOL    HW1 3194   6.667   6.810   0.673
  765SOL    HW2 3195   6.787   6.920   0.659
  766SOL     OW 3196   2.424   2.273   5.076
  766SOL    HW1 3197   2.390   2.351   5.024
  766SOL    HW2 3198   2.400   2.284   5.173
  767SOL     OW 3199   6.250   5.612   4.308
  767SOL    HW1 3200   6.346   5.639   4.319
  767SOL    HW2 3201   6.193   5.694   4.311
  768SOL     OW 3202   2.010   5.119   2.671
  768SOL    HW1 3203   1.941   5.088   2.605
  768SOL    HW2 3204   2.082   5.050   2.678
  769SOL     OW 3205   2.626   1.895   4.987
  769SOL    HW1 3206   2.528   1.912   4.999
  769SOL    HW2 3207   2.647   1.801   5.016
  770SOL     OW 3208   1.527   4.869   5.774
  770SOL    HW1 3209   1.573   4.821   5.699
  770SOL    HW2 3210   1.435   4.831   5.786
  771SOL     OW 3211   1.405   5.316   2.603
  771SOL    HW1 3212   1.331   5.251   2.590
  771SOL    HW2 3213   1.493   5.271   2.589
  772SOL     OW 3214   5.593   4.447   0.588
  772SOL    HW1 3215   5.543   4.517   0.536
  772SOL    HW2 3216   5.658   4.491   0.649
  773SOL     OW 3217   1.031   3.788   3.698
  773SOL    HW1 3218   0.985   3.872   3.671
  773SOL    HW2 3219   1.051   3.790   3.796
  774SOL     OW 3220   2.492   0.279   3.317
  774SOL    HW1 3221   2.454   0.371   3.311
  774SOL    HW2 3222   2.588   0.282   3.290
  775SOL     OW 3223   1.390   4.018   2.343
  775SOL    HW1 3224   1.478   4.042   2.301
  775SOL    HW2 3225   1.339   3.957   2.282
  776SOL     OW 3226   2.506   5.403   6.442
  776SOL    HW1 3227   2.468   5.492   6.419
  776SOL    HW2 3228   2.447   5.331   6.405
  777SOL     OW 3229   2.287   4.101   6.961
  777SOL    HW1 3230   2.288   4.001   6.961
  777SOL    HW2 3231   2.295   4.135   0.035
  778SOL     OW 3232   2.889   6.095   0.002
  778SOL    HW1 3233   2.814   6.126   0.060
  778SOL    HW2 3234   2.930   6.173   6.975
  779SOL     OW 3235   6.922   2.342   3.270
  779SOL    HW1 3236   7.007   2.291   3.281
  779SOL    HW2 3237   6.931   2.431   3.315
  780SOL     OW 3238   0.359   2.210   4.047
  780SOL    HW1 3239   0.304   2.273   3.991
  780SOL    HW2 3240   0.447   2.194   4.001
  781SOL     OW 3241   0.502   4.421   0.132
  781SOL    HW1 3242   0.545   4.441   0.220
  781SOL    HW2 3243   0.529   4.329   0.103
  782SOL     OW 3244   1.667   3.392   4.834
  782SOL    HW1 3245   1.621   3.303   4.832
  782SOL    HW2 3246   1.761   3.380   4.866
  783SOL     OW 3247   6.633   4.807   6.929
  783SOL    HW1 3248   6.546   4.777   6.890
  783SOL    HW2 3249   6.639   4.778   0.005
  784SOL     OW 3250   2.325   6.097   0.825
  784SOL    HW1 3251   2.361   6.189   0.838
  784SOL    HW2 3252   2.293   6.060   0.912
  785SOL     OW 3253   1.347   0.454   4.343
  785SOL    HW1 3254   1.428   0.512   4.333
  785SOL    HW2 3255   1.366   0.363   4.307
  786SOL     OW 3256   6.085   1.567   4.242
  786SOL    HW1 3257   6.184   1.554   4.247
  786SOL    HW2 3258   6.063   1.630   4.168
  787SOL     OW 3259   2.024   0.114   0.658
  787SOL    HW1 3260   2.117   0.145   0.636
  787SOL    HW2 3261   1.969   0.192   0.686
  788SOL     OW 3262   1.879   2.264   1.406
  788SOL    HW1 3263   1.789   2.264   1.449
  788SOL    HW2 3264   1.904   2.358   1.383
  789SOL     OW 3265   4.491   4.856   2.419
  789SOL    HW1 3266   4.512   4.821   2.510
  789SOL    HW2 3267   4.576   4.887   2.375
  790SOL     OW 3268   0.851   2.066   2.631
  790SOL    HW1 3269   0.842   2.119   2.715
  790SOL    HW2 3270   0.948   2.050   2.613
  791SOL     OW 3271   2.902   5.876   4.115
  791SOL    HW1 3272   2.881   5.870   4.213
  791SOL    HW2 3273   2.969   5.948   4.099
  792SOL     OW 3274   1.695   0.735   0.004
  792SOL    HW1 3275   1.614   0.743   0.062
  792SOL    HW2 3276   1.717   0.639   7.010
  793SOL     OW 3277   2.760   6.132   4.009
  793SOL    HW1 3278   2.774   6.069   3.932
  793SOL    HW2 3279   2.721   6.218   3.975
  794SOL     OW 3280   3.895   3.130   2.479
  794SOL    HW1 3281   3.808   3.111   2.524
  794SOL    HW2 3282   3.938   3.045   2.451
  795SOL     OW 3283   3.782   0.400   6.070
  795SOL    HW1 3284   3.715   0.470   6.048
  795SOL    HW2 3285   3.740   0.330   6.128
  796SOL     OW 3286   0.899   2.854   0.721
  796SOL    HW1 3287   0.882   2.819   0.629
  796SOL    HW2 3288   0.812   2.874   0.765
  797SOL     OW 3289   4.591   6.997   0.403
  797SOL    HW1 3290   4.659   0.029   0.350
  797SOL    HW2 3291   4.600   0.000   0.500
  798SOL     OW 3292   4.502   6.413   0.932
  798SOL    HW1 3293   4.513   6.316   0.911
  798SOL    HW2 3294   4.466   6.423   1.025
  799SOL     OW 3295   2.187   2.095   5.568
  799SOL    HW1 3296   2.150   2.088   5.661
  799SOL    HW2 3297   2.206   2.004   5.533
  800SOL     OW 3298   6.113   3.163   2.758
  800SOL    HW1 3299   6.208   3.136   2.744
  800SOL    HW2 3300   6.109   3.260   2.782
  801SOL     OW 3301   2.400   5.885   5.987
  801SOL    HW1 3302   2.415   5.971   5.939
  801SOL    HW2 3303   2.326   5.896   6.053
  802SOL     OW 3304   5.237   2.449   6.720
  802SOL    HW1 3305   5.252   2.383   6.794
  802SOL    HW2 3306   5.144   2.484   6.726
  803SOL     OW 3307   2.701   1.390   4.753
  803SOL    HW1 3308   2.634   1.345   4.813
  803SOL    HW2 3309   2.708   1.487   4.777
  804SOL     OW 3310   5.559   0.519   3.009
  804SOL    HW1 3311   5.550   0.503   3.107
  804SOL    HW2 3312   5.625   0.594   2.994
  805SOL     OW 3313   3.410   1.067   3.911
  805SOL    HW1 3314   3.330   1.101   3.960
  805SOL    HW2 3315   3.489   1.124   3.932
  806SOL     OW 3316   2.364   6.255   5.342
  806SOL    HW1 3317   2.308   6.325   5.297
  806SOL    HW2 3318   2.425   6.299   5.408
  807SOL     OW 3319   1.560   6.022   6.002
  807SOL    HW1 3320   1.594   6.066   5.919
  807SOL    HW2 3321   1.478   6.070   6.033
  808SOL     OW 3322   5.179   2.544   6.057
  808SOL    HW1 3323   5.215   2.630   6.094
  808SOL    HW2 3324   5.166   2.554   5.958
  809SOL     OW 3325   2.319   5.145   0.239
  809SOL    HW1 3326   2.236   5.089   0.241
  809SOL    HW2 3327   2.345   5.170   0.332
  810SOL     OW 3328   3.482   3.089   0.072
  810SOL    HW1 3329   3.424   3.163   0.039
  810SOL    HW2 3330   3.533   3.049   7.015
  811SOL     OW 3331   6.129   5.022   4.588
  811SOL    HW1 3332   6.109   5.005   4.492
  811SOL    HW2 3333   6.196   5.096   4.596
  812SOL     OW 3334   0.587   3.135   1.985
  812SOL    HW1 3335   0.544   3.155   1.896
  812SOL    HW2 3336   0.568   3.041   2.010
  813SOL     OW 3337   1.347   1.630   4.892
  813SOL    HW1 3338   1.287   1.621   4.813
  813SOL    HW2 3339   1.418   1.697   4.873
  814SOL     OW 3340   0.823   5.378   2.948
  814SOL    HW1 3341   0.762   5.301   2.966
  814SOL    HW2 3342   0.785   5.435   2.875
  815SOL     OW 3343   4.677   1.762   4.768
  815SOL    HW1 3344   4.584   1.752   4.806
  815SOL    HW2 3345   4.710   1.672   4.740
  816SOL     OW 3346   6.047   4.824   6.635
  816SOL    HW1 3347   6.041   4.738   6.685
  816SOL    HW2 3348   5.974   4.827   6.566
  817SOL     OW 3349   0.596   4.636   6.842
  817SOL    HW1 3350   0.508   4.645   6.889
  817SOL    HW2 3351   0.611   4.540   6.817
  818SOL     OW 3352   6.684   2.100   5.018
  818SOL    HW1 3353   6.613   2.153   4.972
  818SOL    HW2 3354   6.744   2.059   4.949
  819SOL     OW 3355   5.068   2.945   1.737
  819SOL    HW1 3356   4.976   2.945   1.699
  819SOL    HW2 3357   5.068   2.895   1.824
  820SOL     OW 3358   2.562   1.689   5.186
  820SOL    HW1 3359   2.649   1.695   5.236
  820SOL    HW2 3360   2.489   1.727   5.241
  821SOL     OW 3361   4.788   3.312   6.153
  821SOL    HW1 3362   4.870   3.354   6.191
  821SOL    HW2 3363   4.792   3.313   6.053
  822SOL     OW 3364   0.479   5.068   3.484
  822SOL    HW1 3365   0.496   4.978   3.523
  822SOL    HW2 3366   0.406   5.062   3.416
  823SOL     OW 3367   1.219   3.386   4.762
  823SOL    HW1 3368   1.305   3.335   4.750
  823SOL    HW2 3369   1.238   3.484   4.760
  824SOL     OW 3370   4.952   0.846   6.759
  824SOL    HW1 3371   4.876   0.897   6.721
  824SOL    HW2 3372   5.025   0.836   6.691
  825SOL     OW 3373   5.936   5.715   1.015
  825SOL    HW1 3374   5.876   5.716   1.095
  825SOL    HW2 3375   6.021   5.669   1.038
  826SOL     OW 3376   3.882   2.611   6.806
  826SOL    HW1 3377   3.843   2.565   6.886
  826SOL    HW2 3378   3.955   2.672   6.836
  827SOL     OW 3379   4.267   3.884   5.768
  827SOL    HW1 3380   4.252   3.974   5.809
  827SOL    HW2 3381   4.180   3.850   5.730
  828SOL     OW 3382   6.790   6.193   6.145
  828SOL    HW1 3383   6.764   6.121   6.210
  828SOL    HW2 3384   6.831   6.152   6.064
  829SOL     OW 3385   3.253   3.601   2.742
  829SOL    HW1 3386   3.311   3.678   2.770
  829SOL    HW2 3387   3.228   3.612   2.646
  830SOL     OW 3388   6.860   4.538   0.336
  830SOL    HW1 3389   6.806   4.503   0.260
  830SOL    HW2 3390   6.809   4.528   0.421
  831SOL     OW 3391   4.853   0.057   1.470
  831SOL    HW1 3392   4.945   0.037   1.505
  831SOL    HW2 3393   4.852   0.148   1.430
  832SOL     OW 3394   2.974   1.450   4.648
  832SOL    HW1 3395   2.890   1.396   4.660
  832SOL    HW2 3396   3.051   1.388   4.631
  833SOL     OW 3397   3.472   2.285   0.304
  833SOL    HW1 3398   3.380   2.314   0.331
  833SOL    HW2 3399   3.469   2.242   0.214
  834SOL     OW 3400   5.965   3.023   0.464
  834SOL    HW1 3401   6.037   3.091   0.480
  834SOL    HW2 3402   5.992   2.936   0.505
  835SOL     OW 3403   0.244   6.913   3.980
  835SOL    HW1 3404   0.275   6.820   3.997
  835SOL    HW2 3405   0.173   6.913   3.909
  836SOL     OW 3406   4.900   0.779   4.866
  836SOL    HW1 3407   4.977   0.820   4.917
  836SOL    HW2 3408   4.838   0.735   4.931
  837SOL     OW 3409   1.529   0.808   0.556
  837SOL    HW1 3410   1.429   0.810   0.554
  837SOL    HW2 3411   1.563   0.893   0.596
  838SOL     OW 3412   1.126   5.415   3.489
  838SOL    HW1 3413   1.170   5.417   3.579
  838SOL    HW2 3414   1.028   5.426   3.499
  839SOL     OW 3415   1.600   1.950   0.229
  839SOL    HW1 3416   1.689   1.968   0.186
  839SOL    HW2 3417   1.527   1.988   0.172
  840SOL     OW 3418   4.832   5.118   6.863
  840SOL    HW1 3419   4.763   5.058   6.903
  840SOL    HW2 3420   4.808   5.138   6.768
  841SOL     OW 3421   3.162   4.657   0.327
  841SOL    HW1 3422   3.118   4.740   0.363
  841SOL    HW2 3423   3.210   4.611   0.401
  842SOL     OW 3424   4.149   5.649   0.478
  842SOL    HW1 3425   4.057   5.687   0.491
  842SOL    HW2 3426   4.170   5.587   0.554
  843SOL     OW 3427   0.951   0.977   2.241
  843SOL    HW1 3428   0.901   0.893   2.263
  843SOL    HW2 3429   0.886   1.045   2.205
  844SOL     OW 3430   6.864   0.737   1.379
  844SOL    HW1 3431   6.882   0.766   1.473
  844SOL    HW2 3432   6.902   0.804   1.315
  845SOL     OW 3433   3.432   1.085   2.320
  845SOL    HW1 3434   3.479   1.138   2.391
  845SOL    HW2 3435   3.492   1.073   2.241
  846SOL     OW 3436   3.016   1.456   1.082
  846SOL    HW1 3437   3.018   1.441   0.983
  846SOL    HW2 3438   3.110   1.464   1.116
  847SOL     OW 3439   2.693   3.832   1.668
  847SOL    HW1 3440   2.686   3.858   1.572
  847SOL    HW2 3441   2.771   3.772   1.681
  848SOL     OW 3442   0.094   5.807   0.185
  848SOL    HW1 3443   0.076   5.830   0.280
  848SOL    HW2 3444   0.097   5.708   0.174
  849SOL     OW 3445   6.000   3.692   6.588
  849SOL    HW1 3446   6.095   3.717   6.604
  849SOL    HW2 3447   5.991   3.649   6.498
  850SOL     OW 3448   1.226   0.505   4.952
  850SOL    HW1 3449   1.274   0.420   4.977
  850SOL    HW2 3450   1.282   0.584   4.978
  851SOL     OW 3451   5.636   3.710   6.130
  851SOL    HW1 3452   5.659   3.802   6.163
  851SOL    HW2 3453   5.655   3.643   6.202
  852SOL     OW 3454   0.273   3.802   2.086
  852SOL    HW1 3455   0.189   3.804   2.031
  852SOL    HW2 3456   0.338   3.738   2.046
  853SOL     OW 3457   2.735   2.525   0.166
  853SOL    HW1 3458   2.683   2.610   0.176
  853SOL    HW2 3459   2.822   2.545   0.121
  854SOL     OW 3460   5.657   6.034   6.219
  854SOL    HW1 3461   5.561   6.047   6.195
  854SOL    HW2 3462   5.668   5.947   6.268
  855SOL     OW 3463   5.329   1.456   0.491
  855SOL    HW1 3464   5.270   1.377   0.475
  855SOL    HW2 3465   5.320   1.521   0.416
  856SOL     OW 3466   1.851   5.194   1.572
  856SOL    HW1 3467   1.760   5.193   1.614
  856SOL    HW2 3468   1.862   5.278   1.520
  857SOL     OW 3469   6.793   5.400   5.377
  857SOL    HW1 3470   6.829   5.395   5.470
  857SOL    HW2 3471   6.718   5.334   5.367
  858SOL     OW 3472   4.543   3.274   6.896
  858SOL    HW1 3473   4.634   3.308   6.874
  858SOL    HW2 3474   4.524   3.287   6.993
  859SOL     OW 3475   4.783   6.598   5.297
  859SOL    HW1 3476   4.872   6.562   5.272
  859SOL    HW2 3477   4.712   6.533   5.272
  860SOL     OW 3478   5.122   3.244   5.982
  860SOL    HW1 3479   5.027   3.225   5.958
  860SOL    HW2 3480   5.180   3.169   5.951
  861SOL     OW 3481   2.011   5.663   1.745
  861SOL    HW1 3482   2.000   5.564   1.747
  861SOL    HW2 3483   1.985   5.698   1.655
  862SOL     OW 3484   0.554   3.842   3.532
  862SOL    HW1 3485   0.479   3.841   3.598
  862SOL    HW2 3486   0.570   3.749   3.499
  863SOL     OW 3487   6.493   0.511   0.722
  863SOL    HW1 3488   6.418   0.533   0.661
  863SOL    HW2 3489   6.473   0.546   0.814
  864SOL     OW 3490   5.645   6.434   4.358
  864SOL    HW1 3491   5.688   6.347   4.332
  864SOL    HW2 3492   5.613   6.481   4.276
  865SOL     OW 3493   1.590   6.187   5.000
  865SOL    HW1 3494   1.527   6.218   5.071
  865SOL    HW2 3495   1.538   6.162   4.918
  866SOL     OW 3496   3.812   6.852   2.088
  866SOL    HW1 3497   3.769   6.929   2.042
  866SOL    HW2 3498   3.753   6.821   2.163
  867SOL     OW 3499   5.495   2.654   6.375
  867SOL    HW1 3500   5.402   2.630   6.401
  867SOL    HW2 3501   5.538   2.706   6.449
  868SOL     OW 3502   6.981   2.008   2.672
  868SOL    HW1 3503   0.059   1.986   2.670
  868SOL    HW2 3504   6.956   2.038   2.764
  869SOL     OW 3505   6.934   3.971   3.654
  869SOL    HW1 3506   6.873   4.039   3.612
  869SOL    HW2 3507   0.009   3.992   3.631
  870SOL     OW 3508   3.440   5.453   2.122
  870SOL    HW1 3509   3.503   5.443   2.199
  870SOL    HW2 3510   3.469   5.530   2.065
  871SOL     OW 3511   4.663   1.470   3.306
  871SOL    HW1 3512   4.660   1.472   3.206
  871SOL    HW2 3513   4.655   1.375   3.338
  872SOL     OW 3514   0.160   2.289   4.996
  872SOL    HW1 3515   0.183   2.251   5.086
  872SOL    HW2 3516   0.106   2.372   5.008
  873SOL     OW 3517   4.533   6.663   6.163
  873SOL    HW1 3518   4.572   6.720   6.090
  873SOL    HW2 3519   4.521   6.570   6.129
  874SOL     OW 3520   4.676   3.944   1.170
  874SOL    HW1 3521   4.684   3.999   1.086
  874SOL    HW2 3522   4.635   4.000   1.242
  875SOL     OW 3523   5.203   5.539   1.330
  875SOL    HW1 3524   5.282   5.559   1.388
  875SOL    HW2 3525   5.209   5.592   1.245
  876SOL     OW 3526   0.091   6.820   1.209
  876SOL    HW1 3527   0.179   6.857   1.238
  876SOL    HW2 3528   0.099   6.722   1.192
  877SOL     OW 3529   2.051   2.574   6.526
  877SOL    HW1 3530   1.972   2.513   6.523
  877SOL    HW2 3531   2.030   2.660   6.480
  878SOL     OW 3532   4.492   6.252   4.005
  878SOL    HW1 3533   4.505   6.167   3.954
  878SOL    HW2 3534   4.469   6.326   3.942
  879SOL     OW 3535   5.729   0.458   0.412
  879SOL    HW1 3536   5.742   0.491   0.506
  879SOL    HW2 3537   5.817   0.455   0.365
  880SOL     OW 3538   2.976   3.589   2.755
  880SOL    HW1 3539   2.938   3.514   2.701
  880SOL    HW2 3540   3.076   3.585   2.751
  881SOL     OW 3541   4.139   1.522   0.337
  881SOL    HW1 3542   4.072   1.472   0.283
  881SOL    HW2 3543   4.224   1.469   0.343
  882SOL     OW 3544   1.206   3.578   4.259
  882SOL    HW1 3545   1.119   3.625   4.252
  882SOL    HW2 3546   1.243   3.590   4.351
  883SOL     OW 3547   2.544   0.373   2.603
  883SOL    HW1 3548   2.570   0.276   2.601
  883SOL    HW2 3549   2.535   0.402   2.699
  884SOL     OW 3550   4.881   3.539   5.538
  884SOL    HW1 3551   4.847   3.633   5.536
  884SOL    HW2 3552   4.825   3.483   5.477
  885SOL     OW 3553   3.676   2.624   6.054
  885SOL    HW1 3554   3.760   2.664   6.092
  885SOL    HW2 3555   3.604   2.628   6.122
  886SOL     OW 3556   3.587   6.969   6.553
  886SOL    HW1 3557   3.685   6.954   6.561
  886SOL    HW2 3558   3.543   6.955   6.642
  887SOL     OW 3559   4.672   1.846   4.238
  887SOL    HW1 3560   4.756   1.899   4.231
  887SOL    HW2 3561   4.659   1.816   4.333
  888SOL     OW 3562   6.719   0.005   2.960
  888SOL    HW1 3563   6.640   0.066   2.969
  888SOL    HW2 3564   6.730   6.971   3.043
  889SOL     OW 3565   0.522   3.356   6.703
  889SOL    HW1 3566   0.458   3.325   6.773
  889SOL    HW2 3567   0.613   3.319   6.723
  890SOL     OW 3568   2.846   5.065   4.067
  890SOL    HW1 3569   2.882   5.056   4.160
  890SOL    HW2 3570   2.746   5.063   4.070
  891SOL     OW 3571   5.428   5.601   1.507
  891SOL    HW1 3572   5.403   5.686   1.552
  891SOL    HW2 3573   5.525   5.603   1.483
  892SOL     OW 3574   2.756   4.572   0.420
  892SOL    HW1 3575   2.790   4.625   0.343
  892SOL    HW2 3576   2.829   4.514   0.456
  893SOL     OW 3577   2.418   6.282   2.451
  893SOL    HW1 3578   2.456   6.374   2.438
  893SOL    HW2 3579   2.343   6.268   2.386
  894SOL     OW 3580   1.049   3.963   1.000
  894SOL    HW1 3581   1.131   3.947   1.056
  894SOL    HW2 3582   0.973   3.991   1.059
  895SOL     OW 3583   0.504   5.816   4.004
  895SOL    HW1 3584   0.430   5.881   4.018
  895SOL    HW2 3585   0.496   5.775   3.913
  896SOL     OW 3586   7.003   6.585   5.401
  896SOL    HW1 3587   6.984   6.678   5.369
  896SOL    HW2 3588   6.922   6.528   5.387
  897SOL     OW 3589   5.230   1.070   6.943
  897SOL    HW1 3590   5.318   1.100   6.906
  897SOL    HW2 3591   5.240   0.978   6.982
  898SOL     OW 3592   3.978   6.072   2.987
  898SOL    HW1 3593   4.073   6.089   3.013
  898SOL    HW2 3594   3.930   6.028   3.063
  899SOL     OW 3595   0.076   4.855   0.397
  899SOL    HW1 3596   0.040   4.821   0.310
  899SOL    HW2 3597   0.159   4.805   0.420
  900SOL     OW 3598   5.006   5.267   0.553
  900SOL    HW1 3599   4.950   5.341   0.590
  900SOL    HW2 3600   5.090   5.258   0.607
  901SOL     OW 3601   1.691   0.918   2.281
  901SOL    HW1 3602   1.598   0.905   2.317
  901SOL    HW2 3603   1.713   1.015   2.279
  902SOL     OW 3604   6.377   4.007   2.178
  902SOL    HW1 3605   6.337   3.999   2.269
  902SOL    HW2 3606   6.470   3.969   2.179
  903SOL     OW 3607   0.173   2.548   0.486
  903SOL    HW1 3608   0.216   2.496   0.412
  903SOL    HW2 3609   0.130   2.630   0.449
  904SOL     OW 3610   2.633   1.716   2.484
  904SOL    HW1 3611   2.612   1.792   2.422
  904SOL    HW2 3612   2.549   1.688   2.532
  905SOL     OW 3613   6.072   2.914   6.690
  905SOL    HW1 3614   6.160   2.961   6.694
  905SOL    HW2 3615   5.999   2.981   6.704
  906SOL     OW 3616   6.084   3.778   6.844
  906SOL    HW1 3617   6.039   3.748   6.760
  906SOL    HW2 3618   6.080   3.704   6.912
  907SOL     OW 3619   4.996   3.851   6.766
  907SOL    HW1 3620   4.959   3.881   6.854
  907SOL    HW2 3621   5.091   3.881   6.758
  908SOL     OW 3622   2.046   4.184   2.765
  908SOL    HW1 3623   2.108   4.144   2.698
  908SOL    HW2 3624   2.009   4.270   2.730
  909SOL     OW 3625   5.578   5.301   6.586
  909SOL    HW1 3626   5.659   5.248   6.563
  909SOL    HW2 3627   5.529   5.256   6.661
  910SOL     OW 3628   2.271   3.377   1.055
  910SOL    HW1 3629   2.202   3.310   1.027
  910SOL    HW2 3630   2.225   3.463   1.080
  911SOL     OW 3631   1.179   5.104   6.280
  911SOL    HW1 3632   1.100   5.160   6.258
  911SOL    HW2 3633   1.258   5.163   6.297
  912SOL     OW 3634   4.963   2.149   2.816
  912SOL    HW1 3635   5.025   2.072   2.823
  912SOL    HW2 3636   4.876   2.126   2.861
  913SOL     OW 3637   4.700   6.860   3.210
  913SOL    HW1 3638   4.611   6.861   3.164
  913SOL    HW2 3639   4.765   6.917   3.159
  914SOL     OW 3640   3.043   6.380   0.244
  914SOL    HW1 3641   3.123   6.439   0.229
  914SOL    HW2 3642   2.973   6.431   0.294
  915SOL     OW 3643   5.901   5.578   0.525
  915SOL    HW1 3644   5.985   5.523   0.525
  915SOL    HW2 3645   5.855   5.567   0.437
  916SOL     OW 3646   0.758   2.199   2.406
  916SOL    HW1 3647   0.821   2.180   2.331
  916SOL    HW2 3648   0.786   2.149   2.488
  917SOL     OW 3649   6.473   6.887   0.807
  917SOL    HW1 3650   6.430   6.898   0.896
  917SOL    HW2 3651   6.561   6.933   0.806
  918SOL     OW 3652   2.269   5.506   0.407
  918SOL    HW1 3653   2.181   5.475   0.370
  918SOL    HW2 3654   2.296   5.591   0.361
  919SOL     OW 3655   5.780   2.357   5.032
  919SOL    HW1 3656   5.792   2.281   4.969
  919SOL    HW2 3657   5.706   2.417   4.998
  920SOL     OW 3658   2.606   4.916   2.205
  920SOL    HW1 3659   2.635   4.888   2.114
  920SOL    HW2 3660   2.534   4.855   2.237
  921SOL     OW 3661   4.642   5.071   5.068
  921SOL    HW1 3662   4.668   5.000   5.133
  921SOL    HW2 3663   4.707   5.146   5.073
  922SOL     OW 3664   3.364   2.967   3.751
  922SOL    HW1 3665   3.402   2.901   3.686
  922SOL    HW2 3666   3.425   3.046   3.758
  923SOL     OW 3667   2.216   3.651   5.266
  923SOL    HW1 3668   2.174   3.579   5.321
  923SOL    HW2 3669   2.157   3.673   5.189
  924SOL     OW 3670   0.185   3.969   2.811
  924SOL    HW1 3671   0.132   3.934   2.735
  924SOL    HW2 3672   0.228   3.893   2.860
  925SOL     OW 3673   6.676   1.841   0.051
  925SOL    HW1 3674   6.639   1.824   0.142
  925SOL    HW2 3675   6.731   1.924   0.052
  926SOL     OW 3676   1.072   1.589   2.073
  926SOL    HW1 3677   0.981   1.572   2.033
  926SOL    HW2 3678   1.138   1.604   2.000
  927SOL     OW 3679   5.939   3.733   3.564
  927SOL    HW1 3680   5.963   3.743   3.661
  927SOL    HW2 3681   5.963   3.642   3.533
  928SOL     OW 3682   2.708   4.811   6.495
  928SOL    HW1 3683   2.611   4.819   6.522
  928SOL    HW2 3684   2.735   4.893   6.445
  929SOL     OW 3685   6.832   1.256   5.252
  929SOL    HW1 3686   6.751   1.253   5.311
  929SOL    HW2 3687   6.885   1.338   5.273
  930SOL     OW 3688   5.653   4.979   6.016
  930SOL    HW1 3689   5.560   4.980   5.980
  930SOL    HW2 3690   5.650   4.978   6.116
  931SOL     OW 3691   6.573   2.054   3.214
  931SOL    HW1 3692   6.603   2.049   3.310
  931SOL    HW2 3693   6.639   2.107   3.161
  932SOL     OW 3694   3.970   0.551   3.241
  932SOL    HW1 3695   3.912   0.504   3.308
  932SOL    HW2 3696   3.988   0.644   3.274
  933SOL     OW 3697   1.113   5.348   1.210
  933SOL    HW1 3698   1.089   5.344   1.307
  933SOL    HW2 3699   1.191   5.288   1.193
  934SOL     OW 3700   1.459   4.016   0.263
  934SOL    HW1 3701   1.536   3.957   0.289
  934SOL    HW2 3702   1.386   3.959   0.226
  935SOL     OW 3703   5.948   3.295   4.168
  935SOL    HW1 3704   5.881   3.253   4.230
  935SOL    HW2 3705   5.916   3.385   4.141
  936SOL     OW 3706   1.661   6.891   5.982
  936SOL    HW1 3707   1.727   6.946   5.929
  936SOL    HW2 3708   1.643   6.936   6.069
  937SOL     OW 3709   4.253   1.604   5.919
  937SOL    HW1 3710   4.162   1.572   5.893
  937SOL    HW2 3711   4.251   1.637   6.014
  938SOL     OW 3712   5.643   5.650   4.032
  938SOL    HW1 3713   5.704   5.573   4.015
  938SOL    HW2 3714   5.560   5.617   4.077
  939SOL     OW 3715   0.159   6.622   5.900
  939SOL    HW1 3716   0.163   6.525   5.923
  939SOL    HW2 3717   0.187   6.676   5.980
  940SOL     OW 3718   1.955   4.842   0.366
  940SOL    HW1 3719   1.990   4.927   0.328
  940SOL    HW2 3720   1.969   4.768   0.300
  941SOL     OW 3721   3.534   0.432   0.016
  941SOL    HW1 3722   3.585   0.518   0.010
  941SOL    HW2 3723   3.518   0.397   6.943
  942SOL     OW 3724   0.013   5.355   0.371
  942SOL    HW1 3725   0.067   5.271   0.378
  942SOL    HW2 3726   0.075   5.434   0.367
  943SOL     OW 3727   3.070   5.382   2.273
  943SOL    HW1 3728   3.139   5.315   2.244
  943SOL    HW2 3729   3.069   5.388   2.373
  944SOL     OW 3730   6.352   6.876   4.182
  944SOL    HW1 3731   6.368   6.778   4.196
  944SOL    HW2 3732   6.423   6.914   4.124
  945SOL     OW 3733   0.945   5.585   0.240
  945SOL    HW1 3734   0.856   5.610   0.202
  945SOL    HW2 3735   0.931   5.538   0.328
  946SOL     OW 3736   4.898   2.893   3.714
  946SOL    HW1 3737   4.872   2.891   3.810
  946SOL    HW2 3738   4.873   2.806   3.671
  947SOL     OW 3739   4.017   3.918   4.108
  947SOL    HW1 3740   4.043   3.926   4.012
  947SOL    HW2 3741   3.931   3.966   4.123
  948SOL     OW 3742   4.248   0.837   2.604
  948SOL    HW1 3743   4.232   0.927   2.643
  948SOL    HW2 3744   4.161   0.798   2.573
  949SOL     OW 3745   2.434   6.803   6.371
  949SOL    HW1 3746   2.501   6.731   6.349
  949SOL    HW2 3747   2.472   6.863   6.442
  950SOL     OW 3748   6.821   0.310   1.801
  950SOL    HW1 3749   6.854   0.268   1.885
  950SOL    HW2 3750   6.894   0.308   1.732
  951SOL     OW 3751   2.085   6.257   3.314
  951SOL    HW1 3752   2.178   6.288   3.335
  951SOL    HW2 3753   2.029   6.336   3.287
  952SOL     OW 3754   2.848   1.515   2.427
  952SOL    HW1 3755   2.802   1.426   2.437
  952SOL    HW2 3756   2.779   1.587   2.421
  953SOL     OW 3757   6.540   4.456   5.767
  953SOL    HW1 3758   6.575   4.457   5.860
  953SOL    HW2 3759   6.471   4.527   5.756
  954SOL     OW 3760   4.241   5.806   2.631
  954SOL    HW1 3761   4.202   5.759   2.710
  954SOL    HW2 3762   4.337   5.780   2.621
  955SOL     OW 3763   1.519   4.866   6.660
  955SOL    HW1 3764   1.474   4.950   6.690
  955SOL    HW2 3765   1.484   4.840   6.569
  956SOL     OW 3766   5.408   0.738   1.327
  956SOL    HW1 3767   5.311   0.723   1.346
  956SOL    HW2 3768   5.418   0.773   1.233
  957SOL     OW 3769   5.746   0.785   3.394
  957SOL    HW1 3770   5.820   0.825   3.447
  957SOL    HW2 3771   5.675   0.752   3.457
  958SOL     OW 3772   5.277   6.922   1.914
  958SOL    HW1 3773   5.265   6.920   2.014
  958SOL    HW2 3774   5.206   6.980   1.874
  959SOL     OW 3775   4.266   6.965   4.330
  959SOL    HW1 3776   4.183   7.000   4.287
  959SOL    HW2 3777   4.306   0.016   4.389
  960SOL     OW 3778   1.758   7.003   6.618
  960SOL    HW1 3779   1.848   0.025   6.629
  960SOL    HW2 3780   1.768   6.912   6.576
  961SOL     OW 3781   3.202   6.955   3.167
  961SOL    HW1 3782   3.198   6.986   3.072
  961SOL    HW2 3783   3.134   6.883   3.181
  962SOL     OW 3784   6.236   0.744   5.079
  962SOL    HW1 3785   6.319   0.689   5.084
  962SOL    HW2 3786   6.184   0.733   5.164
  963SOL     OW 3787   5.562   3.405   0.981
  963SOL    HW1 3788   5.497   3.450   0.919
  963SOL    HW2 3789   5.516   3.329   1.027
  964SOL     OW 3790   4.700   4.691   5.477
  964SOL    HW1 3791   4.674   4.752   5.552
  964SOL    HW2 3792   4.661   4.600   5.492
  965SOL     OW 3793   5.889   2.616   3.521
  965SOL    HW1 3794   5.850   2.530   3.553
  965SOL    HW2 3795   5.986   2.620   3.545
  966SOL     OW 3796   4.638   1.486   4.692
  966SOL    HW1 3797   4.658   1.411   4.630
  966SOL    HW2 3798   4.543   1.480   4.722
  967SOL     OW 3799   4.802   3.724   6.085
  967SOL    HW1 3800   4.877   3.666   6.052
  967SOL    HW2 3801   4.743   3.748   6.009
  968SOL     OW 3802   3.619   0.434   1.635
  968SOL    HW1 3803   3.657   0.444   1.727
  968SOL    HW2 3804   3.523   0.461   1.634
  969SOL     OW 3805   3.151   3.809   6.613
  969SOL    HW1 3806   3.100   3.724   6.609
  969SOL    HW2 3807   3.114   3.874   6.548
  970SOL     OW 3808   5.507   6.911   6.194
  970SOL    HW1 3809   5.525   6.950   6.104
  970SOL    HW2 3810   5.521   6.980   6.265
  971SOL     OW 3811   5.504   4.042   3.234
  971SOL    HW1 3812   5.491   3.972   3.303
  971SOL    HW2 3813   5.526   4.129   3.278
  972SOL     OW 3814   0.101   3.052   0.544
  972SOL    HW1 3815   0.064   3.127   0.489
  972SOL    HW2 3816   0.085   2.965   0.497
  973SOL     OW 3817   0.118   3.129   6.387
  973SOL    HW1 3818   0.130   3.084   6.298
  973SOL    HW2 3819   0.137   3.226   6.377
  974SOL     OW 3820   6.888   5.051   2.920
  974SOL    HW1 3821   6.837   5.016   2.998
  974SOL    HW2 3822   6.972   5.095   2.953
  975SOL     OW 3823   2.932   0.657   2.033
  975SOL    HW1 3824   2.933   0.751   1.999
  975SOL    HW2 3825   2.837   0.626   2.042
  976SOL     OW 3826   6.931   3.216   3.064
  976SOL    HW1 3827   6.943   3.125   3.102
  976SOL    HW2 3828   6.835   3.229   3.039
  977SOL     OW 3829   6.679   0.776   2.452
  977SOL    HW1 3830   6.601   0.763   2.513
  977SOL    HW2 3831   6.660   0.732   2.364
  978SOL     OW 3832   5.179   3.353   1.667
  978SOL    HW1 3833   5.093   3.370   1.619
  978SOL    HW2 3834   5.217   3.266   1.637
  979SOL     OW 3835   0.749   3.951   6.931
  979SOL    HW1 3836   0.672   4.001   6.971
  979SOL    HW2 3837   0.719   3.904   6.849
  980SOL     OW 3838   3.421   1.205   4.412
  980SOL    HW1 3839   3.503   1.157   4.441
  980SOL    HW2 3840   3.423   1.300   4.446
  981SOL     OW 3841   6.966   6.864   5.347
  981SOL    HW1 3842   7.005   6.869   5.439
  981SOL    HW2 3843   6.910   6.946   5.330
  982SOL     OW 3844   6.287   1.219   5.438
  982SOL    HW1 3845   6.352   1.142   5.438
  982SOL    HW2 3846   6.264   1.242   5.533
  983SOL     OW 3847   0.366   4.757   4.139
  983SOL    HW1 3848   0.365   4.856   4.125
  983SOL    HW2 3849   0.360   4.736   4.236
  984SOL     OW 3850   0.228   3.427   3.617
  984SOL    HW1 3851   0.148   3.374   3.592
  984SOL    HW2 3852   0.215   3.468   3.707
  985SOL     OW 3853   6.609   4.546   5.351
  985SOL    HW1 3854   6.661   4.462   5.335
  985SOL    HW2 3855   6.638   4.588   5.437
  986SOL     OW 3856   5.187   5.073   1.430
  986SOL    HW1 3857   5.178   5.172   1.423
  986SOL    HW2 3858   5.262   5.050   1.491
  987SOL     OW 3859   4.713   4.319   4.431
  987SOL    HW1 3860   4.642   4.324   4.360
  987SOL    HW2 3861   4.779   4.249   4.407
  988SOL     OW 3862   2.585   4.061   1.700
  988SOL    HW1 3863   2.637   4.111   1.631
  988SOL    HW2 3864   2.631   3.974   1.720
  989SOL     OW 3865   1.058   1.358   0.615
  989SOL    HW1 3866   1.044   1.447   0.657
  989SOL    HW2 3867   1.059   1.367   0.516
  990SOL     OW 3868   3.899   6.811   3.955
  990SOL    HW1 3869   3.919   6.722   3.915
  990SOL    HW2 3870   3.912   6.882   3.885
  991SOL     OW 3871   6.893   5.172   3.340
  991SOL    HW1 3872   6.910   5.120   3.424
  991SOL    HW2 3873   6.857   5.262   3.364
  992SOL     OW 3874   0.052   2.307   0.305
  992SOL    HW1 3875   0.062   2.218   0.261
  992SOL    HW2 3876   0.142   2.347   0.322
  993SOL     OW 3877   1.482   5.114   6.788
  993SOL    HW1 3878   1.472   5.168   6.705
  993SOL    HW2 3879   1.502   5.175   6.865
  994SOL     OW 3880   3.530   6.250   6.857
  994SOL    HW1 3881   3.452   6.194   6.884
  994SOL    HW2 3882   3.604   6.192   6.826
  995SOL     OW 3883   5.996   4.221   5.888
  995SOL    HW1 3884   6.067   4.256   5.827
  995SOL    HW2 3885   5.913   4.276   5.878
  996SOL     OW 3886   3.471   5.843   4.886
  996SOL    HW1 3887   3.419   5.903   4.824
  996SOL    HW2 3888   3.563   5.831   4.851
  997SOL     OW 3889   1.683   6.243   3.030
  997SOL    HW1 3890   1.665   6.336   2.997
  997SOL    HW2 3891   1.667   6.239   3.129
  998SOL     OW 3892   5.594   0.748   6.260
  998SOL    HW1 3893   5.632   0.819   6.319
  998SOL    HW2 3894   5.502   0.725   6.291
  999SOL     OW 3895   4.795   4.045   2.467
  999SOL    HW1 3896   4.756   4.123   2.516
  999SOL    HW2 3897   4.736   4.022   2.389
 1000SOL     OW 3898   5.008   2.159   1.363
 1000SOL    HW1 3899   5.013   2.087   1.431
 1000SOL    HW2 3900   4.916   2.199   1.363
 1001SOL     OW 3901   3.027   0.003   2.360
 1001SOL    HW1 3902   2.948   0.063   2.346
 1001SOL    HW2 3903   3.009   6.934   2.315
 1002SOL     OW 3904   5.189   2.817   0.688
 1002SOL    HW1 3905   5.279   2.790   0.651
 1002SOL    HW2 3906   5.201   2.891   0.754
 1003SOL     OW 3907   0.690   0.687   3.197
 1003SOL    HW1 3908   0.722   0.769   3.245
 1003SOL    HW2 3909   0.717   0.692   3.100
 1004SOL     OW 3910   5.415   1.664   3.825
 1004SOL    HW1 3911   5.495   1.669   3.766
 1004SOL    HW2 3912   5.409   1.747   3.880
 1005SOL     OW 3913   1.299   4.712   2.121
 1005SOL    HW1 3914   1.250   4.718   2.208
 1005SOL    HW2 3915   1.397   4.709   2.138
 1006SOL     OW 3916   2.538   3.797   0.702
 1006SOL    HW1 3917   2.564   3.739   0.779
 1006SOL    HW2 3918   2.610   3.797   0.633
 1007SOL     OW 3919   4.675   0.940   6.711
 1007SOL    HW1 3920   4.627   1.028   6.721
 1007SOL    HW2 3921   4.681   0.916   6.614
 1008SOL     OW 3922   0.501   4.874   5.664
 1008SOL    HW1 3923   0.523   4.954   5.607
 1008SOL    HW2 3924   0.482   4.904   5.757
 1009SOL     OW 3925   0.305   5.469   6.047
 1009SOL    HW1 3926   0.297   5.478   5.948
 1009SOL    HW2 3927   0.338   5.555   6.086
 1010SOL     OW 3928   2.869   2.870   0.962
 1010SOL    HW1 3929   2.900   2.781   0.930
 1010SOL    HW2 3930   2.892   2.940   0.895
 1011SOL     OW 3931   6.951   5.425   2.178
 1011SOL    HW1 3932   0.001   5.364   2.139
 1011SOL    HW2 3933   6.969   5.519   2.148
 1012SOL     OW 3934   4.624   6.945   3.458
 1012SOL    HW1 3935   4.649   6.895   3.375
 1012SOL    HW2 3936   4.577   0.010   3.433
 1013SOL     OW 3937   0.222   6.316   6.165
 1013SOL    HW1 3938   0.201   6.254   6.240
 1013SOL    HW2 3939   0.322   6.325   6.157
 1014SOL     OW 3940   1.210   4.462   5.484
 1014SOL    HW1 3941   1.224   4.431   5.390
 1014SOL    HW2 3942   1.135   4.527   5.487
 1015SOL     OW 3943   2.994   6.293   6.880
 1015SOL    HW1 3944   2.962   6.286   6.785
 1015SOL    HW2 3945   2.991   6.388   6.909
 1016SOL     OW 3946   6.060   4.330   1.901
 1016SOL    HW1 3947   6.000   4.340   1.980
 1016SOL    HW2 3948   6.122   4.252   1.917
 1017SOL     OW 3949   1.998   1.614   1.935
 1017SOL    HW1 3950   2.003   1.534   1.875
 1017SOL    HW2 3951   1.953   1.689   1.886
 1018SOL     OW 3952   6.265   6.419   4.105
 1018SOL    HW1 3953   6.307   6.417   4.196
 1018SOL    HW2 3954   6.286   6.335   4.057
 1019SOL     OW 3955   6.251   4.460   0.884
 1019SOL    HW1 3956   6.272   4.545   0.931
 1019SOL    HW2 3957   6.152   4.453   0.869
 1020SOL     OW 3958   6.037   1.328   1.101
 1020SOL    HW1 3959   6.091   1.348   1.019
 1020SOL    HW2 3960   6.059   1.235   1.132
 1021SOL     OW 3961   0.356   6.649   0.854
 1021SOL    HW1 3962   0.420   6.709   0.806
 1021SOL    HW2 3963   0.400   6.561   0.873
 1022SOL     OW 3964   2.870   5.706   6.966
 1022SOL    HW1 3965   2.941   5.773   6.944
 1022SOL    HW2 3966   2.896   5.617   6.928
 1023SOL     OW 3967   0.788   0.978   3.219
 1023SOL    HW1 3968   0.813   1.000   3.125
 1023SOL    HW2 3969   0.760   1.061   3.267
 1024SOL     OW 3970   1.803   1.525   4.613
 1024SOL    HW1 3971   1.776   1.535   4.517
 1024SOL    HW2 3972   1.786   1.611   4.662
 1025SOL     OW 3973   4.575   3.855   0.367
 1025SOL    HW1 3974   4.517   3.841   0.447
 1025SOL    HW2 3975   4.521   3.895   0.293
 1026SOL     OW 3976   3.109   2.417   1.390
 1026SOL    HW1 3977   3.164   2.351   1.339
 1026SOL    HW2 3978   3.151   2.435   1.478
 1027SOL     OW 3979   0.717   6.591   0.877
 1027SOL    HW1 3980   0.666   6.542   0.807
 1027SOL    HW2 3981   0.809   6.554   0.884
 1028SOL     OW 3982   1.393   6.261   2.093
 1028SOL    HW1 3983   1.390   6.199   2.172
 1028SOL    HW2 3984   1.317   6.240   2.032
 1029SOL     OW 3985   0.593   1.082   5.881
 1029SOL    HW1 3986   0.680   1.059   5.924
 1029SOL    HW2 3987   0.609   1.144   5.805
 1030SOL     OW 3988   3.404   3.192   1.511
 1030SOL    HW1 3989   3.431   3.108   1.559
 1030SOL    HW2 3990   3.486   3.239   1.478
 1031SOL     OW 3991   4.072   3.065   0.834
 1031SOL    HW1 3992   4.140   3.003   0.794
 1031SOL    HW2 3993   3.985   3.055   0.786
 1032SOL     OW 3994   2.255   1.831   6.320
 1032SOL    HW1 3995   2.168   1.840   6.368
 1032SOL    HW2 3996   2.327   1.808   6.386
 1033SOL     OW 3997   0.644   6.651   1.917
 1033SOL    HW1 3998   0.638   6.557   1.951
 1033SOL    HW2 3999   0.620   6.714   1.991
 1034SOL     OW 4000   3.155   0.403   4.265
 1034SOL    HW1 4001   3.056   0.391   4.272
 1034SOL    HW2 4002   3.174   0.485   4.211
 1035SOL     OW 4003   1.551   1.820   6.382
 1035SOL    HW1 4004   1.619   1.797   6.452
 1035SOL    HW2 4005   1.524   1.736   6.334
 1036SOL     OW 4006   5.214   1.578   1.077
 1036SOL    HW1 4007   5.255   1.640   1.143
 1036SOL    HW2 4008   5.122   1.609   1.055
 1037SOL     OW 4009   1.307   2.885   1.879
 1037SOL    HW1 4010   1.264   2.958   1.932
 1037SOL    HW2 4011   1.387   2.921   1.831
 1038SOL     OW 4012   2.729   6.075   6.786
 1038SOL    HW1 4013   2.798   6.050   6.853
 1038SOL    HW2 4014   2.679   5.993   6.756
 1039SOL     OW 4015   3.421   2.876   3.143
 1039SOL    HW1 4016   3.367   2.931   3.207
 1039SOL    HW2 4017   3.373   2.873   3.055
 1040SOL     OW 4018   3.699   1.823   3.328
 1040SOL    HW1 4019   3.719   1.736   3.282
 1040SOL    HW2 4020   3.608   1.818   3.369
 1041SOL     OW 4021   6.543   5.668   6.245
 1041SOL    HW1 4022   6.468   5.695   6.185
 1041SOL    HW2 4023   6.543   5.725   6.327
 1042SOL     OW 4024   5.231   4.819   2.871
 1042SOL    HW1 4025   5.277   4.868   2.796
 1042SOL    HW2 4026   5.283   4.737   2.893
 1043SOL     OW 4027   3.179   2.002   3.629
 1043SOL    HW1 4028   3.161   2.079   3.568
 1043SOL    HW2 4029   3.172   2.032   3.724
 1044SOL     OW 4030   5.480   4.783   1.636
 1044SOL    HW1 4031   5.517   4.747   1.550
 1044SOL    HW2 4032   5.485   4.713   1.707
 1045SOL     OW 4033   2.193   0.693   2.443
 1045SOL    HW1 4034   2.099   0.704   2.409
 1045SOL    HW2 4035   2.254   0.754   2.392
 1046SOL     OW 4036   3.427   1.252   0.858
 1046SOL    HW1 4037   3.358   1.229   0.927
 1046SOL    HW2 4038   3.517   1.253   0.901
 1047SOL     OW 4039   3.745   6.113   4.057
 1047SOL    HW1 4040   3.845   6.113   4.059
 1047SOL    HW2 4041   3.712   6.019   4.066
 1048SOL     OW 4042   1.613   6.088   2.491
 1048SOL    HW1 4043   1.555   6.144   2.550
 1048SOL    HW2 4044   1.638   6.140   2.410
 1049SOL     OW 4045   4.084   5.997   4.942
 1049SOL    HW1 4046   4.152   6.061   4.977
 1049SOL    HW2 4047   4.127   5.909   4.923
 1050SOL     OW 4048   3.217   5.536   2.973
 1050SOL    HW1 4049   3.250   5.463   3.035
 1050SOL    HW2 4050   3.118   5.534   2.970
 1051SOL     OW 4051   0.982   0.307   6.392
 1051SOL    HW1 4052   0.964   0.365   6.312
 1051SOL    HW2 4053   0.915   0.233   6.395
 1052SOL     OW 4054   3.124   1.061   0.231
 1052SOL    HW1 4055   3.120   1.135   0.298
 1052SOL    HW2 4056   3.198   1.079   0.166
 1053SOL     OW 4057   5.398   2.593   3.420
 1053SOL    HW1 4058   5.309   2.634   3.436
 1053SOL    HW2 4059   5.392   2.494   3.432
 1054SOL     OW 4060   3.318   4.724   6.253
 1054SOL    HW1 4061   3.415   4.737   6.236
 1054SOL    HW2 4062   3.265   4.760   6.177
 1055SOL     OW 4063   5.196   5.924   6.442
 1055SOL    HW1 4064   5.155   5.883   6.524
 1055SOL    HW2 4065   5.126   5.975   6.392
 1056SOL     OW 4066   2.946   3.699   6.914
 1056SOL    HW1 4067   2.863   3.653   6.944
 1056SOL    HW2 4068   2.922   3.780   6.860
 1057SOL     OW 4069   2.853   2.008   0.939
 1057SOL    HW1 4070   2.823   1.926   0.988
 1057SOL    HW2 4071   2.932   1.986   0.883
 1058SOL     OW 4072   2.891   2.257   2.626
 1058SOL    HW1 4073   2.971   2.233   2.681
 1058SOL    HW2 4074   2.860   2.349   2.650
 1059SOL     OW 4075   2.546   6.996   2.004
 1059SOL    HW1 4076   2.489   6.936   2.061
 1059SOL    HW2 4077   2.629   6.946   1.976
 1060SOL     OW 4078   5.940   6.475   5.040
 1060SOL    HW1 4079   5.919   6.497   5.136
 1060SOL    HW2 4080   5.883   6.399   5.010
 1061SOL     OW 4081   0.194   3.822   6.564
 1061SOL    HW1 4082   0.206   3.723   6.551
 1061SOL    HW2 4083   0.100   3.840   6.593
 1062SOL     OW 4084   3.707   6.826   4.901
 1062SOL    HW1 4085   3.752   6.738   4.914
 1062SOL    HW2 4086   3.611   6.811   4.874
 1063SOL     OW 4087   3.156   6.960   5.459
 1063SOL    HW1 4088   3.210   6.996   5.535
 1063SOL    HW2 4089   3.070   7.011   5.452
 1064SOL     OW 4090   1.777   3.670   0.455
 1064SOL    HW1 4091   1.762   3.624   0.368
 1064SOL    HW2 4092   1.799   3.766   0.439
 1065SOL     OW 4093   4.677   0.892   4.650
 1065SOL    HW1 4094   4.775   0.887   4.630
 1065SOL    HW2 4095   4.628   0.823   4.596
 1066SOL     OW 4096   5.419   6.640   1.896
 1066SOL    HW1 4097   5.499   6.584   1.875
 1066SOL    HW2 4098   5.391   6.624   1.991
 1067SOL     OW 4099   2.789   2.038   0.102
 1067SOL    HW1 4100   2.854   2.006   0.034
 1067SOL    HW2 4101   2.696   2.009   0.076
 1068SOL     OW 4102   6.724   3.328   1.680
 1068SOL    HW1 4103   6.641   3.275   1.697
 1068SOL    HW2 4104   6.701   3.425   1.671
 1069SOL     OW 4105   6.479   3.661   1.746
 1069SOL    HW1 4106   6.535   3.739   1.775
 1069SOL    HW2 4107   6.505   3.581   1.800
 1070SOL     OW 4108   1.269   6.728   2.171
 1070SOL    HW1 4109   1.350   6.769   2.127
 1070SOL    HW2 4110   1.293   6.638   2.208
 1071SOL     OW 4111   0.217   3.280   5.552
 1071SOL    HW1 4112   0.295   3.308   5.495
 1071SOL    HW2 4113   0.250   3.257   5.644
 1072SOL     OW 4114   2.016   1.424   2.123
 1072SOL    HW1 4115   2.023   1.440   2.222
 1072SOL    HW2 4116   1.995   1.510   2.077
 1073SOL     OW 4117   4.337   2.327   3.517
 1073SOL    HW1 4118   4.254   2.310   3.465
 1073SOL    HW2 4119   4.400   2.250   3.506
 1074SOL     OW 4120   2.674   4.562   1.704
 1074SOL    HW1 4121   2.732   4.502   1.760
 1074SOL    HW2 4122   2.720   4.649   1.690
 1075SOL     OW 4123   5.991   4.064   5.346
 1075SOL    HW1 4124   6.084   4.028   5.341
 1075SOL    HW2 4125   5.934   4.019   5.277
 1076SOL     OW 4126   2.242   4.376   4.971
 1076SOL    HW1 4127   2.333   4.414   4.958
 1076SOL    HW2 4128   2.249   4.286   5.013
 1077SOL     OW 4129   0.426   0.052   0.176
 1077SOL    HW1 4130   0.447   0.003   0.091
 1077SOL    HW2 4131   0.506   0.103   0.206
 1078SOL     OW 4132   6.219   6.957   4.413
 1078SOL    HW1 4133   6.119   6.962   4.415
 1078SOL    HW2 4134   6.250   6.928   4.323
 1079SOL     OW 4135   0.671   0.035   2.058
 1079SOL    HW1 4136   0.668   6.974   1.997
 1079SOL    HW2 4137   0.687   0.004   2.151
 1080SOL     OW 4138   3.094   5.944   6.208
 1080SOL    HW1 4139   3.086   6.028   6.153
 1080SOL    HW2 4140   3.186   5.907   6.198
 1081SOL     OW 4141   6.552   5.627   4.245
 1081SOL    HW1 4142   6.578   5.533   4.222
 1081SOL    HW2 4143   6.505   5.669   4.168
 1082SOL     OW 4144   4.615   6.273   6.383
 1082SOL    HW1 4145   4.688   6.208   6.365
 1082SOL    HW2 4146   4.653   6.366   6.388
 1083SOL     OW 4147   5.336   4.119   1.427
 1083SOL    HW1 4148   5.257   4.125   1.488
 1083SOL    HW2 4149   5.367   4.024   1.421
 1084SOL     OW 4150   6.482   0.604   5.055
 1084SOL    HW1 4151   6.505   0.567   5.145
 1084SOL    HW2 4152   6.429   0.536   5.004
 1085SOL     OW 4153   1.150   3.929   4.141
 1085SOL    HW1 4154   1.170   4.024   4.165
 1085SOL    HW2 4155   1.188   3.910   4.051
 1086SOL     OW 4156   5.915   5.452   0.785
 1086SOL    HW1 4157   5.820   5.446   0.814
 1086SOL    HW2 4158   5.939   5.547   0.768
 1087SOL     OW 4159   3.622   0.554   5.350
 1087SOL    HW1 4160   3.709   0.602   5.347
 1087SOL    HW2 4161   3.612   0.497   5.269
 1088SOL     OW 4162   6.737   5.006   3.162
 1088SOL    HW1 4163   6.792   4.928   3.193
 1088SOL    HW2 4164   6.776   5.091   3.197
 1089SOL     OW 4165   6.557   4.675   4.525
 1089SOL    HW1 4166   6.535   4.734   4.603
 1089SOL    HW2 4167   6.576   4.731   4.445
 1090SOL     OW 4168   5.388   2.036   5.087
 1090SOL    HW1 4169   5.464   1.974   5.109
 1090SOL    HW2 4170   5.317   1.985   5.039
 1091SOL     OW 4171   2.358   2.483   2.922
 1091SOL    HW1 4172   2.425   2.473   2.996
 1091SOL    HW2 4173   2.396   2.542   2.851
 1092SOL     OW 4174   0.516   5.582   1.212
 1092SOL    HW1 4175   0.548   5.515   1.280
 1092SOL    HW2 4176   0.474   5.533   1.136
 1093SOL     OW 4177   1.849   0.009   2.527
 1093SOL    HW1 4178   1.933   0.058   2.553
 1093SOL    HW2 4179   1.775   0.074   2.511
 1094SOL     OW 4180   0.725   0.331   3.132
 1094SOL    HW1 4181   0.710   0.389   3.212
 1094SOL    HW2 4182   0.823   0.314   3.121
 1095SOL     OW 4183   5.165   3.318   0.525
 1095SOL    HW1 4184   5.212   3.403   0.547
 1095SOL    HW2 4185   5.231   3.253   0.487
 1096SOL     OW 4186   2.670   6.005   1.343
 1096SOL    HW1 4187   2.678   5.906   1.334
 1096SOL    HW2 4188   2.583   6.028   1.388
 1097SOL     OW 4189   3.443   5.351   4.439
 1097SOL    HW1 4190   3.526   5.404   4.462
 1097SOL    HW2 4191   3.398   5.321   4.523
 1098SOL     OW 4192   6.051   4.734   0.777
 1098SOL    HW1 4193   6.133   4.728   0.835
 1098SOL    HW2 4194   6.064   4.680   0.694
 1099SOL     OW 4195   4.496   6.732   5.667
 1099SOL    HW1 4196   4.512   6.726   5.766
 1099SOL    HW2 4197   4.569   6.683   5.619
 1100SOL     OW 4198   3.373   1.837   4.304
 1100SOL    HW1 4199   3.275   1.831   4.326
 1100SOL    HW2 4200   3.407   1.927   4.330
 1101SOL     OW 4201   6.067   3.020   6.403
 1101SOL    HW1 4202   6.164   3.018   6.377
 1101SOL    HW2 4203   6.051   2.953   6.476
 1102SOL     OW 4204   2.476   1.398   3.434
 1102SOL    HW1 4205   2.435   1.310   3.410
 1102SOL    HW2 4206   2.468   1.461   3.357
 1103SOL     OW 4207   2.703   6.677   0.404
 1103SOL    HW1 4208   2.797   6.645   0.400
 1103SOL    HW2 4209   2.647   6.629   0.337
 1104SOL     OW 4210   0.614   3.037   4.095
 1104SOL    HW1 4211   0.601   2.992   4.007
 1104SOL    HW2 4212   0.711   3.049   4.112
 1105SOL     OW 4213   5.439   1.164   5.628
 1105SOL    HW1 4214   5.363   1.204   5.577
 1105SOL    HW2 4215   5.414   1.156   5.725
 1106SOL     OW 4216   0.039   1.735   0.591
 1106SOL    HW1 4217   0.114   1.670   0.608
 1106SOL    HW2 4218   0.032   1.752   0.493
 1107SOL     OW 4219   0.962   1.177   6.605
 1107SOL    HW1 4220   0.885   1.113   6.606
 1107SOL    HW2 4221   0.963   1.230   6.689
 1108SOL     OW 4222   2.576   6.707   3.397
 1108SOL    HW1 4223   2.676   6.717   3.400
 1108SOL    HW2 4224   2.551   6.616   3.429
 1109SOL     OW 4225   4.509   2.185   4.696
 1109SOL    HW1 4226   4.482   2.095   4.660
 1109SOL    HW2 4227   4.429   2.245   4.698
 1110SOL     OW 4228   2.905   0.772   2.331
 1110SOL    HW1 4229   2.816   0.800   2.368
 1110SOL    HW2 4230   2.892   0.694   2.270
 1111SOL     OW 4231   5.543   4.192   6.452
 1111SOL    HW1 4232   5.460   4.137   6.460
 1111SOL    HW2 4233   5.617   4.149   6.504
 1112SOL     OW 4234   5.209   0.336   2.339
 1112SOL    HW1 4235   5.291   0.393   2.337
 1112SOL    HW2 4236   5.220   0.265   2.410
 1113SOL     OW 4237   5.555   4.618   2.755
 1113SOL    HW1 4238   5.572   4.663   2.668
 1113SOL    HW2 4239   5.583   4.522   2.749
 1114SOL     OW 4240   3.734   3.845   5.272
 1114SOL    HW1 4241   3.782   3.856   5.360
 1114SOL    HW2 4242   3.784   3.779   5.216
 1115SOL     OW 4243   2.998   4.517   5.817
 1115SOL    HW1 4244   3.088   4.477   5.831
 1115SOL    HW2 4245   2.981   4.529   5.720
 1116SOL     OW 4246   4.436   6.778   6.609
 1116SOL    HW1 4247   4.426   6.785   6.510
 1116SOL    HW2 4248   4.469   6.687   6.634
 1117SOL     OW 4249   1.522   2.527   1.395
 1117SOL    HW1 4250   1.424   2.538   1.412
 1117SOL    HW2 4251   1.560   2.613   1.361
 1118SOL     OW 4252   3.881   4.948   0.681
 1118SOL    HW1 4253   3.874   5.008   0.601
 1118SOL    HW2 4254   3.814   4.976   0.750
 1119SOL     OW 4255   2.909   4.996   4.330
 1119SOL    HW1 4256   2.879   4.917   4.383
 1119SOL    HW2 4257   2.910   5.077   4.389
 1120SOL     OW 4258   6.632   4.182   0.853
 1120SOL    HW1 4259   6.603   4.107   0.793
 1120SOL    HW2 4260   6.721   4.159   0.893
 1121SOL     OW 4261   6.651   4.603   4.109
 1121SOL    HW1 4262   6.691   4.622   4.019
 1121SOL    HW2 4263   6.712   4.638   4.180
 1122SOL     OW 4264   5.722   2.706   1.779
 1122SOL    HW1 4265   5.736   2.620   1.828
 1122SOL    HW2 4266   5.639   2.699   1.723
 1123SOL     OW 4267   4.083   1.218   2.874
 1123SOL    HW1 4268   4.062   1.195   2.969
 1123SOL    HW2 4269   3.997   1.226   2.822
 1124SOL     OW 4270   2.375   2.668   4.341
 1124SOL    HW1 4271   2.354   2.765   4.358
 1124SOL    HW2 4272   2.318   2.634   4.266
 1125SOL     OW 4273   2.075   4.051   3.692
 1125SOL    HW1 4274   2.126   4.063   3.776
 1125SOL    HW2 4275   2.107   3.968   3.645
 1126SOL     OW 4276   3.722   5.270   4.946
 1126SOL    HW1 4277   3.680   5.189   4.987
 1126SOL    HW2 4278   3.651   5.337   4.925
 1127SOL     OW 4279   6.165   0.233   2.410
 1127SOL    HW1 4280   6.172   0.326   2.371
 1127SOL    HW2 4281   6.256   0.198   2.431
 1128SOL     OW 4282   5.041   1.594   4.152
 1128SOL    HW1 4283   5.033   1.594   4.251
 1128SOL    HW2 4284   5.128   1.553   4.125
 1129SOL     OW 4285   1.882   0.832   0.709
 1129SOL    HW1 4286   1.829   0.768   0.765
 1129SOL    HW2 4287   1.919   0.784   0.629
 1130SOL     OW 4288   1.897   4.474   1.840
 1130SOL    HW1 4289   1.894   4.377   1.816
 1130SOL    HW2 4290   1.940   4.526   1.765
 1131SOL     OW 4291   1.121   5.360   4.498
 1131SOL    HW1 4292   1.115   5.460   4.489
 1131SOL    HW2 4293   1.126   5.319   4.407
 1132SOL     OW 4294   2.150   1.508   2.367
 1132SOL    HW1 4295   2.125   1.418   2.401
 1132SOL    HW2 4296   2.249   1.511   2.352
 1133SOL     OW 4297   0.756   0.019   5.450
 1133SOL    HW1 4298   0.819   0.017   5.528
 1133SOL    HW2 4299   0.770   0.103   5.398
 1134SOL     OW 4300   3.423   6.958   1.598
 1134SOL    HW1 4301   3.485   6.916   1.665
 1134SOL    HW2 4302   3.429   0.038   1.604
 1135SOL     OW 4303   2.005   5.491   3.268
 1135SOL    HW1 4304   1.989   5.392   3.276
 1135SOL    HW2 4305   1.919   5.540   3.279
 1136SOL     OW 4306   1.641   5.489   1.550
 1136SOL    HW1 4307   1.641   5.513   1.647
 1136SOL    HW2 4308   1.598   5.562   1.498
 1137SOL     OW 4309   0.829   5.284   5.518
 1137SOL    HW1 4310   0.762   5.352   5.548
 1137SOL    HW2 4311   0.882   5.252   5.597
 1138SOL     OW 4312   1.808   3.055   4.739
 1138SOL    HW1 4313   1.883   2.994   4.712
 1138SOL    HW2 4314   1.771   3.100   4.658
 1139SOL     OW 4315   2.879   5.569   4.730
 1139SOL    HW1 4316   2.862   5.619   4.645
 1139SOL    HW2 4317   2.879   5.471   4.711
 1140SOL     OW 4318   1.637   1.574   0.660
 1140SOL    HW1 4319   1.665   1.484   0.695
 1140SOL    HW2 4320   1.650   1.577   0.561
 1141SOL     OW 4321   6.678   4.498   6.003
 1141SOL    HW1 4322   6.734   4.561   5.951
 1141SOL    HW2 4323   6.670   4.530   6.098
 1142SOL     OW 4324   2.261   6.242   2.215
 1142SOL    HW1 4325   2.315   6.162   2.187
 1142SOL    HW2 4326   2.165   6.217   2.220
 1143SOL     OW 4327   1.233   3.824   1.755
 1143SOL    HW1 4328   1.201   3.735   1.787
 1143SOL    HW2 4329   1.181   3.897   1.799
 1144SOL     OW 4330   5.671   4.589   1.213
 1144SOL    HW1 4331   5.719   4.641   1.284
 1144SOL    HW2 4332   5.738   4.553   1.148
 1145SOL     OW 4333   6.141   0.775   1.103
 1145SOL    HW1 4334   6.187   0.827   1.030
 1145SOL    HW2 4335   6.073   0.714   1.063
 1146SOL     OW 4336   0.674   1.218   1.251
 1146SOL    HW1 4337   0.695   1.150   1.181
 1146SOL    HW2 4338   0.595   1.187   1.305
 1147SOL     OW 4339   2.769   6.601   1.572
 1147SOL    HW1 4340   2.775   6.695   1.605
 1147SOL    HW2 4341   2.694   6.554   1.617
 1148SOL     OW 4342   4.763   5.359   3.439
 1148SOL    HW1 4343   4.802   5.301   3.367
 1148SOL    HW2 4344   4.808   5.448   3.436
 1149SOL     OW 4345   4.561   3.230   1.433
 1149SOL    HW1 4346   4.539   3.248   1.337
 1149SOL    HW2 4347   4.650   3.185   1.438
 1150SOL     OW 4348   1.762   4.305   0.303
 1150SOL    HW1 4349   1.847   4.294   0.354
 1150SOL    HW2 4350   1.745   4.222   0.250
 1151SOL     OW 4351   5.979   5.757   3.865
 1151SOL    HW1 4352   5.925   5.819   3.806
 1151SOL    HW2 4353   5.978   5.665   3.825
 1152SOL     OW 4354   3.940   6.322   6.837
 1152SOL    HW1 4355   4.010   6.268   6.885
 1152SOL    HW2 4356   3.868   6.261   6.803
 1153SOL     OW 4357   5.788   0.150   1.481
 1153SOL    HW1 4358   5.802   0.239   1.438
 1153SOL    HW2 4359   5.796   0.078   1.411
 1154SOL     OW 4360   1.962   2.692   1.166
 1154SOL    HW1 4361   1.911   2.757   1.111
 1154SOL    HW2 4362   2.053   2.679   1.127
 1155SOL     OW 4363   2.865   6.873   4.477
 1155SOL    HW1 4364   2.905   6.870   4.385
 1155SOL    HW2 4365   2.928   6.917   4.540
 1156SOL     OW 4366   2.765   1.816   3.771
 1156SOL    HW1 4367   2.722   1.906   3.779
 1156SOL    HW2 4368   2.703   1.746   3.807
 1157SOL     OW 4369   3.691   0.498   6.552
 1157SOL    HW1 4370   3.647   0.449   6.477
 1157SOL    HW2 4371   3.759   0.438   6.595
 1158SOL     OW 4372   5.877   4.807   3.285
 1158SOL    HW1 4373   5.825   4.723   3.271
 1158SOL    HW2 4374   5.944   4.819   3.212
 1159SOL     OW 4375   6.401   5.714   1.354
 1159SOL    HW1 4376   6.433   5.684   1.264
 1159SOL    HW2 4377   6.321   5.773   1.342
 1160SOL     OW 4378   5.404   1.637   0.692
 1160SOL    HW1 4379   5.388   1.597   0.602
 1160SOL    HW2 4380   5.340   1.713   0.706
 1161SOL     OW 4381   0.748   5.133   0.767
 1161SOL    HW1 4382   0.830   5.120   0.823
 1161SOL    HW2 4383   0.703   5.044   0.755
 1162SOL     OW 4384   2.740   2.293   4.495
 1162SOL    HW1 4385   2.745   2.360   4.422
 1162SOL    HW2 4386   2.650   2.249   4.495
 1163SOL     OW 4387   5.602   3.307   1.880
 1163SOL    HW1 4388   5.578   3.230   1.820
 1163SOL    HW2 4389   5.701   3.308   1.894
 1164SOL     OW 4390   4.586   1.995   5.391
 1164SOL    HW1 4391   4.527   1.991   5.311
 1164SOL    HW2 4392   4.674   2.035   5.365
 1165SOL     OW 4393   4.216   6.419   3.659
 1165SOL    HW1 4394   4.226   6.394   3.562
 1165SOL    HW2 4395   4.186   6.514   3.665
 1166SOL     OW 4396   2.758   4.655   6.765
 1166SOL    HW1 4397   2.761   4.711   6.682
 1166SOL    HW2 4398   2.677   4.679   6.818
 1167SOL     OW 4399   5.774   4.698   2.436
 1167SOL    HW1 4400   5.761   4.654   2.347
 1167SOL    HW2 4401   5.686   4.728   2.472
 1168SOL     OW 4402   6.308   1.071   3.653
 1168SOL    HW1 4403   6.270   1.142   3.713
 1168SOL    HW2 4404   6.290   0.981   3.692
 1169SOL     OW 4405   5.657   1.295   5.532
 1169SOL    HW1 4406   5.581   1.246   5.575
 1169SOL    HW2 4407   5.741   1.243   5.546
 1170SOL     OW 4408   4.804   6.377   4.376
 1170SOL    HW1 4409   4.734   6.410   4.313
 1170SOL    HW2 4410   4.794   6.278   4.388
 1171SOL     OW 4411   0.808   0.031   1.083
 1171SOL    HW1 4412   0.754   6.967   1.071
 1171SOL    HW2 4413   0.863   0.048   1.002
 1172SOL     OW 4414   6.830   3.393   6.527
 1172SOL    HW1 4415   6.822   3.399   6.427
 1172SOL    HW2 4416   6.808   3.300   6.556
 1173SOL     OW 4417   3.700   1.617   0.440
 1173SOL    HW1 4418   3.718   1.696   0.382
 1173SOL    HW2 4419   3.784   1.587   0.485
 1174SOL     OW 4420   2.757   3.379   0.924
 1174SOL    HW1 4421   2.768   3.373   0.824
 1174SOL    HW2 4422   2.843   3.354   0.968
 1175SOL     OW 4423   3.119   3.075   4.096
 1175SOL    HW1 4424   3.073   3.075   4.007
 1175SOL    HW2 4425   3.205   3.024   4.088
 1176SOL     OW 4426   5.433   3.863   6.294
 1176SOL    HW1 4427   5.389   3.904   6.215
 1176SOL    HW2 4428   5.530   3.888   6.295
 1177SOL     OW 4429   6.865   1.917   4.899
 1177SOL    HW1 4430   6.933   1.885   4.833
 1177SOL    HW2 4431   6.838   1.841   4.959
 1178SOL     OW 4432   3.533   5.563   0.416
 1178SOL    HW1 4433   3.500   5.480   0.460
 1178SOL    HW2 4434   3.496   5.568   0.323
 1179SOL     OW 4435   2.002   5.806   0.419
 1179SOL    HW1 4436   1.907   5.780   0.437
 1179SOL    HW2 4437   2.014   5.904   0.437
 1180SOL     OW 4438   3.285   5.848   0.736
 1180SOL    HW1 4439   3.304   5.757   0.697
 1180SOL    HW2 4440   3.195   5.878   0.705
 1181SOL     OW 4441   0.588   5.692   0.879
 1181SOL    HW1 4442   0.623   5.599   0.875
 1181SOL    HW2 4443   0.600   5.737   0.791
 1182SOL     OW 4444   4.595   4.954   3.039
 1182SOL    HW1 4445   4.618   4.930   3.134
 1182SOL    HW2 4446   4.520   4.896   3.008
 1183SOL     OW 4447   2.131   3.224   5.721
 1183SOL    HW1 4448   2.116   3.155   5.650
 1183SOL    HW2 4449   2.052   3.285   5.725
 1184SOL     OW 4450   0.892   0.027   5.679
 1184SOL    HW1 4451   0.855   0.066   5.763
 1184SOL    HW2 4452   0.914   6.950   5.695
 1185SOL     OW 4453   0.083   1.294   6.516
 1185SOL    HW1 4454   0.033   1.368   6.472
 1185SOL    HW2 4455   0.170   1.329   6.551
 1186SOL     OW 4456   5.548   6.225   5.115
 1186SOL    HW1 4457   5.561   6.163   5.193
 1186SOL    HW2 4458   5.609   6.304   5.125
 1187SOL     OW 4459   5.559   0.477   6.379
 1187SOL    HW1 4460   5.597   0.557   6.332
 1187SOL    HW2 4461   5.543   0.404   6.314
 1188SOL     OW 4462   2.621   6.511   5.834
 1188SOL    HW1 4463   2.716   6.538   5.849
 1188SOL    HW2 4464   2.560   6.584   5.865
 1189SOL     OW 4465   5.803   3.216   3.411
 1189SOL    HW1 4466   5.811   3.118   3.428
 1189SOL    HW2 4467   5.719   3.233   3.359
 1190SOL     OW 4468   1.972   6.174   2.509
 1190SOL    HW1 4469   1.907   6.239   2.550
 1190SOL    HW2 4470   2.010   6.213   2.426
 1191SOL     OW 4471   4.310   5.392   2.515
 1191SOL    HW1 4472   4.314   5.471   2.452
 1191SOL    HW2 4473   4.380   5.403   2.585
 1192SOL     OW 4474   5.364   6.347   3.733
 1192SOL    HW1 4475   5.279   6.397   3.717
 1192SOL    HW2 4476   5.369   6.269   3.670
 1193SOL     OW 4477   6.193   5.357   3.899
 1193SOL    HW1 4478   6.139   5.406   3.830
 1193SOL    HW2 4479   6.164   5.262   3.902
 1194SOL     OW 4480   4.217   0.868   1.383
 1194SOL    HW1 4481   4.148   0.899   1.318
 1194SOL    HW2 4482   4.209   0.919   1.468
 1195SOL     OW 4483   5.594   2.205   3.098
 1195SOL    HW1 4484   5.677   2.250   3.066
 1195SOL    HW2 4485   5.612   2.108   3.114
 1196SOL     OW 4486   6.047   6.716   4.621
 1196SOL    HW1 4487   6.131   6.667   4.599
 1196SOL    HW2 4488   5.973   6.651   4.639
 1197SOL     OW 4489   2.662   6.255   0.176
 1197SOL    HW1 4490   2.665   6.350   0.146
 1197SOL    HW2 4491   2.690   6.249   0.272
 1198SOL     OW 4492   1.372   2.472   0.527
 1198SOL    HW1 4493   1.399   2.531   0.451
 1198SOL    HW2 4494   1.273   2.474   0.538
 1199SOL     OW 4495   5.096   4.049   2.287
 1199SOL    HW1 4496   5.090   4.019   2.382
 1199SOL    HW2 4497   5.186   4.089   2.270
 1200SOL     OW 4498   3.158   3.677   2.043
 1200SOL    HW1 4499   3.217   3.742   1.995
 1200SOL    HW2 4500   3.109   3.725   2.117
 1201SOL     OW 4501   1.538   1.805   4.774
 1201SOL    HW1 4502   1.637   1.805   4.758
 1201SOL    HW2 4503   1.512   1.892   4.818
 1202SOL     OW 4504   0.281   5.284   6.539
 1202SOL    HW1 4505   0.304   5.222   6.464
 1202SOL    HW2 4506   0.202   5.247   6.589
 1203SOL     OW 4507   4.459   5.830   5.875
 1203SOL    HW1 4508   4.478   5.761   5.805
 1203SOL    HW2 4509   4.370   5.873   5.856
 1204SOL     OW 4510   1.748   0.083   2.170
 1204SOL    HW1 4511   1.734   0.158   2.235
 1204SOL    HW2 4512   1.802   0.116   2.093
 1205SOL     OW 4513   5.189   4.164   1.669
 1205SOL    HW1 4514   5.152   4.254   1.693
 1205SOL    HW2 4515   5.199   4.109   1.753
 1206SOL     OW 4516   3.118   3.642   5.516
 1206SOL    HW1 4517   3.106   3.617   5.420
 1206SOL    HW2 4518   3.203   3.601   5.550
 1207SOL     OW 4519   1.955   6.487   1.706
 1207SOL    HW1 4520   1.858   6.501   1.686
 1207SOL    HW2 4521   1.982   6.546   1.783
 1208SOL     OW 4522   3.394   4.017   6.134
 1208SOL    HW1 4523   3.354   3.994   6.223
 1208SOL    HW2 4524   3.472   3.956   6.116
 1209SOL     OW 4525   3.935   6.620   5.608
 1209SOL    HW1 4526   4.026   6.657   5.631
 1209SOL    HW2 4527   3.865   6.686   5.633
 1210SOL     OW 4528   3.276   1.226   3.359
 1210SOL    HW1 4529   3.355   1.283   3.335
 1210SOL    HW2 4530   3.244   1.177   3.278
 1211SOL     OW 4531   1.249   3.884   0.510
 1211SOL    HW1 4532   1.164   3.925   0.541
 1211SOL    HW2 4533   1.323   3.951   0.514
 1212SOL     OW 4534   1.106   6.274   0.026
 1212SOL    HW1 4535   1.035   6.302   6.981
 1212SOL    HW2 4536   1.184   6.235   6.996
 1213SOL     OW 4537   5.406   3.180   0.716
 1213SOL    HW1 4538   5.382   3.096   0.765
 1213SOL    HW2 4539   5.373   3.175   0.622
 1214SOL     OW 4540   0.201   2.543   1.834
 1214SOL    HW1 4541   0.276   2.588   1.786
 1214SOL    HW2 4542   0.186   2.452   1.794
 1215SOL     OW 4543   1.153   5.303   4.755
 1215SOL    HW1 4544   1.137   5.315   4.657
 1215SOL    HW2 4545   1.129   5.209   4.782
 1216SOL     OW 4546   4.217   6.827   6.779
 1216SOL    HW1 4547   4.289   6.808   6.712
 1216SOL    HW2 4548   4.238   6.781   6.865
 1217SOL     OW 4549   2.781   4.635   0.133
 1217SOL    HW1 4550   2.826   4.709   0.083
 1217SOL    HW2 4551   2.833   4.550   0.120
 1218SOL     OW 4552   1.731   4.419   3.880
 1218SOL    HW1 4553   1.746   4.491   3.813
 1218SOL    HW2 4554   1.634   4.414   3.903
 1219SOL     OW 4555   4.292   6.065   2.816
 1219SOL    HW1 4556   4.273   5.969   2.794
 1219SOL    HW2 4557   4.383   6.090   2.783
 1220SOL     OW 4558   1.361   4.617   2.653
 1220SOL    HW1 4559   1.413   4.629   2.568
 1220SOL    HW2 4560   1.324   4.524   2.656
 1221SOL     OW 4561   5.690   3.966   6.241
 1221SOL    HW1 4562   5.644   4.027   6.176
 1221SOL    HW2 4563   5.761   4.017   6.289
 1222SOL     OW 4564   6.972   6.258   6.903
 1222SOL    HW1 4565   0.018   6.291   6.835
 1222SOL    HW2 4566   6.945   6.164   6.881
 1223SOL     OW 4567   3.631   6.230   0.562
 1223SOL    HW1 4568   3.711   6.185   0.524
 1223SOL    HW2 4569   3.574   6.162   0.609
 1224SOL     OW 4570   2.934   0.412   2.412
 1224SOL    HW1 4571   2.845   0.454   2.395
 1224SOL    HW2 4572   2.981   0.395   2.325
 1225SOL     OW 4573   2.552   4.118   6.849
 1225SOL    HW1 4574   2.470   4.170   6.873
 1225SOL    HW2 4575   2.627   4.182   6.831
 1226SOL     OW 4576   2.095   4.476   0.700
 1226SOL    HW1 4577   2.048   4.394   0.733
 1226SOL    HW2 4578   2.056   4.505   0.613
 1227SOL     OW 4579   0.157   3.381   6.410
 1227SOL    HW1 4580   0.201   3.449   6.352
 1227SOL    HW2 4581   0.145   3.418   6.502
 1228SOL     OW 4582   3.981   1.545   5.914
 1228SOL    HW1 4583   3.963   1.486   5.836
 1228SOL    HW2 4584   3.923   1.517   5.991
 1229SOL     OW 4585   3.800   4.324   6.169
 1229SOL    HW1 4586   3.865   4.258   6.206
 1229SOL    HW2 4587   3.711   4.279   6.154
 1230SOL     OW 4588   4.570   6.336   3.254
 1230SOL    HW1 4589   4.615   6.308   3.339
 1230SOL    HW2 4590   4.509   6.262   3.224
 1231SOL     OW 4591   1.660   4.240   4.155
 1231SOL    HW1 4592   1.597   4.163   4.149
 1231SOL    HW2 4593   1.750   4.214   4.119
 1232SOL     OW 4594   2.083   1.902   4.340
 1232SOL    HW1 4595   2.049   1.938   4.254
 1232SOL    HW2 4596   2.083   1.975   4.409
 1233SOL     OW 4597   0.643   3.426   4.329
 1233SOL    HW1 4598   0.649   3.491   4.405
 1233SOL    HW2 4599   0.656   3.474   4.243
 1234SOL     OW 4600   6.257   4.376   4.357
 1234SOL    HW1 4601   6.307   4.409   4.277
 1234SOL    HW2 4602   6.256   4.447   4.428
 1235SOL     OW 4603   6.412   6.013   4.177
 1235SOL    HW1 4604   6.383   5.932   4.125
 1235SOL    HW2 4605   6.509   6.003   4.202
 1236SOL     OW 4606   5.095   0.396   0.114
 1236SOL    HW1 4607   5.180   0.442   0.088
 1236SOL    HW2 4608   5.106   0.297   0.103
 1237SOL     OW 4609   3.167   4.666   6.839
 1237SOL    HW1 4610   3.171   4.735   6.766
 1237SOL    HW2 4611   3.102   4.594   6.813
 1238SOL     OW 4612   1.673   1.653   1.171
 1238SOL    HW1 4613   1.649   1.746   1.198
 1238SOL    HW2 4614   1.757   1.654   1.118
 1239SOL     OW 4615   0.119   6.405   6.701
 1239SOL    HW1 4616   0.214   6.406   6.733
 1239SOL    HW2 4617   0.088   6.500   6.688
 1240SOL     OW 4618   4.970   6.039   1.627
 1240SOL    HW1 4619   4.975   6.129   1.670
 1240SOL    HW2 4620   5.044   6.031   1.560
 1241SOL     OW 4621   6.475   3.193   3.660
 1241SOL    HW1 4622   6.450   3.182   3.563
 1241SOL    HW2 4623   6.555   3.137   3.680
 1242SOL     OW 4624   2.168   3.882   0.119
 1242SOL    HW1 4625   2.131   3.790   0.101
 1242SOL    HW2 4626   2.266   3.875   0.137
 1243SOL     OW 4627   2.939   5.299   5.326
 1243SOL    HW1 4628   2.920   5.385   5.279
 1243SOL    HW2 4629   3.033   5.299   5.359
 1244SOL     OW 4630   0.768   0.944   3.630
 1244SOL    HW1 4631   0.710   0.864   3.610
 1244SOL    HW2 4632   0.709   1.022   3.650
 1245SOL     OW 4633   2.951   3.334   6.705
 1245SOL    HW1 4634   2.916   3.287   6.786
 1245SOL    HW2 4635   2.881   3.395   6.670
 1246SOL     OW 4636   1.145   6.290   2.397
 1246SOL    HW1 4637   1.057   6.305   2.352
 1246SOL    HW2 4638   1.142   6.204   2.449
 1247SOL     OW 4639   1.829   6.457   6.249
 1247SOL    HW1 4640   1.851   6.554   6.252
 1247SOL    HW2 4641   1.810   6.430   6.154
 1248SOL     OW 4642   1.776   5.651   3.313
 1248SOL    HW1 4643   1.770   5.737   3.262
 1248SOL    HW2 4644   1.687   5.631   3.354
 1249SOL     OW 4645   6.290   3.364   3.300
 1249SOL    HW1 4646   6.318   3.437   3.362
 1249SOL    HW2 4647   6.236   3.296   3.350
 1250SOL     OW 4648   0.840   5.146   4.811
 1250SOL    HW1 4649   0.826   5.232   4.763
 1250SOL    HW2 4650   0.826   5.070   4.748
 1251SOL     OW 4651   3.666   0.404   5.105
 1251SOL    HW1 4652   3.719   0.408   5.020
 1251SOL    HW2 4653   3.569   0.392   5.082
 1252SOL     OW 4654   3.725   3.409   6.225
 1252SOL    HW1 4655   3.647   3.393   6.165
 1252SOL    HW2 4656   3.809   3.410   6.170
 1253SOL     OW 4657   3.902   5.856   2.824
 1253SOL    HW1 4658   3.936   5.942   2.860
 1253SOL    HW2 4659   3.965   5.782   2.849
 1254SOL     OW 4660   6.709   2.007   2.882
 1254SOL    HW1 4661   6.733   1.963   2.795
 1254SOL    HW2 4662   6.609   2.012   2.890
 1255SOL     OW 4663   6.343   6.826   6.876
 1255SOL    HW1 4664   6.399   6.745   6.857
 1255SOL    HW2 4665   6.312   6.866   6.790
 1256SOL     OW 4666   4.701   1.296   3.549
 1256SOL    HW1 4667   4.762   1.339   3.481
 1256SOL    HW2 4668   4.686   1.200   3.524
 1257SOL     OW 4669   6.085   1.728   4.034
 1257SOL    HW1 4670   6.158   1.792   4.054
 1257SOL    HW2 4671   6.007   1.777   3.994
 1258SOL     OW 4672   6.963   6.474   3.368
 1258SOL    HW1 4673   6.975   6.565   3.327
 1258SOL    HW2 4674   0.032   6.437   3.394
 1259SOL     OW 4675   4.319   2.440   5.408
 1259SOL    HW1 4676   4.339   2.513   5.474
 1259SOL    HW2 4677   4.274   2.480   5.328
 1260SOL     OW 4678   1.123   0.873   6.323
 1260SOL    HW1 4679   1.056   0.801   6.339
 1260SOL    HW2 4680   1.137   0.885   6.225
 1261SOL     OW 4681   6.521   4.426   0.944
 1261SOL    HW1 4682   6.563   4.340   0.915
 1261SOL    HW2 4683   6.424   4.425   0.921
 1262SOL     OW 4684   5.490   6.130   2.006
 1262SOL    HW1 4685   5.584   6.096   2.003
 1262SOL    HW2 4686   5.426   6.054   1.995
 1263SOL     OW 4687   1.052   2.140   3.219
 1263SOL    HW1 4688   1.090   2.200   3.150
 1263SOL    HW2 4689   0.990   2.192   3.279
 1264SOL     OW 4690   0.985   2.375   5.211
 1264SOL    HW1 4691   1.031   2.464   5.203
 1264SOL    HW2 4692   1.049   2.308   5.248
 1265SOL     OW 4693   5.855   6.196   4.955
 1265SOL    HW1 4694   5.769   6.223   4.997
 1265SOL    HW2 4695   5.848   6.103   4.919
 1266SOL     OW 4696   2.068   1.140   4.707
 1266SOL    HW1 4697   2.157   1.153   4.751
 1266SOL    HW2 4698   1.998   1.126   4.777
 1267SOL     OW 4699   3.328   0.464   3.323
 1267SOL    HW1 4700   3.382   0.517   3.389
 1267SOL    HW2 4701   3.381   0.385   3.293
 1268SOL     OW 4702   4.403   2.876   5.691
 1268SOL    HW1 4703   4.489   2.875   5.641
 1268SOL    HW2 4704   4.360   2.786   5.685
 1269SOL     OW 4705   6.450   2.141   4.098
 1269SOL    HW1 4706   6.467   2.207   4.171
 1269SOL    HW2 4707   6.401   2.187   4.023
 1270SOL     OW 4708   6.554   5.705   2.585
 1270SOL    HW1 4709   6.523   5.637   2.519
 1270SOL    HW2 4710   6.633   5.754   2.548
 1271SOL     OW 4711   1.984   1.467   0.931
 1271SOL    HW1 4712   1.960   1.552   0.978
 1271SOL    HW2 4713   1.959   1.475   0.834
 1272SOL     OW 4714   5.990   3.751   6.006
 1272SOL    HW1 4715   5.910   3.721   6.058
 1272SOL    HW2 4716   5.996   3.850   6.007
 1273SOL     OW 4717   1.079   4.494   4.795
 1273SOL    HW1 4718   0.998   4.524   4.844
 1273SOL    HW2 4719   1.102   4.400   4.822
 1274SOL     OW 4720   7.012   5.395   3.004
 1274SOL    HW1 4721   6.923   5.394   2.958
 1274SOL    HW2 4722   0.062   5.430   2.942
 1275SOL     OW 4723   2.102   1.281   3.042
 1275SOL    HW1 4724   2.046   1.266   3.124
 1275SOL    HW2 4725   2.190   1.322   3.069
 1276SOL     OW 4726   5.458   5.082   4.276
 1276SOL    HW1 4727   5.556   5.070   4.295
 1276SOL    HW2 4728   5.410   4.998   4.298
 1277SOL     OW 4729   1.077   6.198   0.543
 1277SOL    HW1 4730   1.053   6.172   0.636
 1277SOL    HW2 4731   1.171   6.169   0.523
 1278SOL     OW 4732   1.014   5.961   2.843
 1278SOL    HW1 4733   0.979   6.031   2.905
 1278SOL    HW2 4734   0.962   5.963   2.757
 1279SOL     OW 4735   2.772   2.767   1.716
 1279SOL    HW1 4736   2.749   2.676   1.750
 1279SOL    HW2 4737   2.846   2.761   1.649
 1280SOL     OW 4738   2.221   2.189   3.850
 1280SOL    HW1 4739   2.266   2.103   3.875
 1280SOL    HW2 4740   2.141   2.169   3.794
 1281SOL     OW 4741   4.735   6.414   5.077
 1281SOL    HW1 4742   4.810   6.355   5.049
 1281SOL    HW2 4743   4.745   6.503   5.033
 1282SOL     OW 4744   6.864   2.547   0.961
 1282SOL    HW1 4745   6.862   2.496   0.874
 1282SOL    HW2 4746   6.958   2.572   0.983
 1283SOL     OW 4747   0.220   3.017   4.789
 1283SOL    HW1 4748   0.240   3.021   4.886
 1283SOL    HW2 4749   0.123   3.040   4.774
 1284SOL     OW 4750   4.175   2.270   1.666
 1284SOL    HW1 4751   4.154   2.172   1.659
 1284SOL    HW2 4752   4.270   2.281   1.696
 1285SOL     OW 4753   4.320   1.107   5.305
 1285SOL    HW1 4754   4.278   1.082   5.218
 1285SOL    HW2 4755   4.256   1.160   5.360
 1286SOL     OW 4756   5.340   2.583   1.329
 1286SOL    HW1 4757   5.345   2.486   1.353
 1286SOL    HW2 4758   5.365   2.595   1.233
 1287SOL     OW 4759   6.496   4.849   4.712
 1287SOL    HW1 4760   6.516   4.927   4.652
 1287SOL    HW2 4761   6.400   4.851   4.737
 1288SOL     OW 4762   4.607   4.364   0.067
 1288SOL    HW1 4763   4.516   4.395   0.040
 1288SOL    HW2 4764   4.670   4.370   7.009
 1289SOL     OW 4765   0.029   0.268   1.652
 1289SOL    HW1 4766   7.004   0.280   1.564
 1289SOL    HW2 4767   0.090   0.190   1.649
 1290SOL     OW 4768   1.716   6.675   5.621
 1290SOL    HW1 4769   1.640   6.737   5.640
 1290SOL    HW2 4770   1.770   6.661   5.703
 1291SOL     OW 4771   6.372   4.502   3.269
 1291SOL    HW1 4772   6.272   4.512   3.265
 1291SOL    HW2 4773   6.404   4.463   3.183
 1292SOL     OW 4774   0.987   6.813   1.618
 1292SOL    HW1 4775   0.924   6.737   1.608
 1292SOL    HW2 4776   1.081   6.780   1.609
 1293SOL     OW 4777   4.219   1.142   0.047
 1293SOL    HW1 4778   4.157   1.085   0.102
 1293SOL    HW2 4779   4.166   1.191   6.997
 1294SOL     OW 4780   1.971   4.020   5.115
 1294SOL    HW1 4781   2.042   4.060   5.172
 1294SOL    HW2 4782   1.908   4.092   5.085
 1295SOL     OW 4783   5.995   4.411   0.808
 1295SOL    HW1 4784   6.006   4.366   0.719
 1295SOL    HW2 4785   5.911   4.466   0.807
 1296SOL     OW 4786   5.399   0.088   5.734
 1296SOL    HW1 4787   5.320   0.142   5.763
 1296SOL    HW2 4788   5.458   0.144   5.676
 1297SOL     OW 4789   0.587   0.298   2.030
 1297SOL    HW1 4790   0.513   0.295   2.097
 1297SOL    HW2 4791   0.628   0.206   2.022
 1298SOL     OW 4792   5.073   6.891   2.508
 1298SOL    HW1 4793   4.994   6.832   2.488
 1298SOL    HW2 4794   5.089   6.892   2.606
 1299SOL     OW 4795   0.648   3.790   4.700
 1299SOL    HW1 4796   0.553   3.812   4.722
 1299SOL    HW2 4797   0.692   3.747   4.779
 1300SOL     OW 4798   1.226   4.829   1.881
 1300SOL    HW1 4799   1.238   4.777   1.965
 1300SOL    HW2 4800   1.171   4.911   1.900
 1301SOL     OW 4801   0.773   0.400   0.435
 1301SOL    HW1 4802   0.693   0.347   0.463
 1301SOL    HW2 4803   0.844   0.338   0.403
 1302SOL     OW 4804   5.773   0.019   4.850
 1302SOL    HW1 4805   5.709   7.005   4.781
 1302SOL    HW2 4806   5.864   7.001   4.833
 1303SOL     OW 4807   3.965   6.372   1.923
 1303SOL    HW1 4808   4.015   6.286   1.926
 1303SOL    HW2 4809   3.983   6.419   1.837
 1304SOL     OW 4810   0.507   0.993   0.503
 1304SOL    HW1 4811   0.427   0.987   0.444
 1304SOL    HW2 4812   0.483   0.963   0.595
 1305SOL     OW 4813   4.730   3.084   6.309
 1305SOL    HW1 4814   4.771   3.003   6.269
 1305SOL    HW2 4815   4.760   3.165   6.258
 1306SOL     OW 4816   2.831   5.345   4.291
 1306SOL    HW1 4817   2.920   5.376   4.259
 1306SOL    HW2 4818   2.778   5.309   4.214
 1307SOL     OW 4819   2.687   2.071   3.537
 1307SOL    HW1 4820   2.756   2.038   3.473
 1307SOL    HW2 4821   2.621   2.127   3.488
 1308SOL     OW 4822   0.754   4.617   6.173
 1308SOL    HW1 4823   0.844   4.612   6.131
 1308SOL    HW2 4824   0.704   4.532   6.157
 1309SOL     OW 4825   5.744   4.459   6.594
 1309SOL    HW1 4826   5.676   4.458   6.520
 1309SOL    HW2 4827   5.729   4.540   6.651
 1310SOL     OW 4828   1.255   3.937   3.385
 1310SOL    HW1 4829   1.184   3.878   3.422
 1310SOL    HW2 4830   1.213   4.010   3.331
 1311SOL     OW 4831   6.286   5.459   0.776
 1311SOL    HW1 4832   6.304   5.479   0.872
 1311SOL    HW2 4833   6.350   5.510   0.718
 1312SOL     OW 4834   2.518   1.099   6.110
 1312SOL    HW1 4835   2.585   1.036   6.071
 1312SOL    HW2 4836   2.436   1.049   6.137
 1313SOL     OW 4837   6.633   6.209   2.352
 1313SOL    HW1 4838   6.645   6.308   2.358
 1313SOL    HW2 4839   6.709   6.164   2.400
 1314SOL     OW 4840   2.532   1.590   4.895
 1314SOL    HW1 4841   2.436   1.587   4.870
 1314SOL    HW2 4842   2.540   1.584   4.995
 1315SOL     OW 4843   6.195   1.717   3.471
 1315SOL    HW1 4844   6.218   1.799   3.523
 1315SOL    HW2 4845   6.189   1.638   3.533
 1316SOL     OW 4846   4.540   0.395   5.970
 1316SOL    HW1 4847   4.477   0.473   5.977
 1316SOL    HW2 4848   4.495   0.314   6.008
 1317SOL     OW 4849   3.307   3.648   6.179
 1317SOL    HW1 4850   3.227   3.693   6.140
 1317SOL    HW2 4851   3.278   3.576   6.242
 1318SOL     OW 4852   1.969   2.328   6.137
 1318SOL    HW1 4853   1.917   2.298   6.057
 1318SOL    HW2 4854   1.949   2.424   6.156
 1319SOL     OW 4855   6.921   6.736   0.902
 1319SOL    HW1 4856   6.872   6.767   0.820
 1319SOL    HW2 4857   6.950   6.816   0.956
 1320SOL     OW 4858   3.269   3.348   5.841
 1320SOL    HW1 4859   3.261   3.254   5.874
 1320SOL    HW2 4860   3.230   3.410   5.909
 1321SOL     OW 4861   6.119   2.757   0.515
 1321SOL    HW1 4862   6.061   2.677   0.534
 1321SOL    HW2 4863   6.199   2.755   0.575
 1322SOL     OW 4864   3.578   1.955   0.565
 1322SOL    HW1 4865   3.655   1.906   0.605
 1322SOL    HW2 4866   3.589   1.960   0.466
 1323SOL     OW 4867   3.652   6.939   0.601
 1323SOL    HW1 4868   3.695   6.937   0.511
 1323SOL    HW2 4869   3.682   0.000   0.651
 1324SOL     OW 4870   1.510   3.572   0.289
 1324SOL    HW1 4871   1.465   3.623   0.216
 1324SOL    HW2 4872   1.494   3.618   0.377
 1325SOL     OW 4873   3.040   5.581   5.490
 1325SOL    HW1 4874   3.057   5.549   5.397
 1325SOL    HW2 4875   2.978   5.519   5.536
 1326SOL     OW 4876   4.811   2.642   3.626
 1326SOL    HW1 4877   4.716   2.623   3.650
 1326SOL    HW2 4878   4.825   2.626   3.528
 1327SOL     OW 4879   5.748   5.755   1.954
 1327SOL    HW1 4880   5.688   5.685   1.993
 1327SOL    HW2 4881   5.825   5.772   2.016
 1328SOL     OW 4882   2.010   3.060   4.957
 1328SOL    HW1 4883   1.925   3.039   4.908
 1328SOL    HW2 4884   2.088   3.049   4.895
 1329SOL     OW 4885   1.150   3.004   3.595
 1329SOL    HW1 4886   1.066   2.955   3.573
 1329SOL    HW2 4887   1.207   3.011   3.513
 1330SOL     OW 4888   6.698   2.829   1.763
 1330SOL    HW1 4889   6.636   2.827   1.841
 1330SOL    HW2 4890   6.778   2.772   1.782
 1331SOL     OW 4891   4.489   2.117   3.586
 1331SOL    HW1 4892   4.408   2.091   3.639
 1331SOL    HW2 4893   4.571   2.076   3.628
 1332SOL     OW 4894   1.541   6.264   0.076
 1332SOL    HW1 4895   1.458   6.211   0.061
 1332SOL    HW2 4896   1.521   6.362   0.068
 1333SOL     OW 4897   3.975   3.941   3.557
 1333SOL    HW1 4898   3.894   3.882   3.558
 1333SOL    HW2 4899   4.018   3.937   3.466
 1334SOL     OW 4900   6.870   3.432   1.879
 1334SOL    HW1 4901   6.947   3.423   1.942
 1334SOL    HW2 4902   6.846   3.341   1.843
 1335SOL     OW 4903   1.154   3.499   2.372
 1335SOL    HW1 4904   1.100   3.581   2.357
 1335SOL    HW2 4905   1.236   3.501   2.315
 1336SOL     OW 4906   2.731   0.712   5.408
 1336SOL    HW1 4907   2.767   0.735   5.318
 1336SOL    HW2 4908   2.742   0.792   5.469
 1337SOL     OW 4909   6.572   1.163   3.592
 1337SOL    HW1 4910   6.565   1.257   3.559
 1337SOL    HW2 4911   6.481   1.127   3.614
 1338SOL     OW 4912   6.478   3.873   5.258
 1338SOL    HW1 4913   6.548   3.867   5.329
 1338SOL    HW2 4914   6.388   3.888   5.301
 1339SOL     OW 4915   0.308   0.335   6.985
 1339SOL    HW1 4916   0.283   0.252   0.017
 1339SOL    HW2 4917   0.224   0.382   6.956
 1340SOL     OW 4918   3.956   2.812   1.763
 1340SOL    HW1 4919   3.871   2.789   1.715
 1340SOL    HW2 4920   3.991   2.899   1.729
 1341SOL     OW 4921   5.327   6.207   0.226
 1341SOL    HW1 4922   5.280   6.292   0.247
 1341SOL    HW2 4923   5.274   6.130   0.264
 1342SOL     OW 4924   2.876   6.858   1.586
 1342SOL    HW1 4925   2.932   6.909   1.520
 1342SOL    HW2 4926   2.926   6.850   1.672
 1343SOL     OW 4927   5.798   6.058   3.034
 1343SOL    HW1 4928   5.820   6.145   2.990
 1343SOL    HW2 4929   5.830   5.983   2.977
 1344SOL     OW 4930   0.699   0.453   4.714
 1344SOL    HW1 4931   0.724   0.378   4.775
 1344SOL    HW2 4932   0.686   0.419   4.621
 1345SOL     OW 4933   0.435   6.202   0.193
 1345SOL    HW1 4934   0.350   6.236   0.154
 1345SOL    HW2 4935   0.439   6.225   0.291
 1346SOL     OW 4936   2.932   5.418   5.007
 1346SOL    HW1 4937   2.966   5.474   4.932
 1346SOL    HW2 4938   2.847   5.457   5.042
 1347SOL     OW 4939   1.273   0.186   6.271
 1347SOL    HW1 4940   1.184   0.178   6.226
 1347SOL    HW2 4941   1.270   0.138   6.359
 1348SOL     OW 4942   0.704   6.435   5.344
 1348SOL    HW1 4943   0.624   6.454   5.286
 1348SOL    HW2 4944   0.779   6.496   5.318
 1349SOL     OW 4945   4.987   3.152   3.940
 1349SOL    HW1 4946   4.962   3.156   3.843
 1349SOL    HW2 4947   5.020   3.060   3.962
 1350SOL     OW 4948   4.067   3.949   0.016
 1350SOL    HW1 4949   4.081   3.890   0.096
 1350SOL    HW2 4950   4.089   4.044   0.040
 1351SOL     OW 4951   6.578   2.566   5.529
 1351SOL    HW1 4952   6.571   2.540   5.433
 1351SOL    HW2 4953   6.671   2.550   5.561
 1352SOL     OW 4954   6.715   0.508   1.948
 1352SOL    HW1 4955   6.733   0.418   1.909
 1352SOL    HW2 4956   6.743   0.508   2.044
 1353SOL     OW 4957   0.634   1.014   0.233
 1353SOL    HW1 4958   0.620   0.995   0.331
 1353SOL    HW2 4959   0.582   0.947   0.179
 1354SOL     OW 4960   5.384   4.932   2.657
 1354SOL    HW1 4961   5.435   5.018   2.655
 1354SOL    HW2 4962   5.288   4.950   2.636
 1355SOL     OW 4963   5.712   3.502   6.312
 1355SOL    HW1 4964   5.794   3.490   6.368
 1355SOL    HW2 4965   5.728   3.464   6.221
 1356SOL     OW 4966   3.075   3.517   0.732
 1356SOL    HW1 4967   3.109   3.494   0.823
 1356SOL    HW2 4968   3.128   3.466   0.663
 1357SOL     OW 4969   0.370   3.709   4.980
 1357SOL    HW1 4970   0.382   3.716   5.080
 1357SOL    HW2 4971   0.318   3.627   4.959
 1358SOL     OW 4972   1.646   6.249   6.609
 1358SOL    HW1 4973   1.617   6.308   6.533
 1358SOL    HW2 4974   1.676   6.306   6.685
 1359SOL     OW 4975   0.187   4.453   1.892
 1359SOL    HW1 4976   0.174   4.454   1.792
 1359SOL    HW2 4977   0.116   4.508   1.935
 1360SOL     OW 4978   2.469   2.479   0.397
 1360SOL    HW1 4979   2.561   2.506   0.424
 1360SOL    HW2 4980   2.426   2.553   0.346
 1361SOL     OW 4981   0.224   5.339   5.031
 1361SOL    HW1 4982   0.182   5.364   5.118
 1361SOL    HW2 4983   0.313   5.296   5.048
 1362SOL     OW 4984   3.138   3.176   3.001
 1362SOL    HW1 4985   3.220   3.232   2.994
 1362SOL    HW2 4986   3.095   3.170   2.911
 1363SOL     OW 4987   1.319   5.916   4.214
 1363SOL    HW1 4988   1.297   5.930   4.311
 1363SOL    HW2 4989   1.389   5.982   4.186
 1364SOL     OW 4990   4.039   3.858   0.951
 1364SOL    HW1 4991   4.094   3.773   0.952
 1364SOL    HW2 4992   4.057   3.910   1.034
 1365SOL     OW 4993   0.354   3.214   6.888
 1365SOL    HW1 4994   0.272   3.171   6.926
 1365SOL    HW2 4995   0.428   3.209   6.954
 1366SOL     OW 4996   3.304   0.210   5.228
 1366SOL    HW1 4997   3.339   0.252   5.145
 1366SOL    HW2 4998   3.314   0.274   5.305
 1367SOL     OW 4999   2.128   1.108   2.832
 1367SOL    HW1 5000   2.074   1.034   2.872
 1367SOL    HW2 5001   2.116   1.191   2.887
 1368SOL     OW 5002   5.334   6.625   3.261
 1368SOL    HW1 5003   5.392   6.643   3.341
 1368SOL    HW2 5004   5.241   6.657   3.279
 1369SOL     OW 5005   1.348   1.031   3.220
 1369SOL    HW1 5006   1.257   0.990   3.208
 1369SOL    HW2 5007   1.342   1.130   3.205
 1370SOL     OW 5008   2.545   0.581   1.548
 1370SOL    HW1 5009   2.610   0.594   1.623
 1370SOL    HW2 5010   2.585   0.615   1.463
 1371SOL     OW 5011   4.032   0.556   6.461
 1371SOL    HW1 5012   3.997   0.604   6.381
 1371SOL    HW2 5013   3.956   0.512   6.509
 1372SOL     OW 5014   3.144   1.808   1.918
 1372SOL    HW1 5015   3.060   1.836   1.965
 1372SOL    HW2 5016   3.217   1.874   1.939
 1373SOL     OW 5017   1.384   6.136   0.880
 1373SOL    HW1 5018   1.417   6.069   0.946
 1373SOL    HW2 5019   1.457   6.199   0.856
 1374SOL     OW 5020   4.924   2.946   0.107
 1374SOL    HW1 5021   4.971   2.983   0.188
 1374SOL    HW2 5022   4.934   3.009   0.031
 1375SOL     OW 5023   0.305   4.004   5.213
 1375SOL    HW1 5024   0.288   4.095   5.251
 1375SOL    HW2 5025   0.394   4.002   5.168
 1376SOL     OW 5026   4.741   1.599   2.635
 1376SOL    HW1 5027   4.771   1.523   2.577
 1376SOL    HW2 5028   4.779   1.685   2.600
 1377SOL     OW 5029   0.615   5.716   4.623
 1377SOL    HW1 5030   0.595   5.761   4.536
 1377SOL    HW2 5031   0.547   5.644   4.640
 1378SOL     OW 5032   2.147   2.072   6.705
 1378SOL    HW1 5033   2.176   2.011   6.632
 1378SOL    HW2 5034   2.179   2.165   6.686
 1379SOL     OW 5035   3.586   6.149   1.286
 1379SOL    HW1 5036   3.561   6.109   1.198
 1379SOL    HW2 5037   3.626   6.239   1.271
 1380SOL     OW 5038   6.511   6.633   2.759
 1380SOL    HW1 5039   6.476   6.574   2.686
 1380SOL    HW2 5040   6.568   6.705   2.719
 1381SOL     OW 5041   6.094   0.513   1.526
 1381SOL    HW1 5042   6.127   0.550   1.439
 1381SOL    HW2 5043   6.134   0.565   1.602
 1382SOL     OW 5044   6.908   4.739   6.111
 1382SOL    HW1 5045   6.917   4.805   6.036
 1382SOL    HW2 5046   6.924   4.786   6.198
 1383SOL     OW 5047   2.505   0.175   0.430
 1383SOL    HW1 5048   2.449   0.167   0.513
 1383SOL    HW2 5049   2.571   0.099   0.427
 1384SOL     OW 5050   2.897   1.840   2.018
 1384SOL    HW1 5051   2.853   1.917   2.063
 1384SOL    HW2 5052   2.850   1.755   2.043
 1385SOL     OW 5053   5.605   2.912   2.944
 1385SOL    HW1 5054   5.590   2.944   2.851
 1385SOL    HW2 5055   5.585   2.985   3.009
 1386SOL     OW 5056   2.229   2.597   4.133
 1386SOL    HW1 5057   2.136   2.590   4.097
 1386SOL    HW2 5058   2.295   2.576   4.061
 1387SOL     OW 5059   2.437   0.328   4.752
 1387SOL    HW1 5060   2.489   0.411   4.767
 1387SOL    HW2 5061   2.432   0.275   4.837
 1388SOL     OW 5062   6.197   0.983   4.952
 1388SOL    HW1 5063   6.194   0.889   4.987
 1388SOL    HW2 5064   6.250   1.040   5.014
 1389SOL     OW 5065   6.400   1.090   4.263
 1389SOL    HW1 5066   6.383   1.036   4.346
 1389SOL    HW2 5067   6.465   1.163   4.283
 1390SOL     OW 5068   4.511   2.539   2.052
 1390SOL    HW1 5069   4.482   2.512   2.143
 1390SOL    HW2 5070   4.611   2.551   2.050
 1391SOL     OW 5071   5.669   1.475   4.724
 1391SOL    HW1 5072   5.690   1.532   4.804
 1391SOL    HW2 5073   5.661   1.379   4.753
 1392SOL     OW 5074   4.632   5.956   6.029
 1392SOL    HW1 5075   4.565   5.911   5.971
 1392SOL    HW2 5076   4.672   5.889   6.092
 1393SOL     OW 5077   5.286   0.311   6.767
 1393SOL    HW1 5078   5.262   0.400   6.805
 1393SOL    HW2 5079   5.280   0.314   6.667
 1394SOL     OW 5080   4.274   0.296   3.960
 1394SOL    HW1 5081   4.298   0.324   3.867
 1394SOL    HW2 5082   4.181   0.326   3.981
 1395SOL     OW 5083   1.471   5.603   2.168
 1395SOL    HW1 5084   1.480   5.522   2.109
 1395SOL    HW2 5085   1.456   5.684   2.111
 1396SOL     OW 5086   1.627   1.062   3.591
 1396SOL    HW1 5087   1.624   1.160   3.609
 1396SOL    HW2 5088   1.702   1.021   3.643
 1397SOL     OW 5089   0.626   5.431   4.835
 1397SOL    HW1 5090   0.534   5.457   4.803
 1397SOL    HW2 5091   0.691   5.439   4.759
 1398SOL     OW 5092   1.750   6.587   7.004
 1398SOL    HW1 5093   1.798   6.671   6.981
 1398SOL    HW2 5094   1.812   6.526   0.034
 1399SOL     OW 5095   3.854   0.485   0.301
 1399SOL    HW1 5096   3.903   0.480   0.214
 1399SOL    HW2 5097   3.778   0.421   0.300
 1400SOL     OW 5098   0.336   0.985   4.992
 1400SOL    HW1 5099   0.432   0.964   5.012
 1400SOL    HW2 5100   0.281   0.976   5.076
 1401SOL     OW 5101   5.437   0.547   2.764
 1401SOL    HW1 5102   5.495   0.489   2.707
 1401SOL    HW2 5103   5.481   0.563   2.852
 1402SOL     OW 5104   6.926   4.633   2.736
 1402SOL    HW1 5105   6.920   4.534   2.727
 1402SOL    HW2 5106   0.003   4.661   2.735
 1403SOL     OW 5107   3.142   3.200   6.450
 1403SOL    HW1 5108   3.115   3.104   6.454
 1403SOL    HW2 5109   3.208   3.220   6.522
 1404SOL     OW 5110   4.175   6.079   0.529
 1404SOL    HW1 5111   4.160   6.052   0.434
 1404SOL    HW2 5112   4.239   6.156   0.531
 1405SOL     OW 5113   0.856   3.949   0.704
 1405SOL    HW1 5114   0.838   3.855   0.731
 1405SOL    HW2 5115   0.808   4.012   0.765
 1406SOL     OW 5116   1.557   3.301   0.282
 1406SOL    HW1 5117   1.546   3.399   0.297
 1406SOL    HW2 5118   1.619   3.263   0.351
 1407SOL     OW 5119   0.508   3.106   1.516
 1407SOL    HW1 5120   0.587   3.168   1.516
 1407SOL    HW2 5121   0.433   3.149   1.465
 1408SOL     OW 5122   5.634   6.700   0.987
 1408SOL    HW1 5123   5.673   6.781   0.943
 1408SOL    HW2 5124   5.676   6.618   0.949
 1409SOL     OW 5125   6.157   1.331   5.959
 1409SOL    HW1 5126   6.183   1.268   6.032
 1409SOL    HW2 5127   6.213   1.413   5.964
 1410SOL     OW 5128   3.336   0.232   6.604
 1410SOL    HW1 5129   3.386   0.251   6.519
 1410SOL    HW2 5130   3.262   0.169   6.585
 1411SOL     OW 5131   3.450   4.664   6.984
 1411SOL    HW1 5132   3.414   4.726   6.914
 1411SOL    HW2 5133   3.375   4.613   0.006
 1412SOL     OW 5134   2.736   2.266   0.243
 1412SOL    HW1 5135   2.757   2.176   0.204
 1412SOL    HW2 5136   2.672   2.314   0.184
 1413SOL     OW 5137   2.165   2.058   5.195
 1413SOL    HW1 5138   2.124   2.007   5.271
 1413SOL    HW2 5139   2.200   2.145   5.228
 1414SOL     OW 5140   0.419   4.635   2.514
 1414SOL    HW1 5141   0.442   4.576   2.591
 1414SOL    HW2 5142   0.475   4.611   2.435
 1415SOL     OW 5143   3.046   1.535   4.949
 1415SOL    HW1 5144   3.068   1.543   4.852
 1415SOL    HW2 5145   3.008   1.444   4.967
 1416SOL     OW 5146   4.630   0.376   4.900
 1416SOL    HW1 5147   4.593   0.401   4.990
 1416SOL    HW2 5148   4.686   0.293   4.909
 1417SOL     OW 5149   3.697   3.719   4.889
 1417SOL    HW1 5150   3.651   3.674   4.965
 1417SOL    HW2 5151   3.764   3.784   4.924
 1418SOL     OW 5152   3.714   3.963   6.185
 1418SOL    HW1 5153   3.806   3.943   6.217
 1418SOL    HW2 5154   3.661   3.878   6.180
 1419SOL     OW 5155   1.712   6.062   2.005
 1419SOL    HW1 5156   1.722   5.992   2.076
 1419SOL    HW2 5157   1.799   6.071   1.955
 1420SOL     OW 5158   2.709   6.374   2.321
 1420SOL    HW1 5159   2.731   6.365   2.418
 1420SOL    HW2 5160   2.671   6.288   2.287
 1421SOL     OW 5161   1.311   4.931   6.068
 1421SOL    HW1 5162   1.256   4.934   6.151
 1421SOL    HW2 5163   1.254   4.955   5.989
 1422SOL     OW 5164   1.590   2.873   6.513
 1422SOL    HW1 5165   1.635   2.941   6.455
 1422SOL    HW2 5166   1.655   2.837   6.580
 1423SOL     OW 5167   4.152   0.922   5.129
 1423SOL    HW1 5168   4.145   0.961   5.037
 1423SOL    HW2 5169   4.217   0.845   5.128
 1424SOL     OW 5170   6.589   3.213   1.203
 1424SOL    HW1 5171   6.579   3.132   1.260
 1424SOL    HW2 5172   6.587   3.187   1.107
 1425SOL     OW 5173   5.488   0.438   3.879
 1425SOL    HW1 5174   5.560   0.400   3.937
 1425SOL    HW2 5175   5.419   0.483   3.936
 1426SOL     OW 5176   3.957   0.961   6.899
 1426SOL    HW1 5177   3.960   0.950   6.799
 1426SOL    HW2 5178   3.912   1.047   6.922
 1427SOL     OW 5179   1.816   0.408   3.926
 1427SOL    HW1 5180   1.801   0.324   3.873
 1427SOL    HW2 5181   1.809   0.388   4.024
 1428SOL     OW 5182   1.414   3.232   4.157
 1428SOL    HW1 5183   1.467   3.304   4.114
 1428SOL    HW2 5184   1.470   3.186   4.227
 1429SOL     OW 5185   6.476   0.655   2.195
 1429SOL    HW1 5186   6.555   0.598   2.215
 1429SOL    HW2 5187   6.429   0.620   2.114
 1430SOL     OW 5188   2.040   3.731   4.837
 1430SOL    HW1 5189   2.139   3.738   4.830
 1430SOL    HW2 5190   1.999   3.739   4.746
 1431SOL     OW 5191   2.860   1.311   0.104
 1431SOL    HW1 5192   2.951   1.336   0.070
 1431SOL    HW2 5193   2.870   1.246   0.179
 1432SOL     OW 5194   3.833   0.123   2.218
 1432SOL    HW1 5195   3.905   0.054   2.218
 1432SOL    HW2 5196   3.818   0.156   2.312
 1433SOL     OW 5197   2.860   1.111   4.131
 1433SOL    HW1 5198   2.818   1.199   4.106
 1433SOL    HW2 5199   2.824   1.039   4.072
 1434SOL     OW 5200   5.507   4.053   0.310
 1434SOL    HW1 5201   5.526   3.995   0.390
 1434SOL    HW2 5202   5.448   4.003   0.247
 1435SOL     OW 5203   1.384   6.985   3.815
 1435SOL    HW1 5204   1.483   6.978   3.826
 1435SOL    HW2 5205   1.359   0.061   3.797
 1436SOL     OW 5206   5.478   1.264   0.621
 1436SOL    HW1 5207   5.421   1.337   0.584
 1436SOL    HW2 5208   5.487   1.275   0.720
 1437SOL     OW 5209   3.838   1.019   0.672
 1437SOL    HW1 5210   3.833   1.012   0.772
 1437SOL    HW2 5211   3.886   1.103   0.648
 1438SOL     OW 5212   2.283   0.672   2.751
 1438SOL    HW1 5213   2.220   0.653   2.677
 1438SOL    HW2 5214   2.357   0.732   2.718
 1439SOL     OW 5215   6.778   5.026   0.125
 1439SOL    HW1 5216   6.748   4.931   0.132
 1439SOL    HW2 5217   6.876   5.028   0.105
 1440SOL     OW 5218   3.532   2.898   2.695
 1440SOL    HW1 5219   3.490   2.809   2.715
 1440SOL    HW2 5220   3.461   2.968   2.689
 1441SOL     OW 5221   6.529   2.207   4.828
 1441SOL    HW1 5222   6.582   2.128   4.797
 1441SOL    HW2 5223   6.462   2.232   4.758
 1442SOL     OW 5224   5.096   0.036   0.173
 1442SOL    HW1 5225   5.103   0.063   0.077
 1442SOL    HW2 5226   5.126   6.960   0.184
 1443SOL     OW 5227   1.398   2.524   3.412
 1443SOL    HW1 5228   1.308   2.493   3.379
 1443SOL    HW2 5229   1.400   2.520   3.512
 1444SOL     OW 5230   4.902   0.300   5.208
 1444SOL    HW1 5231   4.943   0.366   5.146
 1444SOL    HW2 5232   4.821   0.342   5.251
 1445SOL     OW 5233   6.384   2.048   0.306
 1445SOL    HW1 5234   6.318   2.051   0.231
 1445SOL    HW2 5235   6.337   2.068   0.392
 1446SOL     OW 5236   3.804   6.785   0.877
 1446SOL    HW1 5237   3.761   6.706   0.833
 1446SOL    HW2 5238   3.868   6.828   0.814
 1447SOL     OW 5239   5.822   1.440   5.057
 1447SOL    HW1 5240   5.821   1.536   5.031
 1447SOL    HW2 5241   5.783   1.429   5.148
 1448SOL     OW 5242   5.194   0.551   6.815
 1448SOL    HW1 5243   5.147   0.558   6.727
 1448SOL    HW2 5244   5.132   0.577   6.888
 1449SOL     OW 5245   4.925   5.904   0.875
 1449SOL    HW1 5246   4.833   5.865   0.876
 1449SOL    HW2 5247   4.980   5.856   0.807
 1450SOL     OW 5248   5.784   2.343   3.529
 1450SOL    HW1 5249   5.701   2.297   3.500
 1450SOL    HW2 5250   5.798   2.328   3.627
 1451SOL     OW 5251   2.050   6.686   1.914
 1451SOL    HW1 5252   2.108   6.683   1.996
 1451SOL    HW2 5253   2.030   6.781   1.891
 1452SOL     OW 5254   4.366   0.746   5.114
 1452SOL    HW1 5255   4.352   0.666   5.172
 1452SOL    HW2 5256   4.461   0.775   5.118
 1453SOL     OW 5257   4.385   4.595   4.398
 1453SOL    HW1 5258   4.366   4.671   4.336
 1453SOL    HW2 5259   4.402   4.512   4.345
 1454SOL     OW 5260   4.679   4.832   1.020
 1454SOL    HW1 5261   4.711   4.760   0.959
 1454SOL    HW2 5262   4.745   4.907   1.022
 1455SOL     OW 5263   2.419   2.128   1.674
 1455SOL    HW1 5264   2.500   2.185   1.664
 1455SOL    HW2 5265   2.442   2.033   1.653
 1456SOL     OW 5266   6.185   5.363   4.182
 1456SOL    HW1 5267   6.170   5.394   4.088
 1456SOL    HW2 5268   6.195   5.442   4.242
 1457SOL     OW 5269   1.681   6.975   3.595
 1457SOL    HW1 5270   1.779   6.956   3.587
 1457SOL    HW2 5271   1.656   6.980   3.692
 1458SOL     OW 5272   0.136   5.826   6.932
 1458SOL    HW1 5273   0.205   5.761   6.901
 1458SOL    HW2 5274   0.134   5.827   0.013
 1459SOL     OW 5275   2.343   0.124   0.656
 1459SOL    HW1 5276   2.327   0.197   0.723
 1459SOL    HW2 5277   2.360   0.038   0.704
 1460SOL     OW 5278   1.107   6.930   0.047
 1460SOL    HW1 5279   1.069   6.838   0.034
 1460SOL    HW2 5280   1.117   6.974   6.977
 1461SOL     OW 5281   4.692   5.128   2.381
 1461SOL    HW1 5282   4.708   5.064   2.306
 1461SOL    HW2 5283   4.660   5.215   2.345
 1462SOL     OW 5284   4.923   0.438   5.531
 1462SOL    HW1 5285   4.997   0.442   5.598
 1462SOL    HW2 5286   4.945   0.498   5.454
 1463SOL     OW 5287   0.419   1.311   5.210
 1463SOL    HW1 5288   0.488   1.382   5.195
 1463SOL    HW2 5289   0.344   1.349   5.264
 1464SOL     OW 5290   0.161   0.912   1.799
 1464SOL    HW1 5291   0.148   0.836   1.736
 1464SOL    HW2 5292   0.148   0.998   1.750
 1465SOL     OW 5293   0.660   0.257   4.518
 1465SOL    HW1 5294   0.600   0.193   4.566
 1465SOL    HW2 5295   0.653   0.242   4.419
 1466SOL     OW 5296   5.521   4.969   4.625
 1466SOL    HW1 5297   5.475   5.045   4.578
 1466SOL    HW2 5298   5.613   4.998   4.652
 1467SOL     OW 5299   5.770   3.707   3.194
 1467SOL    HW1 5300   5.758   3.642   3.269
 1467SOL    HW2 5301   5.784   3.799   3.231
 1468SOL     OW 5302   5.953   6.986   2.627
 1468SOL    HW1 5303   6.041   0.007   2.601
 1468SOL    HW2 5304   5.912   6.941   2.548
 1469SOL     OW 5305   0.547   0.885   2.377
 1469SOL    HW1 5306   0.475   0.945   2.342
 1469SOL    HW2 5307   0.537   0.874   2.476
 1470SOL     OW 5308   6.815   1.028   3.252
 1470SOL    HW1 5309   6.788   1.058   3.344
 1470SOL    HW2 5310   6.882   0.955   3.260
 1471SOL     OW 5311   6.306   0.418   1.017
 1471SOL    HW1 5312   6.376   0.489   1.025
 1471SOL    HW2 5313   6.344   0.330   1.046
 1472SOL     OW 5314   4.302   5.842   5.206
 1472SOL    HW1 5315   4.240   5.775   5.166
 1472SOL    HW2 5316   4.396   5.811   5.197
 1473SOL     OW 5317   5.801   3.975   3.237
 1473SOL    HW1 5318   5.853   4.020   3.310
 1473SOL    HW2 5319   5.715   4.024   3.222
 1474SOL     OW 5320   4.728   4.956   4.022
 1474SOL    HW1 5321   4.770   4.867   4.005
 1474SOL    HW2 5322   4.672   4.982   3.943
 1475SOL     OW 5323   6.363   1.115   3.364
 1475SOL    HW1 5324   6.352   1.091   3.461
 1475SOL    HW2 5325   6.301   1.061   3.308
 1476SOL     OW 5326   6.349   2.213   1.475
 1476SOL    HW1 5327   6.300   2.298   1.457
 1476SOL    HW2 5328   6.295   2.154   1.534
 1477SOL     OW 5329   2.708   5.994   3.508
 1477SOL    HW1 5330   2.638   6.037   3.451
 1477SOL    HW2 5331   2.722   5.899   3.479
 1478SOL     OW 5332   0.273   4.502   1.410
 1478SOL    HW1 5333   0.282   4.458   1.321
 1478SOL    HW2 5334   0.359   4.492   1.461
 1479SOL     OW 5335   0.605   4.887   0.710
 1479SOL    HW1 5336   0.590   4.915   0.615
 1479SOL    HW2 5337   0.593   4.788   0.718
 1480SOL     OW 5338   3.192   0.821   0.415
 1480SOL    HW1 5339   3.223   0.881   0.342
 1480SOL    HW2 5340   3.159   0.735   0.375
 1481SOL     OW 5341   6.678   2.729   6.274
 1481SOL    HW1 5342   6.694   2.660   6.204
 1481SOL    HW2 5343   6.719   2.816   6.245
 1482SOL     OW 5344   5.359   1.180   6.537
 1482SOL    HW1 5345   5.295   1.190   6.613
 1482SOL    HW2 5346   5.442   1.232   6.555
 1483SOL     OW 5347   6.175   2.604   6.409
 1483SOL    HW1 5348   6.128   2.529   6.363
 1483SOL    HW2 5349   6.208   2.573   6.498
 1484SOL     OW 5350   7.011   0.031   2.921
 1484SOL    HW1 5351   6.935   0.096   2.921
 1484SOL    HW2 5352   6.976   6.957   2.919
 1485SOL     OW 5353   5.860   2.503   4.048
 1485SOL    HW1 5354   5.872   2.585   4.104
 1485SOL    HW2 5355   5.781   2.452   4.082
 1486SOL     OW 5356   5.387   2.520   1.832
 1486SOL    HW1 5357   5.296   2.478   1.822
 1486SOL    HW2 5358   5.388   2.609   1.786
 1487SOL     OW 5359   6.266   1.220   5.742
 1487SOL    HW1 5360   6.225   1.129   5.744
 1487SOL    HW2 5361   6.240   1.271   5.824
 1488SOL     OW 5362   4.835   1.863   3.341
 1488SOL    HW1 5363   4.746   1.877   3.298
 1488SOL    HW2 5364   4.823   1.811   3.426
 1489SOL     OW 5365   4.168   5.462   4.825
 1489SOL    HW1 5366   4.095   5.403   4.858
 1489SOL    HW2 5367   4.170   5.459   4.725
 1490SOL     OW 5368   2.395   2.316   1.066
 1490SOL    HW1 5369   2.415   2.385   1.135
 1490SOL    HW2 5370   2.456   2.238   1.078
 1491SOL     OW 5371   6.751   2.200   5.543
 1491SOL    HW1 5372   6.843   2.223   5.513
 1491SOL    HW2 5373   6.745   2.206   5.642
 1492SOL     OW 5374   5.899   2.895   1.646
 1492SOL    HW1 5375   5.826   2.961   1.627
 1492SOL    HW2 5376   5.860   2.812   1.685
 1493SOL     OW 5377   5.826   1.713   5.010
 1493SOL    HW1 5378   5.892   1.774   5.055
 1493SOL    HW2 5379   5.843   1.712   4.912
 1494SOL     OW 5380   5.670   2.096   4.453
 1494SOL    HW1 5381   5.738   2.108   4.380
 1494SOL    HW2 5382   5.583   2.136   4.424
 1495SOL     OW 5383   0.976   2.807   3.014
 1495SOL    HW1 5384   1.027   2.764   2.939
 1495SOL    HW2 5385   0.981   2.749   3.095
 1496SOL     OW 5386   0.976   0.484   3.151
 1496SOL    HW1 5387   0.955   0.475   3.249
 1496SOL    HW2 5388   1.075   0.475   3.138
 1497SOL     OW 5389   5.076   4.500   5.594
 1497SOL    HW1 5390   5.068   4.401   5.604
 1497SOL    HW2 5391   5.168   4.524   5.562
 1498SOL     OW 5392   2.241   5.748   0.291
 1498SOL    HW1 5393   2.221   5.793   0.204
 1498SOL    HW2 5394   2.167   5.767   0.356
 1499SOL     OW 5395   0.569   4.588   4.711
 1499SOL    HW1 5396   0.632   4.558   4.639
 1499SOL    HW2 5397   0.620   4.641   4.779
 1500SOL     OW 5398   4.401   6.907   5.483
 1500SOL    HW1 5399   4.337   6.837   5.453
 1500SOL    HW2 5400   4.462   6.870   5.553
 1501SOL     OW 5401   4.271   0.502   6.819
 1501SOL    HW1 5402   4.360   0.478   6.858
 1501SOL    HW2 5403   4.251   0.598   6.839
 1502SOL     OW 5404   0.336   6.286   6.882
 1502SOL    HW1 5405   0.270   6.211   6.887
 1502SOL    HW2 5406   0.429   6.249   6.888
 1503SOL     OW 5407   3.400   4.162   5.199
 1503SOL    HW1 5408   3.304   4.143   5.177
 1503SOL    HW2 5409   3.459   4.103   5.145
 1504SOL     OW 5410   2.703   6.499   4.243
 1504SOL    HW1 5411   2.676   6.546   4.327
 1504SOL    HW2 5412   2.649   6.534   4.166
 1505SOL     OW 5413   5.193   5.634   2.401
 1505SOL    HW1 5414   5.209   5.628   2.499
 1505SOL    HW2 5415   5.095   5.640   2.383
 1506SOL     OW 5416   0.975   6.506   2.897
 1506SOL    HW1 5417   1.024   6.470   2.975
 1506SOL    HW2 5418   1.035   6.510   2.817
 1507SOL     OW 5419   2.833   1.942   6.436
 1507SOL    HW1 5420   2.902   2.010   6.459
 1507SOL    HW2 5421   2.865   1.851   6.464
 1508SOL     OW 5422   4.259   0.351   0.496
 1508SOL    HW1 5423   4.314   0.349   0.412
 1508SOL    HW2 5424   4.315   0.382   0.572
 1509SOL     OW 5425   5.292   1.603   0.243
 1509SOL    HW1 5426   5.262   1.671   0.176
 1509SOL    HW2 5427   5.342   1.530   0.197
 1510SOL     OW 5428   0.481   2.015   3.153
 1510SOL    HW1 5429   0.517   2.095   3.199
 1510SOL    HW2 5430   0.400   1.982   3.202
 1511SOL     OW 5431   1.986   2.671   0.787
 1511SOL    HW1 5432   1.889   2.648   0.799
 1511SOL    HW2 5433   2.015   2.732   0.861
 1512SOL     OW 5434   6.186   0.778   2.440
 1512SOL    HW1 5435   6.231   0.824   2.364
 1512SOL    HW2 5436   6.136   0.845   2.495
 1513SOL     OW 5437   3.772   1.012   2.362
 1513SOL    HW1 5438   3.717   1.035   2.282
 1513SOL    HW2 5439   3.818   1.094   2.395
 1514SOL     OW 5440   4.978   1.258   6.555
 1514SOL    HW1 5441   4.930   1.254   6.468
 1514SOL    HW2 5442   4.920   1.220   6.627
 1515SOL     OW 5443   6.222   5.509   4.862
 1515SOL    HW1 5444   6.243   5.582   4.797
 1515SOL    HW2 5445   6.131   5.523   4.901
 1516SOL     OW 5446   0.390   0.893   0.819
 1516SOL    HW1 5447   0.310   0.838   0.795
 1516SOL    HW2 5448   0.422   0.867   0.910
 1517SOL     OW 5449   3.502   4.942   3.589
 1517SOL    HW1 5450   3.431   4.876   3.568
 1517SOL    HW2 5451   3.536   4.983   3.504
 1518SOL     OW 5452   0.897   4.785   0.908
 1518SOL    HW1 5453   0.878   4.691   0.881
 1518SOL    HW2 5454   0.994   4.794   0.930
 1519SOL     OW 5455   6.975   4.013   1.409
 1519SOL    HW1 5456   0.016   4.053   1.479
 1519SOL    HW2 5457   6.885   4.055   1.415
 1520SOL     OW 5458   1.747   2.475   2.632
 1520SOL    HW1 5459   1.802   2.547   2.589
 1520SOL    HW2 5460   1.744   2.490   2.731
 1521SOL     OW 5461   2.800   4.317   5.325
 1521SOL    HW1 5462   2.832   4.390   5.265
 1521SOL    HW2 5463   2.873   4.293   5.389
 1522SOL     OW 5464   1.096   2.484   6.206
 1522SOL    HW1 5465   1.148   2.413   6.157
 1522SOL    HW2 5466   1.115   2.477   6.304
 1523SOL     OW 5467   6.766   1.359   0.718
 1523SOL    HW1 5468   6.680   1.329   0.676
 1523SOL    HW2 5469   6.808   1.282   0.766
 1524SOL     OW 5470   6.164   0.999   3.205
 1524SOL    HW1 5471   6.132   0.905   3.195
 1524SOL    HW2 5472   6.115   1.044   3.279
 1525SOL     OW 5473   4.868   1.542   6.059
 1525SOL    HW1 5474   4.850   1.573   5.965
 1525SOL    HW2 5475   4.784   1.504   6.098
 1526SOL     OW 5476   6.929   1.770   6.982
 1526SOL    HW1 5477   6.996   1.722   0.019
 1526SOL    HW2 5478   6.837   1.756   7.019
 1527SOL     OW 5479   2.573   1.617   5.684
 1527SOL    HW1 5480   2.645   1.638   5.749
 1527SOL    HW2 5481   2.499   1.568   5.730
 1528SOL     OW 5482   5.026   5.530   4.037
 1528SOL    HW1 5483   4.943   5.567   3.996
 1528SOL    HW2 5484   5.029   5.554   4.134
 1529SOL     OW 5485   3.280   0.838   5.166
 1529SOL    HW1 5486   3.263   0.761   5.105
 1529SOL    HW2 5487   3.342   0.902   5.123
 1530SOL     OW 5488   3.295   0.089   2.386
 1530SOL    HW1 5489   3.205   0.073   2.346
 1530SOL    HW2 5490   3.345   0.003   2.394
 1531SOL     OW 5491   5.975   0.300   6.298
 1531SOL    HW1 5492   5.980   0.389   6.345
 1531SOL    HW2 5493   5.899   0.247   6.335
 1532SOL     OW 5494   3.355   2.557   5.327
 1532SOL    HW1 5495   3.283   2.524   5.266
 1532SOL    HW2 5496   3.440   2.509   5.306
 1533SOL     OW 5497   5.371   2.974   6.814
 1533SOL    HW1 5498   5.321   3.056   6.786
 1533SOL    HW2 5499   5.459   2.970   6.766
 1534SOL     OW 5500   6.671   0.062   1.731
 1534SOL    HW1 5501   6.712   0.019   1.650
 1534SOL    HW2 5502   6.740   0.115   1.780
 1535SOL     OW 5503   4.836   4.719   3.931
 1535SOL    HW1 5504   4.881   4.631   3.948
 1535SOL    HW2 5505   4.789   4.717   3.843
 1536SOL     OW 5506   3.147   5.112   3.256
 1536SOL    HW1 5507   3.166   5.172   3.335
 1536SOL    HW2 5508   3.188   5.022   3.272
 1537SOL     OW 5509   2.306   5.774   4.367
 1537SOL    HW1 5510   2.264   5.697   4.413
 1537SOL    HW2 5511   2.280   5.859   4.413
 1538SOL     OW 5512   3.286   4.848   6.488
 1538SOL    HW1 5513   3.299   4.801   6.401
 1538SOL    HW2 5514   3.191   4.881   6.494
 1539SOL     OW 5515   3.631   5.268   1.708
 1539SOL    HW1 5516   3.587   5.319   1.634
 1539SOL    HW2 5517   3.685   5.331   1.764
 1540SOL     OW 5518   5.937   0.320   5.663
 1540SOL    HW1 5519   6.005   0.266   5.713
 1540SOL    HW2 5520   5.984   0.387   5.606
 1541SOL     OW 5521   4.550   1.789   0.877
 1541SOL    HW1 5522   4.642   1.792   0.836
 1541SOL    HW2 5523   4.506   1.703   0.852
 1542SOL     OW 5524   1.247   6.569   0.869
 1542SOL    HW1 5525   1.228   6.662   0.838
 1542SOL    HW2 5526   1.244   6.507   0.791
 1543SOL     OW 5527   3.512   4.132   3.626
 1543SOL    HW1 5528   3.591   4.100   3.679
 1543SOL    HW2 5529   3.447   4.176   3.687
 1544SOL     OW 5530   3.599   3.814   2.679
 1544SOL    HW1 5531   3.512   3.835   2.725
 1544SOL    HW2 5532   3.675   3.840   2.738
 1545SOL     OW 5533   6.630   0.302   4.155
 1545SOL    HW1 5534   6.659   0.211   4.127
 1545SOL    HW2 5535   6.647   0.315   4.253
 1546SOL     OW 5536   6.529   6.840   6.273
 1546SOL    HW1 5537   6.615   6.867   6.231
 1546SOL    HW2 5538   6.546   6.773   6.345
 1547SOL     OW 5539   3.492   5.930   6.955
 1547SOL    HW1 5540   3.410   5.970   6.995
 1547SOL    HW2 5541   3.540   5.875   0.004
 1548SOL     OW 5542   5.873   4.346   3.928
 1548SOL    HW1 5543   5.903   4.423   3.983
 1548SOL    HW2 5544   5.802   4.295   3.977
 1549SOL     OW 5545   6.447   2.192   0.677
 1549SOL    HW1 5546   6.496   2.196   0.590
 1549SOL    HW2 5547   6.503   2.147   0.746
 1550SOL     OW 5548   2.255   5.642   2.596
 1550SOL    HW1 5549   2.310   5.582   2.652
 1550SOL    HW2 5550   2.291   5.644   2.503
 1551SOL     OW 5551   0.677   3.626   0.953
 1551SOL    HW1 5552   0.607   3.692   0.979
 1551SOL    HW2 5553   0.635   3.536   0.941
 1552SOL     OW 5554   0.826   6.860   1.381
 1552SOL    HW1 5555   0.855   6.810   1.299
 1552SOL    HW2 5556   0.900   6.860   1.448
 1553SOL     OW 5557   5.669   1.642   6.153
 1553SOL    HW1 5558   5.769   1.643   6.162
 1553SOL    HW2 5559   5.628   1.699   6.224
 1554SOL     OW 5560   2.415   1.915   1.234
 1554SOL    HW1 5561   2.372   1.975   1.301
 1554SOL    HW2 5562   2.440   1.829   1.277
 1555SOL     OW 5563   3.628   0.827   6.508
 1555SOL    HW1 5564   3.639   0.728   6.497
 1555SOL    HW2 5565   3.537   0.854   6.478
 1556SOL     OW 5566   4.092   2.064   6.801
 1556SOL    HW1 5567   4.066   2.139   6.862
 1556SOL    HW2 5568   4.019   1.996   6.799
 1557SOL     OW 5569   1.661   3.279   0.574
 1557SOL    HW1 5570   1.725   3.348   0.608
 1557SOL    HW2 5571   1.579   3.278   0.632
 1558SOL     OW 5572   5.042   2.941   6.336
 1558SOL    HW1 5573   4.997   2.968   6.421
 1558SOL    HW2 5574   4.984   2.875   6.288
 1559SOL     OW 5575   3.533   5.577   2.945
 1559SOL    HW1 5576   3.445   5.553   2.904
 1559SOL    HW2 5577   3.564   5.502   3.003
 1560SOL     OW 5578   3.781   2.369   1.107
 1560SOL    HW1 5579   3.760   2.359   1.204
 1560SOL    HW2 5580   3.795   2.278   1.066
 1561SOL     OW 5581   5.938   6.451   1.172
 1561SOL    HW1 5582   5.857   6.403   1.137
 1561SOL    HW2 5583   6.021   6.405   1.140
 1562SOL     OW 5584   3.423   0.695   2.557
 1562SOL    HW1 5585   3.347   0.745   2.516
 1562SOL    HW2 5586   3.388   0.620   2.612
 1563SOL     OW 5587   2.365   1.999   3.994
 1563SOL    HW1 5588   2.369   1.996   4.094
 1563SOL    HW2 5589   2.457   1.999   3.956
 1564SOL     OW 5590   0.573   0.952   2.970
 1564SOL    HW1 5591   0.581   0.928   3.066
 1564SOL    HW2 5592   0.495   0.903   2.930
 1565SOL     OW 5593   4.009   1.195   4.678
 1565SOL    HW1 5594   3.989   1.122   4.613
 1565SOL    HW2 5595   3.952   1.275   4.658
 1566SOL     OW 5596   5.646   4.271   3.728
 1566SOL    HW1 5597   5.710   4.321   3.786
 1566SOL    HW2 5598   5.557   4.318   3.729
 1567SOL     OW 5599   5.307   0.436   5.145
 1567SOL    HW1 5600   5.224   0.391   5.178
 1567SOL    HW2 5601   5.283   0.515   5.089
 1568SOL     OW 5602   2.951   4.726   1.341
 1568SOL    HW1 5603   2.972   4.644   1.394
 1568SOL    HW2 5604   2.877   4.776   1.385
 1569SOL     OW 5605   3.106   0.989   2.841
 1569SOL    HW1 5606   3.008   1.006   2.845
 1569SOL    HW2 5607   3.134   0.976   2.746
 1570SOL     OW 5608   2.603   6.001   6.168
 1570SOL    HW1 5609   2.698   5.977   6.186
 1570SOL    HW2 5610   2.573   5.955   6.085
 1571SOL     OW 5611   6.956   3.717   4.120
 1571SOL    HW1 5612   6.873   3.684   4.166
 1571SOL    HW2 5613   6.943   3.714   4.021
 1572SOL     OW 5614   2.887   5.498   2.615
 1572SOL    HW1 5615   2.954   5.571   2.599
 1572SOL    HW2 5616   2.797   5.537   2.633
 1573SOL     OW 5617   5.139   5.675   0.001
 1573SOL    HW1 5618   5.201   5.603   0.031
 1573SOL    HW2 5619   5.189   5.740   6.963
 1574SOL     OW 5620   0.851   4.511   2.957
 1574SOL    HW1 5621   0.755   4.497   2.983
 1574SOL    HW2 5622   0.909   4.506   3.038
 1575SOL     OW 5623   6.859   2.824   0.129
 1575SOL    HW1 5624   6.835   2.768   0.049
 1575SOL    HW2 5625   6.843   2.772   0.212
 1576SOL     OW 5626   1.965   6.110   1.414
 1576SOL    HW1 5627   2.055   6.123   1.456
 1576SOL    HW2 5628   1.898   6.170   1.458
 1577SOL     OW 5629   3.941   5.597   4.275
 1577SOL    HW1 5630   3.920   5.580   4.371
 1577SOL    HW2 5631   3.998   5.523   4.239
 1578SOL     OW 5632   5.208   1.152   1.944
 1578SOL    HW1 5633   5.250   1.222   1.885
 1578SOL    HW2 5634   5.207   1.185   2.038
 1579SOL     OW 5635   1.387   2.664   2.086
 1579SOL    HW1 5636   1.393   2.742   2.024
 1579SOL    HW2 5637   1.446   2.590   2.052
 1580SOL     OW 5638   2.958   3.847   2.631
 1580SOL    HW1 5639   2.894   3.911   2.675
 1580SOL    HW2 5640   2.962   3.762   2.684
 1581SOL     OW 5641   6.308   4.525   5.356
 1581SOL    HW1 5642   6.404   4.547   5.371
 1581SOL    HW2 5643   6.267   4.593   5.295
 1582SOL     OW 5644   4.559   5.824   5.174
 1582SOL    HW1 5645   4.619   5.797   5.098
 1582SOL    HW2 5646   4.613   5.873   5.243
 1583SOL     OW 5647   1.270   5.261   5.281
 1583SOL    HW1 5648   1.366   5.277   5.257
 1583SOL    HW2 5649   1.213   5.326   5.231
 1584SOL     OW 5650   6.731   3.876   0.301
 1584SOL    HW1 5651   6.644   3.829   0.285
 1584SOL    HW2 5652   6.724   3.971   0.271
 1585SOL     OW 5653   4.241   6.785   3.619
 1585SOL    HW1 5654   4.215   6.853   3.687
 1585SOL    HW2 5655   4.229   6.823   3.528
 1586SOL     OW 5656   3.599   6.225   3.233
 1586SOL    HW1 5657   3.634   6.259   3.146
 1586SOL    HW2 5658   3.583   6.126   3.226
 1587SOL     OW 5659   2.671   6.216   6.479
 1587SOL    HW1 5660   2.704   6.229   6.573
 1587SOL    HW2 5661   2.575   6.189   6.482
 1588SOL     OW 5662   6.471   1.628   3.700
 1588SOL    HW1 5663   6.454   1.598   3.793
 1588SOL    HW2 5664   6.515   1.718   3.701
 1589SOL     OW 5665   6.304   4.192   3.956
 1589SOL    HW1 5666   6.272   4.145   3.873
 1589SOL    HW2 5667   6.308   4.126   4.031
 1590SOL     OW 5668   6.910   2.192   3.508
 1590SOL    HW1 5669   6.933   2.236   3.421
 1590SOL    HW2 5670   6.995   2.168   3.556
 1591SOL     OW 5671   1.553   6.343   1.101
 1591SOL    HW1 5672   1.632   6.399   1.075
 1591SOL    HW2 5673   1.495   6.395   1.164
 1592SOL     OW 5674   0.234   3.617   6.286
 1592SOL    HW1 5675   0.199   3.711   6.278
 1592SOL    HW2 5676   0.245   3.578   6.195
 1593SOL     OW 5677   3.639   6.705   6.980
 1593SOL    HW1 5678   3.732   6.742   6.987
 1593SOL    HW2 5679   3.640   6.609   7.008
 1594SOL     OW 5680   5.967   0.935   2.523
 1594SOL    HW1 5681   5.933   0.924   2.616
 1594SOL    HW2 5682   5.919   0.873   2.461
 1595SOL     OW 5683   0.611   3.299   0.041
 1595SOL    HW1 5684   0.687   3.361   0.022
 1595SOL    HW2 5685   0.644   3.219   0.092
 1596SOL     OW 5686   4.632   4.914   3.305
 1596SOL    HW1 5687   4.545   4.879   3.340
 1596SOL    HW2 5688   4.691   4.938   3.382
 1597SOL     OW 5689   3.929   5.959   0.013
 1597SOL    HW1 5690   3.959   5.881   0.068
 1597SOL    HW2 5691   3.844   5.934   6.985
 1598SOL     OW 5692   0.949   4.822   6.342
 1598SOL    HW1 5693   1.031   4.765   6.351
 1598SOL    HW2 5694   0.946   4.889   6.416
 1599SOL     OW 5695   4.453   5.169   3.008
 1599SOL    HW1 5696   4.520   5.095   3.016
 1599SOL    HW2 5697   4.391   5.149   2.932
 1600SOL     OW 5698   3.969   0.471   2.107
 1600SOL    HW1 5699   3.904   0.520   2.164
 1600SOL    HW2 5700   3.920   0.404   2.051
 1601SOL     OW 5701   6.394   0.863   4.762
 1601SOL    HW1 5702   6.302   0.876   4.799
 1601SOL    HW2 5703   6.452   0.939   4.791
 1602SOL     OW 5704   4.026   6.142   4.028
 1602SOL    HW1 5705   4.098   6.183   4.085
 1602SOL    HW2 5706   4.067   6.095   3.950
 1603SOL     OW 5707   2.853   4.782   3.156
 1603SOL    HW1 5708   2.894   4.695   3.130
 1603SOL    HW2 5709   2.885   4.807   3.248
 1604SOL     OW 5710   4.381   5.137   2.479
 1604SOL    HW1 5711   4.465   5.115   2.529
 1604SOL    HW2 5712   4.356   5.232   2.496
 1605SOL     OW 5713   4.975   4.855   0.785
 1605SOL    HW1 5714   5.023   4.778   0.742
 1605SOL    HW2 5715   5.035   4.899   0.852
 1606SOL     OW 5716   3.048   6.209   4.368
 1606SOL    HW1 5717   3.146   6.204   4.349
 1606SOL    HW2 5718   3.010   6.116   4.367
 1607SOL     OW 5719   4.414   5.165   3.444
 1607SOL    HW1 5720   4.510   5.192   3.432
 1607SOL    HW2 5721   4.380   5.203   3.530
 1608SOL     OW 5722   5.074   2.118   3.421
 1608SOL    HW1 5723   4.986   2.126   3.374
 1608SOL    HW2 5724   5.099   2.021   3.428
 1609SOL     OW 5725   2.557   6.939   1.217
 1609SOL    HW1 5726   2.552   6.840   1.217
 1609SOL    HW2 5727   2.616   6.969   1.142
 1610SOL     OW 5728   5.336   0.187   1.174
 1610SOL    HW1 5729   5.296   0.147   1.092
 1610SOL    HW2 5730   5.401   0.123   1.214
 1611SOL     OW 5731   1.468   4.531   0.057
 1611SOL    HW1 5732   1.401   4.602   0.036
 1611SOL    HW2 5733   1.532   4.566   0.126
 1612SOL     OW 5734   4.766   0.492   2.408
 1612SOL    HW1 5735   4.739   0.508   2.313
 1612SOL    HW2 5736   4.858   0.529   2.424
 1613SOL     OW 5737   6.638   5.285   2.450
 1613SOL    HW1 5738   6.620   5.374   2.407
 1613SOL    HW2 5739   6.585   5.278   2.535
 1614SOL     OW 5740   6.400   1.408   6.177
 1614SOL    HW1 5741   6.337   1.481   6.152
 1614SOL    HW2 5742   6.494   1.442   6.168
 1615SOL     OW 5743   0.412   3.976   6.450
 1615SOL    HW1 5744   0.367   4.051   6.401
 1615SOL    HW2 5745   0.344   3.925   6.503
 1616SOL     OW 5746   0.913   0.350   3.717
 1616SOL    HW1 5747   0.814   0.346   3.732
 1616SOL    HW2 5748   0.957   0.272   3.761
 1617SOL     OW 5749   6.004   6.096   3.461
 1617SOL    HW1 5750   6.024   6.026   3.393
 1617SOL    HW2 5751   6.051   6.181   3.436
 1618SOL     OW 5752   3.378   5.461   3.457
 1618SOL    HW1 5753   3.316   5.503   3.390
 1618SOL    HW2 5754   3.466   5.509   3.455
 1619SOL     OW 5755   1.110   4.123   0.067
 1619SOL    HW1 5756   1.188   4.165   0.020
 1619SOL    HW2 5757   1.072   4.187   0.133
 1620SOL     OW 5758   3.419   5.765   4.551
 1620SOL    HW1 5759   3.479   5.838   4.519
 1620SOL    HW2 5760   3.471   5.702   4.609
 1621SOL     OW 5761   5.048   5.794   0.680
 1621SOL    HW1 5762   5.112   5.722   0.655
 1621SOL    HW2 5763   5.002   5.828   0.597
 1622SOL     OW 5764   6.670   4.451   4.577
 1622SOL    HW1 5765   6.744   4.459   4.511
 1622SOL    HW2 5766   6.608   4.528   4.567
 1623SOL     OW 5767   6.977   1.682   3.077
 1623SOL    HW1 5768   6.944   1.713   2.988
 1623SOL    HW2 5769   0.001   1.758   3.125
 1624SOL     OW 5770   3.807   3.056   0.681
 1624SOL    HW1 5771   3.719   3.008   0.685
 1624SOL    HW2 5772   3.791   3.150   0.650
 1625SOL     OW 5773   0.612   6.821   1.056
 1625SOL    HW1 5774   0.541   6.810   0.986
 1625SOL    HW2 5775   0.669   6.739   1.059
 1626SOL     OW 5776   2.534   1.876   1.643
 1626SOL    HW1 5777   2.508   1.812   1.571
 1626SOL    HW2 5778   2.624   1.914   1.623
 1627SOL     OW 5779   3.716   2.078   5.684
 1627SOL    HW1 5780   3.643   2.133   5.642
 1627SOL    HW2 5781   3.678   1.989   5.711
 1628SOL     OW 5782   5.537   6.729   1.238
 1628SOL    HW1 5783   5.553   6.637   1.274
 1628SOL    HW2 5784   5.582   6.738   1.149
 1629SOL     OW 5785   1.541   0.168   3.479
 1629SOL    HW1 5786   1.608   0.101   3.511
 1629SOL    HW2 5787   1.505   0.141   3.390
 1630SOL     OW 5788   0.574   3.664   6.085
 1630SOL    HW1 5789   0.571   3.591   6.153
 1630SOL    HW2 5790   0.545   3.628   5.996
 1631SOL     OW 5791   6.506   3.569   0.360
 1631SOL    HW1 5792   6.461   3.483   0.339
 1631SOL    HW2 5793   6.496   3.632   0.283
 1632SOL     OW 5794   6.778   5.796   2.445
 1632SOL    HW1 5795   6.764   5.789   2.346
 1632SOL    HW2 5796   6.806   5.890   2.468
 1633SOL     OW 5797   5.570   3.692   5.200
 1633SOL    HW1 5798   5.552   3.788   5.217
 1633SOL    HW2 5799   5.665   3.671   5.220
 1634SOL     OW 5800   6.594   1.711   5.316
 1634SOL    HW1 5801   6.555   1.622   5.294
 1634SOL    HW2 5802   6.570   1.777   5.244
 1635SOL     OW 5803   3.476   6.311   3.438
 1635SOL    HW1 5804   3.549   6.289   3.372
 1635SOL    HW2 5805   3.495   6.266   3.525
 1636SOL     OW 5806   6.248   6.276   1.296
 1636SOL    HW1 5807   6.183   6.252   1.225
 1636SOL    HW2 5808   6.240   6.210   1.372
 1637SOL     OW 5809   1.015   0.758   3.068
 1637SOL    HW1 5810   1.015   0.739   2.970
 1637SOL    HW2 5811   0.992   0.675   3.118
 1638SOL     OW 5812   6.074   3.015   1.943
 1638SOL    HW1 5813   6.124   3.022   1.857
 1638SOL    HW2 5814   5.988   2.966   1.928
 1639SOL     OW 5815   5.304   2.666   2.195
 1639SOL    HW1 5816   5.336   2.757   2.167
 1639SOL    HW2 5817   5.311   2.658   2.295
 1640SOL     OW 5818   6.230   0.059   6.580
 1640SOL    HW1 5819   6.134   0.040   6.599
 1640SOL    HW2 5820   6.238   0.142   6.525
 1641SOL     OW 5821   6.042   2.242   3.070
 1641SOL    HW1 5822   6.084   2.316   3.122
 1641SOL    HW2 5823   6.010   2.171   3.132
 1642SOL     OW 5824   6.991   3.004   6.568
 1642SOL    HW1 5825   6.911   3.063   6.583
 1642SOL    HW2 5826   0.042   3.056   6.520
 1643SOL     OW 5827   2.334   5.774   3.671
 1643SOL    HW1 5828   2.415   5.743   3.622
 1643SOL    HW2 5829   2.357   5.854   3.726
 1644SOL     OW 5830   6.277   2.624   1.768
 1644SOL    HW1 5831   6.180   2.628   1.743
 1644SOL    HW2 5832   6.324   2.703   1.730
 1645SOL     OW 5833   2.452   0.392   5.781
 1645SOL    HW1 5834   2.405   0.453   5.717
 1645SOL    HW2 5835   2.533   0.438   5.818
 1646SOL     OW 5836   1.540   4.811   0.546
 1646SOL    HW1 5837   1.448   4.832   0.581
 1646SOL    HW2 5838   1.601   4.888   0.566
 1647SOL     OW 5839   5.146   3.112   4.300
 1647SOL    HW1 5840   5.121   3.076   4.390
 1647SOL    HW2 5841   5.134   3.040   4.232
 1648SOL     OW 5842   5.577   6.108   1.250
 1648SOL    HW1 5843   5.539   6.016   1.258
 1648SOL    HW2 5844   5.504   6.175   1.263
 1649SOL     OW 5845   3.856   1.362   3.177
 1649SOL    HW1 5846   3.907   1.276   3.176
 1649SOL    HW2 5847   3.792   1.362   3.254
 1650SOL     OW 5848   2.923   4.282   6.087
 1650SOL    HW1 5849   2.932   4.382   6.096
 1650SOL    HW2 5850   2.852   4.261   6.020
 1651SOL     OW 5851   0.868   2.639   4.052
 1651SOL    HW1 5852   0.873   2.731   4.013
 1651SOL    HW2 5853   0.787   2.633   4.110
 1652SOL     OW 5854   0.687   3.350   1.497
 1652SOL    HW1 5855   0.629   3.396   1.564
 1652SOL    HW2 5856   0.784   3.368   1.518
 1653SOL     OW 5857   0.264   4.875   2.548
 1653SOL    HW1 5858   0.311   4.787   2.551
 1653SOL    HW2 5859   0.225   4.894   2.638
 1654SOL     OW 5860   0.368   3.082   2.337
 1654SOL    HW1 5861   0.438   3.038   2.280
 1654SOL    HW2 5862   0.331   3.016   2.402
 1655SOL     OW 5863   0.001   0.435   5.063
 1655SOL    HW1 5864   6.978   0.420   5.152
 1655SOL    HW2 5865   0.060   0.358   5.041
 1656SOL     OW 5866   1.978   4.387   3.244
 1656SOL    HW1 5867   1.978   4.312   3.310
 1656SOL    HW2 5868   1.971   4.474   3.293
 1657SOL     OW 5869   0.278   6.761   5.697
 1657SOL    HW1 5870   0.236   6.701   5.764
 1657SOL    HW2 5871   0.377   6.747   5.697
 1658SOL     OW 5872   5.534   6.661   6.305
 1658SOL    HW1 5873   5.562   6.582   6.250
 1658SOL    HW2 5874   5.512   6.737   6.244
 1659SOL     OW 5875   4.108   6.604   6.317
 1659SOL    HW1 5876   4.060   6.555   6.390
 1659SOL    HW2 5877   4.180   6.546   6.280
 1660SOL     OW 5878   2.384   0.797   2.024
 1660SOL    HW1 5879   2.465   0.843   1.989
 1660SOL    HW2 5880   2.301   0.843   1.990
 1661SOL     OW 5881   4.990   4.296   2.634
 1661SOL    HW1 5882   4.932   4.225   2.674
 1661SOL    HW2 5883   4.998   4.280   2.535
 1662SOL     OW 5884   0.551   1.872   3.910
 1662SOL    HW1 5885   0.452   1.884   3.909
 1662SOL    HW2 5886   0.580   1.824   3.828
 1663SOL     OW 5887   5.413   4.789   0.669
 1663SOL    HW1 5888   5.489   4.800   0.733
 1663SOL    HW2 5889   5.441   4.820   0.579
 1664SOL     OW 5890   0.759   0.104   6.486
 1664SOL    HW1 5891   0.756   0.198   6.521
 1664SOL    HW2 5892   0.832   0.053   6.532
 1665SOL     OW 5893   2.926   4.141   0.087
 1665SOL    HW1 5894   2.870   4.083   0.146
 1665SOL    HW2 5895   3.022   4.133   0.113
 1666SOL     OW 5896   5.183   6.527   6.023
 1666SOL    HW1 5897   5.177   6.607   5.963
 1666SOL    HW2 5898   5.102   6.523   6.081
 1667SOL     OW 5899   0.145   6.555   1.140
 1667SOL    HW1 5900   0.122   6.553   1.042
 1667SOL    HW2 5901   0.225   6.497   1.156
 1668SOL     OW 5902   5.937   3.959   2.345
 1668SOL    HW1 5903   5.910   4.041   2.294
 1668SOL    HW2 5904   5.905   3.966   2.439
 1669SOL     OW 5905   6.685   3.546   5.399
 1669SOL    HW1 5906   6.716   3.632   5.441
 1669SOL    HW2 5907   6.707   3.470   5.460
 1670SOL     OW 5908   2.370   4.590   5.979
 1670SOL    HW1 5909   2.314   4.514   6.013
 1670SOL    HW2 5910   2.376   4.585   5.879
 1671SOL     OW 5911   6.078   2.335   1.232
 1671SOL    HW1 5912   6.154   2.398   1.212
 1671SOL    HW2 5913   6.108   2.241   1.219
 1672SOL     OW 5914   0.511   2.877   0.924
 1672SOL    HW1 5915   0.472   2.960   0.963
 1672SOL    HW2 5916   0.519   2.888   0.825
 1673SOL     OW 5917   1.873   0.415   4.459
 1673SOL    HW1 5918   1.918   0.362   4.531
 1673SOL    HW2 5919   1.792   0.460   4.497
 1674SOL     OW 5920   5.096   1.920   2.858
 1674SOL    HW1 5921   5.073   1.913   2.955
 1674SOL    HW2 5922   5.165   1.851   2.835
 1675SOL     OW 5923   5.185   0.195   1.680
 1675SOL    HW1 5924   5.183   0.096   1.696
 1675SOL    HW2 5925   5.164   0.214   1.584
 1676SOL     OW 5926   1.118   2.343   2.758
 1676SOL    HW1 5927   1.025   2.308   2.770
 1676SOL    HW2 5928   1.115   2.429   2.707
 1677SOL     OW 5929   3.545   2.905   3.568
 1677SOL    HW1 5930   3.633   2.908   3.615
 1677SOL    HW2 5931   3.524   2.996   3.531
 1678SOL     OW 5932   1.369   0.398   0.858
 1678SOL    HW1 5933   1.431   0.436   0.789
 1678SOL    HW2 5934   1.306   0.335   0.814
 1679SOL     OW 5935   0.171   2.004   6.654
 1679SOL    HW1 5936   0.267   1.982   6.671
 1679SOL    HW2 5937   0.158   2.103   6.668
 1680SOL     OW 5938   5.643   2.732   3.409
 1680SOL    HW1 5939   5.552   2.694   3.423
 1680SOL    HW2 5940   5.711   2.674   3.455
 1681SOL     OW 5941   2.606   6.457   4.619
 1681SOL    HW1 5942   2.533   6.454   4.687
 1681SOL    HW2 5943   2.637   6.551   4.606
 1682SOL     OW 5944   3.670   7.007   3.977
 1682SOL    HW1 5945   3.769   6.997   3.984
 1682SOL    HW2 5946   3.635   0.033   4.060
 1683SOL     OW 5947   6.223   4.039   3.229
 1683SOL    HW1 5948   6.153   4.077   3.169
 1683SOL    HW2 5949   6.190   3.952   3.267
 1684SOL     OW 5950   2.384   4.906   1.991
 1684SOL    HW1 5951   2.392   5.002   1.962
 1684SOL    HW2 5952   2.476   4.867   1.999
 1685SOL     OW 5953   0.054   0.897   5.781
 1685SOL    HW1 5954   0.006   0.950   5.710
 1685SOL    HW2 5955   0.152   0.896   5.762
 1686SOL     OW 5956   4.768   5.252   2.766
 1686SOL    HW1 5957   4.803   5.214   2.851
 1686SOL    HW2 5958   4.715   5.182   2.717
 1687SOL     OW 5959   5.085   4.438   1.464
 1687SOL    HW1 5960   5.074   4.475   1.372
 1687SOL    HW2 5961   4.996   4.439   1.511
 1688SOL     OW 5962   1.362   0.772   2.485
 1688SOL    HW1 5963   1.280   0.749   2.432
 1688SOL    HW2 5964   1.408   0.849   2.442
 1689SOL     OW 5965   4.086   0.518   1.644
 1689SOL    HW1 5966   4.180   0.528   1.611
 1689SOL    HW2 5967   4.023   0.521   1.567
 1690SOL     OW 5968   0.155   5.398   3.517
 1690SOL    HW1 5969   0.254   5.388   3.504
 1690SOL    HW2 5970   0.120   5.469   3.456
 1691SOL     OW 5971   4.294   2.766   5.311
 1691SOL    HW1 5972   4.247   2.796   5.393
 1691SOL    HW2 5973   4.243   2.691   5.268
 1692SOL     OW 5974   4.943   4.764   1.511
 1692SOL    HW1 5975   4.907   4.771   1.604
 1692SOL    HW2 5976   5.042   4.757   1.515
 1693SOL     OW 5977   5.692   6.856   5.560
 1693SOL    HW1 5978   5.742   6.825   5.641
 1693SOL    HW2 5979   5.625   6.787   5.534
 1694SOL     OW 5980   4.373   1.796   6.160
 1694SOL    HW1 5981   4.457   1.804   6.106
 1694SOL    HW2 5982   4.367   1.872   6.224
 1695SOL     OW 5983   3.535   0.547   6.787
 1695SOL    HW1 5984   3.616   0.534   6.731
 1695SOL    HW2 5985   3.537   0.639   6.827
 1696SOL     OW 5986   5.064   6.440   0.594
 1696SOL    HW1 5987   5.036   6.415   0.501
 1696SOL    HW2 5988   4.992   6.494   0.637
 1697SOL     OW 5989   4.990   3.123   1.953
 1697SOL    HW1 5990   5.030   3.092   1.867
 1697SOL    HW2 5991   4.898   3.085   1.963
 1698SOL     OW 5992   4.384   0.801   1.669
 1698SOL    HW1 5993   4.480   0.775   1.679
 1698SOL    HW2 5994   4.368   0.889   1.714
 1699SOL     OW 5995   2.396   0.137   0.145
 1699SOL    HW1 5996   2.374   0.042   0.127
 1699SOL    HW2 5997   2.453   0.143   0.227
 1700SOL     OW 5998   5.267   2.790   2.906
 1700SOL    HW1 5999   5.325   2.751   2.835
 1700SOL    HW2 6000   5.300   2.881   2.931
 1701SOL     OW 6001   6.953   6.202   5.362
 1701SOL    HW1 6002   6.876   6.138   5.373
 1701SOL    HW2 6003   6.972   6.246   5.450
 1702SOL     OW 6004   2.568   2.218   6.750
 1702SOL    HW1 6005   2.638   2.280   6.784
 1702SOL    HW2 6006   2.515   2.181   6.826
 1703SOL     OW 6007   1.432   1.670   1.887
 1703SOL    HW1 6008   1.471   1.607   1.954
 1703SOL    HW2 6009   1.339   1.641   1.865
 1704SOL     OW 6010   3.570   2.020   0.987
 1704SOL    HW1 6011   3.511   2.084   0.939
 1704SOL    HW2 6012   3.554   1.927   0.954
 1705SOL     OW 6013   4.403   2.523   0.980
 1705SOL    HW1 6014   4.393   2.503   0.883
 1705SOL    HW2 6015   4.312   2.531   1.022
 1706SOL     OW 6016   5.895   2.482   6.407
 1706SOL    HW1 6017   5.914   2.559   6.467
 1706SOL    HW2 6018   5.976   2.461   6.353
 1707SOL     OW 6019   4.466   1.789   2.013
 1707SOL    HW1 6020   4.515   1.726   1.953
 1707SOL    HW2 6021   4.404   1.737   2.072
 1708SOL     OW 6022   3.105   4.996   2.245
 1708SOL    HW1 6023   3.019   4.945   2.241
 1708SOL    HW2 6024   3.181   4.932   2.233
 1709SOL     OW 6025   4.814   5.438   0.702
 1709SOL    HW1 6026   4.799   5.524   0.751
 1709SOL    HW2 6027   4.726   5.398   0.677
 1710SOL     OW 6028   4.894   4.598   2.917
 1710SOL    HW1 6029   4.834   4.525   2.884
 1710SOL    HW2 6030   4.905   4.667   2.846
 1711SOL     OW 6031   3.806   4.633   6.907
 1711SOL    HW1 6032   3.747   4.659   6.984
 1711SOL    HW2 6033   3.846   4.715   6.866
 1712SOL     OW 6034   0.826   1.607   1.967
 1712SOL    HW1 6035   0.789   1.584   1.877
 1712SOL    HW2 6036   0.797   1.699   1.993
 1713SOL     OW 6037   3.730   1.241   2.933
 1713SOL    HW1 6038   3.802   1.272   2.995
 1713SOL    HW2 6039   3.646   1.225   2.984
 1714SOL     OW 6040   2.859   3.642   0.259
 1714SOL    HW1 6041   2.775   3.588   0.250
 1714SOL    HW2 6042   2.935   3.582   0.281
 1715SOL     OW 6043   2.344   6.543   2.206
 1715SOL    HW1 6044   2.275   6.616   2.207
 1715SOL    HW2 6045   2.301   6.456   2.231
 1716SOL     OW 6046   4.299   1.214   3.272
 1716SOL    HW1 6047   4.393   1.181   3.272
 1716SOL    HW2 6048   4.297   1.311   3.249
 1717SOL     OW 6049   3.114   6.243   4.807
 1717SOL    HW1 6050   3.154   6.153   4.790
 1717SOL    HW2 6051   3.064   6.274   4.726
 1718SOL     OW 6052   1.431   2.876   1.531
 1718SOL    HW1 6053   1.395   2.796   1.579
 1718SOL    HW2 6054   1.459   2.945   1.597
 1719SOL     OW 6055   0.838   5.615   2.749
 1719SOL    HW1 6056   0.932   5.647   2.742
 1719SOL    HW2 6057   0.790   5.666   2.821
 1720SOL     OW 6058   0.797   3.469   5.355
 1720SOL    HW1 6059   0.809   3.414   5.438
 1720SOL    HW2 6060   0.864   3.441   5.286
 1721SOL     OW 6061   1.791   2.835   0.346
 1721SOL    HW1 6062   1.777   2.739   0.368
 1721SOL    HW2 6063   1.758   2.892   0.421
 1722SOL     OW 6064   2.763   2.369   3.967
 1722SOL    HW1 6065   2.781   2.466   3.981
 1722SOL    HW2 6066   2.774   2.320   4.053
 1723SOL     OW 6067   5.866   4.427   1.094
 1723SOL    HW1 6068   5.942   4.491   1.100
 1723SOL    HW2 6069   5.895   4.345   1.044
 1724SOL     OW 6070   5.805   2.827   1.044
 1724SOL    HW1 6071   5.817   2.913   0.994
 1724SOL    HW2 6072   5.824   2.750   0.983
 1725SOL     OW 6073   1.724   6.230   5.928
 1725SOL    HW1 6074   1.670   6.311   5.952
 1725SOL    HW2 6075   1.771   6.196   6.009
 1726SOL     OW 6076   5.339   4.295   3.061
 1726SOL    HW1 6077   5.346   4.199   3.034
 1726SOL    HW2 6078   5.300   4.348   2.986
 1727SOL     OW 6079   3.311   4.081   3.172
 1727SOL    HW1 6080   3.310   4.100   3.270
 1727SOL    HW2 6081   3.295   3.983   3.157
 1728SOL     OW 6082   5.342   2.717   4.391
 1728SOL    HW1 6083   5.321   2.797   4.447
 1728SOL    HW2 6084   5.257   2.679   4.355
 1729SOL     OW 6085   0.990   3.075   3.057
 1729SOL    HW1 6086   0.988   2.978   3.032
 1729SOL    HW2 6087   1.040   3.126   2.988
 1730SOL     OW 6088   2.013   5.544   4.333
 1730SOL    HW1 6089   2.031   5.480   4.407
 1730SOL    HW2 6090   2.007   5.637   4.370
 1731SOL     OW 6091   6.054   5.233   3.545
 1731SOL    HW1 6092   6.023   5.290   3.621
 1731SOL    HW2 6093   5.978   5.177   3.512
 1732SOL     OW 6094   2.415   3.382   5.473
 1732SOL    HW1 6095   2.416   3.305   5.410
 1732SOL    HW2 6096   2.500   3.435   5.463
 1733SOL     OW 6097   1.912   3.136   5.947
 1733SOL    HW1 6098   1.919   3.196   5.867
 1733SOL    HW2 6099   1.992   3.077   5.953
 1734SOL     OW 6100   6.541   3.165   0.942
 1734SOL    HW1 6101   6.447   3.175   0.909
 1734SOL    HW2 6102   6.604   3.208   0.878
 1735SOL     OW 6103   3.735   5.103   6.620
 1735SOL    HW1 6104   3.763   5.196   6.597
 1735SOL    HW2 6105   3.643   5.085   6.584
 1736SOL     OW 6106   4.857   2.145   0.182
 1736SOL    HW1 6107   4.778   2.148   0.121
 1736SOL    HW2 6108   4.846   2.213   0.254
 1737SOL     OW 6109   3.953   1.415   5.674
 1737SOL    HW1 6110   3.854   1.426   5.667
 1737SOL    HW2 6111   3.982   1.335   5.620
 1738SOL     OW 6112   1.739   2.985   3.809
 1738SOL    HW1 6113   1.701   2.926   3.739
 1738SOL    HW2 6114   1.671   3.001   3.880
 1739SOL     OW 6115   5.600   0.474   3.265
 1739SOL    HW1 6116   5.561   0.501   3.353
 1739SOL    HW2 6117   5.693   0.439   3.278
 1740SOL     OW 6118   6.206   3.093   4.679
 1740SOL    HW1 6119   6.107   3.090   4.696
 1740SOL    HW2 6120   6.236   3.188   4.674
 1741SOL     OW 6121   0.046   1.997   5.094
 1741SOL    HW1 6122   7.003   1.970   5.167
 1741SOL    HW2 6123   0.092   1.915   5.058
 1742SOL     OW 6124   6.214   6.565   6.627
 1742SOL    HW1 6125   6.286   6.515   6.579
 1742SOL    HW2 6126   6.182   6.640   6.569
 1743SOL     OW 6127   1.416   1.535   2.314
 1743SOL    HW1 6128   1.433   1.620   2.263
 1743SOL    HW2 6129   1.494   1.516   2.374
 1744SOL     OW 6130   3.497   2.037   5.195
 1744SOL    HW1 6131   3.431   2.060   5.124
 1744SOL    HW2 6132   3.565   2.110   5.202
 1745SOL     OW 6133   5.851   6.725   1.303
 1745SOL    HW1 6134   5.858   6.627   1.322
 1745SOL    HW2 6135   5.860   6.740   1.204
 1746SOL     OW 6136   2.559   4.563   3.153
 1746SOL    HW1 6137   2.479   4.505   3.168
 1746SOL    HW2 6138   2.593   4.550   3.060
 1747SOL     OW 6139   4.291   0.382   2.898
 1747SOL    HW1 6140   4.247   0.347   2.980
 1747SOL    HW2 6141   4.389   0.361   2.902
 1748SOL     OW 6142   0.092   2.578   4.978
 1748SOL    HW1 6143   0.006   2.603   5.021
 1748SOL    HW2 6144   0.106   2.634   4.896
 1749SOL     OW 6145   0.523   5.265   1.671
 1749SOL    HW1 6146   0.557   5.353   1.639
 1749SOL    HW2 6147   0.591   5.224   1.733
 1750SOL     OW 6148   3.319   0.158   0.014
 1750SOL    HW1 6149   3.330   0.094   0.090
 1750SOL    HW2 6150   3.408   0.180   6.995
 1751SOL     OW 6151   5.989   2.953   5.037
 1751SOL    HW1 6152   6.057   2.881   5.020
 1751SOL    HW2 6153   5.965   2.954   5.134
 1752SOL     OW 6154   6.794   1.245   2.242
 1752SOL    HW1 6155   6.730   1.280   2.172
 1752SOL    HW2 6156   6.742   1.201   2.315
 1753SOL     OW 6157   6.049   1.635   1.493
 1753SOL    HW1 6158   5.968   1.683   1.527
 1753SOL    HW2 6159   6.080   1.569   1.561
 1754SOL     OW 6160   2.961   5.512   3.529
 1754SOL    HW1 6161   2.975   5.576   3.604
 1754SOL    HW2 6162   2.872   5.467   3.540
 1755SOL     OW 6163   6.388   6.692   5.132
 1755SOL    HW1 6164   6.445   6.769   5.104
 1755SOL    HW2 6165   6.315   6.679   5.065
 1756SOL     OW 6166   4.897   5.833   0.442
 1756SOL    HW1 6167   4.826   5.795   0.500
 1756SOL    HW2 6168   4.894   5.789   0.352
 1757SOL     OW 6169   2.626   4.802   5.005
 1757SOL    HW1 6170   2.601   4.843   5.093
 1757SOL    HW2 6171   2.702   4.738   5.018
 1758SOL     OW 6172   1.603   5.969   3.922
 1758SOL    HW1 6173   1.539   5.987   3.847
 1758SOL    HW2 6174   1.567   6.007   4.007
 1759SOL     OW 6175   0.988   6.067   0.147
 1759SOL    HW1 6176   0.949   6.005   0.078
 1759SOL    HW2 6177   1.040   6.139   0.101
 1760SOL     OW 6178   6.929   1.400   4.694
 1760SOL    HW1 6179   7.012   1.372   4.742
 1760SOL    HW2 6180   6.882   1.470   4.747
 1761SOL     OW 6181   5.721   1.250   2.890
 1761SOL    HW1 6182   5.747   1.199   2.808
 1761SOL    HW2 6183   5.636   1.214   2.927
 1762SOL     OW 6184   0.783   1.442   5.598
 1762SOL    HW1 6185   0.838   1.359   5.609
 1762SOL    HW2 6186   0.812   1.511   5.665
 1763SOL     OW 6187   1.256   4.514   3.753
 1763SOL    HW1 6188   1.183   4.487   3.816
 1763SOL    HW2 6189   1.306   4.592   3.791
 1764SOL     OW 6190   1.422   5.899   3.351
 1764SOL    HW1 6191   1.434   5.951   3.267
 1764SOL    HW2 6192   1.399   5.804   3.329
 1765SOL     OW 6193   5.611   3.672   2.033
 1765SOL    HW1 6194   5.560   3.617   2.098
 1765SOL    HW2 6195   5.694   3.708   2.078
 1766SOL     OW 6196   4.273   4.648   3.772
 1766SOL    HW1 6197   4.288   4.579   3.702
 1766SOL    HW2 6198   4.178   4.678   3.770
 1767SOL     OW 6199   0.285   5.041   2.187
 1767SOL    HW1 6200   0.214   5.084   2.132
 1767SOL    HW2 6201   0.250   4.956   2.226
 1768SOL     OW 6202   5.490   4.709   2.034
 1768SOL    HW1 6203   5.444   4.625   2.062
 1768SOL    HW2 6204   5.570   4.686   1.978
 1769SOL     OW 6205   5.695   0.419   0.807
 1769SOL    HW1 6206   5.750   0.487   0.759
 1769SOL    HW2 6207   5.616   0.394   0.752
 1770SOL     OW 6208   1.827   4.946   0.606
 1770SOL    HW1 6209   1.882   4.920   0.685
 1770SOL    HW2 6210   1.861   4.899   0.524
 1771SOL     OW 6211   1.922   2.894   6.148
 1771SOL    HW1 6212   1.945   2.969   6.210
 1771SOL    HW2 6213   1.827   2.905   6.117
 1772SOL     OW 6214   2.185   4.095   2.519
 1772SOL    HW1 6215   2.156   3.999   2.520
 1772SOL    HW2 6216   2.224   4.117   2.430
 1773SOL     OW 6217   2.135   6.168   6.298
 1773SOL    HW1 6218   2.172   6.205   6.213
 1773SOL    HW2 6219   2.198   6.099   6.334
 1774SOL     OW 6220   5.489   5.809   0.987
 1774SOL    HW1 6221   5.536   5.720   0.987
 1774SOL    HW2 6222   5.495   5.850   0.896
 1775SOL     OW 6223   1.859   5.157   0.856
 1775SOL    HW1 6224   1.799   5.081   0.877
 1775SOL    HW2 6225   1.954   5.130   0.872
 1776SOL     OW 6226   4.565   2.770   5.921
 1776SOL    HW1 6227   4.593   2.716   5.842
 1776SOL    HW2 6228   4.466   2.769   5.929
 1777SOL     OW 6229   4.427   6.452   0.357
 1777SOL    HW1 6230   4.501   6.386   0.345
 1777SOL    HW2 6231   4.425   6.483   0.452
 1778SOL     OW 6232   6.365   0.188   4.476
 1778SOL    HW1 6233   6.352   0.095   4.441
 1778SOL    HW2 6234   6.338   0.254   4.406
 1779SOL     OW 6235   5.632   0.325   4.057
 1779SOL    HW1 6236   5.729   0.321   4.081
 1779SOL    HW2 6237   5.580   0.366   4.132
 1780SOL     OW 6238   2.540   5.336   5.338
 1780SOL    HW1 6239   2.540   5.290   5.249
 1780SOL    HW2 6240   2.607   5.411   5.336
 1781SOL     OW 6241   4.308   0.536   5.644
 1781SOL    HW1 6242   4.407   0.540   5.633
 1781SOL    HW2 6243   4.271   0.460   5.590
 1782SOL     OW 6244   5.998   1.815   2.367
 1782SOL    HW1 6245   6.061   1.849   2.298
 1782SOL    HW2 6246   6.014   1.862   2.453
 1783SOL     OW 6247   1.769   3.919   6.933
 1783SOL    HW1 6248   1.692   3.856   6.944
 1783SOL    HW2 6249   1.735   4.013   6.930
 1784SOL     OW 6250   3.010   0.096   2.080
 1784SOL    HW1 6251   3.101   0.080   2.040
 1784SOL    HW2 6252   2.979   0.012   2.125
 1785SOL     OW 6253   1.415   6.580   4.998
 1785SOL    HW1 6254   1.325   6.606   5.033
 1785SOL    HW2 6255   1.444   6.494   5.041
 1786SOL     OW 6256   0.926   6.711   1.184
 1786SOL    HW1 6257   0.942   6.751   1.094
 1786SOL    HW2 6258   1.008   6.664   1.215
 1787SOL     OW 6259   1.992   3.200   5.368
 1787SOL    HW1 6260   2.049   3.118   5.368
 1787SOL    HW2 6261   1.912   3.185   5.310
 1788SOL     OW 6262   4.672   3.514   0.602
 1788SOL    HW1 6263   4.770   3.500   0.584
 1788SOL    HW2 6264   4.652   3.489   0.696
 1789SOL     OW 6265   6.474   3.424   2.348
 1789SOL    HW1 6266   6.524   3.388   2.427
 1789SOL    HW2 6267   6.461   3.351   2.281
 1790SOL     OW 6268   1.502   2.027   4.916
 1790SOL    HW1 6269   1.404   2.047   4.926
 1790SOL    HW2 6270   1.546   2.034   5.005
 1791SOL     OW 6271   4.854   0.714   3.991
 1791SOL    HW1 6272   4.917   0.790   4.010
 1791SOL    HW2 6273   4.782   0.745   3.929
 1792SOL     OW 6274   0.482   2.205   6.774
 1792SOL    HW1 6275   0.444   2.254   6.696
 1792SOL    HW2 6276   0.472   2.106   6.761
 1793SOL     OW 6277   6.698   0.718   5.489
 1793SOL    HW1 6278   6.725   0.642   5.548
 1793SOL    HW2 6279   6.778   0.748   5.435
 1794SOL     OW 6280   0.362   0.585   6.352
 1794SOL    HW1 6281   0.337   0.635   6.435
 1794SOL    HW2 6282   0.319   0.494   6.353
 1795SOL     OW 6283   5.052   4.722   1.072
 1795SOL    HW1 6284   5.049   4.808   1.124
 1795SOL    HW2 6285   5.085   4.649   1.131
 1796SOL     OW 6286   0.108   6.950   0.532
 1796SOL    HW1 6287   0.058   6.863   0.527
 1796SOL    HW2 6288   0.151   6.968   0.444
 1797SOL     OW 6289   2.616   5.293   5.648
 1797SOL    HW1 6290   2.579   5.303   5.556
 1797SOL    HW2 6291   2.633   5.196   5.667
 1798SOL     OW 6292   2.212   3.934   5.316
 1798SOL    HW1 6293   2.217   3.835   5.303
 1798SOL    HW2 6294   2.289   3.977   5.270
 1799SOL     OW 6295   3.280   1.098   1.597
 1799SOL    HW1 6296   3.349   1.131   1.661
 1799SOL    HW2 6297   3.308   1.117   1.503
 1800SOL     OW 6298   6.095   2.953   5.580
 1800SOL    HW1 6299   6.156   2.909   5.646
 1800SOL    HW2 6300   6.028   2.885   5.546
 1801SOL     OW 6301   0.451   0.572   3.263
 1801SOL    HW1 6302   0.547   0.584   3.239
 1801SOL    HW2 6303   0.429   0.474   3.265
 1802SOL     OW 6304   6.784   5.274   4.033
 1802SOL    HW1 6305   6.719   5.280   4.108
 1802SOL    HW2 6306   6.775   5.185   3.987
 1803SOL     OW 6307   0.372   0.312   3.288
 1803SOL    HW1 6308   0.373   0.218   3.253
 1803SOL    HW2 6309   0.282   0.352   3.272
 1804SOL     OW 6310   2.096   2.812   6.359
 1804SOL    HW1 6311   2.025   2.823   6.289
 1804SOL    HW2 6312   2.173   2.873   6.339
 1805SOL     OW 6313   6.544   4.662   0.838
 1805SOL    HW1 6314   6.601   4.679   0.758
 1805SOL    HW2 6315   6.570   4.574   0.879
 1806SOL     OW 6316   6.906   1.131   0.809
 1806SOL    HW1 6317   6.900   1.158   0.905
 1806SOL    HW2 6318   6.986   1.175   0.767
 1807SOL     OW 6319   6.343   2.780   2.833
 1807SOL    HW1 6320   6.266   2.843   2.837
 1807SOL    HW2 6321   6.310   2.689   2.809
 1808SOL     OW 6322   5.188   1.487   6.534
 1808SOL    HW1 6323   5.137   1.421   6.589
 1808SOL    HW2 6324   5.275   1.508   6.580
 1809SOL     OW 6325   5.020   0.083   5.455
 1809SOL    HW1 6326   4.991   0.165   5.406
 1809SOL    HW2 6327   4.997   0.092   5.552
 1810SOL     OW 6328   1.294   0.473   3.858
 1810SOL    HW1 6329   1.288   0.542   3.931
 1810SOL    HW2 6330   1.252   0.510   3.774
 1811SOL     OW 6331   3.556   5.854   1.773
 1811SOL    HW1 6332   3.639   5.809   1.739
 1811SOL    HW2 6333   3.569   5.953   1.773
 1812SOL     OW 6334   4.463   5.976   6.476
 1812SOL    HW1 6335   4.488   5.880   6.467
 1812SOL    HW2 6336   4.469   6.021   6.387
 1813SOL     OW 6337   4.863   3.684   2.040
 1813SOL    HW1 6338   4.852   3.665   1.942
 1813SOL    HW2 6339   4.847   3.600   2.092
 1814SOL     OW 6340   6.618   5.928   0.269
 1814SOL    HW1 6341   6.592   5.862   0.340
 1814SOL    HW2 6342   6.709   5.964   0.289
 1815SOL     OW 6343   5.687   6.271   1.440
 1815SOL    HW1 6344   5.667   6.226   1.353
 1815SOL    HW2 6345   5.686   6.203   1.514
 1816SOL     OW 6346   4.295   4.859   5.351
 1816SOL    HW1 6347   4.208   4.873   5.398
 1816SOL    HW2 6348   4.306   4.928   5.279
 1817SOL     OW 6349   0.255   2.643   3.673
 1817SOL    HW1 6350   0.299   2.714   3.617
 1817SOL    HW2 6351   0.315   2.563   3.678
 1818SOL     OW 6352   2.665   1.039   0.828
 1818SOL    HW1 6353   2.568   1.024   0.814
 1818SOL    HW2 6354   2.697   1.111   0.767
 1819SOL     OW 6355   1.656   4.135   2.660
 1819SOL    HW1 6356   1.644   4.116   2.757
 1819SOL    HW2 6357   1.672   4.049   2.611
 1820SOL     OW 6358   3.177   0.341   4.839
 1820SOL    HW1 6359   3.175   0.407   4.764
 1820SOL    HW2 6360   3.113   0.266   4.820
 1821SOL     OW 6361   3.614   1.794   2.755
 1821SOL    HW1 6362   3.672   1.863   2.799
 1821SOL    HW2 6363   3.604   1.816   2.658
 1822SOL     OW 6364   0.543   3.867   3.093
 1822SOL    HW1 6365   0.548   3.835   3.188
 1822SOL    HW2 6366   0.465   3.824   3.048
 1823SOL     OW 6367   4.552   6.602   2.741
 1823SOL    HW1 6368   4.602   6.604   2.827
 1823SOL    HW2 6369   4.589   6.530   2.682
 1824SOL     OW 6370   4.428   3.098   1.646
 1824SOL    HW1 6371   4.497   3.057   1.705
 1824SOL    HW2 6372   4.470   3.171   1.591
 1825SOL     OW 6373   1.069   2.900   5.686
 1825SOL    HW1 6374   1.051   2.959   5.607
 1825SOL    HW2 6375   1.070   2.955   5.769
 1826SOL     OW 6376   3.455   2.456   1.205
 1826SOL    HW1 6377   3.525   2.451   1.134
 1826SOL    HW2 6378   3.457   2.372   1.260
 1827SOL     OW 6379   5.815   5.058   0.878
 1827SOL    HW1 6380   5.790   5.107   0.961
 1827SOL    HW2 6381   5.836   5.123   0.805
 1828SOL     OW 6382   1.688   4.132   5.147
 1828SOL    HW1 6383   1.711   4.035   5.154
 1828SOL    HW2 6384   1.600   4.149   5.193
 1829SOL     OW 6385   4.048   6.963   2.186
 1829SOL    HW1 6386   4.120   6.975   2.118
 1829SOL    HW2 6387   3.976   6.904   2.148
 1830SOL     OW 6388   4.613   1.181   6.376
 1830SOL    HW1 6389   4.618   1.265   6.430
 1830SOL    HW2 6390   4.599   1.203   6.279
 1831SOL     OW 6391   3.489   4.816   0.685
 1831SOL    HW1 6392   3.526   4.909   0.678
 1831SOL    HW2 6393   3.536   4.757   0.620
 1832SOL     OW 6394   2.672   3.080   6.603
 1832SOL    HW1 6395   2.636   3.154   6.660
 1832SOL    HW2 6396   2.625   2.995   6.625
 1833SOL     OW 6397   5.696   1.339   0.080
 1833SOL    HW1 6398   5.676   1.257   0.133
 1833SOL    HW2 6399   5.794   1.356   0.080
 1834SOL     OW 6400   0.752   3.457   6.032
 1834SOL    HW1 6401   0.827   3.454   5.966
 1834SOL    HW2 6402   0.703   3.543   6.022
 1835SOL     OW 6403   6.985   6.258   1.118
 1835SOL    HW1 6404   6.957   6.194   1.046
 1835SOL    HW2 6405   6.906   6.284   1.172
 1836SOL     OW 6406   5.207   1.886   2.535
 1836SOL    HW1 6407   5.246   1.893   2.443
 1836SOL    HW2 6408   5.231   1.967   2.588
 1837SOL     OW 6409   3.122   2.099   0.085
 1837SOL    HW1 6410   3.130   2.000   0.090
 1837SOL    HW2 6411   3.078   2.134   0.168
 1838SOL     OW 6412   4.688   1.087   1.469
 1838SOL    HW1 6413   4.741   1.130   1.395
 1838SOL    HW2 6414   4.611   1.037   1.430
 1839SOL     OW 6415   6.197   0.271   0.334
 1839SOL    HW1 6416   6.185   0.215   0.415
 1839SOL    HW2 6417   6.163   0.222   0.254
 1840SOL     OW 6418   4.534   6.145   4.410
 1840SOL    HW1 6419   4.474   6.186   4.340
 1840SOL    HW2 6420   4.524   6.045   4.407
 1841SOL     OW 6421   0.980   0.908   1.977
 1841SOL    HW1 6422   0.920   0.984   1.951
 1841SOL    HW2 6423   0.976   0.895   2.076
 1842SOL     OW 6424   0.710   4.965   1.410
 1842SOL    HW1 6425   0.674   5.021   1.335
 1842SOL    HW2 6426   0.809   4.978   1.417
 1843SOL     OW 6427   2.765   0.730   0.080
 1843SOL    HW1 6428   2.694   0.689   0.137
 1843SOL    HW2 6429   2.795   0.663   0.011
 1844SOL     OW 6430   5.643   2.686   6.663
 1844SOL    HW1 6431   5.725   2.679   6.606
 1844SOL    HW2 6432   5.622   2.782   6.680
 1845SOL     OW 6433   0.850   2.324   3.327
 1845SOL    HW1 6434   0.848   2.399   3.392
 1845SOL    HW2 6435   0.766   2.270   3.336
 1846SOL     OW 6436   2.475   1.693   1.395
 1846SOL    HW1 6437   2.392   1.669   1.346
 1846SOL    HW2 6438   2.499   1.619   1.458
 1847SOL     OW 6439   2.072   5.624   6.018
 1847SOL    HW1 6440   2.076   5.645   5.921
 1847SOL    HW2 6441   2.006   5.549   6.034
 1848SOL     OW 6442   3.622   6.816   3.382
 1848SOL    HW1 6443   3.706   6.855   3.419
 1848SOL    HW2 6444   3.644   6.750   3.310
 1849SOL     OW 6445   4.830   2.816   2.159
 1849SOL    HW1 6446   4.904   2.844   2.221
 1849SOL    HW2 6447   4.793   2.896   2.112
 1850SOL     OW 6448   4.083   2.350   0.583
 1850SOL    HW1 6449   4.044   2.311   0.499
 1850SOL    HW2 6450   4.038   2.310   0.663
 1851SOL     OW 6451   6.866   4.827   4.256
 1851SOL    HW1 6452   6.897   4.920   4.235
 1851SOL    HW2 6453   6.946   4.768   4.269
 1852SOL     OW 6454   0.775   0.369   2.860
 1852SOL    HW1 6455   0.787   0.468   2.865
 1852SOL    HW2 6456   0.732   0.337   2.944
 1853SOL     OW 6457   0.655   2.335   5.732
 1853SOL    HW1 6458   0.744   2.345   5.687
 1853SOL    HW2 6459   0.666   2.339   5.831
 1854SOL     OW 6460   0.595   6.911   3.350
 1854SOL    HW1 6461   0.539   6.968   3.290
 1854SOL    HW2 6462   0.668   6.966   3.390
 1855SOL     OW 6463   5.883   2.611   4.878
 1855SOL    HW1 6464   5.904   2.534   4.939
 1855SOL    HW2 6465   5.822   2.675   4.925
 1856SOL     OW 6466   4.338   3.578   0.155
 1856SOL    HW1 6467   4.244   3.582   0.120
 1856SOL    HW2 6468   4.337   3.581   0.255
 1857SOL     OW 6469   3.860   1.264   6.718
 1857SOL    HW1 6470   3.813   1.182   6.685
 1857SOL    HW2 6471   3.878   1.325   6.640
 1858SOL     OW 6472   5.104   2.166   4.400
 1858SOL    HW1 6473   5.091   2.141   4.496
 1858SOL    HW2 6474   5.053   2.250   4.380
 1859SOL     OW 6475   6.933   0.639   4.156
 1859SOL    HW1 6476   7.012   0.589   4.122
 1859SOL    HW2 6477   6.896   0.592   4.237
 1860SOL     OW 6478   2.337   1.054   6.391
 1860SOL    HW1 6479   2.378   0.963   6.391
 1860SOL    HW2 6480   2.256   1.055   6.332
 1861SOL     OW 6481   6.138   6.440   4.788
 1861SOL    HW1 6482   6.083   6.390   4.721
 1861SOL    HW2 6483   6.128   6.398   4.878
 1862SOL     OW 6484   3.254   5.625   5.636
 1862SOL    HW1 6485   3.334   5.597   5.583
 1862SOL    HW2 6486   3.171   5.601   5.586
 1863SOL     OW 6487   6.796   1.842   1.016
 1863SOL    HW1 6488   6.785   1.831   0.917
 1863SOL    HW2 6489   6.854   1.768   1.051
 1864SOL     OW 6490   3.110   5.784   1.699
 1864SOL    HW1 6491   3.017   5.780   1.662
 1864SOL    HW2 6492   3.160   5.858   1.655
 1865SOL     OW 6493   6.433   2.875   5.940
 1865SOL    HW1 6494   6.398   2.830   6.023
 1865SOL    HW2 6495   6.369   2.859   5.865
 1866SOL     OW 6496   0.962   5.719   3.577
 1866SOL    HW1 6497   1.049   5.767   3.573
 1866SOL    HW2 6498   0.887   5.785   3.575
 1867SOL     OW 6499   0.522   2.281   1.547
 1867SOL    HW1 6500   0.616   2.300   1.575
 1867SOL    HW2 6501   0.488   2.356   1.491
 1868SOL     OW 6502   5.749   3.595   6.687
 1868SOL    HW1 6503   5.842   3.609   6.653
 1868SOL    HW2 6504   5.712   3.511   6.648
 1869SOL     OW 6505   5.112   0.911   4.984
 1869SOL    HW1 6506   5.100   0.921   5.083
 1869SOL    HW2 6507   5.124   1.001   4.942
 1870SOL     OW 6508   6.431   0.097   5.787
 1870SOL    HW1 6509   6.512   0.129   5.738
 1870SOL    HW2 6510   6.426   0.144   5.876
 1871SOL     OW 6511   0.790   6.212   6.685
 1871SOL    HW1 6512   0.800   6.270   6.605
 1871SOL    HW2 6513   0.822   6.120   6.664
 1872SOL     OW 6514   2.747   3.158   1.342
 1872SOL    HW1 6515   2.841   3.154   1.376
 1872SOL    HW2 6516   2.687   3.110   1.406
 1873SOL     OW 6517   6.348   1.456   1.206
 1873SOL    HW1 6518   6.270   1.507   1.243
 1873SOL    HW2 6519   6.378   1.389   1.274
 1874SOL     OW 6520   1.109   5.529   0.039
 1874SOL    HW1 6521   1.067   5.595   6.996
 1874SOL    HW2 6522   1.069   5.539   0.130
 1875SOL     OW 6523   0.350   5.796   2.110
 1875SOL    HW1 6524   0.427   5.791   2.047
 1875SOL    HW2 6525   0.337   5.708   2.156
 1876SOL     OW 6526   0.379   4.627   0.493
 1876SOL    HW1 6527   0.290   4.584   0.479
 1876SOL    HW2 6528   0.370   4.698   0.563
 1877SOL     OW 6529   1.406   1.793   2.236
 1877SOL    HW1 6530   1.312   1.821   2.219
 1877SOL    HW2 6531   1.467   1.843   2.175
 1878SOL     OW 6532   5.621   3.951   4.165
 1878SOL    HW1 6533   5.569   4.002   4.097
 1878SOL    HW2 6534   5.624   3.854   4.139
 1879SOL     OW 6535   4.526   6.281   4.639
 1879SOL    HW1 6536   4.544   6.239   4.551
 1879SOL    HW2 6537   4.537   6.380   4.633
 1880SOL     OW 6538   0.367   1.250   4.347
 1880SOL    HW1 6539   0.309   1.253   4.265
 1880SOL    HW2 6540   0.463   1.247   4.319
 1881SOL     OW 6541   2.135   1.153   3.773
 1881SOL    HW1 6542   2.234   1.156   3.766
 1881SOL    HW2 6543   2.108   1.085   3.841
 1882SOL     OW 6544   2.496   5.380   0.425
 1882SOL    HW1 6545   2.477   5.295   0.475
 1882SOL    HW2 6546   2.413   5.435   0.421
 1883SOL     OW 6547   2.554   2.393   3.110
 1883SOL    HW1 6548   2.642   2.346   3.113
 1883SOL    HW2 6549   2.540   2.445   3.194
 1884SOL     OW 6550   4.516   1.100   0.721
 1884SOL    HW1 6551   4.597   1.117   0.777
 1884SOL    HW2 6552   4.542   1.098   0.624
 1885SOL     OW 6553   0.200   1.526   0.623
 1885SOL    HW1 6554   0.121   1.469   0.601
 1885SOL    HW2 6555   0.283   1.485   0.585
 1886SOL     OW 6556   3.339   2.820   6.065
 1886SOL    HW1 6557   3.399   2.900   6.072
 1886SOL    HW2 6558   3.245   2.846   6.086
 1887SOL     OW 6559   0.646   6.202   5.069
 1887SOL    HW1 6560   0.729   6.257   5.072
 1887SOL    HW2 6561   0.568   6.260   5.095
 1888SOL     OW 6562   1.896   1.986   5.305
 1888SOL    HW1 6563   1.915   1.897   5.346
 1888SOL    HW2 6564   1.876   2.052   5.378
 1889SOL     OW 6565   2.539   3.211   0.117
 1889SOL    HW1 6566   2.463   3.221   0.181
 1889SOL    HW2 6567   2.583   3.123   0.131
 1890SOL     OW 6568   6.336   5.944   6.815
 1890SOL    HW1 6569   6.263   6.012   6.805
 1890SOL    HW2 6570   6.417   5.974   6.765
 1891SOL     OW 6571   5.348   3.651   6.772
 1891SOL    HW1 6572   5.321   3.723   6.708
 1891SOL    HW2 6573   5.276   3.582   6.776
 1892SOL     OW 6574   4.180   0.055   2.384
 1892SOL    HW1 6575   4.200   0.141   2.338
 1892SOL    HW2 6576   4.118   0.000   2.328
 1893SOL     OW 6577   2.999   1.054   5.576
 1893SOL    HW1 6578   3.033   1.022   5.488
 1893SOL    HW2 6579   2.975   1.151   5.568
 1894SOL     OW 6580   4.941   3.940   1.281
 1894SOL    HW1 6581   4.843   3.946   1.265
 1894SOL    HW2 6582   4.972   4.019   1.333
 1895SOL     OW 6583   4.247   6.320   3.416
 1895SOL    HW1 6584   4.335   6.339   3.372
 1895SOL    HW2 6585   4.207   6.238   3.374
 1896SOL     OW 6586   6.312   1.562   5.938
 1896SOL    HW1 6587   6.407   1.583   5.916
 1896SOL    HW2 6588   6.252   1.623   5.886
 1897SOL     OW 6589   5.927   4.756   3.579
 1897SOL    HW1 6590   5.906   4.780   3.484
 1897SOL    HW2 6591   5.922   4.657   3.590
 1898SOL     OW 6592   5.762   6.521   6.779
 1898SOL    HW1 6593   5.771   6.425   6.755
 1898SOL    HW2 6594   5.853   6.562   6.789
 1899SOL     OW 6595   1.691   2.254   3.353
 1899SOL    HW1 6596   1.706   2.322   3.424
 1899SOL    HW2 6597   1.778   2.213   3.325
 1900SOL     OW 6598   2.941   6.451   2.214
 1900SOL    HW1 6599   2.855   6.428   2.261
 1900SOL    HW2 6600   3.014   6.390   2.246
 1901SOL     OW 6601   1.171   0.935   6.057
 1901SOL    HW1 6602   1.202   1.027   6.079
 1901SOL    HW2 6603   1.128   0.936   5.966
 1902SOL     OW 6604   1.311   2.623   5.281
 1902SOL    HW1 6605   1.234   2.643   5.221
 1902SOL    HW2 6606   1.363   2.707   5.297
 1903SOL     OW 6607   0.063   4.540   3.932
 1903SOL    HW1 6608   0.134   4.494   3.878
 1903SOL    HW2 6609   0.103   4.619   3.978
 1904SOL     OW 6610   0.741   0.126   4.263
 1904SOL    HW1 6611   0.730   0.029   4.242
 1904SOL    HW2 6612   0.664   0.177   4.224
 1905SOL     OW 6613   6.779   2.754   4.303
 1905SOL    HW1 6614   6.701   2.816   4.313
 1905SOL    HW2 6615   6.745   2.661   4.288
 1906SOL     OW 6616   2.886   5.839   6.654
 1906SOL    HW1 6617   2.859   5.883   6.569
 1906SOL    HW2 6618   2.805   5.818   6.708
 1907SOL     OW 6619   4.834   6.390   3.813
 1907SOL    HW1 6620   4.851   6.383   3.714
 1907SOL    HW2 6621   4.764   6.459   3.830
 1908SOL     OW 6622   4.514   6.916   0.169
 1908SOL    HW1 6623   4.598   6.927   0.117
 1908SOL    HW2 6624   4.527   6.950   0.262
 1909SOL     OW 6625   4.249   5.079   4.270
 1909SOL    HW1 6626   4.184   5.026   4.216
 1909SOL    HW2 6627   4.342   5.049   4.250
 1910SOL     OW 6628   5.158   3.537   4.991
 1910SOL    HW1 6629   5.104   3.544   4.907
 1910SOL    HW2 6630   5.194   3.444   5.000
 1911SOL     OW 6631   0.283   3.672   5.738
 1911SOL    HW1 6632   0.370   3.687   5.690
 1911SOL    HW2 6633   0.246   3.760   5.769
 1912SOL     OW 6634   2.568   5.485   3.283
 1912SOL    HW1 6635   2.476   5.494   3.321
 1912SOL    HW2 6636   2.596   5.572   3.241
 1913SOL     OW 6637   1.512   4.572   5.143
 1913SOL    HW1 6638   1.488   4.497   5.082
 1913SOL    HW2 6639   1.610   4.592   5.135
 1914SOL     OW 6640   4.532   1.196   5.851
 1914SOL    HW1 6641   4.553   1.133   5.776
 1914SOL    HW2 6642   4.581   1.282   5.837
 1915SOL     OW 6643   3.084   0.967   5.318
 1915SOL    HW1 6644   3.074   1.066   5.305
 1915SOL    HW2 6645   3.148   0.930   5.251
 1916SOL     OW 6646   4.416   6.121   2.377
 1916SOL    HW1 6647   4.394   6.216   2.400
 1916SOL    HW2 6648   4.353   6.060   2.425
 1917SOL     OW 6649   3.291   3.331   4.451
 1917SOL    HW1 6650   3.209   3.388   4.442
 1917SOL    HW2 6651   3.325   3.307   4.360
 1918SOL     OW 6652   6.487   6.332   5.309
 1918SOL    HW1 6653   6.544   6.371   5.237
 1918SOL    HW2 6654   6.416   6.398   5.334
 1919SOL     OW 6655   6.432   0.149   1.792
 1919SOL    HW1 6656   6.526   0.119   1.801
 1919SOL    HW2 6657   6.411   0.165   1.696
 1920SOL     OW 6658   6.300   6.213   4.430
 1920SOL    HW1 6659   6.297   6.178   4.523
 1920SOL    HW2 6660   6.241   6.158   4.371
 1921SOL     OW 6661   1.163   6.865   6.806
 1921SOL    HW1 6662   1.237   6.804   6.834
 1921SOL    HW2 6663   1.185   6.907   6.718
 1922SOL     OW 6664   3.725   4.254   1.085
 1922SOL    HW1 6665   3.628   4.272   1.104
 1922SOL    HW2 6666   3.762   4.193   1.156
 1923SOL     OW 6667   2.052   2.893   0.309
 1923SOL    HW1 6668   2.095   2.942   0.385
 1923SOL    HW2 6669   1.956   2.875   0.332
 1924SOL     OW 6670   0.868   4.275   1.664
 1924SOL    HW1 6671   0.946   4.335   1.683
 1924SOL    HW2 6672   0.784   4.317   1.700
 1925SOL     OW 6673   3.815   3.866   0.582
 1925SOL    HW1 6674   3.816   3.932   0.507
 1925SOL    HW2 6675   3.906   3.858   0.622
 1926SOL     OW 6676   0.620   0.362   3.398
 1926SOL    HW1 6677   0.531   0.317   3.386
 1926SOL    HW2 6678   0.608   0.445   3.452
 1927SOL     OW 6679   4.366   3.835   0.626
 1927SOL    HW1 6680   4.336   3.923   0.662
 1927SOL    HW2 6681   4.445   3.802   0.678
 1928SOL     OW 6682   0.263   5.519   5.539
 1928SOL    HW1 6683   0.184   5.514   5.478
 1928SOL    HW2 6684   0.321   5.595   5.511
 1929SOL     OW 6685   1.828   6.183   2.815
 1929SOL    HW1 6686   1.764   6.197   2.891
 1929SOL    HW2 6687   1.845   6.085   2.805
 1930SOL     OW 6688   6.703   5.015   6.772
 1930SOL    HW1 6689   6.669   4.933   6.818
 1930SOL    HW2 6690   6.642   5.038   6.696
 1931SOL     OW 6691   0.606   1.910   5.427
 1931SOL    HW1 6692   0.704   1.896   5.441
 1931SOL    HW2 6693   0.563   1.941   5.512
 1932SOL     OW 6694   5.834   2.723   2.843
 1932SOL    HW1 6695   5.806   2.646   2.785
 1932SOL    HW2 6696   5.754   2.760   2.890
 1933SOL     OW 6697   2.328   4.596   0.636
 1933SOL    HW1 6698   2.236   4.557   0.637
 1933SOL    HW2 6699   2.352   4.626   0.729
 1934SOL     OW 6700   6.907   6.081   4.426
 1934SOL    HW1 6701   6.922   6.180   4.427
 1934SOL    HW2 6702   6.995   6.034   4.438
 1935SOL     OW 6703   2.459   0.771   3.468
 1935SOL    HW1 6704   2.411   0.731   3.547
 1935SOL    HW2 6705   2.423   0.732   3.384
 1936SOL     OW 6706   6.775   5.998   5.424
 1936SOL    HW1 6707   6.804   5.995   5.520
 1936SOL    HW2 6708   6.787   5.907   5.384
 1937SOL     OW 6709   4.552   0.604   3.001
 1937SOL    HW1 6710   4.516   0.643   2.916
 1937SOL    HW2 6711   4.476   0.582   3.062
 1938SOL     OW 6712   5.089   0.645   4.400
 1938SOL    HW1 6713   5.114   0.726   4.346
 1938SOL    HW2 6714   5.168   0.615   4.453
 1939SOL     OW 6715   2.677   0.484   3.522
 1939SOL    HW1 6716   2.584   0.460   3.551
 1939SOL    HW2 6717   2.734   0.501   3.603
 1940SOL     OW 6718   6.492   5.158   6.619
 1940SOL    HW1 6719   6.461   5.114   6.534
 1940SOL    HW2 6720   6.418   5.157   6.686
 1941SOL     OW 6721   5.730   4.999   2.814
 1941SOL    HW1 6722   5.726   5.094   2.783
 1941SOL    HW2 6723   5.820   4.960   2.794
 1942SOL     OW 6724   6.388   4.344   3.025
 1942SOL    HW1 6725   6.431   4.269   3.074
 1942SOL    HW2 6726   6.456   4.390   2.967
 1943SOL     OW 6727   2.677   5.829   1.899
 1943SOL    HW1 6728   2.686   5.924   1.869
 1943SOL    HW2 6729   2.766   5.785   1.897
 1944SOL     OW 6730   6.943   6.729   2.190
 1944SOL    HW1 6731   6.990   6.720   2.102
 1944SOL    HW2 6732   6.924   6.826   2.208
 1945SOL     OW 6733   3.148   4.940   3.793
 1945SOL    HW1 6734   3.080   4.884   3.840
 1945SOL    HW2 6735   3.218   4.969   3.858
 1946SOL     OW 6736   2.068   0.013   0.216
 1946SOL    HW1 6737   2.158   0.044   0.247
 1946SOL    HW2 6738   2.029   6.971   0.284
 1947SOL     OW 6739   5.522   6.904   3.834
 1947SOL    HW1 6740   5.573   6.876   3.915
 1947SOL    HW2 6741   5.434   6.856   3.832
 1948SOL     OW 6742   6.910   3.708   5.554
 1948SOL    HW1 6743   6.961   3.773   5.611
 1948SOL    HW2 6744   6.896   3.624   5.605
 1949SOL     OW 6745   5.119   4.089   6.423
 1949SOL    HW1 6746   5.106   4.186   6.445
 1949SOL    HW2 6747   5.046   4.059   6.361
 1950SOL     OW 6748   2.954   5.093   1.074
 1950SOL    HW1 6749   2.855   5.085   1.060
 1950SOL    HW2 6750   2.972   5.148   1.156
 1951SOL     OW 6751   6.738   3.346   6.915
 1951SOL    HW1 6752   6.807   3.388   6.975
 1951SOL    HW2 6753   6.753   3.248   6.911
 1952SOL     OW 6754   3.462   2.795   5.255
 1952SOL    HW1 6755   3.410   2.717   5.289
 1952SOL    HW2 6756   3.552   2.764   5.223
 1953SOL     OW 6757   0.051   3.295   5.186
 1953SOL    HW1 6758   6.988   3.314   5.238
 1953SOL    HW2 6759   0.112   3.374   5.189
 1954SOL     OW 6760   2.668   2.458   3.704
 1954SOL    HW1 6761   2.579   2.468   3.659
 1954SOL    HW2 6762   2.655   2.420   3.796
 1955SOL     OW 6763   6.410   5.350   1.767
 1955SOL    HW1 6764   6.472   5.424   1.794
 1955SOL    HW2 6765   6.359   5.318   1.847
 1956SOL     OW 6766   5.424   6.300   2.543
 1956SOL    HW1 6767   5.392   6.392   2.566
 1956SOL    HW2 6768   5.368   6.262   2.470
 1957SOL     OW 6769   1.088   6.750   5.729
 1957SOL    HW1 6770   1.117   6.688   5.657
 1957SOL    HW2 6771   0.991   6.732   5.751
 1958SOL     OW 6772   4.492   3.106   5.771
 1958SOL    HW1 6773   4.468   3.134   5.864
 1958SOL    HW2 6774   4.440   3.024   5.747
 1959SOL     OW 6775   2.401   2.173   6.966
 1959SOL    HW1 6776   2.419   2.255   0.002
 1959SOL    HW2 6777   2.306   2.145   6.977
 1960SOL     OW 6778   5.209   6.769   2.303
 1960SOL    HW1 6779   5.152   6.788   2.383
 1960SOL    HW2 6780   5.241   6.856   2.264
 1961SOL     OW 6781   5.633   5.101   5.026
 1961SOL    HW1 6782   5.585   5.019   5.056
 1961SOL    HW2 6783   5.668   5.151   5.105
 1962SOL     OW 6784   6.627   6.728   3.369
 1962SOL    HW1 6785   6.540   6.698   3.409
 1962SOL    HW2 6786   6.698   6.729   3.439
 1963SOL     OW 6787   2.351   0.138   3.126
 1963SOL    HW1 6788   2.399   0.191   3.196
 1963SOL    HW2 6789   2.417   0.101   3.061
 1964SOL     OW 6790   5.796   4.155   2.203
 1964SOL    HW1 6791   5.784   4.243   2.158
 1964SOL    HW2 6792   5.706   4.113   2.218
 1965SOL     OW 6793   2.374   5.067   3.764
 1965SOL    HW1 6794   2.402   5.044   3.857
 1965SOL    HW2 6795   2.275   5.080   3.761
 1966SOL     OW 6796   6.434   6.410   6.237
 1966SOL    HW1 6797   6.517   6.421   6.183
 1966SOL    HW2 6798   6.357   6.389   6.176
 1967SOL     OW 6799   5.013   3.562   4.424
 1967SOL    HW1 6800   5.059   3.511   4.496
 1967SOL    HW2 6801   4.969   3.643   4.464
 1968SOL     OW 6802   3.806   5.376   5.541
 1968SOL    HW1 6803   3.857   5.355   5.624
 1968SOL    HW2 6804   3.784   5.292   5.493
 1969SOL     OW 6805   6.784   2.024   2.013
 1969SOL    HW1 6806   6.708   1.965   1.983
 1969SOL    HW2 6807   6.748   2.101   2.065
 1970SOL     OW 6808   1.840   6.431   3.198
 1970SOL    HW1 6809   1.801   6.342   3.221
 1970SOL    HW2 6810   1.783   6.503   3.239
 1971SOL     OW 6811   0.151   0.539   5.782
 1971SOL    HW1 6812   0.194   0.463   5.831
 1971SOL    HW2 6813   0.218   0.581   5.720
 1972SOL     OW 6814   1.476   5.327   4.009
 1972SOL    HW1 6815   1.480   5.284   4.099
 1972SOL    HW2 6816   1.565   5.369   3.988
 1973SOL     OW 6817   2.693   2.831   6.747
 1973SOL    HW1 6818   2.687   2.732   6.732
 1973SOL    HW2 6819   2.789   2.859   6.745
 1974SOL     OW 6820   5.683   0.095   4.512
 1974SOL    HW1 6821   5.653   0.009   4.554
 1974SOL    HW2 6822   5.612   0.129   4.450
 1975SOL     OW 6823   2.856   0.765   3.729
 1975SOL    HW1 6824   2.914   0.691   3.696
 1975SOL    HW2 6825   2.811   0.809   3.651
 1976SOL     OW 6826   0.102   4.540   0.168
 1976SOL    HW1 6827   0.018   4.535   0.222
 1976SOL    HW2 6828   0.150   4.452   0.173
 1977SOL     OW 6829   2.572   2.549   4.927
 1977SOL    HW1 6830   2.555   2.595   5.014
 1977SOL    HW2 6831   2.591   2.617   4.856
 1978SOL     OW 6832   6.860   1.481   4.986
 1978SOL    HW1 6833   6.774   1.431   4.989
 1978SOL    HW2 6834   6.936   1.418   4.968
 1979SOL     OW 6835   5.747   4.243   2.997
 1979SOL    HW1 6836   5.684   4.222   3.072
 1979SOL    HW2 6837   5.738   4.173   2.926
 1980SOL     OW 6838   3.889   0.528   1.198
 1980SOL    HW1 6839   3.833   0.610   1.189
 1980SOL    HW2 6840   3.895   0.482   1.109
 1981SOL     OW 6841   4.777   3.241   1.709
 1981SOL    HW1 6842   4.735   3.184   1.781
 1981SOL    HW2 6843   4.761   3.199   1.620
 1982SOL     OW 6844   5.942   0.193   5.232
 1982SOL    HW1 6845   5.932   0.179   5.331
 1982SOL    HW2 6846   5.853   0.183   5.188
 1983SOL     OW 6847   0.658   4.252   2.312
 1983SOL    HW1 6848   0.568   4.264   2.271
 1983SOL    HW2 6849   0.721   4.322   2.277
 1984SOL     OW 6850   4.498   1.202   6.117
 1984SOL    HW1 6851   4.533   1.199   6.024
 1984SOL    HW2 6852   4.441   1.282   6.129
 1985SOL     OW 6853   1.530   0.318   1.047
 1985SOL    HW1 6854   1.534   0.382   1.124
 1985SOL    HW2 6855   1.452   0.340   0.989
 1986SOL     OW 6856   0.651   2.353   6.465
 1986SOL    HW1 6857   0.605   2.267   6.446
 1986SOL    HW2 6858   0.611   2.395   6.547
 1987SOL     OW 6859   2.642   3.874   0.043
 1987SOL    HW1 6860   2.565   3.936   0.033
 1987SOL    HW2 6861   2.701   3.905   0.117
 1988SOL     OW 6862   4.530   3.301   0.142
 1988SOL    HW1 6863   4.521   3.400   0.149
 1988SOL    HW2 6864   4.625   3.274   0.158
 1989SOL     OW 6865   2.540   0.427   4.237
 1989SOL    HW1 6866   2.612   0.469   4.181
 1989SOL    HW2 6867   2.470   0.495   4.257
 1990SOL     OW 6868   2.314   1.390   2.779
 1990SOL    HW1 6869   2.307   1.407   2.878
 1990SOL    HW2 6870   2.381   1.318   2.762
 1991SOL     OW 6871   4.294   5.183   3.972
 1991SOL    HW1 6872   4.297   5.209   4.068
 1991SOL    HW2 6873   4.217   5.228   3.927
 1992SOL     OW 6874   2.396   6.657   5.245
 1992SOL    HW1 6875   2.480   6.704   5.219
 1992SOL    HW2 6876   2.382   6.666   5.344
 1993SOL     OW 6877   3.038   3.216   4.322
 1993SOL    HW1 6878   3.081   3.172   4.243
 1993SOL    HW2 6879   3.050   3.159   4.403
 1994SOL     OW 6880   5.972   2.672   2.078
 1994SOL    HW1 6881   5.927   2.678   2.167
 1994SOL    HW2 6882   6.065   2.637   2.090
 1995SOL     OW 6883   4.895   2.559   0.981
 1995SOL    HW1 6884   4.915   2.467   1.014
 1995SOL    HW2 6885   4.808   2.590   1.020
 1996SOL     OW 6886   2.702   3.940   5.940
 1996SOL    HW1 6887   2.764   3.939   6.018
 1996SOL    HW2 6888   2.736   4.005   5.872
 1997SOL     OW 6889   5.122   0.275   4.058
 1997SOL    HW1 6890   5.072   0.354   4.024
 1997SOL    HW2 6891   5.146   0.288   4.154
 1998SOL     OW 6892   2.704   5.068   4.851
 1998SOL    HW1 6893   2.726   5.078   4.949
 1998SOL    HW2 6894   2.788   5.049   4.801
 1999SOL     OW 6895   1.817   1.167   2.243
 1999SOL    HW1 6896   1.905   1.168   2.196
 1999SOL    HW2 6897   1.787   1.260   2.261
 2000SOL     OW 6898   3.956   1.694   4.513
 2000SOL    HW1 6899   3.988   1.768   4.573
 2000SOL    HW2 6900   3.919   1.619   4.568
 2001SOL     OW 6901   2.200   3.345   0.651
 2001SOL    HW1 6902   2.186   3.399   0.569
 2001SOL    HW2 6903   2.295   3.352   0.680
 2002SOL     OW 6904   2.169   5.231   4.766
 2002SOL    HW1 6905   2.204   5.290   4.839
 2002SOL    HW2 6906   2.174   5.135   4.796
 2003SOL     OW 6907   6.099   4.547   3.243
 2003SOL    HW1 6908   6.045   4.471   3.208
 2003SOL    HW2 6909   6.100   4.621   3.176
 2004SOL     OW 6910   3.473   0.342   6.010
 2004SOL    HW1 6911   3.505   0.436   6.016
 2004SOL    HW2 6912   3.404   0.326   6.081
 2005SOL     OW 6913   2.886   6.629   5.386
 2005SOL    HW1 6914   2.910   6.662   5.477
 2005SOL    HW2 6915   2.837   6.542   5.394
 2006SOL     OW 6916   4.100   5.661   3.319
 2006SOL    HW1 6917   4.014   5.612   3.334
 2006SOL    HW2 6918   4.177   5.602   3.344
 2007SOL     OW 6919   6.174   5.125   0.263
 2007SOL    HW1 6920   6.232   5.176   0.327
 2007SOL    HW2 6921   6.223   5.113   0.177
 2008SOL     OW 6922   6.515   6.318   4.265
 2008SOL    HW1 6923   6.569   6.387   4.311
 2008SOL    HW2 6924   6.452   6.275   4.330
 2009SOL     OW 6925   0.356   0.582   0.941
 2009SOL    HW1 6926   0.283   0.532   0.895
 2009SOL    HW2 6927   0.349   0.570   1.040
 2010SOL     OW 6928   1.022   6.878   0.578
 2010SOL    HW1 6929   1.084   6.865   0.656
 2010SOL    HW2 6930   0.991   6.973   0.575
 2011SOL     OW 6931   6.889   2.691   5.065
 2011SOL    HW1 6932   6.813   2.662   5.123
 2011SOL    HW2 6933   6.858   2.759   4.999
 2012SOL     OW 6934   0.478   3.720   1.169
 2012SOL    HW1 6935   0.475   3.705   1.268
 2012SOL    HW2 6936   0.456   3.635   1.122
 2013SOL     OW 6937   4.607   1.090   2.405
 2013SOL    HW1 6938   4.572   1.137   2.323
 2013SOL    HW2 6939   4.546   1.013   2.427
 2014SOL     OW 6940   2.718   5.365   3.502
 2014SOL    HW1 6941   2.765   5.289   3.458
 2014SOL    HW2 6942   2.652   5.405   3.438
 2015SOL     OW 6943   3.204   6.867   6.868
 2015SOL    HW1 6944   3.112   6.899   6.841
 2015SOL    HW2 6945   3.216   6.772   6.839
 2016SOL     OW 6946   6.450   4.904   3.420
 2016SOL    HW1 6947   6.362   4.908   3.468
 2016SOL    HW2 6948   6.474   4.995   3.386
 2017SOL     OW 6949   2.467   5.592   1.796
 2017SOL    HW1 6950   2.545   5.596   1.858
 2017SOL    HW2 6951   2.473   5.509   1.740
 2018SOL     OW 6952   0.372   5.070   6.364
 2018SOL    HW1 6953   0.390   5.045   6.459
 2018SOL    HW2 6954   0.384   4.990   6.305
 2019SOL     OW 6955   5.655   1.936   3.083
 2019SOL    HW1 6956   5.740   1.917   3.035
 2019SOL    HW2 6957   5.627   1.856   3.135
 2020SOL     OW 6958   2.160   5.393   2.965
 2020SOL    HW1 6959   2.112   5.378   2.879
 2020SOL    HW2 6960   2.186   5.304   3.004
 2021SOL     OW 6961   1.377   0.189   1.440
 2021SOL    HW1 6962   1.425   0.146   1.364
 2021SOL    HW2 6963   1.284   0.213   1.411
 2022SOL     OW 6964   2.638   4.445   1.159
 2022SOL    HW1 6965   2.638   4.386   1.240
 2022SOL    HW2 6966   2.554   4.432   1.108
 2023SOL     OW 6967   6.669   1.491   6.133
 2023SOL    HW1 6968   6.735   1.417   6.125
 2023SOL    HW2 6969   6.712   1.570   6.177
 2024SOL     OW 6970   6.117   0.751   3.128
 2024SOL    HW1 6971   6.164   0.745   3.041
 2024SOL    HW2 6972   6.050   0.677   3.136
 2025SOL     OW 6973   6.733   0.889   0.304
 2025SOL    HW1 6974   6.799   0.954   0.267
 2025SOL    HW2 6975   6.771   0.843   0.385
 2026SOL     OW 6976   1.508   1.520   5.084
 2026SOL    HW1 6977   1.435   1.549   5.022
 2026SOL    HW2 6978   1.498   1.423   5.105
 2027SOL     OW 6979   0.273   1.518   2.452
 2027SOL    HW1 6980   0.335   1.565   2.389
 2027SOL    HW2 6981   0.179   1.552   2.438
 2028SOL     OW 6982   4.090   3.516   6.303
 2028SOL    HW1 6983   4.005   3.567   6.294
 2028SOL    HW2 6984   4.135   3.541   6.389
 2029SOL     OW 6985   1.415   0.456   0.321
 2029SOL    HW1 6986   1.448   0.544   0.286
 2029SOL    HW2 6987   1.487   0.387   0.309
 2030SOL     OW 6988   1.240   1.307   2.930
 2030SOL    HW1 6989   1.266   1.271   3.020
 2030SOL    HW2 6990   1.242   1.407   2.932
 2031SOL     OW 6991   4.831   7.005   2.716
 2031SOL    HW1 6992   4.912   6.957   2.750
 2031SOL    HW2 6993   4.857   0.076   2.683
 2032SOL     OW 6994   5.354   6.730   1.602
 2032SOL    HW1 6995   5.389   6.642   1.635
 2032SOL    HW2 6996   5.357   6.730   1.502
 2033SOL     OW 6997   0.015   4.888   6.650
 2033SOL    HW1 6998   0.099   4.844   6.679
 2033SOL    HW2 6999   6.956   4.833   6.679
 2034SOL     OW 7000   2.602   6.735   2.920
 2034SOL    HW1 7001   2.680   6.673   2.910
 2034SOL    HW2 7002   2.617   6.816   2.862
 2035SOL     OW 7003   1.227   3.162   1.791
 2035SOL    HW1 7004   1.195   3.172   1.885
 2035SOL    HW2 7005   1.242   3.253   1.751
 2036SOL     OW 7006   1.313   4.664   0.320
 2036SOL    HW1 7007   1.371   4.651   0.401
 2036SOL    HW2 7008   1.250   4.740   0.336
 2037SOL     OW 7009   6.977   1.038   6.182
 2037SOL    HW1 7010   7.007   1.063   6.274
 2037SOL    HW2 7011   0.011   0.961   6.149
 2038SOL     OW 7012   0.997   0.255   4.541
 2038SOL    HW1 7013   0.901   0.285   4.540
 2038SOL    HW2 7014   1.021   0.219   4.451
 2039SOL     OW 7015   0.893   5.400   2.098
 2039SOL    HW1 7016   0.949   5.329   2.054
 2039SOL    HW2 7017   0.841   5.449   2.028
 2040SOL     OW 7018   3.648   3.707   4.601
 2040SOL    HW1 7019   3.657   3.749   4.691
 2040SOL    HW2 7020   3.595   3.622   4.609
 2041SOL     OW 7021   5.922   4.060   6.309
 2041SOL    HW1 7022   5.962   3.992   6.370
 2041SOL    HW2 7023   5.943   4.152   6.342
 2042SOL     OW 7024   3.942   5.458   7.008
 2042SOL    HW1 7025   3.992   5.526   6.954
 2042SOL    HW2 7026   3.882   5.405   6.949
 2043SOL     OW 7027   4.588   4.352   2.404
 2043SOL    HW1 7028   4.549   4.432   2.358
 2043SOL    HW2 7029   4.607   4.281   2.336
 2044SOL     OW 7030   6.064   1.034   2.045
 2044SOL    HW1 7031   6.141   0.972   2.036
 2044SOL    HW2 7032   6.001   0.999   2.115
 2045SOL     OW 7033   1.917   5.347   6.108
 2045SOL    HW1 7034   1.879   5.325   6.018
 2045SOL    HW2 7035   1.962   5.266   6.146
 2046SOL     OW 7036   6.009   0.717   4.891
 2046SOL    HW1 7037   6.070   0.675   4.958
 2046SOL    HW2 7038   5.915   0.688   4.909
 2047SOL     OW 7039   5.939   2.996   0.173
 2047SOL    HW1 7040   5.950   2.980   0.271
 2047SOL    HW2 7041   5.905   3.089   0.158
 2048SOL     OW 7042   4.101   6.862   5.866
 2048SOL    HW1 7043   4.158   6.938   5.835
 2048SOL    HW2 7044   4.078   6.874   5.962
 2049SOL     OW 7045   4.728   6.526   0.544
 2049SOL    HW1 7046   4.727   6.578   0.458
 2049SOL    HW2 7047   4.762   6.433   0.525
 2050SOL     OW 7048   5.501   2.106   4.109
 2050SOL    HW1 7049   5.413   2.118   4.154
 2050SOL    HW2 7050   5.553   2.035   4.157
 2051SOL     OW 7051   2.059   5.244   0.657
 2051SOL    HW1 7052   2.014   5.155   0.665
 2051SOL    HW2 7053   1.992   5.316   0.675
 2052SOL     OW 7054   1.034   3.193   0.974
 2052SOL    HW1 7055   0.979   3.118   1.010
 2052SOL    HW2 7056   1.062   3.253   1.048
 2053SOL     OW 7057   5.028   0.519   0.557
 2053SOL    HW1 7058   4.950   0.515   0.494
 2053SOL    HW2 7059   5.098   0.455   0.526
 2054SOL     OW 7060   6.499   3.161   1.594
 2054SOL    HW1 7061   6.516   3.088   1.528
 2054SOL    HW2 7062   6.498   3.123   1.687
 2055SOL     OW 7063   6.761   2.389   4.109
 2055SOL    HW1 7064   6.680   2.392   4.051
 2055SOL    HW2 7065   6.764   2.301   4.157
 2056SOL     OW 7066   1.349   0.729   2.758
 2056SOL    HW1 7067   1.391   0.807   2.804
 2056SOL    HW2 7068   1.382   0.725   2.664
 2057SOL     OW 7069   6.857   2.633   3.982
 2057SOL    HW1 7070   6.928   2.690   4.023
 2057SOL    HW2 7071   6.844   2.552   4.038
 2058SOL     OW 7072   6.809   2.374   1.758
 2058SOL    HW1 7073   6.841   2.429   1.680
 2058SOL    HW2 7074   6.873   2.299   1.774
 2059SOL     OW 7075   1.644   1.479   6.323
 2059SOL    HW1 7076   1.739   1.481   6.290
 2059SOL    HW2 7077   1.644   1.454   6.419
 2060SOL     OW 7078   0.236   5.348   2.288
 2060SOL    HW1 7079   0.271   5.283   2.356
 2060SOL    HW2 7080   0.187   5.422   2.334
 2061SOL     OW 7081   6.626   1.308   1.944
 2061SOL    HW1 7082   6.642   1.401   1.977
 2061SOL    HW2 7083   6.709   1.273   1.900
 2062SOL     OW 7084   4.669   0.752   3.396
 2062SOL    HW1 7085   4.714   0.833   3.434
 2062SOL    HW2 7086   4.570   0.757   3.412
 2063SOL     OW 7087   2.458   2.030   0.356
 2063SOL    HW1 7088   2.503   1.955   0.308
 2063SOL    HW2 7089   2.443   2.106   0.292
 2064SOL     OW 7090   0.662   2.314   0.208
 2064SOL    HW1 7091   0.641   2.373   0.286
 2064SOL    HW2 7092   0.753   2.274   0.220
 2065SOL     OW 7093   6.391   2.690   2.027
 2065SOL    HW1 7094   6.350   2.649   1.945
 2065SOL    HW2 7095   6.491   2.679   2.023
 2066SOL     OW 7096   2.128   6.225   3.908
 2066SOL    HW1 7097   2.211   6.277   3.889
 2066SOL    HW2 7098   2.144   6.164   3.985
 2067SOL     OW 7099   6.961   0.010   0.862
 2067SOL    HW1 7100   0.017   6.968   0.842
 2067SOL    HW2 7101   6.993   0.105   0.860
 2068SOL     OW 7102   2.192   1.709   5.069
 2068SOL    HW1 7103   2.217   1.692   4.974
 2068SOL    HW2 7104   2.269   1.751   5.117
 2069SOL     OW 7105   0.164   1.815   1.871
 2069SOL    HW1 7106   0.097   1.889   1.882
 2069SOL    HW2 7107   0.253   1.853   1.848
 2070SOL     OW 7108   0.543   1.142   2.758
 2070SOL    HW1 7109   0.607   1.219   2.749
 2070SOL    HW2 7110   0.540   1.113   2.853
 2071SOL     OW 7111   1.407   6.354   4.275
 2071SOL    HW1 7112   1.437   6.267   4.316
 2071SOL    HW2 7113   1.441   6.359   4.181
 2072SOL     OW 7114   5.086   5.048   2.100
 2072SOL    HW1 7115   5.170   5.019   2.055
 2072SOL    HW2 7116   5.107   5.116   2.170
 2073SOL     OW 7117   2.921   0.074   5.443
 2073SOL    HW1 7118   2.942   0.164   5.405
 2073SOL    HW2 7119   2.852   0.083   5.515
 2074SOL     OW 7120   5.660   1.920   1.525
 2074SOL    HW1 7121   5.704   1.884   1.443
 2074SOL    HW2 7122   5.600   1.996   1.501
 2075SOL     OW 7123   4.694   3.407   5.901
 2075SOL    HW1 7124   4.647   3.371   5.821
 2075SOL    HW2 7125   4.675   3.505   5.910
 2076SOL     OW 7126   4.823   0.317   1.342
 2076SOL    HW1 7127   4.787   0.292   1.252
 2076SOL    HW2 7128   4.763   0.386   1.383
 2077SOL     OW 7129   5.650   1.457   3.686
 2077SOL    HW1 7130   5.653   1.509   3.771
 2077SOL    HW2 7131   5.689   1.512   3.612
 2078SOL     OW 7132   4.077   5.692   5.576
 2078SOL    HW1 7133   4.158   5.650   5.537
 2078SOL    HW2 7134   4.074   5.789   5.552
 2079SOL     OW 7135   5.712   1.596   3.922
 2079SOL    HW1 7136   5.634   1.577   3.982
 2079SOL    HW2 7137   5.784   1.530   3.940
 2080SOL     OW 7138   2.967   2.175   4.802
 2080SOL    HW1 7139   3.051   2.165   4.856
 2080SOL    HW2 7140   2.913   2.251   4.839
 2081SOL     OW 7141   0.419   6.387   5.218
 2081SOL    HW1 7142   0.373   6.310   5.175
 2081SOL    HW2 7143   0.357   6.466   5.222
 2082SOL     OW 7144   5.130   0.281   1.379
 2082SOL    HW1 7145   5.035   0.309   1.363
 2082SOL    HW2 7146   5.172   0.255   1.292
 2083SOL     OW 7147   3.777   5.517   5.224
 2083SOL    HW1 7148   3.760   5.574   5.304
 2083SOL    HW2 7149   3.711   5.541   5.152
 2084SOL     OW 7150   0.351   3.216   3.466
 2084SOL    HW1 7151   0.300   3.137   3.501
 2084SOL    HW2 7152   0.310   3.300   3.502
 2085SOL     OW 7153   5.573   6.700   6.713
 2085SOL    HW1 7154   5.641   6.629   6.732
 2085SOL    HW2 7155   5.618   6.789   6.707
 2086SOL     OW 7156   2.690   5.064   0.997
 2086SOL    HW1 7157   2.644   5.113   0.922
 2086SOL    HW2 7158   2.698   4.967   0.975
 2087SOL     OW 7159   5.462   6.634   3.531
 2087SOL    HW1 7160   5.496   6.542   3.551
 2087SOL    HW2 7161   5.396   6.660   3.601
 2088SOL     OW 7162   3.088   6.592   0.667
 2088SOL    HW1 7163   3.154   6.545   0.725
 2088SOL    HW2 7164   3.052   6.672   0.715
 2089SOL     OW 7165   2.932   6.944   6.761
 2089SOL    HW1 7166   2.921   0.023   6.746
 2089SOL    HW2 7167   2.950   6.899   6.674
 2090SOL     OW 7168   3.024   3.589   4.132
 2090SOL    HW1 7169   3.075   3.509   4.099
 2090SOL    HW2 7170   2.957   3.561   4.200
 2091SOL     OW 7171   1.990   4.800   0.823
 2091SOL    HW1 7172   1.925   4.739   0.870
 2091SOL    HW2 7173   2.053   4.745   0.768
 2092SOL     OW 7174   6.179   6.493   0.910
 2092SOL    HW1 7175   6.259   6.463   0.860
 2092SOL    HW2 7176   6.096   6.463   0.862
 2093SOL     OW 7177   1.290   1.918   1.485
 2093SOL    HW1 7178   1.298   1.824   1.451
 2093SOL    HW2 7179   1.346   1.978   1.428
 2094SOL     OW 7180   6.048   0.583   2.082
 2094SOL    HW1 7181   6.062   0.541   2.171
 2094SOL    HW2 7182   6.014   0.514   2.017
 2095SOL     OW 7183   6.967   4.908   4.802
 2095SOL    HW1 7184   0.007   4.968   4.854
 2095SOL    HW2 7185   6.888   4.881   4.858
 2096SOL     OW 7186   4.915   3.989   3.054
 2096SOL    HW1 7187   4.907   4.023   2.960
 2096SOL    HW2 7188   4.951   3.895   3.052
 2097SOL     OW 7189   6.935   3.076   0.025
 2097SOL    HW1 7190   6.920   3.028   6.957
 2097SOL    HW2 7191   6.923   3.012   0.100
 2098SOL     OW 7192   4.607   0.699   4.469
 2098SOL    HW1 7193   4.607   0.635   4.546
 2098SOL    HW2 7194   4.661   0.661   4.394
 2099SOL     OW 7195   2.920   1.578   4.109
 2099SOL    HW1 7196   2.868   1.496   4.132
 2099SOL    HW2 7197   2.986   1.557   4.038
 2100SOL     OW 7198   3.830   3.973   6.898
 2100SOL    HW1 7199   3.812   4.037   6.823
 2100SOL    HW2 7200   3.927   3.978   6.923
 2101SOL     OW 7201   0.121   0.439   3.311
 2101SOL    HW1 7202   0.122   0.523   3.365
 2101SOL    HW2 7203   0.054   0.448   3.237
 2102SOL     OW 7204   0.037   4.855   2.134
 2102SOL    HW1 7205   0.050   4.929   2.067
 2102SOL    HW2 7206   6.965   4.860   2.173
 2103SOL     OW 7207   3.030   3.585   6.579
 2103SOL    HW1 7208   2.942   3.589   6.531
 2103SOL    HW2 7209   3.040   3.497   6.624
 2104SOL     OW 7210   1.259   3.989   5.126
 2104SOL    HW1 7211   1.300   3.981   5.217
 2104SOL    HW2 7212   1.185   4.056   5.128
 2105SOL     OW 7213   5.985   5.473   1.710
 2105SOL    HW1 7214   6.077   5.482   1.748
 2105SOL    HW2 7215   5.950   5.564   1.688
 2106SOL     OW 7216   5.363   5.810   6.937
 2106SOL    HW1 7217   5.411   5.734   6.893
 2106SOL    HW2 7218   5.415   5.894   6.923
 2107SOL     OW 7219   3.735   4.129   6.677
 2107SOL    HW1 7220   3.642   4.128   6.641
 2107SOL    HW2 7221   3.746   4.204   6.741
 2108SOL     OW 7222   5.194   4.596   5.965
 2108SOL    HW1 7223   5.149   4.550   5.889
 2108SOL    HW2 7224   5.235   4.528   6.026
 2109SOL     OW 7225   5.667   0.261   2.926
 2109SOL    HW1 7226   5.594   0.326   2.950
 2109SOL    HW2 7227   5.675   0.193   2.999
 2110SOL     OW 7228   2.681   5.049   5.718
 2110SOL    HW1 7229   2.773   5.044   5.679
 2110SOL    HW2 7230   2.682   5.016   5.812
 2111SOL     OW 7231   1.429   2.835   6.893
 2111SOL    HW1 7232   1.405   2.899   6.820
 2111SOL    HW2 7233   1.415   2.879   6.981
 2112SOL     OW 7234   5.101   3.488   0.968
 2112SOL    HW1 7235   5.028   3.482   0.900
 2112SOL    HW2 7236   5.119   3.397   1.007
 2113SOL     OW 7237   6.877   1.284   3.160
 2113SOL    HW1 7238   6.877   1.190   3.196
 2113SOL    HW2 7239   6.804   1.336   3.204
 2114SOL     OW 7240   1.789   4.219   6.955
 2114SOL    HW1 7241   1.728   4.276   6.900
 2114SOL    HW2 7242   1.829   4.273   0.009
 2115SOL     OW 7243   2.430   4.770   2.359
 2115SOL    HW1 7244   2.500   4.793   2.426
 2115SOL    HW2 7245   2.341   4.769   2.404
 2116SOL     OW 7246   0.072   4.064   3.255
 2116SOL    HW1 7247   0.121   3.995   3.308
 2116SOL    HW2 7248   0.072   4.151   3.305
 2117SOL     OW 7249   6.614   4.868   1.013
 2117SOL    HW1 7250   6.619   4.799   0.940
 2117SOL    HW2 7251   6.608   4.822   1.101
 2118SOL     OW 7252   6.764   4.184   2.221
 2118SOL    HW1 7253   6.805   4.199   2.311
 2118SOL    HW2 7254   6.835   4.163   2.154
 2119SOL     OW 7255   2.959   6.068   1.083
 2119SOL    HW1 7256   2.939   5.972   1.105
 2119SOL    HW2 7257   2.875   6.122   1.086
 2120SOL     OW 7258   0.096   5.344   1.949
 2120SOL    HW1 7259   0.103   5.442   1.934
 2120SOL    HW2 7260   0.002   5.314   1.934
 2121SOL     OW 7261   0.714   4.735   4.884
 2121SOL    HW1 7262   0.629   4.744   4.937
 2121SOL    HW2 7263   0.778   4.808   4.912
 2122SOL     OW 7264   4.604   4.330   5.361
 2122SOL    HW1 7265   4.680   4.351   5.298
 2122SOL    HW2 7266   4.614   4.236   5.394
 2123SOL     OW 7267   5.760   4.575   3.169
 2123SOL    HW1 7268   5.834   4.508   3.168
 2123SOL    HW2 7269   5.752   4.616   3.078
 2124SOL     OW 7270   2.679   1.738   0.552
 2124SOL    HW1 7271   2.640   1.716   0.642
 2124SOL    HW2 7272   2.638   1.823   0.518
 2125SOL     OW 7273   3.108   6.741   1.136
 2125SOL    HW1 7274   3.078   6.648   1.159
 2125SOL    HW2 7275   3.147   6.742   1.044
 2126SOL     OW 7276   2.545   1.236   1.725
 2126SOL    HW1 7277   2.507   1.148   1.751
 2126SOL    HW2 7278   2.622   1.259   1.785
 2127SOL     OW 7279   5.546   3.159   5.179
 2127SOL    HW1 7280   5.632   3.140   5.132
 2127SOL    HW2 7281   5.520   3.254   5.164
 2128SOL     OW 7282   0.314   5.042   4.161
 2128SOL    HW1 7283   0.217   5.048   4.182
 2128SOL    HW2 7284   0.342   5.123   4.110
 2129SOL     OW 7285   3.942   1.830   5.861
 2129SOL    HW1 7286   3.962   1.733   5.857
 2129SOL    HW2 7287   3.880   1.848   5.938
 2130SOL     OW 7288   4.047   6.187   3.648
 2130SOL    HW1 7289   4.099   6.267   3.676
 2130SOL    HW2 7290   3.949   6.207   3.653
 2131SOL     OW 7291   5.753   2.284   6.788
 2131SOL    HW1 7292   5.803   2.369   6.807
 2131SOL    HW2 7293   5.676   2.276   6.852
 2132SOL     OW 7294   2.468   2.755   0.595
 2132SOL    HW1 7295   2.397   2.711   0.652
 2132SOL    HW2 7296   2.558   2.727   0.628
 2133SOL     OW 7297   2.913   3.479   5.788
 2133SOL    HW1 7298   2.843   3.446   5.725
 2133SOL    HW2 7299   2.977   3.405   5.809
 2134SOL     OW 7300   1.120   0.108   1.046
 2134SOL    HW1 7301   1.102   0.206   1.047
 2134SOL    HW2 7302   1.214   0.091   1.016
 2135SOL     OW 7303   6.930   4.195   4.121
 2135SOL    HW1 7304   6.955   4.100   4.139
 2135SOL    HW2 7305   6.870   4.199   4.041
 2136SOL     OW 7306   1.698   4.886   1.570
 2136SOL    HW1 7307   1.653   4.975   1.581
 2136SOL    HW2 7308   1.676   4.829   1.649
 2137SOL     OW 7309   1.785   5.599   4.197
 2137SOL    HW1 7310   1.858   5.550   4.244
 2137SOL    HW2 7311   1.778   5.692   4.234
 2138SOL     OW 7312   5.057   1.759   1.792
 2138SOL    HW1 7313   4.978   1.790   1.739
 2138SOL    HW2 7314   5.104   1.838   1.831
 2139SOL     OW 7315   2.736   0.954   5.544
 2139SOL    HW1 7316   2.835   0.962   5.555
 2139SOL    HW2 7317   2.700   1.040   5.509
 2140SOL     OW 7318   2.305   1.068   4.846
 2140SOL    HW1 7319   2.337   0.975   4.829
 2140SOL    HW2 7320   2.241   1.068   4.923
 2141SOL     OW 7321   6.617   3.822   2.696
 2141SOL    HW1 7322   6.528   3.796   2.660
 2141SOL    HW2 7323   6.606   3.859   2.788
 2142SOL     OW 7324   1.393   2.340   2.719
 2142SOL    HW1 7325   1.294   2.336   2.718
 2142SOL    HW2 7326   1.429   2.336   2.626
 2143SOL     OW 7327   1.122   4.519   0.212
 2143SOL    HW1 7328   1.195   4.566   0.261
 2143SOL    HW2 7329   1.056   4.586   0.179
 2144SOL     OW 7330   5.982   4.875   3.817
 2144SOL    HW1 7331   5.980   4.816   3.737
 2144SOL    HW2 7332   5.927   4.835   3.890
 2145SOL     OW 7333   4.158   0.299   3.538
 2145SOL    HW1 7334   4.075   0.326   3.488
 2145SOL    HW2 7335   4.180   0.369   3.606
 2146SOL     OW 7336   2.094   2.898   0.014
 2146SOL    HW1 7337   2.188   2.917   7.004
 2146SOL    HW2 7338   2.088   2.908   0.114
 2147SOL     OW 7339   6.038   0.337   4.518
 2147SOL    HW1 7340   6.051   0.244   4.483
 2147SOL    HW2 7341   6.045   0.402   4.442
 2148SOL     OW 7342   0.410   3.271   6.445
 2148SOL    HW1 7343   0.316   3.297   6.425
 2148SOL    HW2 7344   0.430   3.288   6.541
 2149SOL     OW 7345   0.745   0.487   7.015
 2149SOL    HW1 7346   0.803   0.409   0.020
 2149SOL    HW2 7347   0.765   0.563   0.057
 2150SOL     OW 7348   2.624   2.730   1.449
 2150SOL    HW1 7349   2.636   2.631   1.453
 2150SOL    HW2 7350   2.705   2.774   1.489
 2151SOL     OW 7351   1.318   5.647   0.335
 2151SOL    HW1 7352   1.288   5.554   0.314
 2151SOL    HW2 7353   1.348   5.651   0.431
 2152SOL     OW 7354   4.988   5.527   4.510
 2152SOL    HW1 7355   4.928   5.540   4.431
 2152SOL    HW2 7356   5.081   5.509   4.478
 2153SOL     OW 7357   4.801   1.603   3.501
 2153SOL    HW1 7358   4.805   1.523   3.561
 2153SOL    HW2 7359   4.726   1.592   3.436
 2154SOL     OW 7360   3.082   0.109   3.603
 2154SOL    HW1 7361   3.154   0.046   3.629
 2154SOL    HW2 7362   3.121   0.199   3.583
 2155SOL     OW 7363   4.465   0.053   0.724
 2155SOL    HW1 7364   4.455   6.975   0.707
 2155SOL    HW2 7365   4.379   0.100   0.702
 2156SOL     OW 7366   5.269   1.581   4.984
 2156SOL    HW1 7367   5.254   1.679   4.969
 2156SOL    HW2 7368   5.325   1.544   4.910
 2157SOL     OW 7369   3.176   5.932   3.926
 2157SOL    HW1 7370   3.207   5.943   3.831
 2157SOL    HW2 7371   3.142   6.019   3.960
 2158SOL     OW 7372   3.768   0.693   0.411
 2158SOL    HW1 7373   3.786   0.691   0.509
 2158SOL    HW2 7374   3.802   0.608   0.369
 2159SOL     OW 7375   0.524   1.057   5.527
 2159SOL    HW1 7376   0.555   1.081   5.435
 2159SOL    HW2 7377   0.536   1.135   5.588
 2160SOL     OW 7378   5.841   6.921   0.351
 2160SOL    HW1 7379   5.854   6.855   0.426
 2160SOL    HW2 7380   5.859   7.013   0.384
 2161SOL     OW 7381   1.555   2.482   1.957
 2161SOL    HW1 7382   1.520   2.402   1.909
 2161SOL    HW2 7383   1.648   2.464   1.989
 2162SOL     OW 7384   0.909   6.942   1.851
 2162SOL    HW1 7385   0.950   6.884   1.921
 2162SOL    HW2 7386   0.931   6.906   1.760
 2163SOL     OW 7387   1.895   3.102   2.537
 2163SOL    HW1 7388   1.978   3.142   2.576
 2163SOL    HW2 7389   1.884   3.009   2.571
 2164SOL     OW 7390   1.891   2.878   2.676
 2164SOL    HW1 7391   1.822   2.886   2.748
 2164SOL    HW2 7392   1.954   2.804   2.699
 2165SOL     OW 7393   0.041   1.411   3.810
 2165SOL    HW1 7394   0.055   1.470   3.731
 2165SOL    HW2 7395   0.019   1.318   3.779
 2166SOL     OW 7396   7.001   4.364   2.714
 2166SOL    HW1 7397   0.049   4.302   2.673
 2166SOL    HW2 7398   6.971   4.327   2.802
 2167SOL     OW 7399   2.396   2.027   3.482
 2167SOL    HW1 7400   2.316   2.088   3.488
 2167SOL    HW2 7401   2.441   2.041   3.394
 2168SOL     OW 7402   1.486   2.133   3.493
 2168SOL    HW1 7403   1.537   2.070   3.552
 2168SOL    HW2 7404   1.549   2.183   3.435
 2169SOL     OW 7405   0.503   0.067   1.370
 2169SOL    HW1 7406   0.591   0.046   1.415
 2169SOL    HW2 7407   0.458   0.142   1.418
 2170SOL     OW 7408   0.870   3.875   5.248
 2170SOL    HW1 7409   0.860   3.963   5.296
 2170SOL    HW2 7410   0.847   3.887   5.152
 2171SOL     OW 7411   0.252   5.411   1.704
 2171SOL    HW1 7412   0.270   5.381   1.798
 2171SOL    HW2 7413   0.156   5.437   1.695
 2172SOL     OW 7414   1.434   1.246   5.109
 2172SOL    HW1 7415   1.407   1.181   5.038
 2172SOL    HW2 7416   1.521   1.217   5.148
 2173SOL     OW 7417   6.060   0.680   5.279
 2173SOL    HW1 7418   6.039   0.589   5.243
 2173SOL    HW2 7419   5.996   0.747   5.241
 2174SOL     OW 7420   6.173   0.124   6.107
 2174SOL    HW1 7421   6.115   0.070   6.046
 2174SOL    HW2 7422   6.120   0.198   6.148
 2175SOL     OW 7423   2.509   3.677   5.325
 2175SOL    HW1 7424   2.484   3.728   5.407
 2175SOL    HW2 7425   2.428   3.665   5.267
 2176SOL     OW 7426   5.636   2.428   1.741
 2176SOL    HW1 7427   5.556   2.473   1.780
 2176SOL    HW2 7428   5.705   2.413   1.812
 2177SOL     OW 7429   0.541   0.317   4.234
 2177SOL    HW1 7430   0.513   0.359   4.149
 2177SOL    HW2 7431   0.501   0.367   4.311
 2178SOL     OW 7432   0.479   1.860   2.714
 2178SOL    HW1 7433   0.577   1.857   2.698
 2178SOL    HW2 7434   0.458   1.811   2.799
 2179SOL     OW 7435   1.205   4.174   6.074
 2179SOL    HW1 7436   1.145   4.229   6.017
 2179SOL    HW2 7437   1.245   4.231   6.146
 2180SOL     OW 7438   0.732   6.227   2.608
 2180SOL    HW1 7439   0.760   6.311   2.563
 2180SOL    HW2 7440   0.697   6.248   2.699
 2181SOL     OW 7441   3.444   4.967   4.567
 2181SOL    HW1 7442   3.404   5.029   4.500
 2181SOL    HW2 7443   3.371   4.924   4.621
 2182SOL     OW 7444   0.113   6.371   2.858
 2182SOL    HW1 7445   0.022   6.373   2.900
 2182SOL    HW2 7446   0.177   6.424   2.915
 2183SOL     OW 7447   3.381   2.764   6.462
 2183SOL    HW1 7448   3.460   2.787   6.404
 2183SOL    HW2 7449   3.356   2.668   6.447
 2184SOL     OW 7450   6.635   1.610   6.955
 2184SOL    HW1 7451   6.636   1.697   7.005
 2184SOL    HW2 7452   6.573   1.617   6.877
 2185SOL     OW 7453   0.980   0.017   6.619
 2185SOL    HW1 7454   1.067   7.003   6.583
 2185SOL    HW2 7455   0.994   0.104   6.666
 2186SOL     OW 7456   0.138   4.880   5.816
 2186SOL    HW1 7457   0.225   4.836   5.836
 2186SOL    HW2 7458   0.146   4.979   5.832
 2187SOL     OW 7459   0.550   5.761   2.585
 2187SOL    HW1 7460   0.592   5.774   2.675
 2187SOL    HW2 7461   0.533   5.850   2.543
 2188SOL     OW 7462   2.240   0.489   0.672
 2188SOL    HW1 7463   2.333   0.477   0.639
 2188SOL    HW2 7464   2.231   0.447   0.763
 2189SOL     OW 7465   2.031   1.564   1.296
 2189SOL    HW1 7466   1.940   1.576   1.256
 2189SOL    HW2 7467   2.023   1.518   1.385
 2190SOL     OW 7468   6.627   3.938   2.104
 2190SOL    HW1 7469   6.615   3.934   2.004
 2190SOL    HW2 7470   6.700   4.002   2.126
 2191SOL     OW 7471   3.062   6.778   0.188
 2191SOL    HW1 7472   3.134   6.722   0.148
 2191SOL    HW2 7473   3.010   6.824   0.115
 2192SOL     OW 7474   4.922   1.569   1.186
 2192SOL    HW1 7475   4.854   1.566   1.113
 2192SOL    HW2 7476   4.894   1.509   1.261
 2193SOL     OW 7477   1.646   6.686   6.169
 2193SOL    HW1 7478   1.678   6.720   6.257
 2193SOL    HW2 7479   1.652   6.758   6.101
 2194SOL     OW 7480   1.002   3.621   5.616
 2194SOL    HW1 7481   1.076   3.629   5.682
 2194SOL    HW2 7482   0.923   3.675   5.648
 2195SOL     OW 7483   0.485   3.356   5.482
 2195SOL    HW1 7484   0.504   3.399   5.570
 2195SOL    HW2 7485   0.569   3.314   5.447
 2196SOL     OW 7486   2.893   0.310   6.448
 2196SOL    HW1 7487   2.966   0.245   6.425
 2196SOL    HW2 7488   2.880   0.372   6.371
 2197SOL     OW 7489   3.462   5.331   5.676
 2197SOL    HW1 7490   3.474   5.414   5.621
 2197SOL    HW2 7491   3.478   5.251   5.618
 2198SOL     OW 7492   0.499   0.397   6.738
 2198SOL    HW1 7493   0.515   0.357   6.828
 2198SOL    HW2 7494   0.407   0.373   6.707
 2199SOL     OW 7495   3.808   6.560   4.934
 2199SOL    HW1 7496   3.894   6.522   4.901
 2199SOL    HW2 7497   3.762   6.493   4.992
 2200SOL     OW 7498   2.724   1.788   4.109
 2200SOL    HW1 7499   2.796   1.719   4.093
 2200SOL    HW2 7500   2.748   1.872   4.060
 2201SOL     OW 7501   6.415   4.131   4.355
 2201SOL    HW1 7502   6.491   4.141   4.420
 2201SOL    HW2 7503   6.351   4.207   4.366
 2202SOL     OW 7504   3.723   6.259   1.970
 2202SOL    HW1 7505   3.806   6.312   1.955
 2202SOL    HW2 7506   3.717   6.186   1.902
 2203SOL     OW 7507   1.861   3.797   0.814
 2203SOL    HW1 7508   1.869   3.782   0.912
 2203SOL    HW2 7509   1.847   3.709   0.768
 2204SOL     OW 7510   5.662   3.607   1.199
 2204SOL    HW1 7511   5.658   3.567   1.108
 2204SOL    HW2 7512   5.727   3.684   1.199
 2205SOL     OW 7513   0.722   5.286   0.277
 2205SOL    HW1 7514   0.796   5.225   0.307
 2205SOL    HW2 7515   0.715   5.282   0.177
 2206SOL     OW 7516   3.396   2.278   5.828
 2206SOL    HW1 7517   3.432   2.239   5.913
 2206SOL    HW2 7518   3.300   2.301   5.839
 2207SOL     OW 7519   4.408   6.100   1.236
 2207SOL    HW1 7520   4.491   6.155   1.228
 2207SOL    HW2 7521   4.370   6.083   1.146
 2208SOL     OW 7522   6.678   6.151   3.415
 2208SOL    HW1 7523   6.644   6.095   3.490
 2208SOL    HW2 7524   6.758   6.107   3.374
 2209SOL     OW 7525   2.776   5.694   3.924
 2209SOL    HW1 7526   2.828   5.750   3.988
 2209SOL    HW2 7527   2.711   5.637   3.975
 2210SOL     OW 7528   4.681   0.135   0.877
 2210SOL    HW1 7529   4.587   0.133   0.843
 2210SOL    HW2 7530   4.717   0.041   0.879
 2211SOL     OW 7531   0.186   1.626   1.121
 2211SOL    HW1 7532   0.186   1.696   1.192
 2211SOL    HW2 7533   0.212   1.538   1.161
 2212SOL     OW 7534   2.665   5.801   6.829
 2212SOL    HW1 7535   2.591   5.828   6.891
 2212SOL    HW2 7536   2.738   5.757   6.881
 2213SOL     OW 7537   3.534   1.705   4.736
 2213SOL    HW1 7538   3.607   1.712   4.804
 2213SOL    HW2 7539   3.491   1.615   4.743
 2214SOL     OW 7540   4.407   3.827   0.015
 2214SOL    HW1 7541   4.503   3.825   7.004
 2214SOL    HW2 7542   4.388   3.747   0.071
 2215SOL     OW 7543   4.094   0.049   6.928
 2215SOL    HW1 7544   4.150   6.988   6.910
 2215SOL    HW2 7545   4.122   0.091   7.014
 2216SOL     OW 7546   0.313   6.898   6.548
 2216SOL    HW1 7547   0.389   6.931   6.604
 2216SOL    HW2 7548   0.320   6.938   6.456
 2217SOL     OW 7549   3.960   0.577   3.741
 2217SOL    HW1 7550   3.862   0.588   3.756
 2217SOL    HW2 7551   4.006   0.567   3.830
 2218SOL     OW 7552   0.724   5.891   5.732
 2218SOL    HW1 7553   0.805   5.903   5.790
 2218SOL    HW2 7554   0.712   5.972   5.674
 2219SOL     OW 7555   6.040   0.966   0.736
 2219SOL    HW1 7556   6.079   1.014   0.657
 2219SOL    HW2 7557   6.107   0.962   0.809
 2220SOL     OW 7558   0.378   5.786   5.118
 2220SOL    HW1 7559   0.419   5.695   5.104
 2220SOL    HW2 7560   0.449   5.851   5.143
 2221SOL     OW 7561   6.478   1.322   3.933
 2221SOL    HW1 7562   6.387   1.280   3.929
 2221SOL    HW2 7563   6.514   1.332   3.841
 2222SOL     OW 7564   5.045   6.698   1.988
 2222SOL    HW1 7565   5.138   6.732   1.987
 2222SOL    HW2 7566   4.981   6.774   1.975
 2223SOL     OW 7567   0.364   6.038   5.569
 2223SOL    HW1 7568   0.351   6.135   5.585
 2223SOL    HW2 7569   0.342   6.016   5.474
 2224SOL     OW 7570   5.711   4.169   0.721
 2224SOL    HW1 7571   5.658   4.100   0.672
 2224SOL    HW2 7572   5.751   4.233   0.656
 2225SOL     OW 7573   0.184   6.916   2.778
 2225SOL    HW1 7574   0.135   6.830   2.762
 2225SOL    HW2 7575   0.128   6.976   2.835
 2226SOL     OW 7576   2.300   5.472   0.866
 2226SOL    HW1 7577   2.314   5.436   0.773
 2226SOL    HW2 7578   2.215   5.435   0.903
 2227SOL     OW 7579   3.728   2.037   1.702
 2227SOL    HW1 7580   3.662   1.963   1.711
 2227SOL    HW2 7581   3.723   2.097   1.782
 2228SOL     OW 7582   5.639   4.937   6.657
 2228SOL    HW1 7583   5.663   4.999   6.731
 2228SOL    HW2 7584   5.711   4.939   6.587
 2229SOL     OW 7585   3.461   3.246   3.766
 2229SOL    HW1 7586   3.384   3.308   3.774
 2229SOL    HW2 7587   3.546   3.297   3.778
 2230SOL     OW 7588   5.493   0.282   0.693
 2230SOL    HW1 7589   5.504   0.286   0.594
 2230SOL    HW2 7590   5.453   0.194   0.719
 2231SOL     OW 7591   1.476   0.092   6.532
 2231SOL    HW1 7592   1.472   0.185   6.569
 2231SOL    HW2 7593   1.550   0.043   6.576
 2232SOL     OW 7594   0.854   0.757   5.336
 2232SOL    HW1 7595   0.789   0.831   5.352
 2232SOL    HW2 7596   0.898   0.771   5.247
 2233SOL     OW 7597   2.964   3.833   0.827
 2233SOL    HW1 7598   2.973   3.768   0.902
 2233SOL    HW2 7599   3.055   3.854   0.790
 2234SOL     OW 7600   5.041   1.585   1.534
 2234SOL    HW1 7601   5.016   1.677   1.504
 2234SOL    HW2 7602   5.070   1.587   1.630
 2235SOL     OW 7603   1.232   1.704   3.489
 2235SOL    HW1 7604   1.201   1.610   3.507
 2235SOL    HW2 7605   1.183   1.740   3.410
 2236SOL     OW 7606   1.782   4.374   5.320
 2236SOL    HW1 7607   1.833   4.437   5.262
 2236SOL    HW2 7608   1.764   4.290   5.270
 2237SOL     OW 7609   6.675   5.380   5.981
 2237SOL    HW1 7610   6.641   5.325   6.058
 2237SOL    HW2 7611   6.717   5.464   6.016
 2238SOL     OW 7612   5.462   4.448   2.131
 2238SOL    HW1 7613   5.497   4.379   2.069
 2238SOL    HW2 7614   5.504   4.437   2.221
 2239SOL     OW 7615   3.935   6.689   3.263
 2239SOL    HW1 7616   3.977   6.607   3.302
 2239SOL    HW2 7617   3.934   6.761   3.332
 2240SOL     OW 7618   5.085   5.060   3.354
 2240SOL    HW1 7619   5.114   5.006   3.275
 2240SOL    HW2 7620   4.987   5.077   3.349
 2241SOL     OW 7621   0.389   0.688   1.626
 2241SOL    HW1 7622   0.381   0.771   1.681
 2241SOL    HW2 7623   0.409   0.713   1.531
 2242SOL     OW 7624   4.818   3.127   3.271
 2242SOL    HW1 7625   4.888   3.134   3.342
 2242SOL    HW2 7626   4.734   3.089   3.310
 2243SOL     OW 7627   1.613   6.249   0.771
 2243SOL    HW1 7628   1.591   6.213   0.681
 2243SOL    HW2 7629   1.679   6.324   0.762
 2244SOL     OW 7630   2.858   0.652   0.591
 2244SOL    HW1 7631   2.845   0.552   0.589
 2244SOL    HW2 7632   2.816   0.693   0.510
 2245SOL     OW 7633   0.644   0.107   6.959
 2245SOL    HW1 7634   0.602   0.017   6.948
 2245SOL    HW2 7635   0.586   0.164   7.016
 2246SOL     OW 7636   2.617   0.912   5.048
 2246SOL    HW1 7637   2.641   0.958   4.963
 2246SOL    HW2 7638   2.697   0.862   5.082
 2247SOL     OW 7639   3.172   4.021   2.673
 2247SOL    HW1 7640   3.118   3.963   2.612
 2247SOL    HW2 7641   3.137   4.013   2.766
 2248SOL     OW 7642   4.865   4.121   4.856
 2248SOL    HW1 7643   4.866   4.042   4.917
 2248SOL    HW2 7644   4.785   4.177   4.875
 2249SOL     OW 7645   1.915   6.046   3.173
 2249SOL    HW1 7646   1.991   6.111   3.179
 2249SOL    HW2 7647   1.948   5.960   3.135
 2250SOL     OW 7648   4.429   4.905   6.322
 2250SOL    HW1 7649   4.411   4.973   6.251
 2250SOL    HW2 7650   4.470   4.949   6.402
 2251SOL     OW 7651   5.485   6.766   5.883
 2251SOL    HW1 7652   5.389   6.783   5.862
 2251SOL    HW2 7653   5.534   6.853   5.889
 2252SOL     OW 7654   4.609   1.562   3.043
 2252SOL    HW1 7655   4.695   1.613   3.032
 2252SOL    HW2 7656   4.590   1.511   2.959
 2253SOL     OW 7657   0.329   3.567   0.970
 2253SOL    HW1 7658   0.310   3.636   0.901
 2253SOL    HW2 7659   0.244   3.528   1.003
 2254SOL     OW 7660   3.625   3.586   2.543
 2254SOL    HW1 7661   3.539   3.542   2.517
 2254SOL    HW2 7662   3.605   3.673   2.589
 2255SOL     OW 7663   3.591   3.735   6.215
 2255SOL    HW1 7664   3.537   3.662   6.172
 2255SOL    HW2 7665   3.542   3.771   6.294
 2256SOL     OW 7666   4.677   0.124   2.175
 2256SOL    HW1 7667   4.771   0.099   2.200
 2256SOL    HW2 7668   4.632   0.167   2.254
 2257SOL     OW 7669   0.706   1.158   4.832
 2257SOL    HW1 7670   0.695   1.153   4.931
 2257SOL    HW2 7671   0.793   1.203   4.810
 2258SOL     OW 7672   2.736   5.950   3.798
 2258SOL    HW1 7673   2.763   5.933   3.704
 2258SOL    HW2 7674   2.750   5.867   3.853
 2259SOL     OW 7675   6.047   2.178   4.436
 2259SOL    HW1 7676   5.990   2.159   4.356
 2259SOL    HW2 7677   6.042   2.276   4.458
 2260SOL     OW 7678   1.120   3.588   1.555
 2260SOL    HW1 7679   1.052   3.643   1.604
 2260SOL    HW2 7680   1.202   3.643   1.539
 2261SOL     OW 7681   5.340   4.035   6.527
 2261SOL    HW1 7682   5.251   4.053   6.484
 2261SOL    HW2 7683   5.389   3.967   6.474
 2262SOL     OW 7684   6.586   0.366   4.456
 2262SOL    HW1 7685   6.643   0.360   4.538
 2262SOL    HW2 7686   6.508   0.304   4.465
 2263SOL     OW 7687   1.162   4.793   6.783
 2263SOL    HW1 7688   1.097   4.719   6.764
 2263SOL    HW2 7689   1.116   4.881   6.774
 2264SOL     OW 7690   2.456   0.124   5.796
 2264SOL    HW1 7691   2.427   0.079   5.712
 2264SOL    HW2 7692   2.450   0.223   5.785
 2265SOL     OW 7693   0.868   6.307   4.630
 2265SOL    HW1 7694   0.797   6.274   4.568
 2265SOL    HW2 7695   0.854   6.404   4.649
 2266SOL     OW 7696   4.465   1.650   6.771
 2266SOL    HW1 7697   4.482   1.742   6.736
 2266SOL    HW2 7698   4.523   1.633   6.850
 2267SOL     OW 7699   4.717   2.643   4.351
 2267SOL    HW1 7700   4.766   2.647   4.264
 2267SOL    HW2 7701   4.730   2.729   4.401
 2268SOL     OW 7702   0.205   5.156   5.872
 2268SOL    HW1 7703   0.230   5.180   5.778
 2268SOL    HW2 7704   0.142   5.225   5.909
 2269SOL     OW 7705   2.234   2.491   4.987
 2269SOL    HW1 7706   2.189   2.481   5.076
 2269SOL    HW2 7707   2.261   2.586   4.973
 2270SOL     OW 7708   4.644   1.837   6.054
 2270SOL    HW1 7709   4.631   1.814   5.957
 2270SOL    HW2 7710   4.742   1.850   6.071
 2271SOL     OW 7711   5.407   4.988   5.915
 2271SOL    HW1 7712   5.313   4.970   5.943
 2271SOL    HW2 7713   5.429   4.934   5.834
 2272SOL     OW 7714   5.671   1.218   5.979
 2272SOL    HW1 7715   5.639   1.311   5.998
 2272SOL    HW2 7716   5.758   1.221   5.930
 2273SOL     OW 7717   1.303   2.810   2.312
 2273SOL    HW1 7718   1.207   2.819   2.339
 2273SOL    HW2 7719   1.311   2.740   2.241
 2274SOL     OW 7720   0.431   1.265   6.587
 2274SOL    HW1 7721   0.529   1.284   6.582
 2274SOL    HW2 7722   0.405   1.203   6.513
 2275SOL     OW 7723   5.969   4.887   2.346
 2275SOL    HW1 7724   5.909   4.820   2.390
 2275SOL    HW2 7725   5.973   4.970   2.402
 2276SOL     OW 7726   1.289   2.068   1.097
 2276SOL    HW1 7727   1.238   2.150   1.126
 2276SOL    HW2 7728   1.225   1.991   1.089
 2277SOL     OW 7729   3.699   3.354   3.743
 2277SOL    HW1 7730   3.730   3.368   3.649
 2277SOL    HW2 7731   3.647   3.434   3.774
 2278SOL     OW 7732   0.547   2.140   3.826
 2278SOL    HW1 7733   0.643   2.141   3.852
 2278SOL    HW2 7734   0.506   2.054   3.854
 2279SOL     OW 7735   0.527   6.164   5.365
 2279SOL    HW1 7736   0.496   6.240   5.308
 2279SOL    HW2 7737   0.503   6.077   5.321
 2280SOL     OW 7738   4.795   1.633   5.087
 2280SOL    HW1 7739   4.766   1.721   5.050
 2280SOL    HW2 7740   4.850   1.584   5.020
 2281SOL     OW 7741   5.532   0.056   2.542
 2281SOL    HW1 7742   5.559   6.988   2.583
 2281SOL    HW2 7743   5.563   0.060   2.448
 2282SOL     OW 7744   4.225   5.968   5.786
 2282SOL    HW1 7745   4.303   5.992   5.728
 2282SOL    HW2 7746   4.141   5.973   5.732
 2283SOL     OW 7747   0.652   0.334   3.798
 2283SOL    HW1 7748   0.627   0.395   3.873
 2283SOL    HW2 7749   0.636   0.239   3.825
 2284SOL     OW 7750   1.384   3.271   6.708
 2284SOL    HW1 7751   1.476   3.280   6.747
 2284SOL    HW2 7752   1.358   3.357   6.664
 2285SOL     OW 7753   1.351   4.361   6.250
 2285SOL    HW1 7754   1.283   4.355   6.323
 2285SOL    HW2 7755   1.442   4.344   6.288
 2286SOL     OW 7756   4.697   6.022   4.083
 2286SOL    HW1 7757   4.722   6.063   3.995
 2286SOL    HW2 7758   4.607   6.053   4.111
 2287SOL     OW 7759   1.914   0.914   3.330
 2287SOL    HW1 7760   1.857   0.994   3.312
 2287SOL    HW2 7761   1.868   0.832   3.297
 2288SOL     OW 7762   0.195   6.554   3.047
 2288SOL    HW1 7763   0.185   6.485   3.118
 2288SOL    HW2 7764   0.267   6.618   3.072
 2289SOL     OW 7765   1.031   5.831   1.893
 2289SOL    HW1 7766   1.042   5.866   1.986
 2289SOL    HW2 7767   1.065   5.899   1.828
 2290SOL     OW 7768   0.617   5.289   0.535
 2290SOL    HW1 7769   0.671   5.229   0.595
 2290SOL    HW2 7770   0.660   5.293   0.445
 2291SOL     OW 7771   2.837   1.915   6.177
 2291SOL    HW1 7772   2.769   1.975   6.135
 2291SOL    HW2 7773   2.834   1.926   6.277
 2292SOL     OW 7774   1.421   1.062   4.637
 2292SOL    HW1 7775   1.450   1.102   4.550
 2292SOL    HW2 7776   1.422   0.962   4.629
 2293SOL     OW 7777   5.543   4.899   2.216
 2293SOL    HW1 7778   5.537   4.825   2.148
 2293SOL    HW2 7779   5.604   4.871   2.290
 2294SOL     OW 7780   4.233   6.421   6.760
 2294SOL    HW1 7781   4.257   6.378   6.847
 2294SOL    HW2 7782   4.137   6.405   6.740
 2295SOL     OW 7783   0.306   2.140   1.201
 2295SOL    HW1 7784   0.333   2.050   1.166
 2295SOL    HW2 7785   0.355   2.211   1.151
 2296SOL     OW 7786   3.256   6.612   0.058
 2296SOL    HW1 7787   3.313   6.694   0.055
 2296SOL    HW2 7788   3.295   6.543   7.015
 2297SOL     OW 7789   4.429   5.194   5.709
 2297SOL    HW1 7790   4.518   5.238   5.715
 2297SOL    HW2 7791   4.421   5.125   5.781
 2298SOL     OW 7792   3.965   3.121   0.454
 2298SOL    HW1 7793   3.885   3.065   0.436
 2298SOL    HW2 7794   4.039   3.063   0.489
 2299SOL     OW 7795   4.900   5.739   0.161
 2299SOL    HW1 7796   4.985   5.715   0.113
 2299SOL    HW2 7797   4.844   5.797   0.101
 2300SOL     OW 7798   1.827   5.096   1.284
 2300SOL    HW1 7799   1.896   5.032   1.250
 2300SOL    HW2 7800   1.873   5.172   1.331
 2301SOL     OW 7801   4.048   3.310   2.714
 2301SOL    HW1 7802   4.045   3.403   2.677
 2301SOL    HW2 7803   4.001   3.248   2.651
 2302SOL     OW 7804   3.100   5.641   2.545
 2302SOL    HW1 7805   3.115   5.687   2.633
 2302SOL    HW2 7806   3.170   5.572   2.531
 2303SOL     OW 7807   1.502   2.428   4.696
 2303SOL    HW1 7808   1.491   2.415   4.598
 2303SOL    HW2 7809   1.567   2.360   4.732
 2304SOL     OW 7810   2.105   0.947   3.971
 2304SOL    HW1 7811   2.028   0.930   4.032
 2304SOL    HW2 7812   2.140   0.861   3.935
 2305SOL     OW 7813   2.988   5.445   1.991
 2305SOL    HW1 7814   3.069   5.469   1.938
 2305SOL    HW2 7815   3.013   5.434   2.087
 2306SOL     OW 7816   1.386   3.998   1.120
 2306SOL    HW1 7817   1.414   3.959   1.208
 2306SOL    HW2 7818   1.461   3.993   1.055
 2307SOL     OW 7819   0.594   2.571   2.901
 2307SOL    HW1 7820   0.608   2.515   2.819
 2307SOL    HW2 7821   0.527   2.527   2.961
 2308SOL     OW 7822   0.159   0.051   0.301
 2308SOL    HW1 7823   0.247   0.053   0.255
 2308SOL    HW2 7824   0.088   0.084   0.238
 2309SOL     OW 7825   3.479   5.330   6.327
 2309SOL    HW1 7826   3.392   5.287   6.351
 2309SOL    HW2 7827   3.547   5.258   6.308
 2310SOL     OW 7828   5.591   1.160   1.707
 2310SOL    HW1 7829   5.606   1.062   1.696
 2310SOL    HW2 7830   5.495   1.182   1.690
 2311SOL     OW 7831   2.997   0.256   3.170
 2311SOL    HW1 7832   2.966   0.310   3.092
 2311SOL    HW2 7833   3.097   0.261   3.177
 2312SOL     OW 7834   4.038   0.812   3.318
 2312SOL    HW1 7835   4.127   0.806   3.274
 2312SOL    HW2 7836   4.049   0.818   3.417
 2313SOL     OW 7837   5.060   3.865   1.986
 2313SOL    HW1 7838   5.096   3.846   1.895
 2313SOL    HW2 7839   5.000   3.790   2.015
 2314SOL     OW 7840   6.169   0.312   3.083
 2314SOL    HW1 7841   6.249   0.299   3.141
 2314SOL    HW2 7842   6.091   0.338   3.139
 2315SOL     OW 7843   4.389   4.731   5.805
 2315SOL    HW1 7844   4.461   4.686   5.753
 2315SOL    HW2 7845   4.394   4.705   5.901
 2316SOL     OW 7846   2.905   1.081   6.071
 2316SOL    HW1 7847   2.905   1.164   6.127
 2316SOL    HW2 7848   2.862   1.101   5.982
 2317SOL     OW 7849   5.925   5.940   3.670
 2317SOL    HW1 7850   5.964   6.008   3.607
 2317SOL    HW2 7851   5.829   5.962   3.688
 2318SOL     OW 7852   1.943   4.755   5.024
 2318SOL    HW1 7853   1.943   4.695   5.105
 2318SOL    HW2 7854   1.990   4.709   4.949
 2319SOL     OW 7855   2.537   4.953   4.366
 2319SOL    HW1 7856   2.599   4.915   4.298
 2319SOL    HW2 7857   2.581   5.030   4.413
 2320SOL     OW 7858   1.115   3.240   4.980
 2320SOL    HW1 7859   1.115   3.273   4.885
 2320SOL    HW2 7860   1.195   3.277   5.028
 2321SOL     OW 7861   2.765   5.044   6.364
 2321SOL    HW1 7862   2.840   5.047   6.298
 2321SOL    HW2 7863   2.751   5.135   6.402
 2322SOL     OW 7864   2.041   3.538   2.499
 2322SOL    HW1 7865   2.067   3.506   2.590
 2322SOL    HW2 7866   1.969   3.480   2.462
 2323SOL     OW 7867   2.374   5.046   1.633
 2323SOL    HW1 7868   2.315   5.088   1.702
 2323SOL    HW2 7869   2.459   5.098   1.625
 2324SOL     OW 7870   0.686   5.195   1.891
 2324SOL    HW1 7871   0.684   5.265   1.963
 2324SOL    HW2 7872   0.694   5.105   1.933
 2325SOL     OW 7873   6.871   5.246   1.870
 2325SOL    HW1 7874   6.840   5.153   1.849
 2325SOL    HW2 7875   6.805   5.289   1.932
 2326SOL     OW 7876   1.143   0.404   6.591
 2326SOL    HW1 7877   1.094   0.371   6.511
 2326SOL    HW2 7878   1.121   0.346   6.670
 2327SOL     OW 7879   6.610   0.202   2.223
 2327SOL    HW1 7880   6.590   0.172   2.317
 2327SOL    HW2 7881   6.548   0.156   2.160
 2328SOL     OW 7882   1.565   2.215   2.233
 2328SOL    HW1 7883   1.486   2.270   2.204
 2328SOL    HW2 7884   1.649   2.262   2.206
 2329SOL     OW 7885   1.159   5.113   3.642
 2329SOL    HW1 7886   1.222   5.158   3.578
 2329SOL    HW2 7887   1.181   5.139   3.735
 2330SOL     OW 7888   6.764   3.103   0.500
 2330SOL    HW1 7889   6.707   3.185   0.508
 2330SOL    HW2 7890   6.706   3.023   0.491
 2331SOL     OW 7891   3.543   5.836   0.419
 2331SOL    HW1 7892   3.448   5.858   0.394
 2331SOL    HW2 7893   3.557   5.737   0.407
 2332SOL     OW 7894   5.160   6.907   6.379
 2332SOL    HW1 7895   5.156   6.829   6.442
 2332SOL    HW2 7896   5.216   6.883   6.300
 2333SOL     OW 7897   0.162   5.183   2.837
 2333SOL    HW1 7898   0.143   5.275   2.871
 2333SOL    HW2 7899   0.143   5.179   2.739
 2334SOL     OW 7900   2.802   1.119   5.802
 2334SOL    HW1 7901   2.714   1.134   5.757
 2334SOL    HW2 7902   2.869   1.089   5.734
 2335SOL     OW 7903   6.219   1.927   3.652
 2335SOL    HW1 7904   6.255   1.881   3.733
 2335SOL    HW2 7905   6.256   2.020   3.648
 2336SOL     OW 7906   2.146   1.693   3.133
 2336SOL    HW1 7907   2.140   1.636   3.051
 2336SOL    HW2 7908   2.197   1.776   3.112
 2337SOL     OW 7909   4.041   2.226   1.305
 2337SOL    HW1 7910   4.060   2.321   1.329
 2337SOL    HW2 7911   3.947   2.203   1.330
 2338SOL     OW 7912   0.396   3.625   3.936
 2338SOL    HW1 7913   0.377   3.662   4.027
 2338SOL    HW2 7914   0.425   3.700   3.875
 2339SOL     OW 7915   2.979   3.344   2.569
 2339SOL    HW1 7916   3.003   3.257   2.614
 2339SOL    HW2 7917   2.922   3.325   2.490
 2340SOL     OW 7918   0.741   5.059   6.745
 2340SOL    HW1 7919   0.738   4.960   6.733
 2340SOL    HW2 7920   0.739   5.104   6.656
 2341SOL     OW 7921   2.361   4.376   3.163
 2341SOL    HW1 7922   2.357   4.328   3.075
 2341SOL    HW2 7923   2.333   4.314   3.236
 2342SOL     OW 7924   2.978   6.774   4.238
 2342SOL    HW1 7925   2.968   6.676   4.257
 2342SOL    HW2 7926   2.986   6.788   4.140
 2343SOL     OW 7927   2.024   6.371   2.785
 2343SOL    HW1 7928   1.959   6.299   2.811
 2343SOL    HW2 7929   2.078   6.397   2.864
 2344SOL     OW 7930   6.269   4.738   0.964
 2344SOL    HW1 7931   6.348   4.761   0.906
 2344SOL    HW2 7932   6.280   4.781   1.053
 2345SOL     OW 7933   2.949   5.638   4.485
 2345SOL    HW1 7934   2.869   5.606   4.435
 2345SOL    HW2 7935   3.030   5.587   4.456
 2346SOL     OW 7936   3.984   3.415   6.096
 2346SOL    HW1 7937   4.036   3.444   6.176
 2346SOL    HW2 7938   4.038   3.434   6.013
 2347SOL     OW 7939   1.133   1.919   1.707
 2347SOL    HW1 7940   1.051   1.971   1.682
 2347SOL    HW2 7941   1.189   1.904   1.625
 2348SOL     OW 7942   1.452   6.071   3.148
 2348SOL    HW1 7943   1.419   6.044   3.058
 2348SOL    HW2 7944   1.550   6.048   3.155
 2349SOL     OW 7945   0.886   3.795   6.230
 2349SOL    HW1 7946   0.899   3.866   6.298
 2349SOL    HW2 7947   0.789   3.790   6.204
 2350SOL     OW 7948   6.181   4.257   5.690
 2350SOL    HW1 7949   6.176   4.173   5.636
 2350SOL    HW2 7950   6.152   4.335   5.634
 2351SOL     OW 7951   2.738   4.760   2.820
 2351SOL    HW1 7952   2.689   4.681   2.785
 2351SOL    HW2 7953   2.673   4.832   2.846
 2352SOL     OW 7954   0.134   3.041   3.543
 2352SOL    HW1 7955   0.086   2.971   3.596
 2352SOL    HW2 7956   0.076   3.122   3.535
 2353SOL     OW 7957   4.211   5.291   5.560
 2353SOL    HW1 7958   4.252   5.373   5.519
 2353SOL    HW2 7959   4.279   5.244   5.616
 2354SOL     OW 7960   2.992   2.186   4.515
 2354SOL    HW1 7961   2.896   2.214   4.518
 2354SOL    HW2 7962   3.035   2.203   4.603
 2355SOL     OW 7963   2.370   6.054   4.689
 2355SOL    HW1 7964   2.448   5.995   4.707
 2355SOL    HW2 7965   2.401   6.149   4.686
 2356SOL     OW 7966   0.976   3.003   6.693
 2356SOL    HW1 7967   1.034   2.923   6.714
 2356SOL    HW2 7968   0.881   2.973   6.683
 2357SOL     OW 7969   3.175   1.127   2.379
 2357SOL    HW1 7970   3.269   1.099   2.364
 2357SOL    HW2 7971   3.164   1.224   2.355
 2358SOL     OW 7972   2.867   4.575   6.133
 2358SOL    HW1 7973   2.780   4.579   6.083
 2358SOL    HW2 7974   2.936   4.628   6.084
 2359SOL     OW 7975   1.286   6.983   5.397
 2359SOL    HW1 7976   1.302   0.051   5.443
 2359SOL    HW2 7977   1.367   6.959   5.343
 2360SOL     OW 7978   6.229   3.873   1.084
 2360SOL    HW1 7979   6.307   3.843   1.139
 2360SOL    HW2 7980   6.205   3.803   1.018
 2361SOL     OW 7981   2.863   1.337   6.149
 2361SOL    HW1 7982   2.881   1.422   6.199
 2361SOL    HW2 7983   2.778   1.346   6.098
 2362SOL     OW 7984   3.199   4.970   3.518
 2362SOL    HW1 7985   3.198   5.069   3.515
 2362SOL    HW2 7986   3.191   4.939   3.613
 2363SOL     OW 7987   4.114   1.804   3.225
 2363SOL    HW1 7988   4.032   1.752   3.202
 2363SOL    HW2 7989   4.133   1.871   3.152
 2364SOL     OW 7990   1.236   2.517   1.373
 2364SOL    HW1 7991   1.249   2.428   1.416
 2364SOL    HW2 7992   1.168   2.569   1.424
 2365SOL     OW 7993   5.976   2.386   0.069
 2365SOL    HW1 7994   5.896   2.372   0.128
 2365SOL    HW2 7995   6.039   2.449   0.112
 2366SOL     OW 7996   3.832   5.344   0.719
 2366SOL    HW1 7997   3.805   5.264   0.666
 2366SOL    HW2 7998   3.794   5.338   0.811
 2367SOL     OW 7999   2.132   3.170   0.426
 2367SOL    HW1 8000   2.168   3.152   0.518
 2367SOL    HW2 8001   2.050   3.227   0.433
 2368SOL     OW 8002   5.875   6.943   3.929
 2368SOL    HW1 8003   5.954   7.002   3.945
 2368SOL    HW2 8004   5.795   6.999   3.905
 2369SOL     OW 8005   1.961   6.984   3.665
 2369SOL    HW1 8006   2.055   7.013   3.648
 2369SOL    HW2 8007   1.903   0.045   3.680
 2370SOL     OW 8008   5.893   2.684   6.588
 2370SOL    HW1 8009   5.912   2.612   6.655
 2370SOL    HW2 8010   5.917   2.773   6.628
 2371SOL     OW 8011   2.104   0.205   1.574
 2371SOL    HW1 8012   2.064   0.123   1.616
 2371SOL    HW2 8013   2.089   0.284   1.633
 2372SOL     OW 8014   7.008   2.648   2.203
 2372SOL    HW1 8015   6.920   2.622   2.243
 2372SOL    HW2 8016   0.026   2.571   2.151
 2373SOL     OW 8017   2.008   3.730   5.825
 2373SOL    HW1 8018   1.977   3.709   5.732
 2373SOL    HW2 8019   1.937   3.781   5.873
 2374SOL     OW 8020   6.535   1.850   5.093
 2374SOL    HW1 8021   6.474   1.813   5.023
 2374SOL    HW2 8022   6.561   1.943   5.069
 2375SOL     OW 8023   3.500   5.593   5.535
 2375SOL    HW1 8024   3.493   5.574   5.437
 2375SOL    HW2 8025   3.582   5.648   5.553
 2376SOL     OW 8026   6.260   3.606   3.781
 2376SOL    HW1 8027   6.170   3.605   3.825
 2376SOL    HW2 8028   6.313   3.528   3.814
 2377SOL     OW 8029   3.291   3.697   4.126
 2377SOL    HW1 8030   3.193   3.679   4.115
 2377SOL    HW2 8031   3.305   3.763   4.199
 2378SOL     OW 8032   5.035   1.948   0.097
 2378SOL    HW1 8033   5.061   1.971   0.003
 2378SOL    HW2 8034   4.981   2.023   0.135
 2379SOL     OW 8035   6.444   1.023   0.659
 2379SOL    HW1 8036   6.513   1.085   0.620
 2379SOL    HW2 8037   6.464   1.006   0.755
 2380SOL     OW 8038   6.755   2.686   0.672
 2380SOL    HW1 8039   6.733   2.775   0.712
 2380SOL    HW2 8040   6.680   2.622   0.688
 2381SOL     OW 8041   1.946   5.645   2.890
 2381SOL    HW1 8042   2.032   5.642   2.941
 2381SOL    HW2 8043   1.937   5.561   2.836
 2382SOL     OW 8044   2.045   3.421   4.457
 2382SOL    HW1 8045   2.083   3.493   4.399
 2382SOL    HW2 8046   1.949   3.405   4.433
 2383SOL     OW 8047   6.646   6.661   0.952
 2383SOL    HW1 8048   6.725   6.720   0.936
 2383SOL    HW2 8049   6.648   6.586   0.886
 2384SOL     OW 8050   4.818   2.048   1.942
 2384SOL    HW1 8051   4.885   2.078   2.010
 2384SOL    HW2 8052   4.727   2.045   1.985
 2385SOL     OW 8053   0.011   0.727   6.876
 2385SOL    HW1 8054   6.966   0.795   6.911
 2385SOL    HW2 8055   0.094   0.773   6.844
 2386SOL     OW 8056   4.936   6.073   5.452
 2386SOL    HW1 8057   5.028   6.059   5.486
 2386SOL    HW2 8058   4.876   6.102   5.527
 2387SOL     OW 8059   1.785   1.072   3.955
 2387SOL    HW1 8060   1.689   1.097   3.967
 2387SOL    HW2 8061   1.793   1.010   3.877
 2388SOL     OW 8062   6.668   3.026   3.746
 2388SOL    HW1 8063   6.657   2.968   3.826
 2388SOL    HW2 8064   6.709   2.972   3.672
 2389SOL     OW 8065   4.483   4.473   3.376
 2389SOL    HW1 8066   4.511   4.408   3.447
 2389SOL    HW2 8067   4.564   4.521   3.341
 2390SOL     OW 8068   4.083   3.702   2.696
 2390SOL    HW1 8069   4.024   3.778   2.671
 2390SOL    HW2 8070   4.117   3.714   2.789
 2391SOL     OW 8071   4.740   4.872   6.265
 2391SOL    HW1 8072   4.781   4.834   6.348
 2391SOL    HW2 8073   4.717   4.798   6.202
 2392SOL     OW 8074   2.669   6.967   6.517
 2392SOL    HW1 8075   2.642   6.918   6.600
 2392SOL    HW2 8076   2.635   0.041   6.521
 2393SOL     OW 8077   4.574   4.465   6.239
 2393SOL    HW1 8078   4.654   4.454   6.298
 2393SOL    HW2 8079   4.507   4.525   6.285
 2394SOL     OW 8080   0.045   4.332   5.110
 2394SOL    HW1 8081   0.137   4.304   5.083
 2394SOL    HW2 8082   7.016   4.253   5.148
 2395SOL     OW 8083   4.526   6.383   6.071
 2395SOL    HW1 8084   4.612   6.431   6.054
 2395SOL    HW2 8085   4.532   6.290   6.035
 2396SOL     OW 8086   4.043   5.371   1.192
 2396SOL    HW1 8087   4.097   5.415   1.264
 2396SOL    HW2 8088   4.003   5.287   1.227
 2397SOL     OW 8089   0.587   4.205   4.229
 2397SOL    HW1 8090   0.670   4.251   4.198
 2397SOL    HW2 8091   0.578   4.117   4.182
 2398SOL     OW 8092   5.234   4.778   6.264
 2398SOL    HW1 8093   5.299   4.727   6.207
 2398SOL    HW2 8094   5.254   4.759   6.360
 2399SOL     OW 8095   4.558   1.330   1.369
 2399SOL    HW1 8096   4.578   1.239   1.403
 2399SOL    HW2 8097   4.615   1.397   1.417
 2400SOL     OW 8098   2.711   4.693   0.666
 2400SOL    HW1 8099   2.658   4.614   0.698
 2400SOL    HW2 8100   2.729   4.683   0.568
 2401SOL     OW 8101   6.158   6.096   5.992
 2401SOL    HW1 8102   6.209   6.023   5.948
 2401SOL    HW2 8103   6.111   6.060   6.073
 2402SOL     OW 8104   0.852   6.743   4.099
 2402SOL    HW1 8105   0.824   6.691   4.180
 2402SOL    HW2 8106   0.938   6.707   4.064
 2403SOL     OW 8107   1.125   2.620   5.067
 2403SOL    HW1 8108   1.188   2.663   5.002
 2403SOL    HW2 8109   1.062   2.688   5.103
 2404SOL     OW 8110   2.118   0.588   1.015
 2404SOL    HW1 8111   2.155   0.663   1.069
 2404SOL    HW2 8112   2.177   0.572   0.935
 2405SOL     OW 8113   3.437   4.096   2.659
 2405SOL    HW1 8114   3.480   4.061   2.742
 2405SOL    HW2 8115   3.340   4.070   2.658
 2406SOL     OW 8116   4.160   1.694   0.958
 2406SOL    HW1 8117   4.154   1.594   0.958
 2406SOL    HW2 8118   4.165   1.728   0.864
 2407SOL     OW 8119   5.108   1.503   3.777
 2407SOL    HW1 8120   5.183   1.512   3.841
 2407SOL    HW2 8121   5.120   1.420   3.723
 2408SOL     OW 8122   4.622   4.529   2.034
 2408SOL    HW1 8123   4.708   4.530   1.983
 2408SOL    HW2 8124   4.577   4.440   2.023
 2409SOL     OW 8125   2.164   3.641   1.115
 2409SOL    HW1 8126   2.154   3.736   1.146
 2409SOL    HW2 8127   2.090   3.586   1.153
 2410SOL     OW 8128   3.087   3.269   3.587
 2410SOL    HW1 8129   3.147   3.327   3.642
 2410SOL    HW2 8130   3.138   3.234   3.509
 2411SOL     OW 8131   5.336   6.487   4.876
 2411SOL    HW1 8132   5.298   6.519   4.789
 2411SOL    HW2 8133   5.369   6.393   4.866
 2412SOL     OW 8134   4.953   4.037   1.002
 2412SOL    HW1 8135   4.972   3.975   0.926
 2412SOL    HW2 8136   4.948   3.985   1.087
 2413SOL     OW 8137   5.152   0.350   1.907
 2413SOL    HW1 8138   5.186   0.284   1.840
 2413SOL    HW2 8139   5.225   0.414   1.931
 2414SOL     OW 8140   5.152   3.379   3.967
 2414SOL    HW1 8141   5.098   3.295   3.969
 2414SOL    HW2 8142   5.139   3.429   4.052
 2415SOL     OW 8143   5.474   1.157   2.936
 2415SOL    HW1 8144   5.418   1.233   2.905
 2415SOL    HW2 8145   5.438   1.123   3.023
 2416SOL     OW 8146   5.059   1.689   6.395
 2416SOL    HW1 8147   5.091   1.670   6.302
 2416SOL    HW2 8148   5.106   1.629   6.459
 2417SOL     OW 8149   3.065   3.038   4.979
 2417SOL    HW1 8150   3.162   3.011   4.980
 2417SOL    HW2 8151   3.022   3.006   5.063
 2418SOL     OW 8152   3.361   3.431   3.384
 2418SOL    HW1 8153   3.322   3.346   3.346
 2418SOL    HW2 8154   3.286   3.493   3.408
 2419SOL     OW 8155   0.397   0.032   3.215
 2419SOL    HW1 8156   0.302   0.038   3.183
 2419SOL    HW2 8157   0.459   0.055   3.140
 2420SOL     OW 8158   2.635   0.004   1.689
 2420SOL    HW1 8159   2.670   0.090   1.726
 2420SOL    HW2 8160   2.700   6.950   1.707
 2421SOL     OW 8161   2.097   2.335   4.808
 2421SOL    HW1 8162   2.059   2.268   4.872
 2421SOL    HW2 8163   2.153   2.401   4.858
 2422SOL     OW 8164   5.036   2.098   1.060
 2422SOL    HW1 8165   4.966   2.032   1.033
 2422SOL    HW2 8166   5.004   2.150   1.140
 2423SOL     OW 8167   2.503   5.612   2.367
 2423SOL    HW1 8168   2.502   5.515   2.345
 2423SOL    HW2 8169   2.549   5.663   2.294
 2424SOL     OW 8170   6.029   1.166   0.319
 2424SOL    HW1 8171   6.045   1.074   0.286
 2424SOL    HW2 8172   6.079   1.181   0.405
 2425SOL     OW 8173   6.346   6.782   3.706
 2425SOL    HW1 8174   6.344   6.728   3.790
 2425SOL    HW2 8175   6.256   6.823   3.691
 2426SOL     OW 8176   2.386   4.390   4.227
 2426SOL    HW1 8177   2.456   4.444   4.273
 2426SOL    HW2 8178   2.377   4.421   4.132
 2427SOL     OW 8179   6.285   6.503   5.315
 2427SOL    HW1 8180   6.298   6.586   5.261
 2427SOL    HW2 8181   6.217   6.520   5.386
 2428SOL     OW 8182   0.591   0.741   1.062
 2428SOL    HW1 8183   0.666   0.771   1.004
 2428SOL    HW2 8184   0.526   0.688   1.008
 2429SOL     OW 8185   4.727   5.872   1.914
 2429SOL    HW1 8186   4.628   5.886   1.916
 2429SOL    HW2 8187   4.773   5.957   1.941
 2430SOL     OW 8188   6.127   0.692   2.791
 2430SOL    HW1 8189   6.200   0.754   2.764
 2430SOL    HW2 8190   6.039   0.737   2.779
 2431SOL     OW 8191   4.083   0.858   1.958
 2431SOL    HW1 8192   4.104   0.760   1.956
 2431SOL    HW2 8193   4.074   0.893   1.865
 2432SOL     OW 8194   3.580   6.317   2.210
 2432SOL    HW1 8195   3.638   6.387   2.251
 2432SOL    HW2 8196   3.613   6.296   2.118
 2433SOL     OW 8197   4.058   0.339   6.840
 2433SOL    HW1 8198   4.072   0.240   6.838
 2433SOL    HW2 8199   4.144   0.386   6.818
 2434SOL     OW 8200   3.782   1.832   6.074
 2434SOL    HW1 8201   3.706   1.879   6.118
 2434SOL    HW2 8202   3.788   1.738   6.109
 2435SOL     OW 8203   5.873   5.518   5.037
 2435SOL    HW1 8204   5.877   5.596   4.975
 2435SOL    HW2 8205   5.780   5.507   5.072
 2436SOL     OW 8206   3.147   5.534   0.439
 2436SOL    HW1 8207   3.214   5.545   0.513
 2436SOL    HW2 8208   3.056   5.559   0.472
 2437SOL     OW 8209   6.656   6.439   6.046
 2437SOL    HW1 8210   6.724   6.473   6.111
 2437SOL    HW2 8211   6.612   6.516   6.000
 2438SOL     OW 8212   2.579   2.431   0.690
 2438SOL    HW1 8213   2.482   2.411   0.678
 2438SOL    HW2 8214   2.628   2.346   0.709
 2439SOL     OW 8215   6.045   4.341   5.293
 2439SOL    HW1 8216   6.050   4.242   5.303
 2439SOL    HW2 8217   6.095   4.369   5.211
 2440SOL     OW 8218   5.805   4.804   6.469
 2440SOL    HW1 8219   5.869   4.757   6.407
 2440SOL    HW2 8220   5.722   4.829   6.419
 2441SOL     OW 8221   5.885   2.500   1.081
 2441SOL    HW1 8222   5.948   2.557   1.028
 2441SOL    HW2 8223   5.936   2.429   1.129
 2442SOL     OW 8224   6.882   4.008   4.737
 2442SOL    HW1 8225   6.827   4.082   4.776
 2442SOL    HW2 8226   6.841   3.920   4.761
 2443SOL     OW 8227   2.848   4.735   5.806
 2443SOL    HW1 8228   2.874   4.793   5.728
 2443SOL    HW2 8229   2.923   4.672   5.826
 2444SOL     OW 8230   2.645   3.739   5.750
 2444SOL    HW1 8231   2.636   3.802   5.827
 2444SOL    HW2 8232   2.735   3.750   5.708
 2445SOL     OW 8233   0.799   0.819   0.905
 2445SOL    HW1 8234   0.758   0.745   0.851
 2445SOL    HW2 8235   0.895   0.830   0.879
 2446SOL     OW 8236   6.424   4.031   6.063
 2446SOL    HW1 8237   6.438   3.950   6.007
 2446SOL    HW2 8238   6.498   4.096   6.047
 2447SOL     OW 8239   0.438   1.954   6.657
 2447SOL    HW1 8240   0.469   1.999   6.573
 2447SOL    HW2 8241   0.432   1.856   6.640
 2448SOL     OW 8242   1.069   0.186   4.273
 2448SOL    HW1 8243   1.131   0.109   4.263
 2448SOL    HW2 8244   1.030   0.209   4.184
 2449SOL     OW 8245   0.152   2.916   5.717
 2449SOL    HW1 8246   0.148   2.821   5.688
 2449SOL    HW2 8247   0.236   2.931   5.769
 2450SOL     OW 8248   2.036   3.163   2.976
 2450SOL    HW1 8249   1.962   3.183   2.911
 2450SOL    HW2 8250   2.024   3.217   3.059
 2451SOL     OW 8251   2.618   6.354   3.953
 2451SOL    HW1 8252   2.560   6.296   3.896
 2451SOL    HW2 8253   2.573   6.441   3.970
 2452SOL     OW 8254   1.252   2.209   4.241
 2452SOL    HW1 8255   1.318   2.283   4.253
 2452SOL    HW2 8256   1.299   2.127   4.207
 2453SOL     OW 8257   0.340   3.776   1.415
 2453SOL    HW1 8258   0.379   3.864   1.444
 2453SOL    HW2 8259   0.305   3.727   1.494
 2454SOL     OW 8260   2.345   0.850   2.286
 2454SOL    HW1 8261   2.343   0.818   2.192
 2454SOL    HW2 8262   2.355   0.950   2.287
 2455SOL     OW 8263   5.549   5.208   0.575
 2455SOL    HW1 8264   5.468   5.151   0.587
 2455SOL    HW2 8265   5.611   5.166   0.509
 2456SOL     OW 8266   3.684   6.387   1.244
 2456SOL    HW1 8267   3.612   6.451   1.218
 2456SOL    HW2 8268   3.772   6.421   1.210
 2457SOL     OW 8269   5.886   6.467   1.429
 2457SOL    HW1 8270   5.823   6.390   1.442
 2457SOL    HW2 8271   5.925   6.462   1.337
 2458SOL     OW 8272   0.485   5.757   3.553
 2458SOL    HW1 8273   0.575   5.792   3.576
 2458SOL    HW2 8274   0.440   5.723   3.636
 2459SOL     OW 8275   1.665   0.683   0.863
 2459SOL    HW1 8276   1.669   0.639   0.953
 2459SOL    HW2 8277   1.657   0.614   0.792
 2460SOL     OW 8278   3.391   5.252   1.329
 2460SOL    HW1 8279   3.330   5.291   1.260
 2460SOL    HW2 8280   3.344   5.249   1.418
 2461SOL     OW 8281   5.603   1.441   3.283
 2461SOL    HW1 8282   5.515   1.438   3.235
 2461SOL    HW2 8283   5.608   1.366   3.348
 2462SOL     OW 8284   2.265   4.289   6.387
 2462SOL    HW1 8285   2.295   4.211   6.332
 2462SOL    HW2 8286   2.267   4.263   6.484
 2463SOL     OW 8287   7.016   1.467   4.115
 2463SOL    HW1 8288   0.005   1.434   4.021
 2463SOL    HW2 8289   0.072   1.529   4.135
 2464SOL     OW 8290   1.011   3.365   1.235
 2464SOL    HW1 8291   0.967   3.281   1.267
 2464SOL    HW2 8292   1.107   3.366   1.263
 2465SOL     OW 8293   6.103   5.427   3.310
 2465SOL    HW1 8294   6.160   5.354   3.350
 2465SOL    HW2 8295   6.156   5.477   3.242
 2466SOL     OW 8296   3.549   1.353   2.113
 2466SOL    HW1 8297   3.517   1.421   2.048
 2466SOL    HW2 8298   3.563   1.396   2.203
 2467SOL     OW 8299   6.584   1.244   5.414
 2467SOL    HW1 8300   6.612   1.155   5.379
 2467SOL    HW2 8301   6.567   1.237   5.513
 2468SOL     OW 8302   6.970   3.895   0.465
 2468SOL    HW1 8303   6.904   3.891   0.390
 2468SOL    HW2 8304   7.018   3.982   0.463
 2469SOL     OW 8305   2.680   3.379   5.697
 2469SOL    HW1 8306   2.634   3.298   5.734
 2469SOL    HW2 8307   2.639   3.461   5.737
 2470SOL     OW 8308   5.530   3.140   0.298
 2470SOL    HW1 8309   5.544   3.234   0.266
 2470SOL    HW2 8310   5.538   3.077   0.220
 2471SOL     OW 8311   0.422   0.401   3.647
 2471SOL    HW1 8312   0.388   0.324   3.594
 2471SOL    HW2 8313   0.490   0.369   3.713
 2472SOL     OW 8314   5.343   1.648   3.517
 2472SOL    HW1 8315   5.347   1.670   3.615
 2472SOL    HW2 8316   5.334   1.549   3.505
 2473SOL     OW 8317   0.374   6.835   5.374
 2473SOL    HW1 8318   0.471   6.846   5.350
 2473SOL    HW2 8319   0.364   6.758   5.436
 2474SOL     OW 8320   5.422   5.564   4.653
 2474SOL    HW1 8321   5.489   5.545   4.724
 2474SOL    HW2 8322   5.358   5.487   4.646
 2475SOL     OW 8323   4.437   2.220   6.496
 2475SOL    HW1 8324   4.473   2.141   6.446
 2475SOL    HW2 8325   4.410   2.191   6.588
 2476SOL     OW 8326   0.347   1.906   3.506
 2476SOL    HW1 8327   0.277   1.844   3.543
 2476SOL    HW2 8328   0.433   1.857   3.498
 2477SOL     OW 8329   4.412   5.025   2.141
 2477SOL    HW1 8330   4.335   5.068   2.094
 2477SOL    HW2 8331   4.453   4.956   2.081
 2478SOL     OW 8332   6.366   6.808   3.080
 2478SOL    HW1 8333   6.309   6.823   2.999
 2478SOL    HW2 8334   6.461   6.793   3.052
 2479SOL     OW 8335   0.969   3.193   0.259
 2479SOL    HW1 8336   0.898   3.211   0.328
 2479SOL    HW2 8337   1.023   3.276   0.245
 2480SOL     OW 8338   1.014   4.384   1.981
 2480SOL    HW1 8339   1.075   4.427   1.915
 2480SOL    HW2 8340   1.062   4.309   2.027
 2481SOL     OW 8341   4.011   5.408   2.754
 2481SOL    HW1 8342   3.913   5.426   2.750
 2481SOL    HW2 8343   4.059   5.492   2.782
 2482SOL     OW 8344   4.991   2.321   4.122
 2482SOL    HW1 8345   4.896   2.344   4.140
 2482SOL    HW2 8346   4.998   2.270   4.036
 2483SOL     OW 8347   0.810   2.381   6.858
 2483SOL    HW1 8348   0.731   2.425   6.900
 2483SOL    HW2 8349   0.838   2.302   6.912
 2484SOL     OW 8350   3.324   2.590   6.222
 2484SOL    HW1 8351   3.247   2.543   6.178
 2484SOL    HW2 8352   3.341   2.677   6.174
 2485SOL     OW 8353   1.312   6.147   1.236
 2485SOL    HW1 8354   1.288   6.222   1.176
 2485SOL    HW2 8355   1.330   6.065   1.182
 2486SOL     OW 8356   0.676   5.130   3.047
 2486SOL    HW1 8357   0.579   5.135   3.022
 2486SOL    HW2 8358   0.686   5.138   3.146
 2487SOL     OW 8359   3.214   0.898   1.204
 2487SOL    HW1 8360   3.171   0.888   1.115
 2487SOL    HW2 8361   3.193   0.819   1.261
 2488SOL     OW 8362   3.325   6.194   6.221
 2488SOL    HW1 8363   3.371   6.111   6.191
 2488SOL    HW2 8364   3.313   6.192   6.320
 2489SOL     OW 8365   6.635   5.824   4.430
 2489SOL    HW1 8366   6.643   5.889   4.354
 2489SOL    HW2 8367   6.610   5.734   4.394
 2490SOL     OW 8368   5.603   3.516   1.446
 2490SOL    HW1 8369   5.613   3.549   1.352
 2490SOL    HW2 8370   5.508   3.525   1.476
 2491SOL     OW 8371   0.403   4.567   2.841
 2491SOL    HW1 8372   0.403   4.572   2.940
 2491SOL    HW2 8373   0.364   4.479   2.812
 2492SOL     OW 8374   4.421   2.358   5.666
 2492SOL    HW1 8375   4.402   2.297   5.744
 2492SOL    HW2 8376   4.360   2.334   5.590
 2493SOL     OW 8377   6.793   1.542   3.947
 2493SOL    HW1 8378   6.830   1.618   3.894
 2493SOL    HW2 8379   6.841   1.457   3.922
 2494SOL     OW 8380   4.180   4.740   1.374
 2494SOL    HW1 8381   4.263   4.694   1.342
 2494SOL    HW2 8382   4.129   4.775   1.295
 2495SOL     OW 8383   6.639   0.895   3.857
 2495SOL    HW1 8384   6.685   0.879   3.944
 2495SOL    HW2 8385   6.658   0.987   3.825
 2496SOL     OW 8386   1.537   5.576   6.556
 2496SOL    HW1 8387   1.443   5.545   6.542
 2496SOL    HW2 8388   1.536   5.662   6.607
 2497SOL     OW 8389   5.436   1.452   0.069
 2497SOL    HW1 8390   5.429   1.375   0.007
 2497SOL    HW2 8391   5.520   1.443   0.124
 2498SOL     OW 8392   1.020   3.263   4.607
 2498SOL    HW1 8393   1.025   3.297   4.514
 2498SOL    HW2 8394   1.092   3.304   4.662
 2499SOL     OW 8395   5.506   0.206   6.643
 2499SOL    HW1 8396   5.442   0.206   6.720
 2499SOL    HW2 8397   5.536   0.300   6.625
 2500SOL     OW 8398   4.388   3.679   6.374
 2500SOL    HW1 8399   4.414   3.611   6.304
 2500SOL    HW2 8400   4.362   3.631   6.458
 2501SOL     OW 8401   6.217   4.894   1.313
 2501SOL    HW1 8402   6.287   4.909   1.243
 2501SOL    HW2 8403   6.141   4.957   1.298
 2502SOL     OW 8404   1.582   6.491   2.768
 2502SOL    HW1 8405   1.507   6.556   2.757
 2502SOL    HW2 8406   1.658   6.534   2.817
 2503SOL     OW 8407   4.738   6.864   4.740
 2503SOL    HW1 8408   4.668   6.864   4.669
 2503SOL    HW2 8409   4.809   6.798   4.718
 2504SOL     OW 8410   2.009   4.154   3.419
 2504SOL    HW1 8411   2.033   4.147   3.516
 2504SOL    HW2 8412   1.946   4.080   3.395
 2505SOL     OW 8413   4.752   4.584   4.271
 2505SOL    HW1 8414   4.746   4.583   4.371
 2505SOL    HW2 8415   4.665   4.555   4.232
 2506SOL     OW 8416   0.284   1.779   0.906
 2506SOL    HW1 8417   0.233   1.734   0.979
 2506SOL    HW2 8418   0.222   1.832   0.848
 2507SOL     OW 8419   6.420   6.254   0.880
 2507SOL    HW1 8420   6.426   6.162   0.918
 2507SOL    HW2 8421   6.432   6.322   0.953
 2508SOL     OW 8422   2.404   2.607   1.865
 2508SOL    HW1 8423   2.503   2.603   1.853
 2508SOL    HW2 8424   2.360   2.626   1.777
 2509SOL     OW 8425   5.161   1.821   3.398
 2509SOL    HW1 8426   5.079   1.795   3.450
 2509SOL    HW2 8427   5.231   1.751   3.409
 2510SOL     OW 8428   4.047   5.881   1.370
 2510SOL    HW1 8429   3.952   5.906   1.388
 2510SOL    HW2 8430   4.050   5.787   1.338
 2511SOL     OW 8431   0.747   6.359   3.938
 2511SOL    HW1 8432   0.807   6.322   4.009
 2511SOL    HW2 8433   0.801   6.412   3.873
 2512SOL     OW 8434   5.139   2.907   4.088
 2512SOL    HW1 8435   5.156   2.864   3.999
 2512SOL    HW2 8436   5.108   2.839   4.153
 2513SOL     OW 8437   0.365   4.990   1.496
 2513SOL    HW1 8438   0.464   5.003   1.495
 2513SOL    HW2 8439   0.338   4.936   1.416
 2514SOL     OW 8440   0.405   1.615   4.293
 2514SOL    HW1 8441   0.423   1.710   4.317
 2514SOL    HW2 8442   0.401   1.559   4.375
 2515SOL     OW 8443   1.127   4.896   0.362
 2515SOL    HW1 8444   1.036   4.897   0.405
 2515SOL    HW2 8445   1.117   4.915   0.264
 2516SOL     OW 8446   4.757   6.140   4.676
 2516SOL    HW1 8447   4.787   6.139   4.581
 2516SOL    HW2 8448   4.674   6.195   4.685
 2517SOL     OW 8449   2.327   5.730   0.738
 2517SOL    HW1 8450   2.326   5.639   0.780
 2517SOL    HW2 8451   2.420   5.751   0.708
 2518SOL     OW 8452   2.322   2.646   6.477
 2518SOL    HW1 8453   2.332   2.638   6.378
 2518SOL    HW2 8454   2.234   2.609   6.505
 2519SOL     OW 8455   5.175   4.087   5.069
 2519SOL    HW1 8456   5.174   3.993   5.035
 2519SOL    HW2 8457   5.243   4.140   5.018
 2520SOL     OW 8458   2.840   5.258   1.869
 2520SOL    HW1 8459   2.891   5.327   1.920
 2520SOL    HW2 8460   2.875   5.167   1.890
 2521SOL     OW 8461   5.922   6.911   6.212
 2521SOL    HW1 8462   5.877   6.826   6.240
 2521SOL    HW2 8463   6.021   6.901   6.223
 2522SOL     OW 8464   1.676   3.943   4.403
 2522SOL    HW1 8465   1.593   3.998   4.400
 2522SOL    HW2 8466   1.750   3.997   4.444
 2523SOL     OW 8467   0.025   2.877   5.945
 2523SOL    HW1 8468   0.045   2.915   5.855
 2523SOL    HW2 8469   0.074   2.929   6.015
 2524SOL     OW 8470   1.258   0.028   5.051
 2524SOL    HW1 8471   1.173   0.050   5.098
 2524SOL    HW2 8472   1.238   0.004   4.956
 2525SOL     OW 8473   1.421   4.289   3.333
 2525SOL    HW1 8474   1.506   4.242   3.357
 2525SOL    HW2 8475   1.399   4.356   3.403
 2526SOL     OW 8476   0.366   2.350   5.428
 2526SOL    HW1 8477   0.346   2.280   5.359
 2526SOL    HW2 8478   0.464   2.349   5.448
 2527SOL     OW 8479   6.074   6.881   3.709
 2527SOL    HW1 8480   5.989   6.828   3.707
 2527SOL    HW2 8481   6.100   6.900   3.803
 2528SOL     OW 8482   5.908   5.214   0.646
 2528SOL    HW1 8483   5.934   5.308   0.672
 2528SOL    HW2 8484   5.965   5.149   0.697
 2529SOL     OW 8485   5.298   3.849   4.749
 2529SOL    HW1 8486   5.272   3.916   4.678
 2529SOL    HW2 8487   5.338   3.768   4.705
 2530SOL     OW 8488   1.068   6.688   3.565
 2530SOL    HW1 8489   0.995   6.756   3.575
 2530SOL    HW2 8490   1.152   6.724   3.606
 2531SOL     OW 8491   5.104   1.271   0.507
 2531SOL    HW1 8492   5.063   1.242   0.421
 2531SOL    HW2 8493   5.102   1.196   0.572
 2532SOL     OW 8494   1.025   4.302   5.902
 2532SOL    HW1 8495   0.932   4.291   5.868
 2532SOL    HW2 8496   1.089   4.263   5.836
 2533SOL     OW 8497   5.882   6.481   5.311
 2533SOL    HW1 8498   5.787   6.509   5.326
 2533SOL    HW2 8499   5.942   6.528   5.376
 2534SOL     OW 8500   6.949   1.965   3.168
 2534SOL    HW1 8501   6.891   2.001   3.242
 2534SOL    HW2 8502   6.920   2.004   3.081
 2535SOL     OW 8503   1.602   1.405   3.027
 2535SOL    HW1 8504   1.688   1.434   3.068
 2535SOL    HW2 8505   1.617   1.377   2.933
 2536SOL     OW 8506   0.227   0.687   4.017
 2536SOL    HW1 8507   0.187   0.758   4.075
 2536SOL    HW2 8508   0.209   0.597   4.056
 2537SOL     OW 8509   4.140   5.388   1.773
 2537SOL    HW1 8510   4.043   5.405   1.784
 2537SOL    HW2 8511   4.191   5.472   1.790
 2538SOL     OW 8512   1.357   4.536   4.750
 2538SOL    HW1 8513   1.258   4.548   4.760
 2538SOL    HW2 8514   1.404   4.614   4.791
 2539SOL     OW 8515   2.415   0.634   5.575
 2539SOL    HW1 8516   2.464   0.706   5.623
 2539SOL    HW2 8517   2.430   0.644   5.476
 2540SOL     OW 8518   5.751   1.971   2.474
 2540SOL    HW1 8519   5.688   2.039   2.511
 2540SOL    HW2 8520   5.778   1.907   2.546
 2541SOL     OW 8521   0.383   0.002   6.089
 2541SOL    HW1 8522   0.329   0.035   6.011
 2541SOL    HW2 8523   0.448   6.952   6.057
 2542SOL     OW 8524   4.126   1.819   3.551
 2542SOL    HW1 8525   4.136   1.722   3.530
 2542SOL    HW2 8526   4.030   1.846   3.544
 2543SOL     OW 8527   0.200   2.055   4.203
 2543SOL    HW1 8528   0.283   2.076   4.151
 2543SOL    HW2 8529   0.137   2.133   4.197
 2544SOL     OW 8530   6.795   5.960   1.905
 2544SOL    HW1 8531   6.882   6.008   1.897
 2544SOL    HW2 8532   6.745   5.966   1.819
 2545SOL     OW 8533   6.370   1.748   0.245
 2545SOL    HW1 8534   6.344   1.839   0.278
 2545SOL    HW2 8535   6.328   1.679   0.304
 2546SOL     OW 8536   6.675   3.687   2.246
 2546SOL    HW1 8537   6.653   3.772   2.199
 2546SOL    HW2 8538   6.596   3.655   2.297
 2547SOL     OW 8539   5.375   4.326   1.267
 2547SOL    HW1 8540   5.465   4.303   1.228
 2547SOL    HW2 8541   5.349   4.255   1.333
 2548SOL     OW 8542   6.175   0.218   5.757
 2548SOL    HW1 8543   6.264   0.196   5.798
 2548SOL    HW2 8544   6.148   0.143   5.696
 2549SOL     OW 8545   2.146   3.566   0.466
 2549SOL    HW1 8546   2.119   3.541   0.373
 2549SOL    HW2 8547   2.173   3.662   0.468
 2550SOL     OW 8548   4.102   6.010   0.262
 2550SOL    HW1 8549   4.067   5.916   0.252
 2550SOL    HW2 8550   4.033   6.075   0.230
 2551SOL     OW 8551   3.703   5.034   0.871
 2551SOL    HW1 8552   3.687   4.958   0.935
 2551SOL    HW2 8553   3.669   5.119   0.910
 2552SOL     OW 8554   2.134   4.769   1.883
 2552SOL    HW1 8555   2.216   4.814   1.918
 2552SOL    HW2 8556   2.143   4.755   1.785
 2553SOL     OW 8557   4.622   1.204   0.210
 2553SOL    HW1 8558   4.623   1.152   0.124
 2553SOL    HW2 8559   4.620   1.302   0.189
 2554SOL     OW 8560   1.103   5.569   1.053
 2554SOL    HW1 8561   1.117   5.655   1.102
 2554SOL    HW2 8562   1.122   5.492   1.114
 2555SOL     OW 8563   6.169   6.643   4.952
 2555SOL    HW1 8564   6.071   6.653   4.968
 2555SOL    HW2 8565   6.184   6.577   4.879
 2556SOL     OW 8566   3.471   6.742   0.639
 2556SOL    HW1 8567   3.448   6.679   0.565
 2556SOL    HW2 8568   3.552   6.795   0.614
 2557SOL     OW 8569   3.085   0.460   7.008
 2557SOL    HW1 8570   3.056   0.543   6.961
 2557SOL    HW2 8571   3.081   0.383   6.945
 2558SOL     OW 8572   4.795   2.318   1.588
 2558SOL    HW1 8573   4.817   2.414   1.574
 2558SOL    HW2 8574   4.705   2.310   1.633
 2559SOL     OW 8575   0.041   5.249   3.713
 2559SOL    HW1 8576   0.108   5.280   3.645
 2559SOL    HW2 8577   7.002   5.179   3.672
 2560SOL     OW 8578   5.218   2.309   2.802
 2560SOL    HW1 8579   5.150   2.351   2.862
 2560SOL    HW2 8580   5.193   2.323   2.707
 2561SOL     OW 8581   4.025   0.055   4.210
 2561SOL    HW1 8582   3.953   7.005   4.204
 2561SOL    HW2 8583   3.983   0.145   4.219
 2562SOL     OW 8584   2.003   6.871   4.904
 2562SOL    HW1 8585   1.919   6.913   4.871
 2562SOL    HW2 8586   2.080   6.934   4.889
 2563SOL     OW 8587   3.591   2.451   6.517
 2563SOL    HW1 8588   3.650   2.376   6.547
 2563SOL    HW2 8589   3.516   2.462   6.582
 2564SOL     OW 8590   1.213   1.553   0.124
 2564SOL    HW1 8591   1.279   1.609   0.174
 2564SOL    HW2 8592   1.148   1.613   0.077
 2565SOL     OW 8593   0.987   0.798   0.413
 2565SOL    HW1 8594   0.949   0.730   0.476
 2565SOL    HW2 8595   0.934   0.883   0.419
 2566SOL     OW 8596   2.596   0.906   1.200
 2566SOL    HW1 8597   2.683   0.954   1.187
 2566SOL    HW2 8598   2.554   0.936   1.286
 2567SOL     OW 8599   1.582   0.595   6.476
 2567SOL    HW1 8600   1.651   0.581   6.548
 2567SOL    HW2 8601   1.623   0.575   6.387
 2568SOL     OW 8602   1.886   6.013   0.706
 2568SOL    HW1 8603   1.843   5.980   0.791
 2568SOL    HW2 8604   1.947   6.089   0.727
 2569SOL     OW 8605   1.656   0.055   0.849
 2569SOL    HW1 8606   1.706   7.012   0.909
 2569SOL    HW2 8607   1.693   0.147   0.859
 2570SOL     OW 8608   0.476   6.015   4.576
 2570SOL    HW1 8609   0.391   5.975   4.611
 2570SOL    HW2 8610   0.527   6.056   4.652
 2571SOL     OW 8611   3.246   4.144   3.795
 2571SOL    HW1 8612   3.282   4.160   3.887
 2571SOL    HW2 8613   3.168   4.082   3.800
 2572SOL     OW 8614   1.727   5.025   2.156
 2572SOL    HW1 8615   1.716   5.125   2.162
 2572SOL    HW2 8616   1.799   4.996   2.219
 2573SOL     OW 8617   0.291   1.905   3.873
 2573SOL    HW1 8618   0.234   1.942   3.946
 2573SOL    HW2 8619   0.233   1.884   3.793
 2574SOL     OW 8620   0.701   3.645   2.400
 2574SOL    HW1 8621   0.690   3.676   2.495
 2574SOL    HW2 8622   0.639   3.568   2.383
 2575SOL     OW 8623   5.434   3.204   6.060
 2575SOL    HW1 8624   5.384   3.150   5.992
 2575SOL    HW2 8625   5.405   3.299   6.055
 2576SOL     OW 8626   1.953   0.140   3.121
 2576SOL    HW1 8627   2.040   0.165   3.165
 2576SOL    HW2 8628   1.879   0.146   3.189
 2577SOL     OW 8629   1.860   5.393   1.380
 2577SOL    HW1 8630   1.802   5.359   1.306
 2577SOL    HW2 8631   1.813   5.468   1.427
 2578SOL     OW 8632   4.510   2.477   4.418
 2578SOL    HW1 8633   4.575   2.550   4.396
 2578SOL    HW2 8634   4.492   2.478   4.516
 2579SOL     OW 8635   7.001   1.515   6.418
 2579SOL    HW1 8636   0.033   1.588   6.461
 2579SOL    HW2 8637   6.914   1.550   6.385
 2580SOL     OW 8638   1.576   1.528   5.948
 2580SOL    HW1 8639   1.617   1.451   5.998
 2580SOL    HW2 8640   1.638   1.606   5.952
 2581SOL     OW 8641   6.430   0.174   4.744
 2581SOL    HW1 8642   6.384   0.097   4.789
 2581SOL    HW2 8643   6.391   0.188   4.653
 2582SOL     OW 8644   0.231   5.716   2.806
 2582SOL    HW1 8645   0.228   5.618   2.825
 2582SOL    HW2 8646   0.325   5.749   2.810
 2583SOL     OW 8647   1.879   1.179   6.459
 2583SOL    HW1 8648   1.870   1.085   6.491
 2583SOL    HW2 8649   1.944   1.228   6.518
 2584SOL     OW 8650   5.332   0.038   2.784
 2584SOL    HW1 8651   5.296   0.130   2.800
 2584SOL    HW2 8652   5.414   0.044   2.728
 2585SOL     OW 8653   4.328   1.019   1.844
 2585SOL    HW1 8654   4.251   1.048   1.901
 2585SOL    HW2 8655   4.406   1.079   1.861
 2586SOL     OW 8656   6.589   1.272   4.311
 2586SOL    HW1 8657   6.612   1.312   4.399
 2586SOL    HW2 8658   6.646   1.314   4.240
 2587SOL     OW 8659   6.630   6.318   2.739
 2587SOL    HW1 8660   6.546   6.354   2.695
 2587SOL    HW2 8661   6.606   6.274   2.825
 2588SOL     OW 8662   4.971   0.019   1.876
 2588SOL    HW1 8663   4.887   6.997   1.910
 2588SOL    HW2 8664   4.995   0.098   1.933
 2589SOL     OW 8665   5.607   6.092   0.454
 2589SOL    HW1 8666   5.692   6.103   0.403
 2589SOL    HW2 8667   5.628   6.061   0.547
 2590SOL     OW 8668   3.630   6.467   2.940
 2590SOL    HW1 8669   3.604   6.562   2.924
 2590SOL    HW2 8670   3.720   6.465   2.984
 2591SOL     OW 8671   5.682   0.504   1.779
 2591SOL    HW1 8672   5.615   0.574   1.802
 2591SOL    HW2 8673   5.696   0.502   1.680
 2592SOL     OW 8674   3.251   4.746   1.619
 2592SOL    HW1 8675   3.341   4.773   1.655
 2592SOL    HW2 8676   3.247   4.771   1.522
 2593SOL     OW 8677   3.543   6.946   2.688
 2593SOL    HW1 8678   3.512   0.007   2.739
 2593SOL    HW2 8679   3.532   6.962   2.590
 2594SOL     OW 8680   1.313   6.703   6.535
 2594SOL    HW1 8681   1.326   6.705   6.634
 2594SOL    HW2 8682   1.306   6.608   6.504
 2595SOL     OW 8683   6.276   3.129   4.194
 2595SOL    HW1 8684   6.244   3.042   4.230
 2595SOL    HW2 8685   6.314   3.116   4.102
 2596SOL     OW 8686   4.154   2.435   1.459
 2596SOL    HW1 8687   4.155   2.369   1.534
 2596SOL    HW2 8688   4.241   2.484   1.457
 2597SOL     OW 8689   1.994   2.247   6.406
 2597SOL    HW1 8690   1.983   2.270   6.309
 2597SOL    HW2 8691   1.950   2.159   6.424
 2598SOL     OW 8692   5.824   2.103   2.862
 2598SOL    HW1 8693   5.774   2.147   2.788
 2598SOL    HW2 8694   5.845   2.170   2.933
 2599SOL     OW 8695   4.336   4.429   6.734
 2599SOL    HW1 8696   4.297   4.505   6.681
 2599SOL    HW2 8697   4.336   4.346   6.678
 2600SOL     OW 8698   6.861   3.239   3.781
 2600SOL    HW1 8699   6.775   3.190   3.791
 2600SOL    HW2 8700   6.905   3.247   3.871
 2601SOL     OW 8701   3.868   3.393   5.300
 2601SOL    HW1 8702   3.793   3.349   5.350
 2601SOL    HW2 8703   3.938   3.325   5.280
 2602SOL     OW 8704   6.104   5.661   5.419
 2602SOL    HW1 8705   6.100   5.576   5.365
 2602SOL    HW2 8706   6.197   5.697   5.417
 2603SOL     OW 8707   2.349   2.602   6.905
 2603SOL    HW1 8708   2.250   2.598   6.916
 2603SOL    HW2 8709   2.374   2.561   6.817
 2604SOL     OW 8710   5.592   1.693   1.899
 2604SOL    HW1 8711   5.525   1.718   1.829
 2604SOL    HW2 8712   5.675   1.658   1.856
 2605SOL     OW 8713   4.961   3.832   3.753
 2605SOL    HW1 8714   4.920   3.768   3.688
 2605SOL    HW2 8715   4.975   3.785   3.841
 2606SOL     OW 8716   6.994   4.503   0.975
 2606SOL    HW1 8717   6.971   4.445   1.053
 2606SOL    HW2 8718   7.015   4.596   1.007
 2607SOL     OW 8719   0.912   1.893   4.777
 2607SOL    HW1 8720   0.895   1.992   4.781
 2607SOL    HW2 8721   0.948   1.870   4.686
 2608SOL     OW 8722   5.252   6.592   0.724
 2608SOL    HW1 8723   5.275   6.535   0.803
 2608SOL    HW2 8724   5.175   6.551   0.675
 2609SOL     OW 8725   0.439   2.542   4.249
 2609SOL    HW1 8726   0.478   2.582   4.332
 2609SOL    HW2 8727   0.426   2.613   4.180
 2610SOL     OW 8728   4.973   5.554   5.169
 2610SOL    HW1 8729   4.978   5.631   5.105
 2610SOL    HW2 8730   5.055   5.498   5.161
 2611SOL     OW 8731   2.819   6.085   1.870
 2611SOL    HW1 8732   2.804   6.167   1.926
 2611SOL    HW2 8733   2.917   6.076   1.851
 2612SOL     OW 8734   6.566   6.868   5.029
 2612SOL    HW1 8735   6.522   6.957   5.038
 2612SOL    HW2 8736   6.549   6.832   4.936
 2613SOL     OW 8737   3.755   0.886   1.304
 2613SOL    HW1 8738   3.657   0.867   1.298
 2613SOL    HW2 8739   3.794   0.835   1.381
 2614SOL     OW 8740   6.787   6.463   6.533
 2614SOL    HW1 8741   6.792   6.434   6.437
 2614SOL    HW2 8742   6.723   6.540   6.541
 2615SOL     OW 8743   5.474   5.163   2.137
 2615SOL    HW1 8744   5.564   5.193   2.104
 2615SOL    HW2 8745   5.486   5.097   2.211
 2616SOL     OW 8746   4.167   3.338   2.406
 2616SOL    HW1 8747   4.130   3.261   2.459
 2616SOL    HW2 8748   4.244   3.306   2.350
 2617SOL     OW 8749   3.591   0.647   1.080
 2617SOL    HW1 8750   3.616   0.678   0.988
 2617SOL    HW2 8751   3.542   0.721   1.127
 2618SOL     OW 8752   0.793   0.681   0.203
 2618SOL    HW1 8753   0.888   0.711   0.207
 2618SOL    HW2 8754   0.755   0.677   0.296
 2619SOL     OW 8755   5.475   1.098   1.249
 2619SOL    HW1 8756   5.551   1.073   1.189
 2619SOL    HW2 8757   5.472   1.197   1.260
 2620SOL     OW 8758   1.408   4.815   4.361
 2620SOL    HW1 8759   1.451   4.801   4.450
 2620SOL    HW2 8760   1.473   4.792   4.288
 2621SOL     OW 8761   1.169   4.842   3.705
 2621SOL    HW1 8762   1.254   4.832   3.757
 2621SOL    HW2 8763   1.164   4.934   3.667
 2622SOL     OW 8764   2.594   3.187   6.212
 2622SOL    HW1 8765   2.563   3.227   6.126
 2622SOL    HW2 8766   2.541   3.104   6.232
 2623SOL     OW 8767   3.376   1.084   6.393
 2623SOL    HW1 8768   3.344   1.021   6.464
 2623SOL    HW2 8769   3.417   1.033   6.318
 2624SOL     OW 8770   6.816   2.090   4.048
 2624SOL    HW1 8771   6.908   2.128   4.060
 2624SOL    HW2 8772   6.774   2.129   3.966
 2625SOL     OW 8773   4.664   0.679   5.765
 2625SOL    HW1 8774   4.573   0.666   5.804
 2625SOL    HW2 8775   4.732   0.683   5.838
 2626SOL     OW 8776   2.354   0.357   1.978
 2626SOL    HW1 8777   2.363   0.258   1.988
 2626SOL    HW2 8778   2.361   0.381   1.881
 2627SOL     OW 8779   0.035   1.064   4.593
 2627SOL    HW1 8780   0.097   1.092   4.667
 2627SOL    HW2 8781   6.961   1.088   4.617
 2628SOL     OW 8782   3.879   5.768   6.382
 2628SOL    HW1 8783   3.938   5.802   6.309
 2628SOL    HW2 8784   3.814   5.702   6.343
 2629SOL     OW 8785   3.082   3.658   1.417
 2629SOL    HW1 8786   3.076   3.662   1.516
 2629SOL    HW2 8787   3.092   3.562   1.388
 2630SOL     OW 8788   2.908   2.199   2.274
 2630SOL    HW1 8789   2.910   2.240   2.183
 2630SOL    HW2 8790   2.820   2.221   2.318
 2631SOL     OW 8791   4.549   6.834   4.924
 2631SOL    HW1 8792   4.616   6.849   4.851
 2631SOL    HW2 8793   4.464   6.882   4.901
 2632SOL     OW 8794   5.663   1.351   1.435
 2632SOL    HW1 8795   5.649   1.440   1.391
 2632SOL    HW2 8796   5.631   1.356   1.530
 2633SOL     OW 8797   6.773   2.972   6.121
 2633SOL    HW1 8798   6.733   3.043   6.063
 2633SOL    HW2 8799   6.816   2.902   6.063
 2634SOL     OW 8800   3.121   5.131   1.386
 2634SOL    HW1 8801   3.139   5.205   1.321
 2634SOL    HW2 8802   3.040   5.153   1.440
 2635SOL     OW 8803   5.830   4.317   3.482
 2635SOL    HW1 8804   5.853   4.221   3.494
 2635SOL    HW2 8805   5.764   4.345   3.551
 2636SOL     OW 8806   5.569   0.427   5.077
 2636SOL    HW1 8807   5.473   0.438   5.102
 2636SOL    HW2 8808   5.575   0.402   4.980
 2637SOL     OW 8809   4.767   6.622   3.046
 2637SOL    HW1 8810   4.800   6.679   2.971
 2637SOL    HW2 8811   4.747   6.679   3.125
 2638SOL     OW 8812   5.677   5.666   0.705
 2638SOL    HW1 8813   5.732   5.711   0.776
 2638SOL    HW2 8814   5.737   5.638   0.630
 2639SOL     OW 8815   6.690   6.472   0.305
 2639SOL    HW1 8816   6.729   6.443   0.217
 2639SOL    HW2 8817   6.591   6.476   0.297
 2640SOL     OW 8818   6.391   6.867   6.519
 2640SOL    HW1 8819   6.338   6.951   6.521
 2640SOL    HW2 8820   6.399   6.835   6.424
 2641SOL     OW 8821   5.512   5.305   0.027
 2641SOL    HW1 8822   5.612   5.308   0.024
 2641SOL    HW2 8823   5.483   5.254   0.107
 2642SOL     OW 8824   6.370   0.197   3.211
 2642SOL    HW1 8825   6.445   0.203   3.276
 2642SOL    HW2 8826   6.329   0.106   3.214
 2643SOL     OW 8827   1.224   0.326   2.355
 2643SOL    HW1 8828   1.131   0.354   2.380
 2643SOL    HW2 8829   1.285   0.404   2.361
 2644SOL     OW 8830   0.708   5.698   5.968
 2644SOL    HW1 8831   0.655   5.753   6.032
 2644SOL    HW2 8832   0.678   5.718   5.875
 2645SOL     OW 8833   5.986   4.977   5.563
 2645SOL    HW1 8834   5.897   4.997   5.604
 2645SOL    HW2 8835   6.042   4.925   5.628
 2646SOL     OW 8836   6.649   6.224   6.841
 2646SOL    HW1 8837   6.650   6.129   6.873
 2646SOL    HW2 8838   6.741   6.263   6.852
 2647SOL     OW 8839   3.523   3.123   0.464
 2647SOL    HW1 8840   3.589   3.081   0.401
 2647SOL    HW2 8841   3.432   3.087   0.445
 2648SOL     OW 8842   3.503   1.134   3.024
 2648SOL    HW1 8843   3.472   1.084   3.105
 2648SOL    HW2 8844   3.485   1.080   2.942
 2649SOL     OW 8845   3.412   2.716   5.571
 2649SOL    HW1 8846   3.404   2.815   5.560
 2649SOL    HW2 8847   3.382   2.671   5.487
 2650SOL     OW 8848   0.127   6.447   1.881
 2650SOL    HW1 8849   0.187   6.367   1.879
 2650SOL    HW2 8850   0.131   6.494   1.793
 2651SOL     OW 8851   0.518   6.868   3.653
 2651SOL    HW1 8852   0.453   6.864   3.730
 2651SOL    HW2 8853   0.471   6.842   3.569
 2652SOL     OW 8854   3.035   3.112   2.731
 2652SOL    HW1 8855   3.112   3.053   2.705
 2652SOL    HW2 8856   2.953   3.055   2.744
 2653SOL     OW 8857   6.698   5.349   6.547
 2653SOL    HW1 8858   6.733   5.318   6.458
 2653SOL    HW2 8859   6.632   5.283   6.582
 2654SOL     OW 8860   5.094   2.110   6.175
 2654SOL    HW1 8861   5.143   2.028   6.145
 2654SOL    HW2 8862   5.157   2.188   6.178
 2655SOL     OW 8863   4.812   5.285   5.071
 2655SOL    HW1 8864   4.777   5.355   5.133
 2655SOL    HW2 8865   4.911   5.296   5.062
 2656SOL     OW 8866   5.361   3.493   3.847
 2656SOL    HW1 8867   5.279   3.452   3.887
 2656SOL    HW2 8868   5.368   3.589   3.876
 2657SOL     OW 8869   2.447   2.219   5.616
 2657SOL    HW1 8870   2.358   2.219   5.570
 2657SOL    HW2 8871   2.435   2.237   5.713
 2658SOL     OW 8872   5.448   4.538   5.751
 2658SOL    HW1 8873   5.496   4.555   5.665
 2658SOL    HW2 8874   5.421   4.442   5.756
 2659SOL     OW 8875   6.946   2.108   2.909
 2659SOL    HW1 8876   6.952   2.208   2.909
 2659SOL    HW2 8877   6.850   2.080   2.911
 2660SOL     OW 8878   6.445   2.030   2.945
 2660SOL    HW1 8879   6.494   2.044   3.031
 2660SOL    HW2 8880   6.422   2.118   2.905
 2661SOL     OW 8881   4.451   6.520   1.564
 2661SOL    HW1 8882   4.516   6.490   1.634
 2661SOL    HW2 8883   4.376   6.569   1.606
 2662SOL     OW 8884   3.811   6.663   3.665
 2662SOL    HW1 8885   3.788   6.601   3.590
 2662SOL    HW2 8886   3.727   6.696   3.708
 2663SOL     OW 8887   0.883   4.546   2.683
 2663SOL    HW1 8888   0.859   4.571   2.777
 2663SOL    HW2 8889   0.905   4.629   2.631
 2664SOL     OW 8890   4.186   3.655   1.832
 2664SOL    HW1 8891   4.154   3.640   1.925
 2664SOL    HW2 8892   4.273   3.705   1.834
 2665SOL     OW 8893   4.048   0.920   4.522
 2665SOL    HW1 8894   4.140   0.928   4.483
 2665SOL    HW2 8895   4.051   0.865   4.605
 2666SOL     OW 8896   5.490   6.287   1.794
 2666SOL    HW1 8897   5.484   6.222   1.870
 2666SOL    HW2 8898   5.573   6.342   1.803
 2667SOL     OW 8899   1.480   5.115   3.704
 2667SOL    HW1 8900   1.562   5.142   3.753
 2667SOL    HW2 8901   1.501   5.040   3.641
 2668SOL     OW 8902   6.760   2.459   5.839
 2668SOL    HW1 8903   6.663   2.478   5.827
 2668SOL    HW2 8904   6.804   2.450   5.749
 2669SOL     OW 8905   4.457   4.981   5.885
 2669SOL    HW1 8906   4.381   4.917   5.872
 2669SOL    HW2 8907   4.439   5.039   5.964
 2670SOL     OW 8908   1.957   0.645   6.094
 2670SOL    HW1 8909   1.985   0.582   6.022
 2670SOL    HW2 8910   2.020   0.637   6.171
 2671SOL     OW 8911   3.483   4.099   5.759
 2671SOL    HW1 8912   3.551   4.026   5.766
 2671SOL    HW2 8913   3.393   4.063   5.783
 2672SOL     OW 8914   0.611   4.178   0.642
 2672SOL    HW1 8915   0.632   4.152   0.737
 2672SOL    HW2 8916   0.518   4.213   0.637
 2673SOL     OW 8917   4.761   2.038   3.579
 2673SOL    HW1 8918   4.827   1.986   3.526
 2673SOL    HW2 8919   4.801   2.125   3.607
 2674SOL     OW 8920   5.457   5.638   5.628
 2674SOL    HW1 8921   5.474   5.714   5.691
 2674SOL    HW2 8922   5.446   5.672   5.535
 2675SOL     OW 8923   0.418   3.752   5.272
 2675SOL    HW1 8924   0.346   3.819   5.290
 2675SOL    HW2 8925   0.495   3.770   5.333
 2676SOL     OW 8926   4.091   0.315   2.286
 2676SOL    HW1 8927   4.047   0.381   2.226
 2676SOL    HW2 8928   4.056   0.326   2.379
 2677SOL     OW 8929   2.484   4.532   2.276
 2677SOL    HW1 8930   2.569   4.499   2.317
 2677SOL    HW2 8931   2.466   4.625   2.307
 2678SOL     OW 8932   0.172   5.903   6.395
 2678SOL    HW1 8933   0.122   5.929   6.312
 2678SOL    HW2 8934   0.268   5.889   6.373
 2679SOL     OW 8935   2.981   4.600   1.083
 2679SOL    HW1 8936   2.947   4.642   1.168
 2679SOL    HW2 8937   2.912   4.537   1.048
 2680SOL     OW 8938   0.768   1.875   1.099
 2680SOL    HW1 8939   0.817   1.899   1.183
 2680SOL    HW2 8940   0.678   1.918   1.100
 2681SOL     OW 8941   1.304   1.232   2.553
 2681SOL    HW1 8942   1.403   1.237   2.543
 2681SOL    HW2 8943   1.267   1.325   2.558
 2682SOL     OW 8944   6.377   2.659   3.363
 2682SOL    HW1 8945   6.404   2.616   3.449
 2682SOL    HW2 8946   6.394   2.595   3.287
 2683SOL     OW 8947   1.345   0.291   1.894
 2683SOL    HW1 8948   1.315   0.217   1.833
 2683SOL    HW2 8949   1.435   0.268   1.931
 2684SOL     OW 8950   2.411   5.904   2.684
 2684SOL    HW1 8951   2.376   5.995   2.664
 2684SOL    HW2 8952   2.356   5.836   2.636
 2685SOL     OW 8953   5.638   6.098   5.343
 2685SOL    HW1 8954   5.717   6.066   5.291
 2685SOL    HW2 8955   5.649   6.073   5.439
 2686SOL     OW 8956   1.092   3.017   4.354
 2686SOL    HW1 8957   1.051   3.092   4.406
 2686SOL    HW2 8958   1.186   3.003   4.383
 2687SOL     OW 8959   5.198   5.303   3.300
 2687SOL    HW1 8960   5.174   5.209   3.322
 2687SOL    HW2 8961   5.238   5.307   3.209
 2688SOL     OW 8962   3.033   4.997   6.213
 2688SOL    HW1 8963   3.021   4.904   6.250
 2688SOL    HW2 8964   3.124   5.005   6.173
 2689SOL     OW 8965   0.176   2.975   4.174
 2689SOL    HW1 8966   0.102   3.024   4.219
 2689SOL    HW2 8967   0.254   2.967   4.237
 2690SOL     OW 8968   2.975   3.600   3.033
 2690SOL    HW1 8969   2.952   3.693   3.063
 2690SOL    HW2 8970   2.963   3.592   2.934
 2691SOL     OW 8971   1.189   6.031   1.451
 2691SOL    HW1 8972   1.181   6.070   1.358
 2691SOL    HW2 8973   1.224   5.938   1.445
 2692SOL     OW 8974   6.673   5.537   3.067
 2692SOL    HW1 8975   6.735   5.595   3.121
 2692SOL    HW2 8976   6.691   5.551   2.970
 2693SOL     OW 8977   1.624   3.631   3.508
 2693SOL    HW1 8978   1.575   3.686   3.440
 2693SOL    HW2 8979   1.635   3.537   3.474
 2694SOL     OW 8980   2.659   0.870   2.933
 2694SOL    HW1 8981   2.579   0.841   2.985
 2694SOL    HW2 8982   2.734   0.807   2.950
 2695SOL     OW 8983   3.917   2.155   2.721
 2695SOL    HW1 8984   3.850   2.102   2.773
 2695SOL    HW2 8985   3.984   2.194   2.784
 2696SOL     OW 8986   4.040   3.199   5.261
 2696SOL    HW1 8987   4.091   3.172   5.180
 2696SOL    HW2 8988   4.102   3.211   5.338
 2697SOL     OW 8989   2.510   2.170   4.472
 2697SOL    HW1 8990   2.435   2.204   4.415
 2697SOL    HW2 8991   2.492   2.075   4.497
 2698SOL     OW 8992   2.149   3.418   6.806
 2698SOL    HW1 8993   2.211   3.352   6.849
 2698SOL    HW2 8994   2.068   3.430   6.863
 2699SOL     OW 8995   3.696   5.632   2.154
 2699SOL    HW1 8996   3.712   5.712   2.211
 2699SOL    HW2 8997   3.640   5.658   2.075
 2700SOL     OW 8998   1.487   3.827   2.865
 2700SOL    HW1 8999   1.452   3.808   2.773
 2700SOL    HW2 9000   1.438   3.906   2.903
 2701SOL     OW 9001   3.169   6.326   6.042
 2701SOL    HW1 9002   3.209   6.418   6.044
 2701SOL    HW2 9003   3.215   6.268   6.109
 2702SOL     OW 9004   0.329   0.146   2.924
 2702SOL    HW1 9005   0.263   0.128   2.997
 2702SOL    HW2 9006   0.280   0.160   2.838
 2703SOL     OW 9007   1.364   1.298   3.164
 2703SOL    HW1 9008   1.372   1.359   3.243
 2703SOL    HW2 9009   1.438   1.317   3.100
 2704SOL     OW 9010   1.603   6.115   0.531
 2704SOL    HW1 9011   1.621   6.019   0.508
 2704SOL    HW2 9012   1.646   6.174   0.463
 2705SOL     OW 9013   0.548   4.839   2.725
 2705SOL    HW1 9014   0.513   4.747   2.741
 2705SOL    HW2 9015   0.549   4.857   2.627
 2706SOL     OW 9016   6.612   1.828   1.968
 2706SOL    HW1 9017   6.639   1.736   1.998
 2706SOL    HW2 9018   6.522   1.822   1.924
 2707SOL     OW 9019   2.145   1.593   5.415
 2707SOL    HW1 9020   2.219   1.535   5.451
 2707SOL    HW2 9021   2.100   1.546   5.339
 2708SOL     OW 9022   1.823   2.902   0.984
 2708SOL    HW1 9023   1.873   2.894   0.898
 2708SOL    HW2 9024   1.770   2.986   0.985
 2709SOL     OW 9025   4.637   6.466   1.912
 2709SOL    HW1 9026   4.540   6.458   1.936
 2709SOL    HW2 9027   4.693   6.440   1.991
 2710SOL     OW 9028   5.655   3.782   2.548
 2710SOL    HW1 9029   5.615   3.695   2.519
 2710SOL    HW2 9030   5.735   3.765   2.604
 2711SOL     OW 9031   1.168   0.077   1.838
 2711SOL    HW1 9032   1.075   0.086   1.803
 2711SOL    HW2 9033   1.226   0.034   1.768
 2712SOL     OW 9034   3.395   5.051   0.980
 2712SOL    HW1 9035   3.347   4.965   0.963
 2712SOL    HW2 9036   3.462   5.038   1.053
 2713SOL     OW 9037   2.071   3.263   4.703
 2713SOL    HW1 9038   1.975   3.245   4.681
 2713SOL    HW2 9039   2.106   3.337   4.646
 2714SOL     OW 9040   5.470   6.739   5.379
 2714SOL    HW1 9041   5.433   6.774   5.294
 2714SOL    HW2 9042   5.407   6.759   5.454
 2715SOL     OW 9043   6.581   0.578   0.261
 2715SOL    HW1 9044   6.622   0.631   0.334
 2715SOL    HW2 9045   6.645   0.570   0.184
 2716SOL     OW 9046   0.539   6.633   2.850
 2716SOL    HW1 9047   0.625   6.613   2.896
 2716SOL    HW2 9048   0.507   6.724   2.878
 2717SOL     OW 9049   1.274   0.314   2.845
 2717SOL    HW1 9050   1.279   0.379   2.921
 2717SOL    HW2 9051   1.188   0.328   2.795
 2718SOL     OW 9052   1.239   4.865   3.216
 2718SOL    HW1 9053   1.264   4.955   3.254
 2718SOL    HW2 9054   1.186   4.815   3.284
 2719SOL     OW 9055   3.843   4.879   2.309
 2719SOL    HW1 9056   3.807   4.969   2.332
 2719SOL    HW2 9057   3.789   4.839   2.235
 2720SOL     OW 9058   1.151   5.910   4.006
 2720SOL    HW1 9059   1.105   5.822   3.991
 2720SOL    HW2 9060   1.209   5.903   4.087
 2721SOL     OW 9061   4.403   0.040   4.816
 2721SOL    HW1 9062   4.465   0.103   4.768
 2721SOL    HW2 9063   4.324   0.022   4.758
 2722SOL     OW 9064   1.439   5.422   1.167
 2722SOL    HW1 9065   1.400   5.330   1.177
 2722SOL    HW2 9066   1.523   5.416   1.114
 2723SOL     OW 9067   1.252   1.304   5.316
 2723SOL    HW1 9068   1.198   1.388   5.322
 2723SOL    HW2 9069   1.313   1.310   5.236
 2724SOL     OW 9070   2.951   5.363   6.343
 2724SOL    HW1 9071   3.019   5.402   6.280
 2724SOL    HW2 9072   2.874   5.328   6.291
 2725SOL     OW 9073   3.269   4.850   3.298
 2725SOL    HW1 9074   3.256   4.888   3.390
 2725SOL    HW2 9075   3.198   4.782   3.280
 2726SOL     OW 9076   4.972   6.007   2.212
 2726SOL    HW1 9077   4.955   6.033   2.117
 2726SOL    HW2 9078   4.961   5.908   2.222
 2727SOL     OW 9079   2.088   5.219   3.264
 2727SOL    HW1 9080   2.115   5.187   3.354
 2727SOL    HW2 9081   2.156   5.192   3.196
 2728SOL     OW 9082   3.562   0.334   5.595
 2728SOL    HW1 9083   3.576   0.406   5.526
 2728SOL    HW2 9084   3.603   0.249   5.564
 2729SOL     OW 9085   6.223   4.727   2.531
 2729SOL    HW1 9086   6.224   4.766   2.623
 2729SOL    HW2 9087   6.248   4.797   2.465
 2730SOL     OW 9088   1.529   4.374   1.502
 2730SOL    HW1 9089   1.604   4.311   1.524
 2730SOL    HW2 9090   1.465   4.330   1.440
 2731SOL     OW 9091   2.919   3.738   1.753
 2731SOL    HW1 9092   3.010   3.708   1.726
 2731SOL    HW2 9093   2.923   3.833   1.785
 2732SOL     OW 9094   5.431   2.051   3.530
 2732SOL    HW1 9095   5.477   1.985   3.590
 2732SOL    HW2 9096   5.437   2.019   3.435
 2733SOL     OW 9097   1.733   0.968   5.427
 2733SOL    HW1 9098   1.758   0.871   5.426
 2733SOL    HW2 9099   1.782   1.014   5.501
 2734SOL     OW 9100   2.549   6.164   3.752
 2734SOL    HW1 9101   2.597   6.081   3.780
 2734SOL    HW2 9102   2.471   6.139   3.695
 2735SOL     OW 9103   2.284   4.317   1.644
 2735SOL    HW1 9104   2.228   4.362   1.574
 2735SOL    HW2 9105   2.348   4.383   1.682
 2736SOL     OW 9106   3.700   6.761   6.339
 2736SOL    HW1 9107   3.607   6.785   6.312
 2736SOL    HW2 9108   3.716   6.664   6.321
 2737SOL     OW 9109   4.215   3.491   5.920
 2737SOL    HW1 9110   4.264   3.573   5.950
 2737SOL    HW2 9111   4.267   3.445   5.849
 2738SOL     OW 9112   5.599   4.740   4.190
 2738SOL    HW1 9113   5.560   4.821   4.234
 2738SOL    HW2 9114   5.565   4.658   4.235
 2739SOL     OW 9115   5.903   3.601   0.944
 2739SOL    HW1 9116   5.861   3.526   0.893
 2739SOL    HW2 9117   5.970   3.563   1.009
 2740SOL     OW 9118   6.603   2.482   2.990
 2740SOL    HW1 9119   6.655   2.564   3.014
 2740SOL    HW2 9120   6.548   2.499   2.909
 2741SOL     OW 9121   1.435   2.038   5.869
 2741SOL    HW1 9122   1.432   1.946   5.830
 2741SOL    HW2 9123   1.372   2.098   5.819
 2742SOL     OW 9124   1.946   6.788   5.897
 2742SOL    HW1 9125   1.932   6.698   5.936
 2742SOL    HW2 9126   1.980   6.850   5.968
 2743SOL     OW 9127   5.659   4.819   0.842
 2743SOL    HW1 9128   5.710   4.903   0.861
 2743SOL    HW2 9129   5.586   4.809   0.908
 2744SOL     OW 9130   4.083   0.989   6.660
 2744SOL    HW1 9131   4.125   0.931   6.590
 2744SOL    HW2 9132   4.129   1.078   6.662
 2745SOL     OW 9133   2.522   5.774   1.092
 2745SOL    HW1 9134   2.590   5.843   1.069
 2745SOL    HW2 9135   2.432   5.816   1.099
 2746SOL     OW 9136   1.667   1.943   6.021
 2746SOL    HW1 9137   1.590   1.989   5.977
 2746SOL    HW2 9138   1.701   1.871   5.961
 2747SOL     OW 9139   5.267   5.634   3.954
 2747SOL    HW1 9140   5.183   5.588   3.981
 2747SOL    HW2 9141   5.322   5.655   4.035
 2748SOL     OW 9142   3.793   1.406   4.497
 2748SOL    HW1 9143   3.748   1.479   4.447
 2748SOL    HW2 9144   3.819   1.438   4.588
 2749SOL     OW 9145   4.526   5.049   3.869
 2749SOL    HW1 9146   4.436   5.064   3.911
 2749SOL    HW2 9147   4.515   4.991   3.788
 2750SOL     OW 9148   0.555   6.134   1.686
 2750SOL    HW1 9149   0.574   6.202   1.615
 2750SOL    HW2 9150   0.609   6.155   1.768
 2751SOL     OW 9151   1.429   6.984   0.016
 2751SOL    HW1 9152   1.396   0.059   0.027
 2751SOL    HW2 9153   1.495   6.981   6.960
 2752SOL     OW 9154   6.559   6.256   5.572
 2752SOL    HW1 9155   6.506   6.179   5.607
 2752SOL    HW2 9156   6.512   6.295   5.493
 2753SOL     OW 9157   2.916   5.840   4.946
 2753SOL    HW1 9158   2.910   5.834   4.846
 2753SOL    HW2 9159   2.824   5.847   4.984
 2754SOL     OW 9160   1.141   6.088   4.375
 2754SOL    HW1 9161   1.133   6.173   4.427
 2754SOL    HW2 9162   1.073   6.023   4.408
 2755SOL     OW 9163   3.300   5.990   2.275
 2755SOL    HW1 9164   3.253   6.005   2.188
 2755SOL    HW2 9165   3.337   5.897   2.277
 2756SOL     OW 9166   0.355   3.016   5.507
 2756SOL    HW1 9167   0.354   3.116   5.499
 2756SOL    HW2 9168   0.277   2.986   5.561
 2757SOL     OW 9169   4.431   3.522   6.606
 2757SOL    HW1 9170   4.415   3.425   6.586
 2757SOL    HW2 9171   4.405   3.542   6.700
 2758SOL     OW 9172   0.058   6.695   1.975
 2758SOL    HW1 9173   0.035   6.758   1.900
 2758SOL    HW2 9174   0.093   6.610   1.936
 2759SOL     OW 9175   3.641   3.570   5.891
 2759SOL    HW1 9176   3.631   3.520   5.977
 2759SOL    HW2 9177   3.558   3.623   5.874
 2760SOL     OW 9178   5.962   5.735   2.520
 2760SOL    HW1 9179   5.993   5.774   2.607
 2760SOL    HW2 9180   5.996   5.789   2.444
 2761SOL     OW 9181   1.326   3.081   3.409
 2761SOL    HW1 9182   1.341   3.026   3.326
 2761SOL    HW2 9183   1.408   3.078   3.466
 2762SOL     OW 9184   3.080   2.030   0.755
 2762SOL    HW1 9185   3.148   1.959   0.738
 2762SOL    HW2 9186   3.100   2.077   0.841
 2763SOL     OW 9187   6.613   1.688   4.074
 2763SOL    HW1 9188   6.670   1.610   4.047
 2763SOL    HW2 9189   6.654   1.733   4.153
 2764SOL     OW 9190   0.521   3.047   3.277
 2764SOL    HW1 9191   0.592   3.080   3.215
 2764SOL    HW2 9192   0.506   3.115   3.349
 2765SOL     OW 9193   5.804   6.682   6.352
 2765SOL    HW1 9194   5.709   6.713   6.360
 2765SOL    HW2 9195   5.810   6.613   6.280
 2766SOL     OW 9196   4.294   6.927   0.316
 2766SOL    HW1 9197   4.257   6.835   0.308
 2766SOL    HW2 9198   4.372   6.938   0.253
 2767SOL     OW 9199   0.540   5.583   6.382
 2767SOL    HW1 9200   0.535   5.559   6.479
 2767SOL    HW2 9201   0.521   5.502   6.327
 2768SOL     OW 9202   4.110   6.892   1.703
 2768SOL    HW1 9203   4.161   6.974   1.679
 2768SOL    HW2 9204   4.030   6.884   1.644
 2769SOL     OW 9205   0.728   4.728   5.590
 2769SOL    HW1 9206   0.650   4.770   5.637
 2769SOL    HW2 9207   0.813   4.765   5.627
 2770SOL     OW 9208   2.528   5.997   0.593
 2770SOL    HW1 9209   2.494   6.030   0.505
 2770SOL    HW2 9210   2.462   6.018   0.665
 2771SOL     OW 9211   4.576   0.438   5.158
 2771SOL    HW1 9212   4.492   0.486   5.186
 2771SOL    HW2 9213   4.602   0.373   5.228
 2772SOL     OW 9214   4.484   1.031   3.878
 2772SOL    HW1 9215   4.479   1.007   3.781
 2772SOL    HW2 9216   4.468   1.130   3.888
 2773SOL     OW 9217   5.809   2.507   4.622
 2773SOL    HW1 9218   5.857   2.527   4.708
 2773SOL    HW2 9219   5.861   2.439   4.571
 2774SOL     OW 9220   5.652   1.819   4.157
 2774SOL    HW1 9221   5.726   1.855   4.100
 2774SOL    HW2 9222   5.617   1.735   4.115
 2775SOL     OW 9223   0.011   3.274   4.009
 2775SOL    HW1 9224   0.107   3.246   4.017
 2775SOL    HW2 9225   6.979   3.240   4.087
 2776SOL     OW 9226   5.122   5.030   6.276
 2776SOL    HW1 9227   5.107   5.085   6.194
 2776SOL    HW2 9228   5.139   4.935   6.248
 2777SOL     OW 9229   2.398   2.221   6.237
 2777SOL    HW1 9230   2.446   2.153   6.182
 2777SOL    HW2 9231   2.375   2.182   6.326
 2778SOL     OW 9232   2.623   0.858   5.990
 2778SOL    HW1 9233   2.704   0.810   5.954
 2778SOL    HW2 9234   2.546   0.794   5.994
 2779SOL     OW 9235   4.646   0.752   1.193
 2779SOL    HW1 9236   4.596   0.833   1.224
 2779SOL    HW2 9237   4.581   0.678   1.177
 2780SOL     OW 9238   6.975   1.092   5.108
 2780SOL    HW1 9239   0.028   1.053   5.166
 2780SOL    HW2 9240   6.907   1.136   5.167
 2781SOL     OW 9241   5.588   0.822   3.624
 2781SOL    HW1 9242   5.510   0.877   3.654
 2781SOL    HW2 9243   5.668   0.845   3.680
 2782SOL     OW 9244   5.493   0.547   6.031
 2782SOL    HW1 9245   5.526   0.603   6.108
 2782SOL    HW2 9246   5.398   0.572   6.010
 2783SOL     OW 9247   6.224   3.736   1.711
 2783SOL    HW1 9248   6.239   3.795   1.631
 2783SOL    HW2 9249   6.312   3.718   1.756
 2784SOL     OW 9250   0.847   2.995   1.154
 2784SOL    HW1 9251   0.826   2.967   1.248
 2784SOL    HW2 9252   0.942   2.974   1.133
 2785SOL     OW 9253   6.397   3.238   2.155
 2785SOL    HW1 9254   6.375   3.140   2.152
 2785SOL    HW2 9255   6.326   3.290   2.107
 2786SOL     OW 9256   0.845   6.376   6.487
 2786SOL    HW1 9257   0.795   6.356   6.403
 2786SOL    HW2 9258   0.884   6.468   6.482
 2787SOL     OW 9259   0.372   5.679   6.776
 2787SOL    HW1 9260   0.443   5.613   6.750
 2787SOL    HW2 9261   0.312   5.696   6.698
 2788SOL     OW 9262   2.707   0.114   6.061
 2788SOL    HW1 9263   2.611   0.086   6.056
 2788SOL    HW2 9264   2.752   0.095   5.974
 2789SOL     OW 9265   1.188   2.108   4.666
 2789SOL    HW1 9266   1.163   2.093   4.570
 2789SOL    HW2 9267   1.218   2.202   4.679
 2790SOL     OW 9268   1.329   5.519   1.802
 2790SOL    HW1 9269   1.380   5.605   1.795
 2790SOL    HW2 9270   1.232   5.535   1.782
 2791SOL     OW 9271   0.902   2.846   3.873
 2791SOL    HW1 9272   0.917   2.828   3.776
 2791SOL    HW2 9273   0.966   2.916   3.905
 2792SOL     OW 9274   3.559   1.958   6.136
 2792SOL    HW1 9275   3.511   1.875   6.107
 2792SOL    HW2 9276   3.562   1.961   6.236
 2793SOL     OW 9277   3.870   3.619   0.445
 2793SOL    HW1 9278   3.874   3.524   0.476
 2793SOL    HW2 9279   3.890   3.680   0.523
 2794SOL     OW 9280   1.220   2.602   0.194
 2794SOL    HW1 9281   1.300   2.619   0.253
 2794SOL    HW2 9282   1.242   2.530   0.128
 2795SOL     OW 9283   1.593   6.072   1.203
 2795SOL    HW1 9284   1.592   6.172   1.207
 2795SOL    HW2 9285   1.508   6.037   1.242
 2796SOL     OW 9286   1.635   5.946   6.787
 2796SOL    HW1 9287   1.562   5.995   6.738
 2796SOL    HW2 9288   1.695   6.012   6.832
 2797SOL     OW 9289   5.169   5.018   3.079
 2797SOL    HW1 9290   5.171   4.942   3.014
 2797SOL    HW2 9291   5.259   5.026   3.123
 2798SOL     OW 9292   5.340   1.183   1.610
 2798SOL    HW1 9293   5.314   1.087   1.606
 2798SOL    HW2 9294   5.267   1.239   1.570
 2799SOL     OW 9295   3.338   6.727   4.240
 2799SOL    HW1 9296   3.275   6.672   4.186
 2799SOL    HW2 9297   3.304   6.735   4.334
 2800SOL     OW 9298   5.221   0.336   6.517
 2800SOL    HW1 9299   5.161   0.259   6.494
 2800SOL    HW2 9300   5.247   0.383   6.433
 2801SOL     OW 9301   0.423   4.494   4.070
 2801SOL    HW1 9302   0.376   4.581   4.089
 2801SOL    HW2 9303   0.513   4.495   4.113
 2802SOL     OW 9304   1.881   5.284   4.856
 2802SOL    HW1 9305   1.840   5.245   4.938
 2802SOL    HW2 9306   1.979   5.267   4.857
 2803SOL     OW 9307   3.712   2.646   6.383
 2803SOL    HW1 9308   3.807   2.622   6.366
 2803SOL    HW2 9309   3.671   2.578   6.444
 2804SOL     OW 9310   0.043   2.475   3.617
 2804SOL    HW1 9311   0.043   2.381   3.653
 2804SOL    HW2 9312   0.122   2.524   3.652
 2805SOL     OW 9313   3.226   3.757   0.711
 2805SOL    HW1 9314   3.157   3.705   0.762
 2805SOL    HW2 9315   3.282   3.694   0.657
 2806SOL     OW 9316   0.189   2.923   6.179
 2806SOL    HW1 9317   0.243   3.008   6.176
 2806SOL    HW2 9318   0.238   2.855   6.234
 2807SOL     OW 9319   4.425   1.298   3.831
 2807SOL    HW1 9320   4.358   1.343   3.890
 2807SOL    HW2 9321   4.461   1.365   3.765
 2808SOL     OW 9322   0.622   5.050   5.447
 2808SOL    HW1 9323   0.705   5.097   5.474
 2808SOL    HW2 9324   0.578   5.101   5.373
 2809SOL     OW 9325   6.865   5.688   1.827
 2809SOL    HW1 9326   6.940   5.651   1.882
 2809SOL    HW2 9327   6.837   5.777   1.864
 2810SOL     OW 9328   1.907   6.937   2.966
 2810SOL    HW1 9329   1.917   0.013   2.992
 2810SOL    HW2 9330   1.995   6.902   2.933
 2811SOL     OW 9331   0.932   1.190   0.796
 2811SOL    HW1 9332   0.966   1.257   0.730
 2811SOL    HW2 9333   1.008   1.134   0.829
 2812SOL     OW 9334   1.369   1.862   0.397
 2812SOL    HW1 9335   1.447   1.844   0.337
 2812SOL    HW2 9336   1.392   1.935   0.461
 2813SOL     OW 9337   0.977   3.348   2.244
 2813SOL    HW1 9338   0.902   3.294   2.282
 2813SOL    HW2 9339   1.005   3.417   2.310
 2814SOL     OW 9340   2.616   3.814   6.669
 2814SOL    HW1 9341   2.538   3.868   6.639
 2814SOL    HW2 9342   2.670   3.866   6.735
 2815SOL     OW 9343   6.965   5.275   4.458
 2815SOL    HW1 9344   0.005   5.241   4.531
 2815SOL    HW2 9345   6.871   5.250   4.477
 2816SOL     OW 9346   0.724   5.821   4.890
 2816SOL    HW1 9347   0.681   5.846   4.803
 2816SOL    HW2 9348   0.721   5.722   4.901
 2817SOL     OW 9349   3.223   0.939   2.579
 2817SOL    HW1 9350   3.173   0.874   2.523
 2817SOL    HW2 9351   3.210   1.031   2.544
 2818SOL     OW 9352   1.943   0.612   0.329
 2818SOL    HW1 9353   1.927   0.710   0.336
 2818SOL    HW2 9354   2.034   0.589   0.363
 2819SOL     OW 9355   0.674   0.388   6.531
 2819SOL    HW1 9356   0.685   0.474   6.480
 2819SOL    HW2 9357   0.618   0.403   6.612
 2820SOL     OW 9358   1.663   2.242   6.971
 2820SOL    HW1 9359   1.740   2.198   6.924
 2820SOL    HW2 9360   1.613   2.300   6.906
 2821SOL     OW 9361   3.112   3.421   6.071
 2821SOL    HW1 9362   3.031   3.463   6.112
 2821SOL    HW2 9363   3.158   3.364   6.138
 2822SOL     OW 9364   5.081   2.593   0.283
 2822SOL    HW1 9365   5.072   2.570   0.380
 2822SOL    HW2 9366   5.087   2.508   0.230
 2823SOL     OW 9367   4.745   3.492   1.399
 2823SOL    HW1 9368   4.719   3.496   1.303
 2823SOL    HW2 9369   4.688   3.425   1.446
 2824SOL     OW 9370   0.740   4.458   4.477
 2824SOL    HW1 9371   0.731   4.373   4.529
 2824SOL    HW2 9372   0.832   4.495   4.490
 2825SOL     OW 9373   5.205   1.294   6.254
 2825SOL    HW1 9374   5.295   1.253   6.238
 2825SOL    HW2 9375   5.217   1.378   6.307
 2826SOL     OW 9376   2.284   2.871   6.716
 2826SOL    HW1 9377   2.231   2.797   6.757
 2826SOL    HW2 9378   2.321   2.841   6.629
 2827SOL     OW 9379   5.901   2.040   6.835
 2827SOL    HW1 9380   5.872   2.102   6.762
 2827SOL    HW2 9381   5.861   1.950   6.821
 2828SOL     OW 9382   1.732   3.198   1.525
 2828SOL    HW1 9383   1.768   3.139   1.597
 2828SOL    HW2 9384   1.743   3.152   1.436
 2829SOL     OW 9385   3.320   3.476   2.142
 2829SOL    HW1 9386   3.415   3.480   2.111
 2829SOL    HW2 9387   3.261   3.524   2.076
 2830SOL     OW 9388   2.977   6.330   4.592
 2830SOL    HW1 9389   3.004   6.277   4.511
 2830SOL    HW2 9390   2.888   6.372   4.576
 2831SOL     OW 9391   6.483   1.754   1.534
 2831SOL    HW1 9392   6.460   1.674   1.590
 2831SOL    HW2 9393   6.582   1.757   1.522
 2832SOL     OW 9394   0.646   3.679   2.691
 2832SOL    HW1 9395   0.729   3.658   2.744
 2832SOL    HW2 9396   0.568   3.630   2.730
 2833SOL     OW 9397   1.222   2.582   2.621
 2833SOL    HW1 9398   1.166   2.595   2.539
 2833SOL    HW2 9399   1.211   2.660   2.682
 2834SOL     OW 9400   4.043   6.687   4.272
 2834SOL    HW1 9401   4.137   6.690   4.237
 2834SOL    HW2 9402   3.988   6.625   4.216
 2835SOL     OW 9403   6.021   0.708   6.786
 2835SOL    HW1 9404   6.052   0.628   6.735
 2835SOL    HW2 9405   6.096   0.744   6.841
 2836SOL     OW 9406   3.017   5.930   2.691
 2836SOL    HW1 9407   3.100   5.947   2.638
 2836SOL    HW2 9408   3.041   5.903   2.784
 2837SOL     OW 9409   4.873   4.342   1.622
 2837SOL    HW1 9410   4.929   4.402   1.679
 2837SOL    HW2 9411   4.777   4.351   1.648
 2838SOL     OW 9412   6.892   3.930   6.174
 2838SOL    HW1 9413   6.840   3.846   6.157
 2838SOL    HW2 9414   6.863   4.000   6.108
 2839SOL     OW 9415   5.836   3.332   5.251
 2839SOL    HW1 9416   5.754   3.359   5.302
 2839SOL    HW2 9417   5.869   3.244   5.284
 2840SOL     OW 9418   5.994   6.652   3.998
 2840SOL    HW1 9419   5.955   6.729   3.948
 2840SOL    HW2 9420   5.926   6.579   4.004
 2841SOL     OW 9421   5.625   3.961   2.346
 2841SOL    HW1 9422   5.645   3.910   2.430
 2841SOL    HW2 9423   5.672   3.919   2.269
 2842SOL     OW 9424   0.783   6.941   3.581
 2842SOL    HW1 9425   0.689   6.929   3.611
 2842SOL    HW2 9426   0.793   0.011   3.536
 2843SOL     OW 9427   2.399   2.448   3.611
 2843SOL    HW1 9428   2.403   2.390   3.693
 2843SOL    HW2 9429   2.304   2.474   3.593
 2844SOL     OW 9430   4.799   3.660   1.023
 2844SOL    HW1 9431   4.745   3.594   1.076
 2844SOL    HW2 9432   4.812   3.743   1.076
 2845SOL     OW 9433   2.518   1.746   1.930
 2845SOL    HW1 9434   2.426   1.752   1.969
 2845SOL    HW2 9435   2.523   1.800   1.847
 2846SOL     OW 9436   6.634   6.972   6.585
 2846SOL    HW1 9437   6.544   6.946   6.549
 2846SOL    HW2 9438   6.657   0.045   6.554
 2847SOL     OW 9439   4.719   5.589   1.324
 2847SOL    HW1 9440   4.628   5.599   1.285
 2847SOL    HW2 9441   4.726   5.504   1.375
 2848SOL     OW 9442   0.906   4.497   5.452
 2848SOL    HW1 9443   0.841   4.504   5.528
 2848SOL    HW2 9444   0.863   4.532   5.369
 2849SOL     OW 9445   5.501   0.692   1.828
 2849SOL    HW1 9446   5.411   0.671   1.790
 2849SOL    HW2 9447   5.538   0.773   1.783
 2850SOL     OW 9448   1.331   0.555   1.947
 2850SOL    HW1 9449   1.347   0.469   1.898
 2850SOL    HW2 9450   1.392   0.560   2.025
 2851SOL     OW 9451   2.936   3.371   1.136
 2851SOL    HW1 9452   2.850   3.380   1.187
 2851SOL    HW2 9453   3.008   3.339   1.198
 2852SOL     OW 9454   0.084   4.702   5.624
 2852SOL    HW1 9455   0.176   4.669   5.604
 2852SOL    HW2 9456   0.088   4.772   5.695
 2853SOL     OW 9457   0.208   4.189   5.382
 2853SOL    HW1 9458   0.169   4.136   5.457
 2853SOL    HW2 9459   0.147   4.264   5.358
 2854SOL     OW 9460   3.299   0.589   6.668
 2854SOL    HW1 9461   3.376   0.583   6.731
 2854SOL    HW2 9462   3.289   0.503   6.618
 2855SOL     OW 9463   2.349   1.236   4.245
 2855SOL    HW1 9464   2.361   1.213   4.341
 2855SOL    HW2 9465   2.256   1.269   4.230
 2856SOL     OW 9466   0.365   5.699   3.796
 2856SOL    HW1 9467   0.295   5.767   3.816
 2856SOL    HW2 9468   0.339   5.611   3.836
 2857SOL     OW 9469   6.940   4.346   1.191
 2857SOL    HW1 9470   6.871   4.381   1.255
 2857SOL    HW2 9471   6.953   4.248   1.206
 2858SOL     OW 9472   4.934   4.538   2.492
 2858SOL    HW1 9473   4.930   4.457   2.433
 2858SOL    HW2 9474   4.938   4.509   2.588
 2859SOL     OW 9475   5.340   5.346   1.883
 2859SOL    HW1 9476   5.425   5.369   1.932
 2859SOL    HW2 9477   5.351   5.258   1.838
 2860SOL     OW 9478   1.056   6.926   2.599
 2860SOL    HW1 9479   1.042   6.995   2.527
 2860SOL    HW2 9480   0.971   6.911   2.649
 2861SOL     OW 9481   4.570   3.964   5.830
 2861SOL    HW1 9482   4.477   3.963   5.793
 2861SOL    HW2 9483   4.590   3.875   5.871
 2862SOL     OW 9484   4.751   1.913   0.500
 2862SOL    HW1 9485   4.718   1.873   0.414
 2862SOL    HW2 9486   4.675   1.959   0.546
 2863SOL     OW 9487   5.848   2.151   4.841
 2863SOL    HW1 9488   5.898   2.234   4.819
 2863SOL    HW2 9489   5.774   2.138   4.774
 2864SOL     OW 9490   3.886   4.684   0.746
 2864SOL    HW1 9491   3.881   4.689   0.846
 2864SOL    HW2 9492   3.869   4.774   0.707
 2865SOL     OW 9493   5.478   5.080   5.377
 2865SOL    HW1 9494   5.543   5.149   5.346
 2865SOL    HW2 9495   5.436   5.035   5.297
 2866SOL     OW 9496   3.492   4.138   0.669
 2866SOL    HW1 9497   3.440   4.137   0.754
 2866SOL    HW2 9498   3.589   4.151   0.690
 2867SOL     OW 9499   6.118   6.432   2.689
 2867SOL    HW1 9500   6.079   6.373   2.761
 2867SOL    HW2 9501   6.155   6.515   2.731
 2868SOL     OW 9502   0.322   0.621   5.601
 2868SOL    HW1 9503   0.331   0.720   5.609
 2868SOL    HW2 9504   0.412   0.579   5.606
 2869SOL     OW 9505   6.186   5.058   3.838
 2869SOL    HW1 9506   6.107   5.001   3.813
 2869SOL    HW2 9507   6.266   5.030   3.785
 2870SOL     OW 9508   6.942   1.529   1.961
 2870SOL    HW1 9509   6.972   1.457   1.898
 2870SOL    HW2 9510   6.989   1.615   1.939
 2871SOL     OW 9511   5.117   1.584   2.921
 2871SOL    HW1 9512   5.178   1.642   2.975
 2871SOL    HW2 9513   5.133   1.600   2.824
 2872SOL     OW 9514   2.331   2.253   2.751
 2872SOL    HW1 9515   2.326   2.327   2.818
 2872SOL    HW2 9516   2.419   2.207   2.759
 2873SOL     OW 9517   1.041   0.337   1.162
 2873SOL    HW1 9518   1.012   0.413   1.103
 2873SOL    HW2 9519   1.108   0.370   1.228
 2874SOL     OW 9520   1.847   1.624   3.110
 2874SOL    HW1 9521   1.866   1.592   3.017
 2874SOL    HW2 9522   1.932   1.652   3.153
 2875SOL     OW 9523   2.644   6.351   2.915
 2875SOL    HW1 9524   2.643   6.276   2.849
 2875SOL    HW2 9525   2.732   6.397   2.913
 2876SOL     OW 9526   2.206   6.411   1.453
 2876SOL    HW1 9527   2.154   6.482   1.500
 2876SOL    HW2 9528   2.190   6.323   1.499
 2877SOL     OW 9529   1.568   2.334   6.412
 2877SOL    HW1 9530   1.538   2.422   6.449
 2877SOL    HW2 9531   1.530   2.323   6.320
 2878SOL     OW 9532   3.831   2.992   4.584
 2878SOL    HW1 9533   3.891   3.022   4.509
 2878SOL    HW2 9534   3.757   3.058   4.595
 2879SOL     OW 9535   5.222   4.597   0.186
 2879SOL    HW1 9536   5.207   4.686   0.144
 2879SOL    HW2 9537   5.138   4.566   0.231
 2880SOL     OW 9538   2.052   1.143   3.497
 2880SOL    HW1 9539   2.060   1.142   3.596
 2880SOL    HW2 9540   1.978   1.082   3.468
 2881SOL     OW 9541   5.537   5.458   0.372
 2881SOL    HW1 9542   5.626   5.471   0.329
 2881SOL    HW2 9543   5.546   5.391   0.447
 2882SOL     OW 9544   4.323   6.372   7.009
 2882SOL    HW1 9545   4.329   6.284   0.037
 2882SOL    HW2 9546   4.415   6.408   6.994
 2883SOL     OW 9547   5.923   6.463   3.483
 2883SOL    HW1 9548   5.999   6.401   3.462
 2883SOL    HW2 9549   5.931   6.546   3.427
 2884SOL     OW 9550   5.782   5.432   4.162
 2884SOL    HW1 9551   5.701   5.412   4.218
 2884SOL    HW2 9552   5.810   5.349   4.113
 2885SOL     OW 9553   1.572   2.500   3.700
 2885SOL    HW1 9554   1.582   2.556   3.782
 2885SOL    HW2 9555   1.579   2.404   3.724
 2886SOL     OW 9556   2.310   4.459   5.453
 2886SOL    HW1 9557   2.405   4.456   5.482
 2886SOL    HW2 9558   2.286   4.374   5.406
 2887SOL     OW 9559   7.010   5.843   2.724
 2887SOL    HW1 9560   0.075   5.801   2.757
 2887SOL    HW2 9561   7.005   5.937   2.758
 2888SOL     OW 9562   5.388   6.966   6.848
 2888SOL    HW1 9563   5.366   6.877   6.889
 2888SOL    HW2 9564   5.454   6.954   6.774
 2889SOL     OW 9565   4.154   5.992   3.827
 2889SOL    HW1 9566   4.125   6.051   3.752
 2889SOL    HW2 9567   4.247   5.959   3.809
 2890SOL     OW 9568   0.776   2.158   1.014
 2890SOL    HW1 9569   0.797   2.073   0.966
 2890SOL    HW2 9570   0.844   2.172   1.087
 2891SOL     OW 9571   0.122   1.713   5.188
 2891SOL    HW1 9572   0.144   1.629   5.137
 2891SOL    HW2 9573   0.134   1.697   5.286
 2892SOL     OW 9574   5.326   4.110   1.896
 2892SOL    HW1 9575   5.354   4.014   1.903
 2892SOL    HW2 9576   5.241   4.124   1.947
 2893SOL     OW 9577   6.636   6.155   4.997
 2893SOL    HW1 9578   6.697   6.230   5.022
 2893SOL    HW2 9579   6.687   6.086   4.947
 2894SOL     OW 9580   2.155   5.325   2.167
 2894SOL    HW1 9581   2.208   5.365   2.093
 2894SOL    HW2 9582   2.066   5.371   2.172
 2895SOL     OW 9583   4.328   6.466   5.869
 2895SOL    HW1 9584   4.239   6.421   5.863
 2895SOL    HW2 9585   4.379   6.430   5.947
 2896SOL     OW 9586   5.383   0.255   4.857
 2896SOL    HW1 9587   5.411   0.160   4.870
 2896SOL    HW2 9588   5.302   0.259   4.798
 2897SOL     OW 9589   3.640   5.116   2.936
 2897SOL    HW1 9590   3.587   5.084   3.015
 2897SOL    HW2 9591   3.736   5.123   2.962
 2898SOL     OW 9592   5.279   2.737   2.516
 2898SOL    HW1 9593   5.198   2.772   2.562
 2898SOL    HW2 9594   5.328   2.675   2.578
 2899SOL     OW 9595   6.791   3.720   0.896
 2899SOL    HW1 9596   6.757   3.714   0.990
 2899SOL    HW2 9597   6.890   3.736   0.898
 2900SOL     OW 9598   2.376   2.859   5.508
 2900SOL    HW1 9599   2.464   2.814   5.524
 2900SOL    HW2 9600   2.317   2.798   5.454
 2901SOL     OW 9601   0.990   4.190   2.956
 2901SOL    HW1 9602   1.032   4.104   2.983
 2901SOL    HW2 9603   0.905   4.172   2.906
 2902SOL     OW 9604   5.744   5.667   3.752
 2902SOL    HW1 9605   5.701   5.578   3.740
 2902SOL    HW2 9606   5.675   5.735   3.777
 2903SOL     OW 9607   5.822   4.838   0.629
 2903SOL    HW1 9608   5.906   4.802   0.668
 2903SOL    HW2 9609   5.747   4.826   0.694
 2904SOL     OW 9610   1.941   4.463   5.083
 2904SOL    HW1 9611   1.970   4.407   5.006
 2904SOL    HW2 9612   2.021   4.491   5.136
 2905SOL     OW 9613   1.945   5.677   1.134
 2905SOL    HW1 9614   1.973   5.744   1.066
 2905SOL    HW2 9615   1.864   5.712   1.183
 2906SOL     OW 9616   6.018   6.079   4.556
 2906SOL    HW1 9617   6.074   6.005   4.593
 2906SOL    HW2 9618   5.929   6.042   4.528
 2907SOL     OW 9619   0.967   0.376   5.022
 2907SOL    HW1 9620   1.062   0.407   5.023
 2907SOL    HW2 9621   0.908   0.448   5.058
 2908SOL     OW 9622   4.526   0.225   3.099
 2908SOL    HW1 9623   4.448   0.162   3.089
 2908SOL    HW2 9624   4.593   0.206   3.028
 2909SOL     OW 9625   6.880   6.437   1.528
 2909SOL    HW1 9626   6.793   6.390   1.518
 2909SOL    HW2 9627   6.873   6.508   1.598
 2910SOL     OW 9628   0.668   0.571   4.439
 2910SOL    HW1 9629   0.580   0.523   4.449
 2910SOL    HW2 9630   0.739   0.506   4.412
 2911SOL     OW 9631   7.006   4.362   5.744
 2911SOL    HW1 9632   6.944   4.284   5.748
 2911SOL    HW2 9633   7.003   4.402   5.652
 2912SOL     OW 9634   1.175   0.910   1.581
 2912SOL    HW1 9635   1.212   0.945   1.667
 2912SOL    HW2 9636   1.083   0.944   1.567
 2913SOL     OW 9637   2.622   6.145   2.724
 2913SOL    HW1 9638   2.678   6.063   2.710
 2913SOL    HW2 9639   2.528   6.119   2.744
 2914SOL     OW 9640   4.023   5.562   0.978
 2914SOL    HW1 9641   4.007   5.483   1.038
 2914SOL    HW2 9642   4.075   5.532   0.898
 2915SOL     OW 9643   2.769   0.255   3.360
 2915SOL    HW1 9644   2.866   0.249   3.339
 2915SOL    HW2 9645   2.752   0.335   3.418
 2916SOL     OW 9646   1.860   5.719   0.069
 2916SOL    HW1 9647   1.871   5.815   0.095
 2916SOL    HW2 9648   1.819   5.714   6.997
 2917SOL     OW 9649   2.864   6.647   2.782
 2917SOL    HW1 9650   2.933   6.574   2.783
 2917SOL    HW2 9651   2.905   6.730   2.743
 2918SOL     OW 9652   5.262   3.094   1.550
 2918SOL    HW1 9653   5.212   3.118   1.467
 2918SOL    HW2 9654   5.207   3.031   1.605
 2919SOL     OW 9655   0.569   5.964   5.183
 2919SOL    HW1 9656   0.655   5.913   5.181
 2919SOL    HW2 9657   0.580   6.050   5.133
 2920SOL     OW 9658   2.080   2.339   2.079
 2920SOL    HW1 9659   2.079   2.437   2.096
 2920SOL    HW2 9660   2.135   2.319   1.998
 2921SOL     OW 9661   1.653   6.226   3.284
 2921SOL    HW1 9662   1.555   6.210   3.275
 2921SOL    HW2 9663   1.691   6.164   3.353
 2922SOL     OW 9664   4.074   4.859   4.107
 2922SOL    HW1 9665   3.999   4.835   4.168
 2922SOL    HW2 9666   4.056   4.824   4.015
 2923SOL     OW 9667   0.035   5.421   5.229
 2923SOL    HW1 9668   7.006   5.359   5.291
 2923SOL    HW2 9669   6.996   5.442   5.151
 2924SOL     OW 9670   6.204   1.648   6.532
 2924SOL    HW1 9671   6.257   1.705   6.595
 2924SOL    HW2 9672   6.173   1.703   6.455
 2925SOL     OW 9673   5.720   6.363   4.613
 2925SOL    HW1 9674   5.707   6.437   4.680
 2925SOL    HW2 9675   5.680   6.390   4.526
 2926SOL     OW 9676   6.717   2.205   3.770
 2926SOL    HW1 9677   6.746   2.238   3.680
 2926SOL    HW2 9678   6.647   2.267   3.807
 2927SOL     OW 9679   0.871   1.892   1.359
 2927SOL    HW1 9680   0.956   1.842   1.348
 2927SOL    HW2 9681   0.869   1.937   1.448
 2928SOL     OW 9682   6.228   3.171   0.537
 2928SOL    HW1 9683   6.319   3.186   0.576
 2928SOL    HW2 9684   6.236   3.124   0.450
 2929SOL     OW 9685   2.057   2.031   4.075
 2929SOL    HW1 9686   2.076   2.128   4.061
 2929SOL    HW2 9687   2.078   1.980   3.991
 2930SOL     OW 9688   0.467   3.969   4.156
 2930SOL    HW1 9689   0.432   3.875   4.155
 2930SOL    HW2 9690   0.413   4.024   4.220
 2931SOL     OW 9691   5.274   4.138   5.667
 2931SOL    HW1 9692   5.232   4.204   5.728
 2931SOL    HW2 9693   5.233   4.145   5.576
 2932SOL     OW 9694   5.817   4.983   1.617
 2932SOL    HW1 9695   5.844   5.061   1.674
 2932SOL    HW2 9696   5.894   4.954   1.560
 2933SOL     OW 9697   1.109   6.530   0.129
 2933SOL    HW1 9698   1.063   6.527   0.218
 2933SOL    HW2 9699   1.089   6.446   0.078
 2934SOL     OW 9700   3.837   5.131   1.103
 2934SOL    HW1 9701   3.755   5.110   1.156
 2934SOL    HW2 9702   3.812   5.167   1.014
 2935SOL     OW 9703   0.915   2.694   6.111
 2935SOL    HW1 9704   0.832   2.666   6.158
 2935SOL    HW2 9705   0.987   2.626   6.125
 2936SOL     OW 9706   4.883   6.526   1.803
 2936SOL    HW1 9707   4.785   6.514   1.817
 2936SOL    HW2 9708   4.930   6.519   1.891
 2937SOL     OW 9709   5.512   4.057   2.639
 2937SOL    HW1 9710   5.550   4.028   2.552
 2937SOL    HW2 9711   5.443   4.128   2.624
 2938SOL     OW 9712   0.581   5.906   6.103
 2938SOL    HW1 9713   0.539   5.942   6.020
 2938SOL    HW2 9714   0.526   5.935   6.182
 2939SOL     OW 9715   0.169   6.112   1.515
 2939SOL    HW1 9716   0.213   6.036   1.562
 2939SOL    HW2 9717   0.237   6.165   1.465
 2940SOL     OW 9718   4.535   6.818   3.691
 2940SOL    HW1 9719   4.459   6.753   3.697
 2940SOL    HW2 9720   4.539   6.856   3.599
 2941SOL     OW 9721   2.231   4.684   3.185
 2941SOL    HW1 9722   2.201   4.606   3.131
 2941SOL    HW2 9723   2.314   4.660   3.235
 2942SOL     OW 9724   3.449   1.533   1.454
 2942SOL    HW1 9725   3.444   1.633   1.462
 2942SOL    HW2 9726   3.435   1.492   1.544
 2943SOL     OW 9727   5.699   3.758   2.910
 2943SOL    HW1 9728   5.751   3.684   2.869
 2943SOL    HW2 9729   5.715   3.760   3.009
 2944SOL     OW 9730   2.172   5.672   2.095
 2944SOL    HW1 9731   2.253   5.687   2.151
 2944SOL    HW2 9732   2.157   5.574   2.084
 2945SOL     OW 9733   4.547   4.351   1.048
 2945SOL    HW1 9734   4.587   4.269   1.006
 2945SOL    HW2 9735   4.496   4.325   1.130
 2946SOL     OW 9736   3.314   3.246   4.748
 2946SOL    HW1 9737   3.307   3.257   4.649
 2946SOL    HW2 9738   3.299   3.150   4.771
 2947SOL     OW 9739   6.553   5.787   0.914
 2947SOL    HW1 9740   6.594   5.700   0.885
 2947SOL    HW2 9741   6.585   5.810   1.006
 2948SOL     OW 9742   0.118   3.496   2.346
 2948SOL    HW1 9743   0.110   3.406   2.387
 2948SOL    HW2 9744   0.035   3.517   2.294
 2949SOL     OW 9745   1.970   6.417   0.391
 2949SOL    HW1 9746   1.879   6.459   0.396
 2949SOL    HW2 9747   2.018   6.430   0.478
 2950SOL     OW 9748   6.295   6.058   2.182
 2950SOL    HW1 9749   6.321   5.983   2.243
 2950SOL    HW2 9750   6.371   6.121   2.172
 2951SOL     OW 9751   0.483   1.499   1.596
 2951SOL    HW1 9752   0.561   1.442   1.570
 2951SOL    HW2 9753   0.447   1.546   1.516
 2952SOL     OW 9754   6.817   1.684   5.499
 2952SOL    HW1 9755   6.821   1.768   5.553
 2952SOL    HW2 9756   6.741   1.690   5.434
 2953SOL     OW 9757   1.543   4.934   3.493
 2953SOL    HW1 9758   1.461   4.880   3.477
 2953SOL    HW2 9759   1.550   5.006   3.423
 2954SOL     OW 9760   0.616   3.897   6.271
 2954SOL    HW1 9761   0.574   3.838   6.203
 2954SOL    HW2 9762   0.560   3.898   6.354
 2955SOL     OW 9763   1.245   4.605   6.234
 2955SOL    HW1 9764   1.198   4.610   6.322
 2955SOL    HW2 9765   1.278   4.512   6.219
 2956SOL     OW 9766   5.245   4.935   4.367
 2956SOL    HW1 9767   5.181   4.987   4.423
 2956SOL    HW2 9768   5.195   4.876   4.304
 2957SOL     OW 9769   2.663   5.286   1.408
 2957SOL    HW1 9770   2.742   5.261   1.465
 2957SOL    HW2 9771   2.587   5.315   1.467
 2958SOL     OW 9772   1.759   4.452   2.884
 2958SOL    HW1 9773   1.756   4.411   2.793
 2958SOL    HW2 9774   1.844   4.424   2.931
 2959SOL     OW 9775   0.101   3.693   3.663
 2959SOL    HW1 9776   0.123   3.630   3.738
 2959SOL    HW2 9777   0.004   3.686   3.641
 2960SOL     OW 9778   5.022   0.043   1.164
 2960SOL    HW1 9779   5.033   6.968   1.135
 2960SOL    HW2 9780   5.036   0.104   1.086
 2961SOL     OW 9781   5.901   3.311   1.840
 2961SOL    HW1 9782   5.962   3.276   1.769
 2961SOL    HW2 9783   5.913   3.257   1.923
 2962SOL     OW 9784   6.985   0.376   3.663
 2962SOL    HW1 9785   0.052   0.392   3.712
 2962SOL    HW2 9786   6.967   0.453   3.602
 2963SOL     OW 9787   1.279   0.842   5.094
 2963SOL    HW1 9788   1.354   0.812   5.035
 2963SOL    HW2 9789   1.289   0.802   5.185
 2964SOL     OW 9790   1.523   1.120   6.313
 2964SOL    HW1 9791   1.455   1.072   6.368
 2964SOL    HW2 9792   1.487   1.209   6.286
 2965SOL     OW 9793   6.406   0.236   6.028
 2965SOL    HW1 9794   6.382   0.332   6.011
 2965SOL    HW2 9795   6.324   0.186   6.056
 2966SOL     OW 9796   2.929   5.721   1.950
 2966SOL    HW1 9797   2.949   5.643   2.009
 2966SOL    HW2 9798   2.979   5.710   1.864
 2967SOL     OW 9799   5.428   0.201   5.223
 2967SOL    HW1 9800   5.392   0.276   5.168
 2967SOL    HW2 9801   5.524   0.187   5.201
 2968SOL     OW 9802   0.960   3.876   1.263
 2968SOL    HW1 9803   0.912   3.799   1.306
 2968SOL    HW2 9804   0.894   3.947   1.239
 2969SOL     OW 9805   4.669   3.093   5.253
 2969SOL    HW1 9806   4.651   2.996   5.270
 2969SOL    HW2 9807   4.747   3.101   5.190
 2970SOL     OW 9808   2.433   2.341   5.352
 2970SOL    HW1 9809   2.456   2.317   5.446
 2970SOL    HW2 9810   2.517   2.353   5.299
 2971SOL     OW 9811   5.199   3.135   6.658
 2971SOL    HW1 9812   5.236   3.195   6.588
 2971SOL    HW2 9813   5.118   3.088   6.622
 2972SOL     OW 9814   0.010   5.426   6.408
 2972SOL    HW1 9815   6.934   5.407   6.385
 2972SOL    HW2 9816   0.035   5.377   6.491
 2973SOL     OW 9817   5.038   1.238   4.082
 2973SOL    HW1 9818   4.968   1.210   4.016
 2973SOL    HW2 9819   4.996   1.295   4.153
 2974SOL     OW 9820   4.536   6.981   2.481
 2974SOL    HW1 9821   4.612   6.947   2.536
 2974SOL    HW2 9822   4.552   0.058   2.459
 2975SOL     OW 9823   5.167   3.812   5.003
 2975SOL    HW1 9824   5.223   3.822   4.921
 2975SOL    HW2 9825   5.158   3.714   5.025
 2976SOL     OW 9826   3.748   0.935   1.914
 2976SOL    HW1 9827   3.789   0.888   1.992
 2976SOL    HW2 9828   3.814   0.941   1.840
 2977SOL     OW 9829   0.858   0.607   1.805
 2977SOL    HW1 9830   0.953   0.620   1.777
 2977SOL    HW2 9831   0.855   0.541   1.881
 2978SOL     OW 9832   4.326   5.199   6.792
 2978SOL    HW1 9833   4.292   5.129   6.856
 2978SOL    HW2 9834   4.260   5.210   6.717
 2979SOL     OW 9835   3.375   0.668   4.854
 2979SOL    HW1 9836   3.473   0.689   4.851
 2979SOL    HW2 9837   3.354   0.599   4.785
 2980SOL     OW 9838   2.878   3.434   4.338
 2980SOL    HW1 9839   2.779   3.426   4.352
 2980SOL    HW2 9840   2.916   3.343   4.320
 2981SOL     OW 9841   2.469   0.968   1.421
 2981SOL    HW1 9842   2.444   1.061   1.447
 2981SOL    HW2 9843   2.447   0.905   1.495
 2982SOL     OW 9844   1.744   0.933   1.217
 2982SOL    HW1 9845   1.816   0.937   1.147
 2982SOL    HW2 9846   1.766   0.995   1.291
 2983SOL     OW 9847   6.406   3.266   5.618
 2983SOL    HW1 9848   6.447   3.185   5.577
 2983SOL    HW2 9849   6.306   3.260   5.613
 2984SOL     OW 9850   0.459   5.722   1.481
 2984SOL    HW1 9851   0.501   5.690   1.395
 2984SOL    HW2 9852   0.369   5.680   1.491
 2985SOL     OW 9853   6.052   0.467   6.623
 2985SOL    HW1 9854   5.986   0.406   6.667
 2985SOL    HW2 9855   6.135   0.416   6.601
 2986SOL     OW 9856   3.584   3.498   2.086
 2986SOL    HW1 9857   3.611   3.576   2.142
 2986SOL    HW2 9858   3.666   3.453   2.049
 2987SOL     OW 9859   2.360   5.706   4.697
 2987SOL    HW1 9860   2.398   5.630   4.643
 2987SOL    HW2 9861   2.434   5.758   4.738
 2988SOL     OW 9862   6.917   1.817   6.140
 2988SOL    HW1 9863   6.961   1.798   6.052
 2988SOL    HW2 9864   6.862   1.899   6.132
 2989SOL     OW 9865   5.523   3.253   4.648
 2989SOL    HW1 9866   5.452   3.229   4.713
 2989SOL    HW2 9867   5.484   3.257   4.556
 2990SOL     OW 9868   5.361   2.132   4.744
 2990SOL    HW1 9869   5.461   2.134   4.748
 2990SOL    HW2 9870   5.323   2.167   4.830
 2991SOL     OW 9871   0.238   3.434   0.565
 2991SOL    HW1 9872   0.275   3.358   0.618
 2991SOL    HW2 9873   0.242   3.412   0.468
 2992SOL     OW 9874   0.461   4.014   4.547
 2992SOL    HW1 9875   0.386   4.077   4.530
 2992SOL    HW2 9876   0.450   3.973   4.638
 2993SOL     OW 9877   2.651   4.410   0.705
 2993SOL    HW1 9878   2.739   4.375   0.674
 2993SOL    HW2 9879   2.577   4.373   0.649
 2994SOL     OW 9880   3.377   5.767   5.110
 2994SOL    HW1 9881   3.296   5.825   5.119
 2994SOL    HW2 9882   3.432   5.798   5.033
 2995SOL     OW 9883   4.157   0.283   1.788
 2995SOL    HW1 9884   4.208   0.215   1.735
 2995SOL    HW2 9885   4.137   0.362   1.730
 2996SOL     OW 9886   6.822   1.254   3.946
 2996SOL    HW1 9887   6.815   1.271   3.848
 2996SOL    HW2 9888   6.730   1.241   3.984
 2997SOL     OW 9889   4.898   6.449   4.077
 2997SOL    HW1 9890   4.895   6.393   3.994
 2997SOL    HW2 9891   4.819   6.428   4.135
 2998SOL     OW 9892   2.879   0.920   1.600
 2998SOL    HW1 9893   2.969   0.915   1.644
 2998SOL    HW2 9894   2.818   0.853   1.641
 2999SOL     OW 9895   2.217   4.547   0.945
 2999SOL    HW1 9896   2.272   4.623   0.910
 2999SOL    HW2 9897   2.139   4.532   0.884
 3000SOL     OW 9898   2.632   4.068   5.334
 3000SOL    HW1 9899   2.673   4.158   5.317
 3000SOL    HW2 9900   2.561   4.050   5.266
 3001SOL     OW 9901   5.095   0.703   6.363
 3001SOL    HW1 9902   5.042   0.786   6.376
 3001SOL    HW2 9903   5.092   0.648   6.447
 3002SOL     OW 9904   1.604   1.930   1.819
 3002SOL    HW1 9905   1.623   1.959   1.726
 3002SOL    HW2 9906   1.563   1.839   1.818
 3003SOL     OW 9907   1.689   6.718   0.513
 3003SOL    HW1 9908   1.753   6.751   0.582
 3003SOL    HW2 9909   1.599   6.704   0.555
 3004SOL     OW 9910   2.603   6.896   3.189
 3004SOL    HW1 9911   2.582   6.837   3.267
 3004SOL    HW2 9912   2.581   6.848   3.104
 3005SOL     OW 9913   1.721   2.140   0.962
 3005SOL    HW1 9914   1.735   2.230   1.003
 3005SOL    HW2 9915   1.776   2.072   1.010
 3006SOL     OW 9916   5.256   1.398   5.981
 3006SOL    HW1 9917   5.241   1.350   6.067
 3006SOL    HW2 9918   5.215   1.348   5.906
 3007SOL     OW 9919   6.208   5.554   6.313
 3007SOL    HW1 9920   6.244   5.603   6.393
 3007SOL    HW2 9921   6.198   5.618   6.237
 3008SOL     OW 9922   4.540   3.573   5.645
 3008SOL    HW1 9923   4.517   3.663   5.607
 3008SOL    HW2 9924   4.615   3.534   5.593
 3009SOL     OW 9925   6.416   2.968   2.458
 3009SOL    HW1 9926   6.468   2.897   2.505
 3009SOL    HW2 9927   6.470   3.005   2.383
 3010SOL     OW 9928   4.353   5.380   2.095
 3010SOL    HW1 9929   4.312   5.440   2.026
 3010SOL    HW2 9930   4.408   5.310   2.051
 3011SOL     OW 9931   6.627   0.301   0.283
 3011SOL    HW1 9932   6.586   0.389   0.305
 3011SOL    HW2 9933   6.566   0.250   0.222
 3012SOL     OW 9934   2.271   1.638   4.808
 3012SOL    HW1 9935   2.277   1.732   4.775
 3012SOL    HW2 9936   2.226   1.581   4.739
 3013SOL     OW 9937   0.129   4.867   5.057
 3013SOL    HW1 9938   0.038   4.826   5.060
 3013SOL    HW2 9939   0.189   4.812   4.998
 3014SOL     OW 9940   4.859   6.999   6.607
 3014SOL    HW1 9941   4.764   6.972   6.618
 3014SOL    HW2 9942   4.900   7.016   6.696
 3015SOL     OW 9943   1.886   0.888   6.166
 3015SOL    HW1 9944   1.797   0.876   6.211
 3015SOL    HW2 9945   1.916   0.801   6.129
 3016SOL     OW 9946   2.165   6.738   4.019
 3016SOL    HW1 9947   2.208   6.661   4.066
 3016SOL    HW2 9948   2.188   6.823   4.066
 3017SOL     OW 9949   1.387   5.841   0.157
 3017SOL    HW1 9950   1.325   5.916   0.178
 3017SOL    HW2 9951   1.359   5.759   0.207
 3018SOL     OW 9952   3.802   1.297   1.816
 3018SOL    HW1 9953   3.719   1.352   1.830
 3018SOL    HW2 9954   3.826   1.252   1.902
 3019SOL     OW 9955   2.017   6.932   6.136
 3019SOL    HW1 9956   2.108   6.929   6.175
 3019SOL    HW2 9957   1.967   7.011   6.172
 3020SOL     OW 9958   5.750   5.050   6.880
 3020SOL    HW1 9959   5.757   5.148   6.901
 3020SOL    HW2 9960   5.841   5.014   6.859
 3021SOL     OW 9961   4.095   0.560   4.628
 3021SOL    HW1 9962   4.012   0.573   4.574
 3021SOL    HW2 9963   4.174   0.560   4.567
 3022SOL     OW 9964   4.410   6.074   3.230
 3022SOL    HW1 9965   4.353   6.109   3.156
 3022SOL    HW2 9966   4.500   6.050   3.194
 3023SOL     OW 9967   6.008   4.659   4.879
 3023SOL    HW1 9968   6.011   4.578   4.820
 3023SOL    HW2 9969   5.937   4.646   4.949
 3024SOL     OW 9970   0.016   0.683   0.411
 3024SOL    HW1 9971   7.017   0.625   0.331
 3024SOL    HW2 9972   6.955   0.683   0.471
 3025SOL     OW 9973   4.458   5.477   0.102
 3025SOL    HW1 9974   4.419   5.454   0.192
 3025SOL    HW2 9975   4.556   5.457   0.103
 3026SOL     OW 9976   0.373   0.545   1.922
 3026SOL    HW1 9977   0.277   0.525   1.901
 3026SOL    HW2 9978   0.428   0.533   1.840
 3027SOL     OW 9979   4.036   0.688   0.683
 3027SOL    HW1 9980   3.959   0.626   0.670
 3027SOL    HW2 9981   4.062   0.728   0.595
 3028SOL     OW 9982   2.918   3.637   5.143
 3028SOL    HW1 9983   2.953   3.714   5.091
 3028SOL    HW2 9984   2.933   3.552   5.092
 3029SOL     OW 9985   6.694   3.448   4.706
 3029SOL    HW1 9986   6.790   3.468   4.727
 3029SOL    HW2 9987   6.640   3.450   4.789
 3030SOL     OW 9988   2.170   2.365   6.731
 3030SOL    HW1 9989   2.163   2.378   6.830
 3030SOL    HW2 9990   2.113   2.433   6.684
 3031SOL     OW 9991   1.364   5.556   0.856
 3031SOL    HW1 9992   1.451   5.522   0.893
 3031SOL    HW2 9993   1.306   5.586   0.932
 3032SOL     OW 9994   2.347   6.616   3.182
 3032SOL    HW1 9995   2.413   6.648   3.250
 3032SOL    HW2 9996   2.262   6.666   3.191
 3033SOL     OW 9997   1.292   1.592   5.980
 3033SOL    HW1 9998   1.388   1.566   5.972
 3033SOL    HW2 9999   1.285   1.691   5.993
 3034SOL     OW10000   5.680   3.434   3.040
 3034SOL    HW110001   5.701   3.508   3.104
 3034SOL    HW210002   5.759   3.418   2.981
 3035SOL     OW10003   6.935   3.404   0.175
 3035SOL    HW110004   0.009   3.438   0.167
 3035SOL    HW210005   6.871   3.480   0.164
 3036SOL     OW10006   3.072   2.203   5.479
 3036SOL    HW110007   3.019   2.234   5.400
 3036SOL    HW210008   3.167   2.186   5.451
 3037SOL     OW10009   1.240   5.555   6.296
 3037SOL    HW110010   1.243   5.557   6.396
 3037SOL    HW210011   1.157   5.600   6.264
 3038SOL     OW10012   5.586   4.945   6.321
 3038SOL    HW110013   5.576   5.042   6.301
 3038SOL    HW210014   5.516   4.917   6.387
 3039SOL     OW10015   6.234   3.699   6.152
 3039SOL    HW110016   6.303   3.733   6.087
 3039SOL    HW210017   6.145   3.736   6.128
 3040SOL     OW10018   5.519   5.201   6.249
 3040SOL    HW110019   5.474   5.237   6.167
 3040SOL    HW210020   5.594   5.262   6.274
 3041SOL     OW10021   1.357   4.643   5.647
 3041SOL    HW110022   1.377   4.615   5.553
 3041SOL    HW210023   1.384   4.569   5.710
 3042SOL     OW10024   6.955   4.995   3.551
 3042SOL    HW110025   0.000   4.942   3.606
 3042SOL    HW210026   6.869   4.944   3.542
 3043SOL     OW10027   2.779   5.502   1.291
 3043SOL    HW110028   2.874   5.477   1.307
 3043SOL    HW210029   2.719   5.425   1.315
 3044SOL     OW10030   3.792   3.485   4.736
 3044SOL    HW110031   3.725   3.556   4.713
 3044SOL    HW210032   3.785   3.463   4.833
 3045SOL     OW10033   4.792   2.031   2.337
 3045SOL    HW110034   4.822   1.981   2.419
 3045SOL    HW210035   4.766   1.966   2.266
 3046SOL     OW10036   5.534   6.443   1.289
 3046SOL    HW110037   5.573   6.369   1.343
 3046SOL    HW210038   5.438   6.424   1.269
 3047SOL     OW10039   5.996   1.612   4.488
 3047SOL    HW110040   6.091   1.618   4.518
 3047SOL    HW210041   5.991   1.556   4.405
 3048SOL     OW10042   4.234   5.019   1.606
 3048SOL    HW110043   4.271   5.090   1.666
 3048SOL    HW210044   4.266   5.034   1.513
 3049SOL     OW10045   0.756   1.953   2.035
 3049SOL    HW110046   0.839   1.988   2.077
 3049SOL    HW210047   0.690   1.929   2.106
 3050SOL     OW10048   3.282   2.108   6.299
 3050SOL    HW110049   3.365   2.102   6.353
 3050SOL    HW210050   3.302   2.151   6.211
 3051SOL     OW10051   2.718   5.535   5.261
 3051SOL    HW110052   2.727   5.584   5.348
 3051SOL    HW210053   2.687   5.599   5.191
 3052SOL     OW10054   6.940   6.698   3.220
 3052SOL    HW110055   6.946   6.699   3.120
 3052SOL    HW210056   6.855   6.743   3.248
 3053SOL     OW10057   0.838   3.765   0.112
 3053SOL    HW110058   0.806   3.825   0.039
 3053SOL    HW210059   0.761   3.740   0.171
 3054SOL     OW10060   5.833   1.051   3.033
 3054SOL    HW110061   5.806   1.130   2.979
 3054SOL    HW210062   5.917   1.071   3.082
 3055SOL     OW10063   6.006   6.645   0.106
 3055SOL    HW110064   6.085   6.705   0.118
 3055SOL    HW210065   5.993   6.627   0.008
 3056SOL     OW10066   3.979   1.707   6.396
 3056SOL    HW110067   3.916   1.650   6.343
 3056SOL    HW210068   4.073   1.684   6.372
 3057SOL     OW10069   5.053   3.804   3.359
 3057SOL    HW110070   5.030   3.784   3.263
 3057SOL    HW210071   5.149   3.832   3.365
 3058SOL     OW10072   0.409   5.333   6.254
 3058SOL    HW110073   0.384   5.238   6.268
 3058SOL    HW210074   0.361   5.368   6.173
 3059SOL     OW10075   1.161   2.008   2.599
 3059SOL    HW110076   1.173   2.048   2.689
 3059SOL    HW210077   1.210   2.062   2.531
 3060SOL     OW10078   5.495   4.106   3.966
 3060SOL    HW110079   5.466   4.041   3.895
 3060SOL    HW210080   5.419   4.168   3.987
 3061SOL     OW10081   5.694   0.092   3.890
 3061SOL    HW110082   5.665   0.169   3.946
 3061SOL    HW210083   5.615   0.036   3.866
 3062SOL     OW10084   4.086   5.056   1.005
 3062SOL    HW110085   4.099   5.126   0.934
 3062SOL    HW210086   3.994   5.064   1.043
 3063SOL     OW10087   6.683   4.899   2.042
 3063SOL    HW110088   6.736   4.914   2.125
 3063SOL    HW210089   6.742   4.911   1.962
 3064SOL     OW10090   5.197   2.244   6.896
 3064SOL    HW110091   5.212   2.147   6.877
 3064SOL    HW210092   5.192   2.258   6.995
 3065SOL     OW10093   5.591   1.270   6.614
 3065SOL    HW110094   5.614   1.321   6.531
 3065SOL    HW210095   5.670   1.270   6.675
 3066SOL     OW10096   5.289   7.005   5.332
 3066SOL    HW110097   5.320   0.071   5.290
 3066SOL    HW210098   5.200   0.000   5.376
 3067SOL     OW10099   1.272   2.268   5.117
 3067SOL    HW110100   1.287   2.244   5.213
 3067SOL    HW210101   1.340   2.335   5.089
 3068SOL     OW10102   6.650   0.127   0.483
 3068SOL    HW110103   6.747   0.113   0.502
 3068SOL    HW210104   6.640   0.191   0.407
 3069SOL     OW10105   4.505   6.615   4.307
 3069SOL    HW110106   4.574   6.687   4.304
 3069SOL    HW210107   4.416   6.653   4.281
 3070SOL     OW10108   2.526   0.794   0.568
 3070SOL    HW110109   2.461   0.836   0.632
 3070SOL    HW210110   2.526   0.695   0.580
 3071SOL     OW10111   5.701   4.716   5.252
 3071SOL    HW110112   5.736   4.631   5.213
 3071SOL    HW210113   5.768   4.753   5.317
 3072SOL     OW10114   2.052   6.410   6.660
 3072SOL    HW110115   2.007   6.361   6.585
 3072SOL    HW210116   2.044   6.508   6.646
 3073SOL     OW10117   0.734   5.542   1.884
 3073SOL    HW110118   0.668   5.582   1.820
 3073SOL    HW210119   0.692   5.532   1.974
 3074SOL     OW10120   3.420   2.922   1.601
 3074SOL    HW110121   3.517   2.909   1.618
 3074SOL    HW210122   3.369   2.907   1.686
 3075SOL     OW10123   3.961   4.909   1.415
 3075SOL    HW110124   3.985   4.872   1.325
 3075SOL    HW210125   3.868   4.882   1.439
 3076SOL     OW10126   0.897   0.794   4.826
 3076SOL    HW110127   0.955   0.722   4.788
 3076SOL    HW210128   0.907   0.877   4.771
 3077SOL     OW10129   6.937   3.679   1.719
 3077SOL    HW110130   0.017   3.675   1.708
 3077SOL    HW210131   6.906   3.601   1.774
 3078SOL     OW10132   0.532   3.408   1.730
 3078SOL    HW110133   0.608   3.438   1.788
 3078SOL    HW210134   0.458   3.373   1.787
 3079SOL     OW10135   2.027   3.741   5.102
 3079SOL    HW110136   2.017   3.715   5.006
 3079SOL    HW210137   2.043   3.839   5.109
 3080SOL     OW10138   4.308   4.937   0.907
 3080SOL    HW110139   4.213   4.954   0.935
 3080SOL    HW210140   4.346   4.862   0.962
 3081SOL     OW10141   1.699   3.566   0.073
 3081SOL    HW110142   1.671   3.629   7.019
 3081SOL    HW210143   1.623   3.555   0.138
 3082SOL     OW10144   5.296   4.858   5.282
 3082SOL    HW110145   5.273   4.863   5.380
 3082SOL    HW210146   5.247   4.781   5.241
 3083SOL     OW10147   3.576   5.525   1.627
 3083SOL    HW110148   3.605   5.617   1.601
 3083SOL    HW210149   3.482   5.510   1.597
 3084SOL     OW10150   0.027   4.684   3.566
 3084SOL    HW110151   0.066   4.653   3.479
 3084SOL    HW210152   0.088   4.753   3.606
 3085SOL     OW10153   6.106   5.628   0.251
 3085SOL    HW110154   6.099   5.546   0.308
 3085SOL    HW210155   6.172   5.612   0.178
 3086SOL     OW10156   6.349   6.172   6.372
 3086SOL    HW110157   6.396   6.159   6.459
 3086SOL    HW210158   6.399   6.239   6.317
 3087SOL     OW10159   4.002   0.053   2.606
 3087SOL    HW110160   4.063   0.011   2.673
 3087SOL    HW210161   4.053   0.070   2.521
 3088SOL     OW10162   2.178   3.715   5.586
 3088SOL    HW110163   2.083   3.737   5.564
 3088SOL    HW210164   2.188   3.616   5.598
 3089SOL     OW10165   4.432   4.721   6.062
 3089SOL    HW110166   4.520   4.751   6.028
 3089SOL    HW210167   4.434   4.715   6.162
 3090SOL     OW10168   0.822   2.961   2.313
 3090SOL    HW110169   0.865   2.915   2.391
 3090SOL    HW210170   0.880   2.952   2.232
 3091SOL     OW10171   0.762   2.672   1.302
 3091SOL    HW110172   0.776   2.748   1.366
 3091SOL    HW210173   0.673   2.680   1.259
 3092SOL     OW10174   5.937   1.273   2.145
 3092SOL    HW110175   5.886   1.320   2.073
 3092SOL    HW210176   6.030   1.254   2.115
 3093SOL     OW10177   6.624   5.623   6.661
 3093SOL    HW110178   6.636   5.641   6.758
 3093SOL    HW210179   6.633   5.525   6.644
 3094SOL     OW10180   2.401   1.148   6.651
 3094SOL    HW110181   2.491   1.189   6.662
 3094SOL    HW210182   2.385   1.126   6.555
 3095SOL     OW10183   1.611   4.206   5.563
 3095SOL    HW110184   1.638   4.260   5.483
 3095SOL    HW210185   1.677   4.133   5.578
 3096SOL     OW10186   1.559   3.043   4.360
 3096SOL    HW110187   1.484   2.998   4.410
 3096SOL    HW210188   1.599   2.979   4.295
 3097SOL     OW10189   5.394   3.001   5.016
 3097SOL    HW110190   5.295   3.007   5.017
 3097SOL    HW210191   5.433   3.076   5.070
 3098SOL     OW10192   2.221   2.968   3.395
 3098SOL    HW110193   2.282   2.895   3.428
 3098SOL    HW210194   2.204   3.032   3.470
 3099SOL     OW10195   0.390   6.750   4.750
 3099SOL    HW110196   0.316   6.758   4.683
 3099SOL    HW210197   0.363   6.796   4.835
 3100SOL     OW10198   5.694   4.602   1.889
 3100SOL    HW110199   5.733   4.665   1.821
 3100SOL    HW210200   5.642   4.531   1.842
 3101SOL     OW10201   4.648   0.042   5.370
 3101SOL    HW110202   4.564   7.013   5.394
 3101SOL    HW210203   4.677   0.015   5.278
 3102SOL     OW10204   6.422   4.590   2.234
 3102SOL    HW110205   6.337   4.554   2.273
 3102SOL    HW210206   6.489   4.602   2.307
 3103SOL     OW10207   2.897   1.794   1.343
 3103SOL    HW110208   2.851   1.831   1.423
 3103SOL    HW210209   2.908   1.696   1.352
 3104SOL     OW10210   5.508   2.430   4.929
 3104SOL    HW110211   5.488   2.516   4.976
 3104SOL    HW210212   5.429   2.369   4.937
 3105SOL     OW10213   5.795   3.858   0.516
 3105SOL    HW110214   5.790   3.772   0.464
 3105SOL    HW210215   5.702   3.891   0.534
 3106SOL     OW10216   5.244   1.632   5.701
 3106SOL    HW110217   5.201   1.543   5.719
 3106SOL    HW210218   5.207   1.700   5.763
 3107SOL     OW10219   3.173   1.837   5.282
 3107SOL    HW110220   3.151   1.919   5.228
 3107SOL    HW210221   3.122   1.759   5.247
 3108SOL     OW10222   2.272   4.157   3.321
 3108SOL    HW110223   2.265   4.073   3.266
 3108SOL    HW210224   2.181   4.179   3.358
 3109SOL     OW10225   6.767   6.374   3.622
 3109SOL    HW110226   6.760   6.313   3.543
 3109SOL    HW210227   6.850   6.429   3.615
 3110SOL     OW10228   0.955   5.758   3.223
 3110SOL    HW110229   1.049   5.736   3.249
 3110SOL    HW210230   0.944   5.858   3.216
 3111SOL     OW10231   6.007   4.111   3.902
 3111SOL    HW110232   6.093   4.114   3.851
 3111SOL    HW210233   5.966   4.202   3.903
 3112SOL     OW10234   3.512   1.273   6.775
 3112SOL    HW110235   3.451   1.195   6.790
 3112SOL    HW210236   3.516   1.294   6.677
 3113SOL     OW10237   1.397   6.242   2.811
 3113SOL    HW110238   1.425   6.310   2.743
 3113SOL    HW210239   1.463   6.241   2.886
 3114SOL     OW10240   4.626   0.737   6.051
 3114SOL    HW110241   4.530   0.747   6.024
 3114SOL    HW210242   4.631   0.702   6.145
 3115SOL     OW10243   4.942   5.716   5.598
 3115SOL    HW110244   4.869   5.726   5.530
 3115SOL    HW210245   5.025   5.760   5.565
 3116SOL     OW10246   0.894   0.671   6.301
 3116SOL    HW110247   0.806   0.627   6.284
 3116SOL    HW210248   0.917   0.664   6.398
 3117SOL     OW10249   4.584   0.295   0.133
 3117SOL    HW110250   4.496   0.335   0.157
 3117SOL    HW210251   4.622   0.248   0.212
 3118SOL     OW10252   1.455   1.489   3.394
 3118SOL    HW110253   1.539   1.526   3.354
 3118SOL    HW210254   1.394   1.564   3.420
 3119SOL     OW10255   4.756   5.953   4.850
 3119SOL    HW110256   4.777   5.990   4.941
 3119SOL    HW210257   4.726   6.027   4.790
 3120SOL     OW10258   2.094   5.609   6.522
 3120SOL    HW110259   2.115   5.613   6.424
 3120SOL    HW210260   2.177   5.628   6.575
 3121SOL     OW10261   3.917   1.896   4.723
 3121SOL    HW110262   3.959   1.965   4.782
 3121SOL    HW210263   3.831   1.931   4.686
 3122SOL     OW10264   5.556   4.843   5.497
 3122SOL    HW110265   5.533   4.929   5.450
 3122SOL    HW210266   5.570   4.771   5.429
 3123SOL     OW10267   1.733   1.396   2.757
 3123SOL    HW110268   1.799   1.455   2.804
 3123SOL    HW210269   1.772   1.305   2.745
 3124SOL     OW10270   4.752   0.249   4.535
 3124SOL    HW110271   4.774   0.325   4.474
 3124SOL    HW210272   4.797   0.263   4.624
 3125SOL     OW10273   1.987   1.510   5.208
 3125SOL    HW110274   2.048   1.585   5.181
 3125SOL    HW210275   1.915   1.546   5.267
 3126SOL     OW10276   4.865   4.635   5.802
 3126SOL    HW110277   4.888   4.570   5.730
 3126SOL    HW210278   4.921   4.718   5.792
 3127SOL     OW10279   0.200   1.138   5.467
 3127SOL    HW110280   0.239   1.226   5.495
 3127SOL    HW210281   0.198   1.076   5.545
 3128SOL     OW10282   3.649   0.739   0.832
 3128SOL    HW110283   3.718   0.706   0.767
 3128SOL    HW210284   3.572   0.778   0.782
 3129SOL     OW10285   3.924   3.772   0.231
 3129SOL    HW110286   3.895   3.732   0.318
 3129SOL    HW210287   3.848   3.821   0.189
 3130SOL     OW10288   6.707   5.366   2.073
 3130SOL    HW110289   6.671   5.282   2.114
 3130SOL    HW210290   6.790   5.393   2.121
 3131SOL     OW10291   6.184   4.443   2.868
 3131SOL    HW110292   6.237   4.461   2.785
 3131SOL    HW210293   6.246   4.427   2.945
 3132SOL     OW10294   4.466   4.095   0.248
 3132SOL    HW110295   4.403   4.145   0.307
 3132SOL    HW210296   4.489   4.151   0.169
 3133SOL     OW10297   4.666   6.853   4.255
 3133SOL    HW110298   4.671   6.896   4.165
 3133SOL    HW210299   4.659   6.924   4.325
 3134SOL     OW10300   6.570   5.185   2.782
 3134SOL    HW110301   6.569   5.284   2.770
 3134SOL    HW210302   6.650   5.147   2.735
 3135SOL     OW10303   3.925   4.862   6.806
 3135SOL    HW110304   3.931   4.962   6.810
 3135SOL    HW210305   4.017   4.823   6.816
 3136SOL     OW10306   6.114   0.602   3.536
 3136SOL    HW110307   6.101   0.693   3.497
 3136SOL    HW210308   6.025   0.561   3.557
 3137SOL     OW10309   5.690   6.306   0.126
 3137SOL    HW110310   5.744   6.373   0.176
 3137SOL    HW210311   5.701   6.216   0.170
 3138SOL     OW10312   6.369   6.559   4.641
 3138SOL    HW110313   6.369   6.537   4.543
 3138SOL    HW210314   6.296   6.508   4.686
 3139SOL     OW10315   2.628   5.147   1.725
 3139SOL    HW110316   2.726   5.170   1.728
 3139SOL    HW210317   2.578   5.211   1.783
 3140SOL     OW10318   0.610   6.543   0.170
 3140SOL    HW110319   0.539   6.522   0.103
 3140SOL    HW210320   0.668   6.463   0.185
 3141SOL     OW10321   5.894   2.256   6.558
 3141SOL    HW110322   5.829   2.260   6.635
 3141SOL    HW210323   5.860   2.312   6.483
 3142SOL     OW10324   4.246   0.472   3.719
 3142SOL    HW110325   4.344   0.450   3.720
 3142SOL    HW210326   4.233   0.565   3.686
 3143SOL     OW10327   6.178   1.137   0.556
 3143SOL    HW110328   6.266   1.094   0.576
 3143SOL    HW210329   6.155   1.201   0.629
 3144SOL     OW10330   4.046   4.197   0.438
 3144SOL    HW110331   4.075   4.120   0.381
 3144SOL    HW210332   3.947   4.192   0.453
 3145SOL     OW10333   0.496   5.936   0.159
 3145SOL    HW110334   0.453   6.025   0.172
 3145SOL    HW210335   0.468   5.874   0.232
 3146SOL     OW10336   6.272   1.642   4.607
 3146SOL    HW110337   6.247   1.703   4.682
 3146SOL    HW210338   6.351   1.587   4.633
 3147SOL     OW10339   3.802   6.323   0.218
 3147SOL    HW110340   3.901   6.322   0.207
 3147SOL    HW210341   3.771   6.237   0.257
 3148SOL     OW10342   0.068   5.161   1.481
 3148SOL    HW110343   0.045   5.250   1.521
 3148SOL    HW210344   0.130   5.174   1.403
 3149SOL     OW10345   3.266   2.511   0.003
 3149SOL    HW110346   3.363   2.486   7.013
 3149SOL    HW210347   3.212   2.459   6.956
 3150SOL     OW10348   6.780   6.139   5.699
 3150SOL    HW110349   6.813   6.211   5.760
 3150SOL    HW210350   6.698   6.171   5.652
 3151SOL     OW10351   0.141   0.704   5.281
 3151SOL    HW110352   0.235   0.694   5.311
 3151SOL    HW210353   0.131   0.668   5.188
 3152SOL     OW10354   1.603   3.175   5.728
 3152SOL    HW110355   1.557   3.111   5.789
 3152SOL    HW210356   1.599   3.267   5.767
 3153SOL     OW10357   5.888   5.212   2.006
 3153SOL    HW110358   5.923   5.133   2.056
 3153SOL    HW210359   5.916   5.207   1.910
 3154SOL     OW10360   4.035   0.989   0.160
 3154SOL    HW110361   4.025   0.940   0.073
 3154SOL    HW210362   3.950   0.984   0.212
 3155SOL     OW10363   0.595   4.909   0.184
 3155SOL    HW110364   0.670   4.949   0.129
 3155SOL    HW210365   0.511   4.910   0.130
 3156SOL     OW10366   3.639   4.180   1.593
 3156SOL    HW110367   3.689   4.108   1.546
 3156SOL    HW210368   3.563   4.141   1.644
 3157SOL     OW10369   1.011   0.885   5.079
 3157SOL    HW110370   1.102   0.845   5.076
 3157SOL    HW210371   0.961   0.860   4.996
 3158SOL     OW10372   1.681   1.273   5.560
 3158SOL    HW110373   1.707   1.354   5.612
 3158SOL    HW210374   1.588   1.285   5.524
 3159SOL     OW10375   5.396   0.177   7.007
 3159SOL    HW110376   5.369   0.245   6.939
 3159SOL    HW210377   5.376   0.085   6.973
 3160SOL     OW10378   1.991   0.464   5.887
 3160SOL    HW110379   2.047   0.382   5.880
 3160SOL    HW210380   2.023   0.532   5.821
 3161SOL     OW10381   1.851   2.634   2.417
 3161SOL    HW110382   1.832   2.601   2.325
 3161SOL    HW210383   1.913   2.713   2.413
 3162SOL     OW10384   1.516   5.633   1.343
 3162SOL    HW110385   1.537   5.695   1.267
 3162SOL    HW210386   1.489   5.544   1.307
 3163SOL     OW10387   4.392   4.541   0.881
 3163SOL    HW110388   4.426   4.590   0.962
 3163SOL    HW210389   4.449   4.461   0.864
 3164SOL     OW10390   2.617   6.377   3.604
 3164SOL    HW110391   2.588   6.296   3.656
 3164SOL    HW210392   2.712   6.398   3.625
 3165SOL     OW10393   1.273   6.079   6.052
 3165SOL    HW110394   1.253   6.054   5.958
 3165SOL    HW210395   1.273   6.179   6.061
 3166SOL     OW10396   4.929   1.195   5.119
 3166SOL    HW110397   4.860   1.124   5.139
 3166SOL    HW210398   4.938   1.205   5.020
 3167SOL     OW10399   5.800   3.277   1.109
 3167SOL    HW110400   5.749   3.343   1.054
 3167SOL    HW210401   5.754   3.265   1.197
 3168SOL     OW10402   4.499   1.579   0.363
 3168SOL    HW110403   4.421   1.627   0.404
 3168SOL    HW210404   4.562   1.645   0.323
 3169SOL     OW10405   1.895   4.190   1.824
 3169SOL    HW110406   1.836   4.139   1.887
 3169SOL    HW210407   1.949   4.126   1.770
 3170SOL     OW10408   1.947   3.665   3.628
 3170SOL    HW110409   2.023   3.730   3.621
 3170SOL    HW210410   1.861   3.714   3.617
 3171SOL     OW10411   5.368   1.880   3.975
 3171SOL    HW110412   5.402   1.957   4.029
 3171SOL    HW210413   5.297   1.832   4.025
 3172SOL     OW10414   5.730   4.277   1.498
 3172SOL    HW110415   5.649   4.273   1.557
 3172SOL    HW210416   5.702   4.279   1.402
 3173SOL     OW10417   4.687   2.832   0.601
 3173SOL    HW110418   4.700   2.741   0.560
 3173SOL    HW210419   4.772   2.860   0.646
 3174SOL     OW10420   3.164   2.918   6.435
 3174SOL    HW110421   3.077   2.869   6.437
 3174SOL    HW210422   3.239   2.853   6.446
 3175SOL     OW10423   5.659   0.340   5.974
 3175SOL    HW110424   5.600   0.421   5.982
 3175SOL    HW210425   5.650   0.300   5.883
 3176SOL     OW10426   0.142   4.894   3.703
 3176SOL    HW110427   0.220   4.952   3.677
 3176SOL    HW210428   0.135   4.891   3.802
 3177SOL     OW10429   5.705   3.531   3.371
 3177SOL    HW110430   5.663   3.451   3.328
 3177SOL    HW210431   5.664   3.545   3.461
 3178SOL     OW10432   0.313   1.017   2.296
 3178SOL    HW110433   0.266   0.974   2.219
 3178SOL    HW210434   0.283   1.111   2.306
 3179SOL     OW10435   1.102   2.663   2.085
 3179SOL    HW110436   1.197   2.694   2.079
 3179SOL    HW210437   1.041   2.742   2.074
 3180SOL     OW10438   0.441   5.806   0.396
 3180SOL    HW110439   0.488   5.843   0.476
 3180SOL    HW210440   0.477   5.715   0.376
 3181SOL     OW10441   1.490   6.456   5.228
 3181SOL    HW110442   1.443   6.401   5.296
 3181SOL    HW210443   1.486   6.553   5.254
 3182SOL     OW10444   2.408   0.979   0.795
 3182SOL    HW110445   2.426   0.914   0.869
 3182SOL    HW210446   2.313   0.971   0.766
 3183SOL     OW10447   3.891   3.329   1.332
 3183SOL    HW110448   3.856   3.270   1.259
 3183SOL    HW210449   3.944   3.274   1.397
 3184SOL     OW10450   6.787   1.808   4.619
 3184SOL    HW110451   6.810   1.740   4.688
 3184SOL    HW210452   6.871   1.839   4.574
 3185SOL     OW10453   0.446   5.875   6.374
 3185SOL    HW110454   0.486   5.959   6.411
 3185SOL    HW210455   0.505   5.797   6.398
 3186SOL     OW10456   0.285   2.254   6.543
 3186SOL    HW110457   0.249   2.348   6.535
 3186SOL    HW210458   0.295   2.215   6.452
 3187SOL     OW10459   4.959   6.159   2.779
 3187SOL    HW110460   5.014   6.101   2.719
 3187SOL    HW210461   5.012   6.240   2.804
 3188SOL     OW10462   2.090   5.592   0.096
 3188SOL    HW110463   2.008   5.647   0.082
 3188SOL    HW210464   2.150   5.638   0.161
 3189SOL     OW10465   3.105   1.520   5.769
 3189SOL    HW110466   3.128   1.607   5.813
 3189SOL    HW210467   3.113   1.446   5.835
 3190SOL     OW10468   5.758   5.932   4.218
 3190SOL    HW110469   5.808   5.875   4.152
 3190SOL    HW210470   5.775   5.899   4.311
 3191SOL     OW10471   3.349   5.619   1.001
 3191SOL    HW110472   3.430   5.612   0.943
 3191SOL    HW210473   3.301   5.704   0.980
 3192SOL     OW10474   5.433   1.505   2.659
 3192SOL    HW110475   5.463   1.486   2.565
 3192SOL    HW210476   5.379   1.428   2.693
 3193SOL     OW10477   3.405   0.113   4.648
 3193SOL    HW110478   3.394   0.036   4.711
 3193SOL    HW210479   3.489   0.162   4.670
 3194SOL     OW10480   2.037   0.060   6.689
 3194SOL    HW110481   2.058   0.017   6.777
 3194SOL    HW210482   2.121   0.095   6.648
 3195SOL     OW10483   0.889   1.353   1.127
 3195SOL    HW110484   0.979   1.351   1.171
 3195SOL    HW210485   0.822   1.307   1.185
 3196SOL     OW10486   5.670   6.825   3.584
 3196SOL    HW110487   5.627   6.860   3.667
 3196SOL    HW210488   5.604   6.769   3.534
 3197SOL     OW10489   2.554   0.737   6.373
 3197SOL    HW110490   2.600   0.705   6.456
 3197SOL    HW210491   2.619   0.740   6.298
 3198SOL     OW10492   5.402   2.818   3.674
 3198SOL    HW110493   5.470   2.867   3.729
 3198SOL    HW210494   5.417   2.719   3.683
 3199SOL     OW10495   5.198   4.049   2.977
 3199SOL    HW110496   5.106   4.051   3.017
 3199SOL    HW210497   5.191   4.067   2.878
 3200SOL     OW10498   5.318   3.747   3.894
 3200SOL    HW110499   5.332   3.764   3.991
 3200SOL    HW210500   5.252   3.812   3.857
 3201SOL     OW10501   6.308   4.227   2.418
 3201SOL    HW110502   6.405   4.250   2.423
 3201SOL    HW210503   6.270   4.263   2.333
 3202SOL     OW10504   2.413   3.327   6.874
 3202SOL    HW110505   2.502   3.342   6.831
 3202SOL    HW210506   2.422   3.339   6.973
 3203SOL     OW10507   3.643   6.758   1.253
 3203SOL    HW110508   3.615   6.830   1.316
 3203SOL    HW210509   3.741   6.767   1.234
 3204SOL     OW10510   3.444   1.445   3.921
 3204SOL    HW110511   3.389   1.398   3.851
 3204SOL    HW210512   3.419   1.411   4.011
 3205SOL     OW10513   5.046   3.498   6.027
 3205SOL    HW110514   5.078   3.407   6.001
 3205SOL    HW210515   5.106   3.536   6.098
 3206SOL     OW10516   2.961   3.698   1.060
 3206SOL    HW110517   2.885   3.703   1.126
 3206SOL    HW210518   2.986   3.602   1.046
 3207SOL     OW10519   2.502   5.174   5.108
 3207SOL    HW110520   2.572   5.119   5.154
 3207SOL    HW210521   2.412   5.136   5.126
 3208SOL     OW10522   6.624   4.733   6.191
 3208SOL    HW110523   6.707   4.708   6.140
 3208SOL    HW210524   6.639   4.716   6.289
 3209SOL     OW10525   5.232   5.532   6.242
 3209SOL    HW110526   5.240   5.629   6.217
 3209SOL    HW210527   5.275   5.516   6.331
 3210SOL     OW10528   5.926   6.000   1.693
 3210SOL    HW110529   5.962   5.967   1.780
 3210SOL    HW210530   5.827   6.006   1.698
 3211SOL     OW10531   1.715   5.831   6.476
 3211SOL    HW110532   1.735   5.927   6.453
 3211SOL    HW210533   1.644   5.796   6.416
 3212SOL     OW10534   2.134   0.408   3.200
 3212SOL    HW110535   2.039   0.421   3.227
 3212SOL    HW210536   2.142   0.412   3.100
 3213SOL     OW10537   1.147   6.949   6.139
 3213SOL    HW110538   1.208   6.926   6.063
 3213SOL    HW210539   1.089   0.007   6.113
 3214SOL     OW10540   3.422   0.966   2.796
 3214SOL    HW110541   3.444   0.951   2.700
 3214SOL    HW210542   3.337   0.920   2.819
 3215SOL     OW10543   1.869   3.198   1.925
 3215SOL    HW110544   1.966   3.198   1.947
 3215SOL    HW210545   1.849   3.124   1.860
 3216SOL     OW10546   6.031   5.095   1.263
 3216SOL    HW110547   6.035   5.145   1.177
 3216SOL    HW210548   5.948   5.039   1.265
 3217SOL     OW10549   6.970   6.221   2.209
 3217SOL    HW110550   6.961   6.163   2.128
 3217SOL    HW210551   6.923   6.307   2.193
 3218SOL     OW10552   5.183   1.191   3.237
 3218SOL    HW110553   5.275   1.160   3.213
 3218SOL    HW210554   5.138   1.230   3.157
 3219SOL     OW10555   6.214   1.521   5.283
 3219SOL    HW110556   6.123   1.488   5.307
 3219SOL    HW210557   6.213   1.620   5.273
 3220SOL     OW10558   0.230   4.428   5.828
 3220SOL    HW110559   0.143   4.411   5.782
 3220SOL    HW210560   0.277   4.504   5.782
 3221SOL     OW10561   3.384   1.497   1.755
 3221SOL    HW110562   3.381   1.531   1.849
 3221SOL    HW210563   3.325   1.553   1.697
 3222SOL     OW10564   3.222   1.497   3.544
 3222SOL    HW110565   3.218   1.479   3.446
 3222SOL    HW210566   3.283   1.574   3.562
 3223SOL     OW10567   1.703   5.626   0.271
 3223SOL    HW110568   1.760   5.659   0.196
 3223SOL    HW210569   1.641   5.698   0.301
 3224SOL     OW10570   3.866   1.908   3.804
 3224SOL    HW110571   3.923   1.848   3.748
 3224SOL    HW210572   3.769   1.887   3.788
 3225SOL     OW10573   3.887   1.301   3.975
 3225SOL    HW110574   3.958   1.237   4.004
 3225SOL    HW210575   3.869   1.367   4.048
 3226SOL     OW10576   5.988   0.475   0.306
 3226SOL    HW110577   6.004   0.514   0.216
 3226SOL    HW210578   6.056   0.404   0.325
 3227SOL     OW10579   5.478   4.604   4.975
 3227SOL    HW110580   5.492   4.619   4.877
 3227SOL    HW210581   5.470   4.693   5.021
 3228SOL     OW10582   2.324   4.297   0.161
 3228SOL    HW110583   2.322   4.376   0.099
 3228SOL    HW210584   2.403   4.304   0.222
 3229SOL     OW10585   1.792   2.244   0.186
 3229SOL    HW110586   1.716   2.264   0.247
 3229SOL    HW210587   1.762   2.252   0.091
 3230SOL     OW10588   2.969   6.307   5.404
 3230SOL    HW110589   3.039   6.300   5.333
 3230SOL    HW210590   2.957   6.218   5.448
 3231SOL     OW10591   1.799   1.902   2.832
 3231SOL    HW110592   1.826   1.853   2.749
 3231SOL    HW210593   1.879   1.947   2.872
 3232SOL     OW10594   3.476   5.231   3.792
 3232SOL    HW110595   3.500   5.171   3.716
 3232SOL    HW210596   3.377   5.229   3.806
 3233SOL     OW10597   0.902   1.261   0.359
 3233SOL    HW110598   0.907   1.179   0.416
 3233SOL    HW210599   0.994   1.296   0.342
 3234SOL     OW10600   3.025   2.627   0.951
 3234SOL    HW110601   3.017   2.571   0.868
 3234SOL    HW210602   3.120   2.654   0.963
 3235SOL     OW10603   1.056   0.128   2.913
 3235SOL    HW110604   1.147   0.096   2.939
 3235SOL    HW210605   1.061   0.177   2.826
 3236SOL     OW10606   3.923   1.432   0.156
 3236SOL    HW110607   3.830   1.414   0.188
 3236SOL    HW210608   3.920   1.488   0.073
 3237SOL     OW10609   5.736   2.157   5.621
 3237SOL    HW110610   5.774   2.065   5.612
 3237SOL    HW210611   5.638   2.154   5.601
 3238SOL     OW10612   6.718   4.673   1.503
 3238SOL    HW110613   6.647   4.696   1.570
 3238SOL    HW210614   6.808   4.690   1.542
 3239SOL     OW10615   6.740   0.007   4.662
 3239SOL    HW110616   6.643   7.002   4.661
 3239SOL    HW210617   6.783   6.987   4.743
 3240SOL     OW10618   6.973   0.508   0.184
 3240SOL    HW110619   0.038   0.556   0.161
 3240SOL    HW210620   6.922   0.487   0.100
 3241SOL     OW10621   6.090   2.831   5.947
 3241SOL    HW110622   6.052   2.904   6.003
 3241SOL    HW210623   6.057   2.743   5.981
 3242SOL     OW10624   6.094   3.966   4.647
 3242SOL    HW110625   6.123   3.898   4.579
 3242SOL    HW210626   6.097   4.057   4.606
 3243SOL     OW10627   5.760   4.520   4.425
 3243SOL    HW110628   5.841   4.552   4.376
 3243SOL    HW210629   5.767   4.422   4.441
 3244SOL     OW10630   5.107   0.093   6.930
 3244SOL    HW110631   5.166   0.128   6.858
 3244SOL    HW210632   5.059   0.011   6.897
 3245SOL     OW10633   3.760   0.191   5.462
 3245SOL    HW110634   3.817   0.116   5.495
 3245SOL    HW210635   3.796   0.225   5.375
 3246SOL     OW10636   0.156   0.589   2.915
 3246SOL    HW110637   0.140   0.662   2.849
 3246SOL    HW210638   0.190   0.508   2.868
 3247SOL     OW10639   0.506   4.108   3.504
 3247SOL    HW110640   0.596   4.151   3.493
 3247SOL    HW210641   0.518   4.011   3.526
 3248SOL     OW10642   5.299   2.313   3.456
 3248SOL    HW110643   5.345   2.322   3.544
 3248SOL    HW210644   5.218   2.255   3.466
 3249SOL     OW10645   3.310   4.129   3.438
 3249SOL    HW110646   3.249   4.181   3.498
 3249SOL    HW210647   3.399   4.118   3.483
 3250SOL     OW10648   4.869   5.450   2.446
 3250SOL    HW110649   4.833   5.424   2.356
 3250SOL    HW210650   4.847   5.546   2.464
 3251SOL     OW10651   2.442   1.843   2.856
 3251SOL    HW110652   2.397   1.915   2.803
 3251SOL    HW210653   2.536   1.833   2.825
 3252SOL     OW10654   1.748   0.613   2.939
 3252SOL    HW110655   1.808   0.536   2.917
 3252SOL    HW210656   1.658   0.599   2.896
 3253SOL     OW10657   6.498   3.791   0.533
 3253SOL    HW110658   6.420   3.851   0.519
 3253SOL    HW210659   6.503   3.724   0.458
 3254SOL     OW10660   5.756   0.020   1.011
 3254SOL    HW110661   5.706   0.106   1.015
 3254SOL    HW210662   5.777   7.018   0.915
 3255SOL     OW10663   4.997   6.222   1.345
 3255SOL    HW110664   4.924   6.266   1.397
 3255SOL    HW210665   4.991   6.250   1.249
 3256SOL     OW10666   4.835   2.588   1.534
 3256SOL    HW110667   4.762   2.647   1.500
 3256SOL    HW210668   4.920   2.609   1.485
 3257SOL     OW10669   2.740   1.792   3.165
 3257SOL    HW110670   2.706   1.713   3.114
 3257SOL    HW210671   2.748   1.870   3.104
 3258SOL     OW10672   2.346   5.314   3.923
 3258SOL    HW110673   2.353   5.252   3.845
 3258SOL    HW210674   2.325   5.406   3.890
 3259SOL     OW10675   5.053   4.189   3.806
 3259SOL    HW110676   5.105   4.107   3.781
 3259SOL    HW210677   5.056   4.254   3.730
 3260SOL     OW10678   1.182   4.376   2.984
 3260SOL    HW110679   1.198   4.402   2.889
 3260SOL    HW210680   1.105   4.312   2.989
 3261SOL     OW10681   4.849   0.396   3.767
 3261SOL    HW110682   4.845   0.486   3.725
 3261SOL    HW210683   4.812   0.327   3.704
 3262SOL     OW10684   2.966   1.809   3.591
 3262SOL    HW110685   3.015   1.896   3.602
 3262SOL    HW210686   2.893   1.803   3.658
 3263SOL     OW10687   0.033   1.064   2.509
 3263SOL    HW110688   0.059   1.128   2.437
 3263SOL    HW210689   0.110   1.052   2.572
 3264SOL     OW10690   1.422   4.819   6.401
 3264SOL    HW110691   1.338   4.766   6.400
 3264SOL    HW210692   1.472   4.805   6.315
 3265SOL     OW10693   6.540   5.368   6.237
 3265SOL    HW110694   6.549   5.462   6.268
 3265SOL    HW210695   6.451   5.357   6.192
 3266SOL     OW10696   3.239   5.226   6.394
 3266SOL    HW110697   3.211   5.297   6.458
 3266SOL    HW210698   3.174   5.150   6.399
 3267SOL     OW10699   3.555   0.081   0.245
 3267SOL    HW110700   3.598   7.011   0.247
 3267SOL    HW210701   3.462   0.074   0.282
 3268SOL     OW10702   6.217   5.329   1.987
 3268SOL    HW110703   6.118   5.341   1.995
 3268SOL    HW210704   6.263   5.393   2.048
 3269SOL     OW10705   1.737   4.680   1.312
 3269SOL    HW110706   1.695   4.756   1.262
 3269SOL    HW210707   1.769   4.713   1.401
 3270SOL     OW10708   0.630   2.759   5.520
 3270SOL    HW110709   0.712   2.777   5.467
 3270SOL    HW210710   0.551   2.753   5.458
 3271SOL     OW10711   1.138   3.138   2.051
 3271SOL    HW110712   1.214   3.124   2.115
 3271SOL    HW210713   1.114   3.235   2.050
 3272SOL     OW10714   4.421   6.483   1.203
 3272SOL    HW110715   4.325   6.476   1.231
 3272SOL    HW210716   4.455   6.575   1.222
 3273SOL     OW10717   4.508   3.132   6.038
 3273SOL    HW110718   4.528   3.194   6.114
 3273SOL    HW210719   4.591   3.081   6.014
 3274SOL     OW10720   5.542   0.297   1.961
 3274SOL    HW110721   5.497   0.386   1.958
 3274SOL    HW210722   5.567   0.270   1.868
 3275SOL     OW10723   4.893   0.339   1.807
 3275SOL    HW110724   4.989   0.350   1.832
 3275SOL    HW210725   4.875   0.388   1.721
 3276SOL     OW10726   5.022   0.140   0.473
 3276SOL    HW110727   5.063   0.172   0.558
 3276SOL    HW210728   5.086   0.152   0.398
 3277SOL     OW10729   3.253   1.951   2.326
 3277SOL    HW110730   3.200   2.025   2.366
 3277SOL    HW210731   3.192   1.887   2.279
 3278SOL     OW10732   6.066   0.904   6.596
 3278SOL    HW110733   6.013   0.868   6.520
 3278SOL    HW210734   6.038   0.858   6.681
 3279SOL     OW10735   3.338   0.344   2.341
 3279SOL    HW110736   3.431   0.362   2.374
 3279SOL    HW210737   3.314   0.249   2.358
 3280SOL     OW10738   6.508   3.695   4.102
 3280SOL    HW110739   6.505   3.758   4.024
 3280SOL    HW210740   6.431   3.632   4.097
 3281SOL     OW10741   6.017   3.554   1.928
 3281SOL    HW110742   5.966   3.483   1.878
 3281SOL    HW210743   6.042   3.627   1.864
 3282SOL     OW10744   0.072   5.096   4.953
 3282SOL    HW110745   0.112   5.017   4.998
 3282SOL    HW210746   0.117   5.179   4.984
 3283SOL     OW10747   3.823   1.843   0.866
 3283SOL    HW110748   3.904   1.861   0.922
 3283SOL    HW210749   3.749   1.808   0.923
 3284SOL     OW10750   2.411   6.119   4.259
 3284SOL    HW110751   2.496   6.170   4.276
 3284SOL    HW210752   2.424   6.059   4.180
 3285SOL     OW10753   3.860   2.041   5.047
 3285SOL    HW110754   3.895   1.966   5.103
 3285SOL    HW210755   3.937   2.098   5.016
 3286SOL     OW10756   2.056   2.026   2.499
 3286SOL    HW110757   1.982   2.068   2.552
 3286SOL    HW210758   2.034   2.029   2.402
 3287SOL     OW10759   2.386   0.413   0.310
 3287SOL    HW110760   2.337   0.368   0.236
 3287SOL    HW210761   2.447   0.347   0.355
 3288SOL     OW10762   2.513   6.356   2.067
 3288SOL    HW110763   2.467   6.432   2.113
 3288SOL    HW210764   2.500   6.272   2.121
 3289SOL     OW10765   4.656   0.914   6.433
 3289SOL    HW110766   4.647   1.012   6.416
 3289SOL    HW210767   4.729   0.877   6.375
 3290SOL     OW10768   0.596   5.868   0.593
 3290SOL    HW110769   0.673   5.805   0.589
 3290SOL    HW210770   0.629   5.962   0.583
 3291SOL     OW10771   4.939   0.324   4.769
 3291SOL    HW110772   4.925   0.357   4.862
 3291SOL    HW210773   5.023   0.363   4.732
 3292SOL     OW10774   6.977   2.218   0.868
 3292SOL    HW110775   7.002   2.259   0.955
 3292SOL    HW210776   6.983   2.288   0.796
 3293SOL     OW10777   5.905   5.741   4.117
 3293SOL    HW110778   5.937   5.744   4.022
 3293SOL    HW210779   5.812   5.704   4.119
 3294SOL     OW10780   5.030   2.680   5.202
 3294SOL    HW110781   4.946   2.703   5.153
 3294SOL    HW210782   5.059   2.758   5.257
 3295SOL     OW10783   0.787   2.475   2.364
 3295SOL    HW110784   0.772   2.377   2.376
 3295SOL    HW210785   0.708   2.525   2.400
 3296SOL     OW10786   1.720   0.709   5.889
 3296SOL    HW110787   1.786   0.763   5.838
 3296SOL    HW210788   1.763   0.676   5.974
 3297SOL     OW10789   3.376   1.094   5.074
 3297SOL    HW110790   3.334   1.149   5.002
 3297SOL    HW210791   3.474   1.089   5.060
 3298SOL     OW10792   5.230   3.914   5.912
 3298SOL    HW110793   5.177   3.830   5.914
 3298SOL    HW210794   5.185   3.980   5.852
 3299SOL     OW10795   2.721   4.693   3.943
 3299SOL    HW110796   2.696   4.651   3.856
 3299SOL    HW210797   2.804   4.747   3.932
 3300SOL     OW10798   1.915   6.637   4.065
 3300SOL    HW110799   2.014   6.649   4.055
 3300SOL    HW210800   1.891   6.542   4.042
 3301SOL     OW10801   1.048   1.224   3.240
 3301SOL    HW110802   1.074   1.181   3.327
 3301SOL    HW210803   1.021   1.153   3.175
 3302SOL     OW10804   1.743   5.090   5.110
 3302SOL    HW110805   1.717   5.040   5.028
 3302SOL    HW210806   1.661   5.127   5.154
 3303SOL     OW10807   3.253   3.029   0.526
 3303SOL    HW110808   3.162   3.066   0.510
 3303SOL    HW210809   3.246   2.940   0.570
 3304SOL     OW10810   2.897   4.859   0.061
 3304SOL    HW110811   2.880   4.954   0.038
 3304SOL    HW210812   2.992   4.848   0.089
 3305SOL     OW10813   3.282   2.710   0.951
 3305SOL    HW110814   3.273   2.778   1.025
 3305SOL    HW210815   3.374   2.672   0.953
 3306SOL     OW10816   2.397   0.792   0.056
 3306SOL    HW110817   2.310   0.758   0.091
 3306SOL    HW210818   2.398   0.892   0.059
 3307SOL     OW10819   1.145   6.591   5.524
 3307SOL    HW110820   1.084   6.514   5.510
 3307SOL    HW210821   1.234   6.558   5.557
 3308SOL     OW10822   4.024   4.815   1.165
 3308SOL    HW110823   4.064   4.872   1.094
 3308SOL    HW210824   3.965   4.746   1.123
 3309SOL     OW10825   5.889   2.710   3.225
 3309SOL    HW110826   5.889   2.671   3.317
 3309SOL    HW210827   5.797   2.704   3.186
 3310SOL     OW10828   6.266   4.754   5.985
 3310SOL    HW110829   6.292   4.752   6.081
 3310SOL    HW210830   6.239   4.662   5.956
 3311SOL     OW10831   2.670   3.465   0.535
 3311SOL    HW110832   2.721   3.545   0.568
 3311SOL    HW210833   2.574   3.489   0.523
 3312SOL     OW10834   4.546   2.252   6.068
 3312SOL    HW110835   4.450   2.234   6.046
 3312SOL    HW210836   4.566   2.348   6.050
 3313SOL     OW10837   0.411   0.652   3.529
 3313SOL    HW110838   0.405   0.637   3.431
 3313SOL    HW210839   0.385   0.569   3.578
 3314SOL     OW10840   2.795   5.471   2.303
 3314SOL    HW110841   2.756   5.394   2.353
 3314SOL    HW210842   2.893   5.457   2.291
 3315SOL     OW10843   0.268   5.908   4.684
 3315SOL    HW110844   0.207   5.831   4.667
 3315SOL    HW210845   0.280   5.920   4.783
 3316SOL     OW10846   4.570   2.503   6.625
 3316SOL    HW110847   4.596   2.600   6.622
 3316SOL    HW210848   4.628   2.451   6.562
 3317SOL     OW10849   5.081   2.552   2.093
 3317SOL    HW110850   5.165   2.600   2.119
 3317SOL    HW210851   5.100   2.488   2.019
 3318SOL     OW10852   3.283   2.784   0.667
 3318SOL    HW110853   3.243   2.733   0.744
 3318SOL    HW210854   3.299   2.721   0.591
 3319SOL     OW10855   6.407   5.878   3.310
 3319SOL    HW110856   6.330   5.847   3.365
 3319SOL    HW210857   6.403   5.978   3.299
 3320SOL     OW10858   6.645   6.851   1.236
 3320SOL    HW110859   6.634   6.757   1.268
 3320SOL    HW210860   6.568   6.875   1.176
 3321SOL     OW10861   4.909   1.710   0.154
 3321SOL    HW110862   4.953   1.799   0.146
 3321SOL    HW210863   4.905   1.667   0.063
 3322SOL     OW10864   6.575   3.927   0.759
 3322SOL    HW110865   6.636   3.877   0.820
 3322SOL    HW210866   6.564   3.876   0.674
 3323SOL     OW10867   1.564   2.006   1.551
 3323SOL    HW110868   1.510   2.040   1.475
 3323SOL    HW210869   1.551   1.907   1.560
 3324SOL     OW10870   5.374   5.952   5.714
 3324SOL    HW110871   5.472   5.959   5.696
 3324SOL    HW210872   5.360   5.913   5.805
 3325SOL     OW10873   2.480   4.120   5.568
 3325SOL    HW110874   2.441   4.031   5.591
 3325SOL    HW210875   2.532   4.113   5.483
 3326SOL     OW10876   4.342   1.641   2.183
 3326SOL    HW110877   4.354   1.675   2.277
 3326SOL    HW210878   4.249   1.605   2.173
 3327SOL     OW10879   0.448   4.948   6.617
 3327SOL    HW110880   0.405   4.993   6.695
 3327SOL    HW210881   0.547   4.941   6.632
 3328SOL     OW10882   4.614   2.500   6.037
 3328SOL    HW110883   4.668   2.563   5.983
 3328SOL    HW210884   4.552   2.551   6.097
 3329SOL     OW10885   6.615   5.818   5.616
 3329SOL    HW110886   6.567   5.737   5.581
 3329SOL    HW210887   6.664   5.795   5.699
 3330SOL     OW10888   0.036   3.560   2.729
 3330SOL    HW110889   0.045   3.465   2.758
 3330SOL    HW210890   6.978   3.602   2.776
 3331SOL     OW10891   1.852   3.336   0.887
 3331SOL    HW110892   1.837   3.350   0.789
 3331SOL    HW210893   1.943   3.295   0.901
 3332SOL     OW10894   6.496   4.709   1.630
 3332SOL    HW110895   6.427   4.773   1.594
 3332SOL    HW210896   6.521   4.736   1.723
 3333SOL     OW10897   4.002   5.281   6.702
 3333SOL    HW110898   3.996   5.247   6.608
 3333SOL    HW210899   4.043   5.372   6.702
 3334SOL     OW10900   2.332   4.106   1.828
 3334SOL    HW110901   2.423   4.081   1.793
 3334SOL    HW210902   2.311   4.200   1.800
 3335SOL     OW10903   5.844   4.024   4.718
 3335SOL    HW110904   5.939   3.991   4.710
 3335SOL    HW210905   5.844   4.121   4.739
 3336SOL     OW10906   2.810   5.797   5.757
 3336SOL    HW110907   2.747   5.745   5.815
 3336SOL    HW210908   2.887   5.738   5.731
 3337SOL     OW10909   3.756   1.849   0.299
 3337SOL    HW110910   3.762   1.938   0.344
 3337SOL    HW210911   3.847   1.818   0.275
 3338SOL     OW10912   6.887   4.183   0.319
 3338SOL    HW110913   6.867   4.192   0.416
 3338SOL    HW210914   6.803   4.162   0.269
 3339SOL     OW10915   0.350   5.708   6.148
 3339SOL    HW110916   0.410   5.744   6.220
 3339SOL    HW210917   0.309   5.784   6.097
 3340SOL     OW10918   3.968   6.510   1.699
 3340SOL    HW110919   3.911   6.517   1.618
 3340SOL    HW210920   3.926   6.562   1.774
 3341SOL     OW10921   0.904   0.185   1.864
 3341SOL    HW110922   0.914   0.085   1.861
 3341SOL    HW210923   0.822   0.208   1.917
 3342SOL     OW10924   2.533   7.019   4.000
 3342SOL    HW110925   2.548   0.045   3.913
 3342SOL    HW210926   2.603   6.950   4.015
 3343SOL     OW10927   6.357   2.456   1.237
 3343SOL    HW110928   6.418   2.427   1.162
 3343SOL    HW210929   6.317   2.545   1.215
 3344SOL     OW10930   0.122   3.535   5.478
 3344SOL    HW110931   0.175   3.487   5.548
 3344SOL    HW210932   0.043   3.580   5.520
 3345SOL     OW10933   3.030   3.840   6.162
 3345SOL    HW110934   3.047   3.842   6.064
 3345SOL    HW210935   2.966   3.913   6.187
 3346SOL     OW10936   1.348   6.073   2.305
 3346SOL    HW110937   1.432   6.023   2.325
 3346SOL    HW210938   1.277   6.045   2.369
 3347SOL     OW10939   5.452   4.060   4.860
 3347SOL    HW110940   5.394   3.984   4.831
 3347SOL    HW210941   5.545   4.027   4.877
 3348SOL     OW10942   3.888   3.468   3.253
 3348SOL    HW110943   3.864   3.468   3.156
 3348SOL    HW210944   3.988   3.471   3.262
 3349SOL     OW10945   6.221   3.872   5.393
 3349SOL    HW110946   6.197   3.882   5.489
 3349SOL    HW210947   6.171   3.794   5.354
 3350SOL     OW10948   1.461   2.123   0.858
 3350SOL    HW110949   1.410   2.093   0.939
 3350SOL    HW210950   1.558   2.106   0.872
 3351SOL     OW10951   5.371   1.951   1.478
 3351SOL    HW110952   5.327   2.006   1.549
 3351SOL    HW210953   5.412   2.011   1.410
 3352SOL     OW10954   0.572   3.818   0.739
 3352SOL    HW110955   0.635   3.740   0.737
 3352SOL    HW210956   0.545   3.841   0.646
 3353SOL     OW10957   1.989   6.665   6.600
 3353SOL    HW110958   2.063   6.711   6.550
 3353SOL    HW210959   1.998   6.684   6.698
 3354SOL     OW10960   0.803   1.025   2.570
 3354SOL    HW110961   0.846   0.979   2.493
 3354SOL    HW210962   0.847   1.113   2.585
 3355SOL     OW10963   6.475   2.006   2.626
 3355SOL    HW110964   6.531   1.923   2.625
 3355SOL    HW210965   6.406   2.000   2.554
 3356SOL     OW10966   2.521   3.450   6.566
 3356SOL    HW110967   2.502   3.405   6.479
 3356SOL    HW210968   2.442   3.505   6.593
 3357SOL     OW10969   2.191   5.061   2.177
 3357SOL    HW110970   2.284   5.025   2.162
 3357SOL    HW210971   2.195   5.161   2.183
 3358SOL     OW10972   5.356   4.600   2.976
 3358SOL    HW110973   5.415   4.563   2.905
 3358SOL    HW210974   5.401   4.589   3.065
 3359SOL     OW10975   0.921   1.050   1.570
 3359SOL    HW110976   0.850   0.979   1.571
 3359SOL    HW210977   0.901   1.118   1.640
 3360SOL     OW10978   1.861   0.406   6.413
 3360SOL    HW110979   1.773   0.370   6.382
 3360SOL    HW210980   1.933   0.340   6.391
 3361SOL     OW10981   5.251   0.139   2.519
 3361SOL    HW110982   5.348   0.116   2.519
 3361SOL    HW210983   5.199   0.065   2.560
 3362SOL     OW10984   2.442   1.384   5.229
 3362SOL    HW110985   2.386   1.312   5.188
 3362SOL    HW210986   2.446   1.462   5.167
 3363SOL     OW10987   0.214   0.826   6.500
 3363SOL    HW110988   0.140   0.866   6.446
 3363SOL    HW210989   0.201   0.850   6.596
 3364SOL     OW10990   2.203   5.015   5.701
 3364SOL    HW110991   2.105   5.026   5.682
 3364SOL    HW210992   2.223   4.919   5.719
 3365SOL     OW10993   6.109   1.729   5.854
 3365SOL    HW110994   6.110   1.828   5.867
 3365SOL    HW210995   6.015   1.696   5.862
 3366SOL     OW10996   5.407   1.087   5.913
 3366SOL    HW110997   5.505   1.106   5.924
 3366SOL    HW210998   5.369   1.055   6.000
 3367SOL     OW10999   1.154   0.745   2.332
 3367SOL    HW111000   1.095   0.679   2.285
 3367SOL    HW211001   1.098   0.819   2.368
 3368SOL     OW11002   6.360   6.861   5.827
 3368SOL    HW111003   6.441   6.803   5.839
 3368SOL    HW211004   6.388   6.956   5.815
 3369SOL     OW11005   3.329   6.628   6.054
 3369SOL    HW111006   3.394   6.704   6.049
 3369SOL    HW211007   3.254   6.643   5.990
 3370SOL     OW11008   4.660   0.293   5.368
 3370SOL    HW111009   4.642   0.314   5.464
 3370SOL    HW211010   4.668   0.194   5.357
 3371SOL     OW11011   0.365   5.045   1.757
 3371SOL    HW111012   0.335   5.023   1.664
 3371SOL    HW211013   0.411   5.134   1.756
 3372SOL     OW11014   0.277   1.886   2.330
 3372SOL    HW111015   0.247   1.869   2.424
 3372SOL    HW211016   0.238   1.973   2.298
 3373SOL     OW11017   0.213   1.920   5.445
 3373SOL    HW111018   0.261   1.923   5.357
 3373SOL    HW211019   0.221   1.829   5.485
 3374SOL     OW11020   3.776   5.251   5.280
 3374SOL    HW111021   3.752   5.218   5.189
 3374SOL    HW211022   3.777   5.351   5.280
 3375SOL     OW11023   4.307   4.073   5.478
 3375SOL    HW111024   4.282   4.138   5.406
 3375SOL    HW211025   4.403   4.086   5.503
 3376SOL     OW11026   2.968   3.759   2.359
 3376SOL    HW111027   2.927   3.792   2.445
 3376SOL    HW211028   2.918   3.678   2.328
 3377SOL     OW11029   2.637   5.915   5.483
 3377SOL    HW111030   2.555   5.955   5.442
 3377SOL    HW211031   2.615   5.823   5.515
 3378SOL     OW11032   0.688   1.640   0.695
 3378SOL    HW111033   0.704   1.590   0.780
 3378SOL    HW211034   0.776   1.662   0.653
 3379SOL     OW11035   1.255   4.450   6.742
 3379SOL    HW111036   1.242   4.407   6.831
 3379SOL    HW211037   1.323   4.523   6.749
 3380SOL     OW11038   0.790   3.716   5.756
 3380SOL    HW111039   0.812   3.811   5.781
 3380SOL    HW211040   0.860   3.656   5.794
 3381SOL     OW11041   3.573   2.461   0.935
 3381SOL    HW111042   3.622   2.452   0.849
 3381SOL    HW211043   3.632   2.434   1.011
 3382SOL     OW11044   6.737   0.069   0.975
 3382SOL    HW111045   6.736   0.029   1.067
 3382SOL    HW211046   6.811   0.027   0.922
 3383SOL     OW11047   6.847   4.567   2.992
 3383SOL    HW111048   6.891   4.614   2.916
 3383SOL    HW211049   6.835   4.630   3.068
 3384SOL     OW11050   3.410   2.888   4.326
 3384SOL    HW111051   3.421   2.948   4.247
 3384SOL    HW211052   3.331   2.827   4.311
 3385SOL     OW11053   6.101   3.804   3.312
 3385SOL    HW111054   6.076   3.760   3.226
 3385SOL    HW211055   6.024   3.799   3.375
 3386SOL     OW11056   6.115   4.410   4.789
 3386SOL    HW111057   6.205   4.396   4.829
 3386SOL    HW211058   6.117   4.384   4.692
 3387SOL     OW11059   2.847   1.972   2.969
 3387SOL    HW111060   2.940   1.943   2.989
 3387SOL    HW211061   2.836   2.068   2.996
 3388SOL     OW11062   5.564   2.955   1.973
 3388SOL    HW111063   5.662   2.934   1.970
 3388SOL    HW211064   5.533   2.982   1.881
 3389SOL     OW11065   5.895   4.057   3.486
 3389SOL    HW111066   5.886   4.009   3.574
 3389SOL    HW211067   5.991   4.080   3.471
 3390SOL     OW11068   4.982   2.716   5.621
 3390SOL    HW111069   4.915   2.780   5.582
 3390SOL    HW211070   4.996   2.640   5.557
 3391SOL     OW11071   3.527   1.866   4.092
 3391SOL    HW111072   3.611   1.862   4.146
 3391SOL    HW211073   3.449   1.848   4.151
 3392SOL     OW11074   4.788   6.095   3.806
 3392SOL    HW111075   4.828   6.186   3.804
 3392SOL    HW211076   4.716   6.088   3.738
 3393SOL     OW11077   6.389   0.163   6.929
 3393SOL    HW111078   6.292   0.151   6.908
 3393SOL    HW211079   6.412   0.260   6.926
 3394SOL     OW11080   6.065   2.659   1.552
 3394SOL    HW111081   6.067   2.559   1.548
 3394SOL    HW211082   5.971   2.691   1.548
 3395SOL     OW11083   1.317   3.668   5.003
 3395SOL    HW111084   1.395   3.626   5.051
 3395SOL    HW211085   1.232   3.641   5.048
 3396SOL     OW11086   0.594   4.333   3.954
 3396SOL    HW111087   0.519   4.355   4.018
 3396SOL    HW211088   0.564   4.262   3.892
 3397SOL     OW11089   4.205   6.211   5.954
 3397SOL    HW111090   4.230   6.187   6.047
 3397SOL    HW211091   4.274   6.176   5.890
 3398SOL     OW11092   6.969   6.400   4.292
 3398SOL    HW111093   6.921   6.485   4.273
 3398SOL    HW211094   6.977   6.346   4.208
 3399SOL     OW11095   4.580   5.215   4.693
 3399SOL    HW111096   4.534   5.270   4.762
 3399SOL    HW211097   4.591   5.121   4.727
 3400SOL     OW11098   4.923   2.338   6.846
 3400SOL    HW111099   5.018   2.305   6.842
 3400SOL    HW211100   4.907   2.402   6.771
 3401SOL     OW11101   5.924   5.225   0.248
 3401SOL    HW111102   6.009   5.176   0.231
 3401SOL    HW211103   5.857   5.163   0.289
 3402SOL     OW11104   5.270   5.979   2.033
 3402SOL    HW111105   5.281   6.015   2.125
 3402SOL    HW211106   5.224   5.890   2.037
 3403SOL     OW11107   3.451   1.014   5.506
 3403SOL    HW111108   3.498   0.956   5.440
 3403SOL    HW211109   3.404   1.089   5.459
 3404SOL     OW11110   4.616   0.652   0.779
 3404SOL    HW111111   4.648   0.578   0.838
 3404SOL    HW211112   4.595   0.732   0.835
 3405SOL     OW11113   5.841   4.074   0.342
 3405SOL    HW111114   5.793   4.158   0.368
 3405SOL    HW211115   5.833   4.006   0.415
 3406SOL     OW11116   1.183   4.508   1.795
 3406SOL    HW111117   1.160   4.605   1.805
 3406SOL    HW211118   1.282   4.496   1.798
 3407SOL     OW11119   1.858   5.878   2.185
 3407SOL    HW111120   1.812   5.869   2.273
 3407SOL    HW211121   1.954   5.902   2.201
 3408SOL     OW11122   5.263   4.304   3.335
 3408SOL    HW111123   5.310   4.378   3.384
 3408SOL    HW211124   5.261   4.325   3.237
 3409SOL     OW11125   3.196   0.608   5.689
 3409SOL    HW111126   3.135   0.654   5.624
 3409SOL    HW211127   3.284   0.655   5.692
 3410SOL     OW11128   6.880   6.729   6.926
 3410SOL    HW111129   6.855   6.729   6.829
 3410SOL    HW211130   6.972   6.766   6.936
 3411SOL     OW11131   5.020   2.037   2.157
 3411SOL    HW111132   4.980   2.044   2.249
 3411SOL    HW211133   5.057   2.126   2.131
 3412SOL     OW11134   4.119   4.648   0.542
 3412SOL    HW111135   4.075   4.728   0.583
 3412SOL    HW211136   4.050   4.575   0.530
 3413SOL     OW11137   3.893   1.818   2.648
 3413SOL    HW111138   3.903   1.731   2.599
 3413SOL    HW211139   3.828   1.876   2.599
 3414SOL     OW11140   2.814   2.261   5.181
 3414SOL    HW111141   2.777   2.275   5.089
 3414SOL    HW211142   2.809   2.346   5.233
 3415SOL     OW11143   0.543   5.061   3.792
 3415SOL    HW111144   0.584   5.073   3.702
 3415SOL    HW211145   0.600   5.105   3.861
 3416SOL     OW11146   1.879   5.052   5.720
 3416SOL    HW111147   1.830   4.966   5.707
 3416SOL    HW211148   1.872   5.107   5.637
 3417SOL     OW11149   6.122   0.516   2.337
 3417SOL    HW111150   6.063   0.483   2.411
 3417SOL    HW211151   6.146   0.611   2.354
 3418SOL     OW11152   3.081   1.377   5.995
 3418SOL    HW111153   3.153   1.404   6.060
 3418SOL    HW211154   2.999   1.351   6.046
 3419SOL     OW11155   4.367   4.677   0.646
 3419SOL    HW111156   4.386   4.651   0.741
 3419SOL    HW211157   4.275   4.647   0.621
 3420SOL     OW11158   4.027   2.161   4.180
 3420SOL    HW111159   3.955   2.206   4.126
 3420SOL    HW211160   3.993   2.147   4.273
 3421SOL     OW11161   0.015   6.038   5.071
 3421SOL    HW111162   6.994   5.950   5.097
 3421SOL    HW211163   6.968   6.111   5.084
 3422SOL     OW11164   3.177   1.570   1.593
 3422SOL    HW111165   3.145   1.504   1.525
 3422SOL    HW211166   3.109   1.579   1.666
 3423SOL     OW11167   2.546   0.528   0.675
 3423SOL    HW111168   2.638   0.490   0.679
 3423SOL    HW211169   2.501   0.516   0.764
 3424SOL     OW11170   4.572   1.411   2.835
 3424SOL    HW111171   4.630   1.330   2.847
 3424SOL    HW211172   4.528   1.407   2.745
 3425SOL     OW11173   4.370   4.547   1.821
 3425SOL    HW111174   4.277   4.558   1.856
 3425SOL    HW211175   4.400   4.453   1.833
 3426SOL     OW11176   4.725   3.909   0.607
 3426SOL    HW111177   4.706   3.865   0.519
 3426SOL    HW211178   4.824   3.918   0.618
 3427SOL     OW11179   0.227   1.603   6.561
 3427SOL    HW111180   0.264   1.528   6.615
 3427SOL    HW211181   0.153   1.647   6.611
 3428SOL     OW11182   4.545   4.455   2.836
 3428SOL    HW111183   4.538   4.511   2.753
 3428SOL    HW211184   4.479   4.487   2.903
 3429SOL     OW11185   1.392   3.008   6.651
 3429SOL    HW111186   1.426   3.098   6.677
 3429SOL    HW211187   1.458   2.964   6.590
 3430SOL     OW11188   1.631   6.919   6.867
 3430SOL    HW111189   1.666   6.921   6.773
 3430SOL    HW211190   1.703   6.887   6.929
 3431SOL     OW11191   0.959   5.775   0.921
 3431SOL    HW111192   0.995   5.868   0.929
 3431SOL    HW211193   1.029   5.709   0.947
 3432SOL     OW11194   3.453   1.317   6.505
 3432SOL    HW111195   3.435   1.230   6.459
 3432SOL    HW211196   3.376   1.380   6.489
 3433SOL     OW11197   3.788   0.976   5.092
 3433SOL    HW111198   3.860   0.907   5.080
 3433SOL    HW211199   3.724   0.972   5.015
 3434SOL     OW11200   4.425   2.439   2.295
 3434SOL    HW111201   4.393   2.442   2.389
 3434SOL    HW211202   4.380   2.364   2.246
 3435SOL     OW11203   0.276   0.916   0.398
 3435SOL    HW111204   0.224   0.832   0.381
 3435SOL    HW211205   0.213   0.991   0.413
 3436SOL     OW11206   3.963   6.480   4.124
 3436SOL    HW111207   4.060   6.460   4.139
 3436SOL    HW211208   3.911   6.454   4.205
 3437SOL     OW11209   3.829   6.948   6.153
 3437SOL    HW111210   3.927   6.936   6.141
 3437SOL    HW211211   3.787   6.861   6.178
 3438SOL     OW11212   1.347   3.024   6.210
 3438SOL    HW111213   1.302   2.936   6.194
 3438SOL    HW211214   1.315   3.062   6.297
 3439SOL     OW11215   2.579   5.706   3.614
 3439SOL    HW111216   2.600   5.652   3.695
 3439SOL    HW211217   2.636   5.675   3.538
 3440SOL     OW11218   4.834   3.127   0.556
 3440SOL    HW111219   4.793   3.179   0.481
 3440SOL    HW211220   4.799   3.161   0.643
 3441SOL     OW11221   2.719   0.547   4.018
 3441SOL    HW111222   2.689   0.606   3.943
 3441SOL    HW211223   2.810   0.511   3.998
 3442SOL     OW11224   1.977   4.907   3.509
 3442SOL    HW111225   1.892   4.910   3.563
 3442SOL    HW211226   2.055   4.907   3.571
 3443SOL     OW11227   5.342   1.123   3.784
 3443SOL    HW111228   5.342   1.163   3.875
 3443SOL    HW211229   5.308   1.029   3.788
 3444SOL     OW11230   4.422   5.201   0.251
 3444SOL    HW111231   4.380   5.111   0.264
 3444SOL    HW211232   4.498   5.211   0.315
 3445SOL     OW11233   6.455   4.001   4.981
 3445SOL    HW111234   6.488   3.969   5.070
 3445SOL    HW211235   6.529   4.047   4.932
 3446SOL     OW11236   3.417   0.019   3.317
 3446SOL    HW111237   3.491   6.972   3.316
 3446SOL    HW211238   3.348   7.012   3.250
 3447SOL     OW11239   5.409   5.741   6.537
 3447SOL    HW111240   5.360   5.667   6.581
 3447SOL    HW211241   5.344   5.812   6.509
 3448SOL     OW11242   4.026   2.415   0.850
 3448SOL    HW111243   3.932   2.421   0.816
 3448SOL    HW211244   4.083   2.481   0.800
 3449SOL     OW11245   6.422   6.129   3.305
 3449SOL    HW111246   6.383   6.176   3.225
 3449SOL    HW211247   6.521   6.119   3.293
 3450SOL     OW11248   0.976   1.498   1.469
 3450SOL    HW111249   0.987   1.565   1.543
 3450SOL    HW211250   1.044   1.425   1.480
 3451SOL     OW11251   1.375   5.647   4.545
 3451SOL    HW111252   1.318   5.654   4.627
 3451SOL    HW211253   1.318   5.663   4.464
 3452SOL     OW11254   5.954   2.079   0.298
 3452SOL    HW111255   5.865   2.085   0.252
 3452SOL    HW211256   5.983   2.170   0.327
 3453SOL     OW11257   5.379   5.763   5.396
 3453SOL    HW111258   5.416   5.844   5.349
 3453SOL    HW211259   5.356   5.693   5.329
 3454SOL     OW11260   0.589   0.784   0.077
 3454SOL    HW111261   0.528   0.710   0.049
 3454SOL    HW211262   0.650   0.752   0.149
 3455SOL     OW11263   1.804   2.398   4.395
 3455SOL    HW111264   1.894   2.425   4.430
 3455SOL    HW211265   1.815   2.328   4.325
 3456SOL     OW11266   6.030   0.196   2.026
 3456SOL    HW111267   5.950   0.252   2.005
 3456SOL    HW211268   6.112   0.238   1.987
 3457SOL     OW11269   2.273   5.158   3.081
 3457SOL    HW111270   2.274   5.070   3.034
 3457SOL    HW211271   2.366   5.194   3.085
 3458SOL     OW11272   5.813   5.947   0.905
 3458SOL    HW111273   5.855   5.860   0.930
 3458SOL    HW211274   5.828   6.014   0.978
 3459SOL     OW11275   6.850   5.827   3.930
 3459SOL    HW111276   6.801   5.846   3.845
 3459SOL    HW211277   6.844   5.729   3.951
 3460SOL     OW11278   4.425   3.285   6.474
 3460SOL    HW111279   4.358   3.323   6.410
 3460SOL    HW211280   4.468   3.205   6.432
 3461SOL     OW11281   3.768   6.225   2.983
 3461SOL    HW111282   3.698   6.186   2.923
 3461SOL    HW211283   3.848   6.166   2.984
 3462SOL     OW11284   5.206   3.340   2.994
 3462SOL    HW111285   5.114   3.342   2.954
 3462SOL    HW211286   5.203   3.290   3.080
 3463SOL     OW11287   2.463   2.530   1.242
 3463SOL    HW111288   2.414   2.614   1.262
 3463SOL    HW211289   2.533   2.514   1.313
 3464SOL     OW11290   4.663   2.768   6.602
 3464SOL    HW111291   4.673   2.830   6.680
 3464SOL    HW211292   4.753   2.732   6.577
 3465SOL     OW11293   2.150   3.671   2.225
 3465SOL    HW111294   2.193   3.602   2.167
 3465SOL    HW211295   2.080   3.627   2.282
 3466SOL     OW11296   6.166   4.927   3.537
 3466SOL    HW111297   6.086   4.875   3.565
 3466SOL    HW211298   6.138   5.003   3.479
 3467SOL     OW11299   3.149   2.218   0.947
 3467SOL    HW111300   3.143   2.224   1.046
 3467SOL    HW211301   3.243   2.233   0.918
 3468SOL     OW11302   4.033   1.962   0.991
 3468SOL    HW111303   4.068   2.051   1.022
 3468SOL    HW211304   4.109   1.898   0.982
 3469SOL     OW11305   4.573   6.415   5.723
 3469SOL    HW111306   4.577   6.357   5.804
 3469SOL    HW211307   4.494   6.476   5.730
 3470SOL     OW11308   0.401   3.087   1.758
 3470SOL    HW111309   0.305   3.094   1.734
 3470SOL    HW211310   0.457   3.094   1.675
 3471SOL     OW11311   5.120   3.267   3.651
 3471SOL    HW111312   5.133   3.330   3.727
 3471SOL    HW211313   5.078   3.315   3.574
 3472SOL     OW11314   4.284   1.533   3.994
 3472SOL    HW111315   4.244   1.515   4.084
 3472SOL    HW211316   4.346   1.611   4.000
 3473SOL     OW11317   0.265   4.450   2.152
 3473SOL    HW111318   0.234   4.466   2.059
 3473SOL    HW211319   0.271   4.537   2.202
 3474SOL     OW11320   5.745   5.328   3.791
 3474SOL    HW111321   5.671   5.298   3.731
 3474SOL    HW211322   5.729   5.294   3.883
 3475SOL     OW11323   0.016   3.992   4.508
 3475SOL    HW111324   0.059   3.907   4.476
 3475SOL    HW211325   6.997   3.978   4.599
 3476SOL     OW11326   1.026   1.206   3.589
 3476SOL    HW111327   1.003   1.124   3.536
 3476SOL    HW211328   0.966   1.213   3.668
 3477SOL     OW11329   1.115   4.404   1.520
 3477SOL    HW111330   1.200   4.358   1.497
 3477SOL    HW211331   1.128   4.464   1.599
 3478SOL     OW11332   2.205   0.590   0.424
 3478SOL    HW111333   2.278   0.559   0.363
 3478SOL    HW211334   2.211   0.539   0.510
 3479SOL     OW11335   1.479   3.913   3.805
 3479SOL    HW111336   1.550   3.857   3.762
 3479SOL    HW211337   1.511   4.007   3.814
 3480SOL     OW11338   1.040   5.001   6.519
 3480SOL    HW111339   1.067   5.064   6.592
 3480SOL    HW211340   1.094   5.021   6.437
 3481SOL     OW11341   6.568   0.520   5.300
 3481SOL    HW111342   6.547   0.426   5.327
 3481SOL    HW211343   6.545   0.582   5.375
 3482SOL     OW11344   6.237   3.854   4.902
 3482SOL    HW111345   6.186   3.905   4.834
 3482SOL    HW211346   6.318   3.906   4.929
 3483SOL     OW11347   4.720   2.830   3.938
 3483SOL    HW111348   4.675   2.743   3.917
 3483SOL    HW211349   4.652   2.900   3.957
 3484SOL     OW11350   1.763   3.403   5.183
 3484SOL    HW111351   1.733   3.329   5.243
 3484SOL    HW211352   1.813   3.365   5.105
 3485SOL     OW11353   0.709   2.484   6.187
 3485SOL    HW111354   0.683   2.459   6.280
 3485SOL    HW211355   0.626   2.504   6.134
 3486SOL     OW11356   2.067   6.838   4.615
 3486SOL    HW111357   2.021   6.914   4.569
 3486SOL    HW211358   2.026   6.824   4.706
 3487SOL     OW11359   5.186   1.269   6.771
 3487SOL    HW111360   5.114   1.288   6.703
 3487SOL    HW211361   5.150   1.205   6.839
 3488SOL     OW11362   5.968   0.507   4.305
 3488SOL    HW111363   6.041   0.569   4.276
 3488SOL    HW211364   5.940   0.450   4.228
 3489SOL     OW11365   3.177   6.875   0.569
 3489SOL    HW111366   3.219   6.908   0.654
 3489SOL    HW211367   3.242   6.814   0.522
 3490SOL     OW11368   4.118   5.273   0.390
 3490SOL    HW111369   4.202   5.294   0.339
 3490SOL    HW211370   4.045   5.248   0.326
 3491SOL     OW11371   4.946   4.266   6.792
 3491SOL    HW111372   4.952   4.354   6.839
 3491SOL    HW211373   5.034   4.220   6.798
 3492SOL     OW11374   6.120   4.167   2.828
 3492SOL    HW111375   6.193   4.230   2.854
 3492SOL    HW211376   6.084   4.194   2.739
 3493SOL     OW11377   5.923   3.052   4.789
 3493SOL    HW111378   5.934   3.039   4.888
 3493SOL    HW211379   5.878   3.139   4.772
 3494SOL     OW11380   4.344   1.438   1.851
 3494SOL    HW111381   4.414   1.507   1.833
 3494SOL    HW211382   4.256   1.483   1.866
 3495SOL     OW11383   1.468   2.658   2.559
 3495SOL    HW111384   1.511   2.595   2.494
 3495SOL    HW211385   1.376   2.626   2.582
 3496SOL     OW11386   6.329   5.556   1.041
 3496SOL    HW111387   6.405   5.620   1.054
 3496SOL    HW211388   6.254   5.581   1.102
 3497SOL     OW11389   3.618   0.905   2.564
 3497SOL    HW111390   3.676   0.930   2.487
 3497SOL    HW211391   3.559   0.828   2.538
 3498SOL     OW11392   2.309   1.784   1.011
 3498SOL    HW111393   2.335   1.850   1.081
 3498SOL    HW211394   2.240   1.825   0.951
 3499SOL     OW11395   5.959   5.279   5.668
 3499SOL    HW111396   5.983   5.197   5.617
 3499SOL    HW211397   6.022   5.353   5.643
 3500SOL     OW11398   1.414   2.036   4.087
 3500SOL    HW111399   1.495   2.034   4.145
 3500SOL    HW211400   1.377   1.944   4.078
 3501SOL     OW11401   1.542   6.862   5.717
 3501SOL    HW111402   1.443   6.871   5.703
 3501SOL    HW211403   1.564   6.879   5.813
 3502SOL     OW11404   4.855   3.184   2.234
 3502SOL    HW111405   4.928   3.125   2.270
 3502SOL    HW211406   4.799   3.132   2.169
 3503SOL     OW11407   6.513   6.111   6.599
 3503SOL    HW111408   6.545   6.168   6.675
 3503SOL    HW211409   6.583   6.043   6.577
 3504SOL     OW11410   1.483   1.021   1.194
 3504SOL    HW111411   1.581   1.003   1.196
 3504SOL    HW211412   1.433   0.934   1.190
 3505SOL     OW11413   5.960   4.696   6.273
 3505SOL    HW111414   5.996   4.785   6.245
 3505SOL    HW211415   5.912   4.653   6.197
 3506SOL     OW11416   4.918   4.784   4.819
 3506SOL    HW111417   4.922   4.878   4.852
 3506SOL    HW211418   4.873   4.782   4.730
 3507SOL     OW11419   2.964   6.338   0.590
 3507SOL    HW111420   3.041   6.277   0.576
 3507SOL    HW211421   2.991   6.413   0.650
 3508SOL     OW11422   3.037   2.547   5.376
 3508SOL    HW111423   3.074   2.639   5.364
 3508SOL    HW211424   3.082   2.484   5.313
 3509SOL     OW11425   4.303   5.459   6.901
 3509SOL    HW111426   4.332   5.387   6.838
 3509SOL    HW211427   4.369   5.469   6.974
 3510SOL     OW11428   2.420   0.532   0.938
 3510SOL    HW111429   2.439   0.630   0.942
 3510SOL    HW211430   2.413   0.496   1.031
 3511SOL     OW11431   2.310   4.789   1.611
 3511SOL    HW111432   2.317   4.880   1.652
 3511SOL    HW211433   2.371   4.784   1.531
 3512SOL     OW11434   0.634   4.328   6.870
 3512SOL    HW111435   0.697   4.391   6.916
 3512SOL    HW211436   0.617   4.249   6.929
 3513SOL     OW11437   5.539   2.178   0.358
 3513SOL    HW111438   5.541   2.120   0.440
 3513SOL    HW211439   5.523   2.273   0.385
 3514SOL     OW11440   4.194   0.840   2.930
 3514SOL    HW111441   4.153   0.827   2.840
 3514SOL    HW211442   4.277   0.895   2.921
 3515SOL     OW11443   6.182   5.882   4.593
 3515SOL    HW111444   6.150   5.861   4.501
 3515SOL    HW211445   6.251   5.815   4.621
 3516SOL     OW11446   5.273   0.447   0.800
 3516SOL    HW111447   5.286   0.436   0.898
 3516SOL    HW211448   5.357   0.425   0.752
 3517SOL     OW11449   6.393   0.821   0.485
 3517SOL    HW111450   6.374   0.739   0.539
 3517SOL    HW211451   6.411   0.898   0.547
 3518SOL     OW11452   5.587   1.722   5.324
 3518SOL    HW111453   5.630   1.794   5.268
 3518SOL    HW211454   5.503   1.691   5.280
 3519SOL     OW11455   3.469   0.760   0.597
 3519SOL    HW111456   3.380   0.728   0.628
 3519SOL    HW211457   3.466   0.777   0.498
 3520SOL     OW11458   3.007   6.524   4.949
 3520SOL    HW111459   3.047   6.549   5.037
 3520SOL    HW211460   3.075   6.476   4.894
 3521SOL     OW11461   2.950   2.642   0.018
 3521SOL    HW111462   2.937   2.638   6.938
 3521SOL    HW211463   3.043   2.672   0.038
 3522SOL     OW11464   0.177   5.648   6.532
 3522SOL    HW111465   0.183   5.741   6.497
 3522SOL    HW211466   0.103   5.599   6.486
 3523SOL     OW11467   1.132   5.565   5.882
 3523SOL    HW111468   1.229   5.564   5.905
 3523SOL    HW211469   1.077   5.567   5.966
 3524SOL     OW11470   5.624   1.167   3.362
 3524SOL    HW111471   5.712   1.146   3.320
 3524SOL    HW211472   5.629   1.151   3.460
 3525SOL     OW11473   6.298   4.445   3.524
 3525SOL    HW111474   6.209   4.488   3.538
 3525SOL    HW211475   6.336   4.474   3.436
 3526SOL     OW11476   0.897   6.188   2.964
 3526SOL    HW111477   0.960   6.210   3.038
 3526SOL    HW211478   0.893   6.265   2.900
 3527SOL     OW11479   6.717   3.211   5.972
 3527SOL    HW111480   6.748   3.175   5.884
 3527SOL    HW211481   6.638   3.270   5.959
 3528SOL     OW11482   2.788   6.661   4.869
 3528SOL    HW111483   2.821   6.756   4.870
 3528SOL    HW211484   2.866   6.599   4.877
 3529SOL     OW11485   4.900   5.398   0.309
 3529SOL    HW111486   4.946   5.365   0.227
 3529SOL    HW211487   4.936   5.352   0.390
 3530SOL     OW11488   0.139   0.433   1.844
 3530SOL    HW111489   0.063   0.480   1.889
 3530SOL    HW211490   0.106   0.389   1.760
 3531SOL     OW11491   5.315   1.803   1.233
 3531SOL    HW111492   5.225   1.833   1.263
 3531SOL    HW211493   5.371   1.779   1.313
 3532SOL     OW11494   1.594   1.107   1.996
 3532SOL    HW111495   1.633   1.199   1.986
 3532SOL    HW211496   1.646   1.056   2.064
 3533SOL     OW11497   0.231   1.247   3.147
 3533SOL    HW111498   0.162   1.301   3.100
 3533SOL    HW211499   0.312   1.239   3.090
 3534SOL     OW11500   6.882   0.983   1.188
 3534SOL    HW111501   6.825   1.058   1.156
 3534SOL    HW211502   6.954   0.964   1.121
 3535SOL     OW11503   2.655   5.351   4.974
 3535SOL    HW111504   2.594   5.297   5.031
 3535SOL    HW211505   2.699   5.292   4.906
 3536SOL     OW11506   3.379   2.137   2.530
 3536SOL    HW111507   3.288   2.167   2.501
 3536SOL    HW211508   3.416   2.074   2.463
 3537SOL     OW11509   1.710   5.303   2.169
 3537SOL    HW111510   1.630   5.300   2.228
 3537SOL    HW211511   1.763   5.386   2.188
 3538SOL     OW11512   3.152   5.481   4.394
 3538SOL    HW111513   3.251   5.490   4.394
 3538SOL    HW211514   3.120   5.463   4.301
 3539SOL     OW11515   3.812   4.063   4.590
 3539SOL    HW111516   3.858   4.050   4.678
 3539SOL    HW211517   3.869   4.028   4.517
 3540SOL     OW11518   2.117   1.542   3.908
 3540SOL    HW111519   2.116   1.489   3.823
 3540SOL    HW211520   2.079   1.487   3.982
 3541SOL     OW11521   2.909   3.986   5.227
 3541SOL    HW111522   2.885   3.988   5.324
 3541SOL    HW211523   2.828   3.964   5.173
 3542SOL     OW11524   0.857   4.899   1.839
 3542SOL    HW111525   0.820   4.918   1.930
 3542SOL    HW211526   0.854   4.800   1.822
 3543SOL     OW11527   5.689   2.782   5.030
 3543SOL    HW111528   5.606   2.777   5.086
 3543SOL    HW211529   5.667   2.822   4.941
 3544SOL     OW11530   2.191   4.744   5.751
 3544SOL    HW111531   2.143   4.738   5.839
 3544SOL    HW211532   2.154   4.677   5.688
 3545SOL     OW11533   4.007   5.061   6.532
 3545SOL    HW111534   3.911   5.062   6.562
 3545SOL    HW211535   4.032   4.968   6.506
 3546SOL     OW11536   6.503   5.149   3.130
 3546SOL    HW111537   6.522   5.158   3.227
 3546SOL    HW211538   6.583   5.114   3.082
 3547SOL     OW11539   5.127   5.138   4.483
 3547SOL    HW111540   5.065   5.201   4.529
 3547SOL    HW211541   5.157   5.177   4.396
 3548SOL     OW11542   4.984   2.471   5.820
 3548SOL    HW111543   4.951   2.376   5.818
 3548SOL    HW211544   4.926   2.528   5.763
 3549SOL     OW11545   5.685   4.745   2.956
 3549SOL    HW111546   5.700   4.839   2.925
 3549SOL    HW211547   5.623   4.699   2.892
 3550SOL     OW11548   5.513   1.981   2.291
 3550SOL    HW111549   5.595   1.987   2.348
 3550SOL    HW211550   5.466   1.894   2.309
 3551SOL     OW11551   2.871   6.459   3.154
 3551SOL    HW111552   2.784   6.506   3.159
 3551SOL    HW211553   2.943   6.524   3.131
 3552SOL     OW11554   6.331   5.072   2.815
 3552SOL    HW111555   6.290   5.128   2.887
 3552SOL    HW211556   6.426   5.101   2.801
 3553SOL     OW11557   5.324   1.715   3.028
 3553SOL    HW111558   5.315   1.803   3.075
 3553SOL    HW211559   5.382   1.726   2.947
 3554SOL     OW11560   4.183   4.625   6.599
 3554SOL    HW111561   4.091   4.593   6.621
 3554SOL    HW211562   4.178   4.715   6.555
 3555SOL     OW11563   0.975   2.990   3.321
 3555SOL    HW111564   1.056   2.933   3.328
 3555SOL    HW211565   0.979   3.045   3.238
 3556SOL     OW11566   3.473   0.914   6.201
 3556SOL    HW111567   3.551   0.856   6.181
 3556SOL    HW211568   3.435   0.950   6.115
 3557SOL     OW11569   1.541   0.139   5.285
 3557SOL    HW111570   1.628   0.187   5.295
 3557SOL    HW211571   1.540   0.089   5.199
 3558SOL     OW11572   6.935   5.959   1.485
 3558SOL    HW111573   6.959   5.872   1.527
 3558SOL    HW211574   7.016   6.016   1.477
 3559SOL     OW11575   0.809   0.547   5.136
 3559SOL    HW111576   0.831   0.612   5.209
 3559SOL    HW211577   0.749   0.591   5.070
 3560SOL     OW11578   0.449   6.375   0.934
 3560SOL    HW111579   0.439   6.336   0.843
 3560SOL    HW211580   0.381   6.335   0.996
 3561SOL     OW11581   4.949   4.922   5.327
 3561SOL    HW111582   4.962   4.836   5.375
 3561SOL    HW211583   5.008   4.992   5.367
 3562SOL     OW11584   5.283   0.820   2.844
 3562SOL    HW111585   5.382   0.826   2.831
 3562SOL    HW211586   5.249   0.735   2.804
 3563SOL     OW11587   4.647   0.736   1.667
 3563SOL    HW111588   4.658   0.697   1.576
 3563SOL    HW211589   4.706   0.816   1.676
 3564SOL     OW11590   6.930   4.801   3.200
 3564SOL    HW111591   6.903   4.719   3.252
 3564SOL    HW211592   0.009   4.799   3.183
 3565SOL     OW11593   1.976   0.676   5.168
 3565SOL    HW111594   2.019   0.759   5.205
 3565SOL    HW211595   1.935   0.697   5.080
 3566SOL     OW11596   0.629   3.301   5.719
 3566SOL    HW111597   0.724   3.313   5.690
 3566SOL    HW211598   0.588   3.227   5.666
 3567SOL     OW11599   0.116   3.218   1.064
 3567SOL    HW111600   0.049   3.178   1.127
 3567SOL    HW211601   0.104   3.317   1.061
 3568SOL     OW11602   4.615   4.279   3.549
 3568SOL    HW111603   4.625   4.279   3.648
 3568SOL    HW211604   4.704   4.262   3.506
 3569SOL     OW11605   3.790   3.471   4.056
 3569SOL    HW111606   3.844   3.440   4.134
 3569SOL    HW211607   3.735   3.396   4.021
 3570SOL     OW11608   0.194   2.441   5.892
 3570SOL    HW111609   0.127   2.368   5.881
 3570SOL    HW211610   0.284   2.402   5.907
 3571SOL     OW11611   2.437   6.836   4.826
 3571SOL    HW111612   2.475   6.928   4.822
 3571SOL    HW211613   2.345   6.836   4.786
 3572SOL     OW11614   4.906   4.754   2.038
 3572SOL    HW111615   4.983   4.775   1.977
 3572SOL    HW211616   4.878   4.659   2.024
 3573SOL     OW11617   6.850   3.899   3.208
 3573SOL    HW111618   6.934   3.950   3.223
 3573SOL    HW211619   6.772   3.962   3.209
 3574SOL     OW11620   2.159   2.837   5.966
 3574SOL    HW111621   2.197   2.929   5.958
 3574SOL    HW211622   2.089   2.836   6.037
 3575SOL     OW11623   5.570   7.011   0.489
 3575SOL    HW111624   5.620   6.928   0.468
 3575SOL    HW211625   5.526   0.027   0.407
 3576SOL     OW11626   1.728   2.627   0.875
 3576SOL    HW111627   1.646   2.681   0.895
 3576SOL    HW211628   1.712   2.573   0.792
 3577SOL     OW11629   2.461   2.979   5.736
 3577SOL    HW111630   2.541   3.037   5.721
 3577SOL    HW211631   2.436   2.933   5.650
 3578SOL     OW11632   2.904   3.213   6.138
 3578SOL    HW111633   2.806   3.193   6.134
 3578SOL    HW211634   2.920   3.308   6.111
 3579SOL     OW11635   0.656   2.725   1.703
 3579SOL    HW111636   0.586   2.726   1.633
 3579SOL    HW211637   0.701   2.814   1.707
 3580SOL     OW11638   0.469   4.531   1.851
 3580SOL    HW111639   0.382   4.483   1.845
 3580SOL    HW211640   0.483   4.564   1.944
 3581SOL     OW11641   1.282   6.852   2.756
 3581SOL    HW111642   1.201   6.873   2.701
 3581SOL    HW211643   1.285   6.914   2.834
 3582SOL     OW11644   3.738   4.737   5.882
 3582SOL    HW111645   3.712   4.819   5.933
 3582SOL    HW211646   3.801   4.682   5.937
 3583SOL     OW11647   0.345   5.190   0.567
 3583SOL    HW111648   0.432   5.228   0.536
 3583SOL    HW211649   0.349   5.171   0.665
 3584SOL     OW11650   6.197   4.788   4.696
 3584SOL    HW111651   6.146   4.856   4.642
 3584SOL    HW211652   6.145   4.763   4.777
 3585SOL     OW11653   2.707   1.567   3.021
 3585SOL    HW111654   2.688   1.482   3.070
 3585SOL    HW211655   2.710   1.549   2.923
 3586SOL     OW11656   6.646   2.027   4.656
 3586SOL    HW111657   6.695   1.940   4.656
 3586SOL    HW211658   6.580   2.028   4.581
 3587SOL     OW11659   2.855   6.656   6.379
 3587SOL    HW111660   2.862   6.742   6.329
 3587SOL    HW211661   2.940   6.640   6.430
 3588SOL     OW11662   6.262   4.586   4.520
 3588SOL    HW111663   6.228   4.645   4.594
 3588SOL    HW211664   6.358   4.606   4.503
 3589SOL     OW11665   0.243   6.755   6.128
 3589SOL    HW111666   0.327   6.728   6.176
 3589SOL    HW211667   0.221   6.850   6.151
 3590SOL     OW11668   6.481   4.943   0.610
 3590SOL    HW111669   6.443   5.031   0.636
 3590SOL    HW211670   6.555   4.919   0.673
 3591SOL     OW11671   5.822   1.753   6.443
 3591SOL    HW111672   5.861   1.672   6.488
 3591SOL    HW211673   5.723   1.741   6.434
 3592SOL     OW11674   2.171   6.134   1.568
 3592SOL    HW111675   2.241   6.066   1.587
 3592SOL    HW211676   2.147   6.183   1.653
 3593SOL     OW11677   4.725   3.213   5.657
 3593SOL    HW111678   4.702   3.251   5.568
 3593SOL    HW211679   4.660   3.141   5.681
 3594SOL     OW11680   4.518   4.583   5.237
 3594SOL    HW111681   4.518   4.499   5.291
 3594SOL    HW211682   4.496   4.562   5.142
 3595SOL     OW11683   5.365   6.369   5.302
 3595SOL    HW111684   5.397   6.321   5.220
 3595SOL    HW211685   5.279   6.415   5.282
 3596SOL     OW11686   4.024   2.188   3.695
 3596SOL    HW111687   4.087   2.243   3.750
 3596SOL    HW211688   3.972   2.127   3.755
 3597SOL     OW11689   2.348   3.149   5.381
 3597SOL    HW111690   2.259   3.104   5.376
 3597SOL    HW211691   2.411   3.107   5.315
 3598SOL     OW11692   1.024   5.604   5.172
 3598SOL    HW111693   1.036   5.612   5.271
 3598SOL    HW211694   1.097   5.547   5.134
 3599SOL     OW11695   3.875   1.531   4.745
 3599SOL    HW111696   3.926   1.607   4.785
 3599SOL    HW211697   3.804   1.501   4.808
 3600SOL     OW11698   3.104   3.086   0.107
 3600SOL    HW111699   3.034   3.029   0.151
 3600SOL    HW211700   3.195   3.052   0.132
 3601SOL     OW11701   4.836   0.736   5.530
 3601SOL    HW111702   4.872   0.828   5.547
 3601SOL    HW211703   4.773   0.710   5.603
 3602SOL     OW11704   1.874   1.561   1.560
 3602SOL    HW111705   1.897   1.657   1.543
 3602SOL    HW211706   1.777   1.546   1.540
 3603SOL     OW11707   3.052   0.740   5.499
 3603SOL    HW111708   3.060   0.839   5.486
 3603SOL    HW211709   3.055   0.695   5.410
 3604SOL     OW11710   6.961   0.189   3.267
 3604SOL    HW111711   6.908   0.244   3.201
 3604SOL    HW211712   6.978   0.242   3.349
 3605SOL     OW11713   1.647   5.935   3.502
 3605SOL    HW111714   1.554   5.939   3.467
 3605SOL    HW211715   1.704   5.881   3.441
 3606SOL     OW11716   2.874   6.680   2.418
 3606SOL    HW111717   2.942   6.628   2.469
 3606SOL    HW211718   2.783   6.647   2.441
 3607SOL     OW11719   5.553   2.126   2.537
 3607SOL    HW111720   5.515   2.146   2.447
 3607SOL    HW211721   5.478   2.107   2.601
 3608SOL     OW11722   2.930   1.762   5.968
 3608SOL    HW111723   2.864   1.741   5.895
 3608SOL    HW211724   2.885   1.753   6.057
 3609SOL     OW11725   2.566   0.576   4.833
 3609SOL    HW111726   2.599   0.620   4.750
 3609SOL    HW211727   2.642   0.531   4.879
 3610SOL     OW11728   1.856   0.040   5.215
 3610SOL    HW111729   1.870   0.045   5.116
 3610SOL    HW211730   1.861   0.132   5.254
 3611SOL     OW11731   5.569   5.398   2.982
 3611SOL    HW111732   5.584   5.300   2.988
 3611SOL    HW211733   5.495   5.424   3.045
 3612SOL     OW11734   6.124   1.245   6.956
 3612SOL    HW111735   6.149   1.341   6.967
 3612SOL    HW211736   6.196   1.198   6.904
 3613SOL     OW11737   4.625   5.508   1.866
 3613SOL    HW111738   4.710   5.465   1.833
 3613SOL    HW211739   4.587   5.564   1.793
 3614SOL     OW11740   3.719   4.783   6.558
 3614SOL    HW111741   3.806   4.804   6.602
 3614SOL    HW211742   3.706   4.843   6.479
 3615SOL     OW11743   5.519   2.817   5.941
 3615SOL    HW111744   5.568   2.884   5.885
 3615SOL    HW211745   5.508   2.732   5.889
 3616SOL     OW11746   1.236   1.340   6.981
 3616SOL    HW111747   1.246   1.428   0.007
 3616SOL    HW211748   1.171   1.348   6.906
 3617SOL     OW11749   4.011   6.370   5.496
 3617SOL    HW111750   3.989   6.334   5.587
 3617SOL    HW211751   3.992   6.468   5.494
 3618SOL     OW11752   1.554   4.813   4.575
 3618SOL    HW111753   1.648   4.780   4.577
 3618SOL    HW211754   1.527   4.846   4.665
 3619SOL     OW11755   5.615   3.836   1.381
 3619SOL    HW111756   5.642   3.754   1.331
 3619SOL    HW211757   5.688   3.862   1.444
 3620SOL     OW11758   6.219   5.734   5.133
 3620SOL    HW111759   6.269   5.805   5.181
 3620SOL    HW211760   6.166   5.680   5.199
 3621SOL     OW11761   2.913   3.520   3.609
 3621SOL    HW111762   2.897   3.527   3.510
 3621SOL    HW211763   2.915   3.424   3.635
 3622SOL     OW11764   1.298   5.883   6.709
 3622SOL    HW111765   1.358   5.952   6.669
 3622SOL    HW211766   1.334   5.854   6.797
 3623SOL     OW11767   0.948   5.213   6.058
 3623SOL    HW111768   0.979   5.126   6.018
 3623SOL    HW211769   0.962   5.211   6.157
 3624SOL     OW11770   2.748   2.037   1.466
 3624SOL    HW111771   2.777   2.036   1.370
 3624SOL    HW211772   2.822   2.071   1.523
 3625SOL     OW11773   6.696   2.039   0.374
 3625SOL    HW111774   6.731   2.062   0.284
 3625SOL    HW211775   6.634   2.111   0.405
 3626SOL     OW11776   1.394   2.767   4.989
 3626SOL    HW111777   1.488   2.766   4.954
 3626SOL    HW211778   1.392   2.814   5.077
 3627SOL     OW11779   3.418   2.003   2.102
 3627SOL    HW111780   3.493   2.068   2.116
 3627SOL    HW211781   3.374   1.983   2.190
 3628SOL     OW11782   6.130   2.063   1.149
 3628SOL    HW111783   6.095   1.977   1.111
 3628SOL    HW211784   6.210   2.044   1.205
 3629SOL     OW11785   0.977   0.848   3.775
 3629SOL    HW111786   1.011   0.754   3.773
 3629SOL    HW211787   0.904   0.859   3.708
 3630SOL     OW11788   0.104   2.066   2.213
 3630SOL    HW111789   0.072   2.055   2.118
 3630SOL    HW211790   0.080   2.157   2.246
 3631SOL     OW11791   1.672   6.853   2.264
 3631SOL    HW111792   1.586   6.884   2.303
 3631SOL    HW211793   1.713   6.927   2.210
 3632SOL     OW11794   4.310   3.824   1.524
 3632SOL    HW111795   4.262   3.738   1.508
 3632SOL    HW211796   4.375   3.839   1.450
 3633SOL     OW11797   4.178   3.970   6.637
 3633SOL    HW111798   4.080   3.966   6.616
 3633SOL    HW211799   4.231   3.955   6.554
 3634SOL     OW11800   3.473   5.724   6.525
 3634SOL    HW111801   3.518   5.636   6.542
 3634SOL    HW211802   3.510   5.765   6.442
 3635SOL     OW11803   1.727   6.809   1.898
 3635SOL    HW111804   1.766   6.758   1.974
 3635SOL    HW211805   1.780   6.791   1.815
 3636SOL     OW11806   0.733   4.684   0.073
 3636SOL    HW111807   0.674   4.631   0.012
 3636SOL    HW211808   0.679   4.755   0.118
 3637SOL     OW11809   6.086   3.575   0.019
 3637SOL    HW111810   6.124   3.623   0.098
 3637SOL    HW211811   5.986   3.575   0.026
 3638SOL     OW11812   6.476   4.128   3.159
 3638SOL    HW111813   6.545   4.128   3.231
 3638SOL    HW211814   6.394   4.081   3.192
 3639SOL     OW11815   3.644   3.214   4.175
 3639SOL    HW111816   3.663   3.134   4.119
 3639SOL    HW211817   3.687   3.203   4.265
 3640SOL     OW11818   4.713   2.277   1.049
 3640SOL    HW111819   4.682   2.340   1.121
 3640SOL    HW211820   4.679   2.185   1.068
 3641SOL     OW11821   5.974   3.714   2.688
 3641SOL    HW111822   5.991   3.809   2.663
 3641SOL    HW211823   6.015   3.694   2.777
 3642SOL     OW11824   5.532   3.420   6.516
 3642SOL    HW111825   5.466   3.494   6.528
 3642SOL    HW211826   5.552   3.407   6.419
 3643SOL     OW11827   4.003   5.997   5.635
 3643SOL    HW111828   3.956   5.974   5.550
 3643SOL    HW211829   3.972   6.086   5.669
 3644SOL     OW11830   2.548   0.277   1.295
 3644SOL    HW111831   2.514   0.370   1.311
 3644SOL    HW211832   2.550   0.226   1.381
 3645SOL     OW11833   0.985   4.518   3.194
 3645SOL    HW111834   1.050   4.442   3.203
 3645SOL    HW211835   0.970   4.559   3.284
 3646SOL     OW11836   1.562   4.553   5.418
 3646SOL    HW111837   1.516   4.567   5.330
 3646SOL    HW211838   1.636   4.486   5.407
 3647SOL     OW11839   3.288   0.008   6.304
 3647SOL    HW111840   3.297   6.928   6.295
 3647SOL    HW211841   3.378   0.050   6.300
 3648SOL     OW11842   4.528   5.494   3.407
 3648SOL    HW111843   4.524   5.593   3.421
 3648SOL    HW211844   4.623   5.463   3.412
 3649SOL     OW11845   6.163   2.588   0.149
 3649SOL    HW111846   6.183   2.685   0.139
 3649SOL    HW211847   6.133   2.569   0.243
 3650SOL     OW11848   5.606   5.925   6.831
 3650SOL    HW111849   5.627   5.965   6.920
 3650SOL    HW211850   5.690   5.888   6.791
 3651SOL     OW11851   0.600   2.070   5.666
 3651SOL    HW111852   0.671   2.020   5.716
 3651SOL    HW211853   0.607   2.168   5.686
 3652SOL     OW11854   4.087   1.724   1.655
 3652SOL    HW111855   4.019   1.766   1.715
 3652SOL    HW211856   4.068   1.626   1.648
 3653SOL     OW11857   1.271   1.307   0.918
 3653SOL    HW111858   1.252   1.210   0.935
 3653SOL    HW211859   1.370   1.322   0.921
 3654SOL     OW11860   5.211   6.469   1.250
 3654SOL    HW111861   5.160   6.456   1.336
 3654SOL    HW211862   5.241   6.563   1.243
 3655SOL     OW11863   1.652   1.415   3.895
 3655SOL    HW111864   1.638   1.403   3.797
 3655SOL    HW211865   1.749   1.429   3.914
 3656SOL     OW11866   6.919   0.358   1.389
 3656SOL    HW111867   6.991   0.317   1.332
 3656SOL    HW211868   6.832   0.314   1.367
 3657SOL     OW11869   5.717   5.256   5.724
 3657SOL    HW111870   5.812   5.285   5.735
 3657SOL    HW211871   5.669   5.264   5.812
 3658SOL     OW11872   2.201   5.172   5.414
 3658SOL    HW111873   2.181   5.190   5.510
 3658SOL    HW211874   2.296   5.142   5.405
 3659SOL     OW11875   0.474   2.584   6.065
 3659SOL    HW111876   0.468   2.644   6.145
 3659SOL    HW211877   0.383   2.574   6.024
 3660SOL     OW11878   5.835   5.647   6.788
 3660SOL    HW111879   5.885   5.716   6.736
 3660SOL    HW211880   5.749   5.626   6.741
 3661SOL     OW11881   6.974   1.676   4.825
 3661SOL    HW111882   0.051   1.678   4.851
 3661SOL    HW211883   6.921   1.634   4.899
 3662SOL     OW11884   2.656   2.038   5.277
 3662SOL    HW111885   2.618   1.993   5.197
 3662SOL    HW211886   2.731   2.099   5.249
 3663SOL     OW11887   2.581   2.028   6.555
 3663SOL    HW111888   2.554   2.086   6.631
 3663SOL    HW211889   2.664   2.065   6.513
 3664SOL     OW11890   3.974   1.477   1.652
 3664SOL    HW111891   3.947   1.437   1.740
 3664SOL    HW211892   3.895   1.523   1.611
 3665SOL     OW11893   0.963   5.852   5.866
 3665SOL    HW111894   0.994   5.767   5.823
 3665SOL    HW211895   0.929   5.833   5.958
 3666SOL     OW11896   2.438   2.680   4.606
 3666SOL    HW111897   2.447   2.590   4.650
 3666SOL    HW211898   2.421   2.668   4.509
 3667SOL     OW11899   2.011   0.213   1.253
 3667SOL    HW111900   2.092   0.207   1.311
 3667SOL    HW211901   1.939   0.154   1.290
 3668SOL     OW11902   6.761   0.651   1.008
 3668SOL    HW111903   6.729   0.650   1.103
 3668SOL    HW211904   6.848   0.700   1.003
 3669SOL     OW11905   0.731   1.378   3.572
 3669SOL    HW111906   0.737   1.328   3.658
 3669SOL    HW211907   0.634   1.394   3.549
 3670SOL     OW11908   2.869   6.868   2.185
 3670SOL    HW111909   2.828   6.815   2.260
 3670SOL    HW211910   2.913   6.806   2.120
 3671SOL     OW11911   6.439   0.660   3.932
 3671SOL    HW111912   6.512   0.727   3.918
 3671SOL    HW211913   6.432   0.637   4.029
 3672SOL     OW11914   3.338   6.995   3.590
 3672SOL    HW111915   3.369   0.022   3.506
 3672SOL    HW211916   3.416   6.980   3.651
 3673SOL     OW11917   3.317   6.378   1.053
 3673SOL    HW111918   3.262   6.316   1.109
 3673SOL    HW211919   3.352   6.453   1.109
 3674SOL     OW11920   1.185   4.349   6.469
 3674SOL    HW111921   1.175   4.249   6.466
 3674SOL    HW211922   1.205   4.378   6.562
 3675SOL     OW11923   1.271   0.217   3.745
 3675SOL    HW111924   1.297   0.282   3.816
 3675SOL    HW211925   1.184   0.174   3.770
 3676SOL     OW11926   3.625   1.670   4.441
 3676SOL    HW111927   3.551   1.708   4.385
 3676SOL    HW211928   3.670   1.743   4.492
 3677SOL     OW11929   1.744   0.874   4.714
 3677SOL    HW111930   1.707   0.959   4.751
 3677SOL    HW211931   1.681   0.837   4.645
 3678SOL     OW11932   1.233   0.662   4.035
 3678SOL    HW111933   1.222   0.761   4.039
 3678SOL    HW211934   1.153   0.617   4.075
 3679SOL     OW11935   4.281   0.330   2.626
 3679SOL    HW111936   4.266   0.312   2.723
 3679SOL    HW211937   4.347   0.404   2.616
 3680SOL     OW11938   3.346   1.507   4.498
 3680SOL    HW111939   3.394   1.571   4.559
 3680SOL    HW211940   3.327   1.552   4.411
 3681SOL     OW11941   1.085   6.152   3.921
 3681SOL    HW111942   1.165   6.207   3.896
 3681SOL    HW211943   1.114   6.064   3.959
 3682SOL     OW11944   5.387   2.605   1.052
 3682SOL    HW111945   5.414   2.510   1.036
 3682SOL    HW211946   5.301   2.624   1.004
 3683SOL     OW11947   6.290   1.168   6.679
 3683SOL    HW111948   6.373   1.161   6.623
 3683SOL    HW211949   6.211   1.184   6.619
 3684SOL     OW11950   2.202   6.468   5.234
 3684SOL    HW111951   2.271   6.538   5.249
 3684SOL    HW211952   2.113   6.511   5.216
 3685SOL     OW11953   2.166   5.866   4.875
 3685SOL    HW111954   2.230   5.824   4.810
 3685SOL    HW211955   2.090   5.907   4.825
 3686SOL     OW11956   0.345   3.799   1.766
 3686SOL    HW111957   0.368   3.886   1.809
 3686SOL    HW211958   0.423   3.768   1.711
 3687SOL     OW11959   5.521   4.668   4.696
 3687SOL    HW111960   5.581   4.732   4.649
 3687SOL    HW211961   5.432   4.665   4.649
 3688SOL     OW11962   6.488   2.526   0.550
 3688SOL    HW111963   6.521   2.435   0.523
 3688SOL    HW211964   6.483   2.585   0.470
 3689SOL     OW11965   1.273   6.887   5.866
 3689SOL    HW111966   1.208   6.834   5.811
 3689SOL    HW211967   1.339   6.825   5.909
 3690SOL     OW11968   5.152   5.680   2.052
 3690SOL    HW111969   5.206   5.630   2.119
 3690SOL    HW211970   5.149   5.630   1.966
 3691SOL     OW11971   1.670   2.985   0.539
 3691SOL    HW111972   1.604   2.971   0.612
 3691SOL    HW211973   1.700   3.080   0.539
 3692SOL     OW11974   0.716   3.028   5.688
 3692SOL    HW111975   0.729   2.932   5.664
 3692SOL    HW211976   0.777   3.051   5.765
 3693SOL     OW11977   6.651   1.673   2.335
 3693SOL    HW111978   6.637   1.770   2.316
 3693SOL    HW211979   6.721   1.663   2.406
 3694SOL     OW11980   6.768   6.983   2.693
 3694SOL    HW111981   6.765   7.007   2.790
 3694SOL    HW211982   6.831   0.024   2.646
 3695SOL     OW11983   5.438   3.528   2.964
 3695SOL    HW111984   5.366   3.459   2.957
 3695SOL    HW211985   5.519   3.487   3.005
 3696SOL     OW11986   3.835   0.540   4.451
 3696SOL    HW111987   3.771   0.556   4.525
 3696SOL    HW211988   3.798   0.577   4.366
 3697SOL     OW11989   6.801   6.139   3.031
 3697SOL    HW111990   6.708   6.174   3.020
 3697SOL    HW211991   6.862   6.213   3.059
 3698SOL     OW11992   1.012   0.113   2.396
 3698SOL    HW111993   0.988   0.208   2.376
 3698SOL    HW211994   1.076   0.080   2.327
 3699SOL     OW11995   2.745   2.352   3.385
 3699SOL    HW111996   2.655   2.394   3.394
 3699SOL    HW211997   2.790   2.352   3.475
 3700SOL     OW11998   0.891   5.532   4.923
 3700SOL    HW111999   0.900   5.586   5.007
 3700SOL    HW212000   0.883   5.435   4.947
 3701SOL     OW12001   1.067   0.383   1.972
 3701SOL    HW112002   1.162   0.353   1.972
 3701SOL    HW212003   1.009   0.311   1.935
 3702SOL     OW12004   5.923   4.342   3.201
 3702SOL    HW112005   5.949   4.265   3.143
 3702SOL    HW212006   5.860   4.310   3.272
 3703SOL     OW12007   1.360   1.755   4.101
 3703SOL    HW112008   1.310   1.765   4.015
 3703SOL    HW212009   1.444   1.704   4.086
 3704SOL     OW12010   6.568   1.268   0.517
 3704SOL    HW112011   6.522   1.354   0.499
 3704SOL    HW212012   6.640   1.254   0.450
 3705SOL     OW12013   5.279   4.292   3.959
 3705SOL    HW112014   5.209   4.223   3.975
 3705SOL    HW212015   5.324   4.314   4.046
 3706SOL     OW12016   1.229   4.002   6.846
 3706SOL    HW112017   1.210   3.960   6.758
 3706SOL    HW212018   1.164   4.076   6.863
 3707SOL     OW12019   1.060   5.256   3.298
 3707SOL    HW112020   0.977   5.302   3.267
 3707SOL    HW212021   1.106   5.314   3.366
 3708SOL     OW12022   2.277   6.002   1.088
 3708SOL    HW112023   2.181   6.020   1.108
 3708SOL    HW212024   2.335   6.047   1.156
 3709SOL     OW12025   1.183   1.512   1.842
 3709SOL    HW112026   1.246   1.481   1.771
 3709SOL    HW212027   1.171   1.439   1.910
 3710SOL     OW12028   0.467   4.229   5.435
 3710SOL    HW112029   0.368   4.222   5.418
 3710SOL    HW212030   0.504   4.137   5.449
 3711SOL     OW12031   0.974   5.889   4.452
 3711SOL    HW112032   0.921   5.846   4.526
 3711SOL    HW212033   0.913   5.945   4.396
 3712SOL     OW12034   1.758   5.283   4.258
 3712SOL    HW112035   1.702   5.366   4.264
 3712SOL    HW212036   1.702   5.203   4.278
 3713SOL     OW12037   6.348   0.609   4.245
 3713SOL    HW112038   6.420   0.573   4.306
 3713SOL    HW212039   6.325   0.702   4.273
 3714SOL     OW12040   0.833   4.238   0.473
 3714SOL    HW112041   0.747   4.228   0.523
 3714SOL    HW212042   0.898   4.168   0.503
 3715SOL     OW12043   5.753   5.204   3.492
 3715SOL    HW112044   5.739   5.182   3.395
 3715SOL    HW212045   5.734   5.301   3.507
 3716SOL     OW12046   4.957   5.289   4.647
 3716SOL    HW112047   4.937   5.354   4.574
 3716SOL    HW212048   5.015   5.332   4.716
 3717SOL     OW12049   4.694   1.266   1.033
 3717SOL    HW112050   4.742   1.194   0.984
 3717SOL    HW212051   4.727   1.355   1.002
 3718SOL     OW12052   6.117   6.520   6.239
 3718SOL    HW112053   6.054   6.442   6.235
 3718SOL    HW212054   6.100   6.572   6.323
 3719SOL     OW12055   3.424   3.888   6.975
 3719SOL    HW112056   3.453   3.873   0.050
 3719SOL    HW212057   3.366   3.813   6.944
 3720SOL     OW12058   0.068   3.476   1.110
 3720SOL    HW112059   0.109   3.549   1.163
 3720SOL    HW212060   7.000   3.507   1.072
 3721SOL     OW12061   6.821   6.798   5.650
 3721SOL    HW112062   6.741   6.811   5.591
 3721SOL    HW212063   6.795   6.746   5.730
 3722SOL     OW12064   5.626   6.843   2.621
 3722SOL    HW112065   5.707   6.858   2.563
 3722SOL    HW212066   5.592   6.750   2.606
 3723SOL     OW12067   4.651   3.529   0.304
 3723SOL    HW112068   4.600   3.603   0.260
 3723SOL    HW212069   4.641   3.536   0.404
 3724SOL     OW12070   0.656   5.228   4.581
 3724SOL    HW112071   0.717   5.304   4.605
 3724SOL    HW212072   0.675   5.198   4.488
 3725SOL     OW12073   1.266   6.501   6.928
 3725SOL    HW112074   1.217   6.518   7.014
 3725SOL    HW212075   1.271   6.402   6.913
 3726SOL     OW12076   6.002   3.636   4.867
 3726SOL    HW112077   6.029   3.696   4.792
 3726SOL    HW212078   6.081   3.618   4.926
 3727SOL     OW12079   6.919   2.915   3.881
 3727SOL    HW112080   6.904   2.918   3.979
 3727SOL    HW212081   6.841   2.957   3.834
 3728SOL     OW12082   2.411   3.016   0.847
 3728SOL    HW112083   2.446   3.103   0.882
 3728SOL    HW212084   2.485   2.965   0.804
 3729SOL     OW12085   0.549   0.423   5.831
 3729SOL    HW112086   0.482   0.373   5.776
 3729SOL    HW212087   0.634   0.432   5.779
 3730SOL     OW12088   5.024   5.684   4.719
 3730SOL    HW112089   5.005   5.776   4.685
 3730SOL    HW212090   4.999   5.616   4.650
 3731SOL     OW12091   0.056   2.246   6.775
 3731SOL    HW112092   0.018   2.279   6.688
 3731SOL    HW212093   0.016   2.157   6.796
 3732SOL     OW12094   3.538   2.465   6.918
 3732SOL    HW112095   3.625   2.418   6.900
 3732SOL    HW212096   3.494   2.488   6.831
 3733SOL     OW12097   1.257   0.390   3.502
 3733SOL    HW112098   1.322   0.335   3.555
 3733SOL    HW212099   1.301   0.476   3.475
 3734SOL     OW12100   3.991   0.075   0.891
 3734SOL    HW112101   4.047   0.105   0.968
 3734SOL    HW212102   3.894   0.081   0.916
 3735SOL     OW12103   4.576   6.842   2.859
 3735SOL    HW112104   4.665   6.825   2.816
 3735SOL    HW212105   4.507   6.785   2.815
 3736SOL     OW12106   6.658   1.120   0.093
 3736SOL    HW112107   6.600   1.038   0.093
 3736SOL    HW212108   6.648   1.168   0.006
 3737SOL     OW12109   6.643   2.324   2.680
 3737SOL    HW112110   6.670   2.254   2.614
 3737SOL    HW212111   6.575   2.285   2.743
 3738SOL     OW12112   6.904   6.984   1.226
 3738SOL    HW112113   6.985   6.926   1.219
 3738SOL    HW212114   6.824   6.926   1.245
 3739SOL     OW12115   3.163   3.504   0.180
 3739SOL    HW112116   3.172   3.567   0.103
 3739SOL    HW212117   3.106   3.427   0.153
 3740SOL     OW12118   4.607   5.560   6.504
 3740SOL    HW112119   4.614   5.596   6.597
 3740SOL    HW212120   4.579   5.464   6.506
 3741SOL     OW12121   5.533   3.389   0.206
 3741SOL    HW112122   5.583   3.467   0.244
 3741SOL    HW212123   5.438   3.414   0.191
 3742SOL     OW12124   3.693   5.894   1.122
 3742SOL    HW112125   3.607   5.849   1.146
 3742SOL    HW212126   3.697   5.906   1.023
 3743SOL     OW12127   3.620   3.330   1.405
 3743SOL    HW112128   3.719   3.319   1.390
 3743SOL    HW212129   3.591   3.419   1.369
 3744SOL     OW12130   0.246   6.700   2.187
 3744SOL    HW112131   0.190   6.712   2.105
 3744SOL    HW212132   0.206   6.752   2.262
 3745SOL     OW12133   5.075   3.022   2.467
 3745SOL    HW112134   5.061   3.030   2.368
 3745SOL    HW212135   4.987   3.027   2.514
 3746SOL     OW12136   6.257   0.472   4.041
 3746SOL    HW112137   6.272   0.517   3.954
 3746SOL    HW212138   6.275   0.536   4.116
 3747SOL     OW12139   3.283   6.339   5.695
 3747SOL    HW112140   3.236   6.260   5.734
 3747SOL    HW212141   3.357   6.367   5.756
 3748SOL     OW12142   5.030   1.865   3.139
 3748SOL    HW112143   5.104   1.903   3.195
 3748SOL    HW212144   4.947   1.859   3.194
 3749SOL     OW12145   0.194   6.447   2.555
 3749SOL    HW112146   0.293   6.465   2.549
 3749SOL    HW212147   0.172   6.406   2.643
 3750SOL     OW12148   5.425   4.550   1.093
 3750SOL    HW112149   5.522   4.561   1.114
 3750SOL    HW212150   5.389   4.470   1.141
 3751SOL     OW12151   1.694   3.735   2.451
 3751SOL    HW112152   1.769   3.773   2.505
 3751SOL    HW212153   1.700   3.766   2.357
 3752SOL     OW12154   0.759   6.309   5.839
 3752SOL    HW112155   0.776   6.260   5.754
 3752SOL    HW212156   0.673   6.360   5.831
 3753SOL     OW12157   6.776   0.281   4.621
 3753SOL    HW112158   6.818   0.311   4.707
 3753SOL    HW212159   6.743   0.187   4.632
 3754SOL     OW12160   6.860   6.606   1.747
 3754SOL    HW112161   6.901   6.692   1.778
 3754SOL    HW212162   6.827   6.554   1.826
 3755SOL     OW12163   4.765   2.721   2.932
 3755SOL    HW112164   4.796   2.627   2.926
 3755SOL    HW212165   4.843   2.783   2.939
 3756SOL     OW12166   3.147   0.235   6.828
 3756SOL    HW112167   3.186   0.186   6.906
 3756SOL    HW212168   3.219   0.288   6.782
 3757SOL     OW12169   3.174   4.817   0.090
 3757SOL    HW112170   3.184   4.748   0.162
 3757SOL    HW212171   3.196   4.775   0.002
 3758SOL     OW12172   0.707   0.653   3.599
 3758SOL    HW112173   0.775   0.593   3.640
 3758SOL    HW212174   0.618   0.637   3.642
 3759SOL     OW12175   4.857   4.743   0.110
 3759SOL    HW112176   4.796   4.810   0.152
 3759SOL    HW212177   4.830   4.730   0.014
 3760SOL     OW12178   1.980   2.465   5.339
 3760SOL    HW112179   1.907   2.435   5.401
 3760SOL    HW212180   1.972   2.563   5.322
 3761SOL     OW12181   6.979   6.565   3.685
 3761SOL    HW112182   7.013   6.553   3.778
 3761SOL    HW212183   0.014   6.509   3.622
 3762SOL     OW12184   0.653   3.791   6.676
 3762SOL    HW112185   0.606   3.734   6.610
 3762SOL    HW212186   0.629   3.887   6.661
 3763SOL     OW12187   6.357   3.442   6.141
 3763SOL    HW112188   6.281   3.507   6.145
 3763SOL    HW212189   6.326   3.356   6.101
 3764SOL     OW12190   1.955   6.571   3.733
 3764SOL    HW112191   2.034   6.631   3.747
 3764SOL    HW212192   1.970   6.515   3.652
 3765SOL     OW12193   5.780   1.407   4.241
 3765SOL    HW112194   5.756   1.450   4.328
 3765SOL    HW212195   5.861   1.349   4.254
 3766SOL     OW12196   1.555   0.458   5.214
 3766SOL    HW112197   1.555   0.467   5.115
 3766SOL    HW212198   1.588   0.366   5.239
 3767SOL     OW12199   1.729   4.412   1.236
 3767SOL    HW112200   1.749   4.509   1.254
 3767SOL    HW212201   1.798   4.355   1.281
 3768SOL     OW12202   4.907   6.648   0.750
 3768SOL    HW112203   4.938   6.597   0.830
 3768SOL    HW212204   4.818   6.613   0.720
 3769SOL     OW12205   4.261   6.342   5.046
 3769SOL    HW112206   4.233   6.263   5.101
 3769SOL    HW212207   4.361   6.345   5.039
 3770SOL     OW12208   2.046   1.550   7.002
 3770SOL    HW112209   2.036   1.575   0.079
 3770SOL    HW212210   1.989   1.610   6.946
 3771SOL     OW12211   5.154   1.349   5.710
 3771SOL    HW112212   5.055   1.343   5.724
 3771SOL    HW212213   5.177   1.309   5.621
 3772SOL     OW12214   5.287   1.006   2.625
 3772SOL    HW112215   5.227   1.027   2.702
 3772SOL    HW212216   5.242   0.940   2.565
 3773SOL     OW12217   6.573   2.866   6.728
 3773SOL    HW112218   6.635   2.895   6.801
 3773SOL    HW212219   6.597   2.773   6.700
 3774SOL     OW12220   0.680   1.380   1.810
 3774SOL    HW112221   0.617   1.304   1.820
 3774SOL    HW212222   0.629   1.463   1.785
 3775SOL     OW12223   5.756   3.312   3.709
 3775SOL    HW112224   5.749   3.374   3.786
 3775SOL    HW212225   5.725   3.358   3.626
 3776SOL     OW12226   2.691   2.991   0.086
 3776SOL    HW112227   2.648   2.938   0.013
 3776SOL    HW212228   2.765   2.938   0.127
 3777SOL     OW12229   1.730   4.476   3.453
 3777SOL    HW112230   1.714   4.377   3.449
 3777SOL    HW212231   1.702   4.519   3.368
 3778SOL     OW12232   2.368   6.882   2.182
 3778SOL    HW112233   2.353   6.784   2.165
 3778SOL    HW212234   2.315   6.910   2.262
 3779SOL     OW12235   3.052   4.972   6.543
 3779SOL    HW112236   3.019   4.983   6.637
 3779SOL    HW212237   2.978   4.996   6.479
 3780SOL     OW12238   3.052   6.983   4.661
 3780SOL    HW112239   3.108   0.018   4.599
 3780SOL    HW212240   3.029   0.018   4.742
 3781SOL     OW12241   3.260   5.395   4.965
 3781SOL    HW112242   3.199   5.316   4.967
 3781SOL    HW212243   3.208   5.476   4.937
 3782SOL     OW12244   1.970   1.883   3.221
 3782SOL    HW112245   1.924   1.887   3.132
 3782SOL    HW212246   2.058   1.837   3.211
 3783SOL     OW12247   4.625   5.377   5.847
 3783SOL    HW112248   4.725   5.376   5.851
 3783SOL    HW212249   4.594   5.460   5.802
 3784SOL     OW12250   4.762   0.984   3.514
 3784SOL    HW112251   4.759   0.954   3.610
 3784SOL    HW212252   4.855   1.012   3.491
 3785SOL     OW12253   1.544   1.728   1.578
 3785SOL    HW112254   1.542   1.652   1.643
 3785SOL    HW212255   1.506   1.698   1.490
 3786SOL     OW12256   3.015   5.269   2.557
 3786SOL    HW112257   2.939   5.332   2.576
 3786SOL    HW212258   2.979   5.188   2.512
 3787SOL     OW12259   3.758   1.612   3.996
 3787SOL    HW112260   3.820   1.667   3.940
 3787SOL    HW212261   3.701   1.555   3.937
 3788SOL     OW12262   6.067   3.272   2.365
 3788SOL    HW112263   6.149   3.254   2.419
 3788SOL    HW212264   6.028   3.360   2.391
 3789SOL     OW12265   1.306   4.939   2.675
 3789SOL    HW112266   1.294   4.911   2.580
 3789SOL    HW212267   1.224   4.987   2.706
 3790SOL     OW12268   2.083   3.538   3.986
 3790SOL    HW112269   2.002   3.529   3.928
 3790SOL    HW212270   2.123   3.628   3.973
 3791SOL     OW12271   5.037   0.240   2.146
 3791SOL    HW112272   5.044   0.288   2.059
 3791SOL    HW212273   5.102   0.278   2.211
 3792SOL     OW12274   0.040   6.912   5.614
 3792SOL    HW112275   0.124   6.862   5.633
 3792SOL    HW212276   6.981   6.860   5.651
 3793SOL     OW12277   2.340   0.480   2.415
 3793SOL    HW112278   2.381   0.459   2.503
 3793SOL    HW212279   2.287   0.565   2.423
 3794SOL     OW12280   4.326   6.366   2.429
 3794SOL    HW112281   4.342   6.423   2.510
 3794SOL    HW212282   4.267   6.416   2.365
 3795SOL     OW12283   4.801   6.922   0.127
 3795SOL    HW112284   4.766   6.998   0.074
 3795SOL    HW212285   4.900   6.916   0.116
 3796SOL     OW12286   1.714   2.757   1.801
 3796SOL    HW112287   1.663   2.672   1.789
 3796SOL    HW212288   1.739   2.767   1.898
 3797SOL     OW12289   0.449   5.252   2.490
 3797SOL    HW112290   0.424   5.347   2.509
 3797SOL    HW212291   0.450   5.201   2.576
 3798SOL     OW12292   1.693   4.065   2.330
 3798SOL    HW112293   1.687   4.151   2.380
 3798SOL    HW212294   1.785   4.028   2.337
 3799SOL     OW12295   1.763   0.280   5.303
 3799SOL    HW112296   1.765   0.318   5.395
 3799SOL    HW212297   1.839   0.316   5.250
 3800SOL     OW12298   4.792   2.868   4.516
 3800SOL    HW112299   4.889   2.848   4.532
 3800SOL    HW212300   4.740   2.853   4.600
 3801SOL     OW12301   0.173   0.046   6.712
 3801SOL    HW112302   0.199   7.012   6.631
 3801SOL    HW212303   0.196   0.142   6.697
 3802SOL     OW12304   1.675   2.542   5.182
 3802SOL    HW112305   1.745   2.471   5.188
 3802SOL    HW212306   1.598   2.509   5.127
 3803SOL     OW12307   3.893   1.354   0.950
 3803SOL    HW112308   3.965   1.394   1.007
 3803SOL    HW212309   3.861   1.269   0.992
 3804SOL     OW12310   4.756   2.390   5.478
 3804SOL    HW112311   4.798   2.300   5.493
 3804SOL    HW212312   4.725   2.428   5.565
 3805SOL     OW12313   2.069   3.759   1.382
 3805SOL    HW112314   2.130   3.792   1.454
 3805SOL    HW212315   2.044   3.664   1.401
 3806SOL     OW12316   2.572   1.826   0.212
 3806SOL    HW112317   2.623   1.747   0.178
 3806SOL    HW212318   2.482   1.828   0.169
 3807SOL     OW12319   1.180   6.690   3.094
 3807SOL    HW112320   1.134   6.670   3.007
 3807SOL    HW212321   1.217   6.605   3.132
 3808SOL     OW12322   3.320   0.474   1.615
 3808SOL    HW112323   3.282   0.466   1.707
 3808SOL    HW212324   3.260   0.429   1.549
 3809SOL     OW12325   4.646   0.650   6.300
 3809SOL    HW112326   4.549   0.637   6.280
 3809SOL    HW212327   4.668   0.606   6.387
 3810SOL     OW12328   2.691   3.035   5.367
 3810SOL    HW112329   2.684   3.129   5.400
 3810SOL    HW212330   2.608   3.011   5.317
 3811SOL     OW12331   0.702   6.282   6.264
 3811SOL    HW112332   0.666   6.351   6.200
 3811SOL    HW212333   0.755   6.214   6.214
 3812SOL     OW12334   5.400   1.301   5.306
 3812SOL    HW112335   5.485   1.354   5.305
 3812SOL    HW212336   5.420   1.205   5.290
 3813SOL     OW12337   3.791   4.784   1.738
 3813SOL    HW112338   3.754   4.876   1.724
 3813SOL    HW212339   3.716   4.719   1.751
 3814SOL     OW12340   1.354   6.489   2.280
 3814SOL    HW112341   1.372   6.434   2.199
 3814SOL    HW212342   1.300   6.435   2.345
 3815SOL     OW12343   5.366   2.286   1.407
 3815SOL    HW112344   5.393   2.210   1.348
 3815SOL    HW212345   5.277   2.266   1.448
 3816SOL     OW12346   0.626   6.661   1.405
 3816SOL    HW112347   0.607   6.630   1.312
 3816SOL    HW212348   0.680   6.745   1.401
 3817SOL     OW12349   5.255   1.917   5.422
 3817SOL    HW112350   5.317   1.862   5.479
 3817SOL    HW212351   5.232   1.867   5.339
 3818SOL     OW12352   5.462   5.204   2.538
 3818SOL    HW112353   5.437   5.290   2.584
 3818SOL    HW212354   5.554   5.213   2.499
 3819SOL     OW12355   5.255   4.285   6.127
 3819SOL    HW112356   5.179   4.281   6.193
 3819SOL    HW212357   5.317   4.358   6.153
 3820SOL     OW12358   5.296   6.474   4.084
 3820SOL    HW112359   5.212   6.457   4.135
 3820SOL    HW212360   5.279   6.546   4.016
 3821SOL     OW12361   0.648   4.048   1.961
 3821SOL    HW112362   0.671   4.007   2.049
 3821SOL    HW212363   0.732   4.077   1.915
 3822SOL     OW12364   2.001   4.999   1.991
 3822SOL    HW112365   1.982   4.904   1.968
 3822SOL    HW212366   2.076   5.003   2.057
 3823SOL     OW12367   3.126   2.818   5.394
 3823SOL    HW112368   3.206   2.867   5.429
 3823SOL    HW212369   3.063   2.882   5.351
 3824SOL     OW12370   0.200   2.509   6.455
 3824SOL    HW112371   0.168   2.592   6.501
 3824SOL    HW212372   0.138   2.488   6.379
 3825SOL     OW12373   6.560   0.152   6.252
 3825SOL    HW112374   6.595   0.227   6.308
 3825SOL    HW212375   6.493   0.187   6.187
 3826SOL     OW12376   6.910   2.434   1.349
 3826SOL    HW112377   6.993   2.417   1.296
 3826SOL    HW212378   6.857   2.350   1.358
 3827SOL     OW12379   4.574   3.790   0.794
 3827SOL    HW112380   4.602   3.819   0.885
 3827SOL    HW212381   4.617   3.849   0.726
 3828SOL     OW12382   4.221   1.233   2.022
 3828SOL    HW112383   4.122   1.236   2.008
 3828SOL    HW212384   4.262   1.317   1.988
 3829SOL     OW12385   1.552   5.469   3.139
 3829SOL    HW112386   1.484   5.422   3.083
 3829SOL    HW212387   1.542   5.441   3.235
 3830SOL     OW12388   2.856   0.359   4.815
 3830SOL    HW112389   2.911   0.379   4.734
 3830SOL    HW212390   2.878   0.424   4.887
 3831SOL     OW12391   4.068   1.521   1.926
 3831SOL    HW112392   4.055   1.496   2.022
 3831SOL    HW212393   4.001   1.590   1.900
 3832SOL     OW12394   5.855   0.227   2.737
 3832SOL    HW112395   5.857   0.142   2.685
 3832SOL    HW212396   5.765   0.238   2.779
 3833SOL     OW12397   1.168   5.209   6.676
 3833SOL    HW112398   1.224   5.268   6.734
 3833SOL    HW212399   1.112   5.265   6.615
 3834SOL     OW12400   2.291   2.212   0.790
 3834SOL    HW112401   2.284   2.282   0.719
 3834SOL    HW212402   2.337   2.250   0.870
 3835SOL     OW12403   3.354   6.107   4.368
 3835SOL    HW112404   3.349   6.207   4.375
 3835SOL    HW212405   3.358   6.081   4.271
 3836SOL     OW12406   1.236   3.439   5.383
 3836SOL    HW112407   1.193   3.395   5.462
 3836SOL    HW212408   1.234   3.538   5.395
 3837SOL     OW12409   3.461   3.505   0.019
 3837SOL    HW112410   3.400   3.523   0.096
 3837SOL    HW212411   3.556   3.498   0.051
 3838SOL     OW12412   6.124   3.477   5.600
 3838SOL    HW112413   6.036   3.509   5.565
 3838SOL    HW212414   6.111   3.390   5.648
 3839SOL     OW12415   6.328   6.322   5.978
 3839SOL    HW112416   6.261   6.249   5.965
 3839SOL    HW212417   6.296   6.405   5.933
 3840SOL     OW12418   2.408   0.406   3.652
 3840SOL    HW112419   2.358   0.319   3.646
 3840SOL    HW212420   2.453   0.413   3.741
 3841SOL     OW12421   0.261   3.702   4.689
 3841SOL    HW112422   0.242   3.630   4.756
 3841SOL    HW212423   0.278   3.788   4.736
 3842SOL     OW12424   1.016   5.051   6.828
 3842SOL    HW112425   1.066   5.119   6.775
 3842SOL    HW212426   0.919   5.053   6.804
 3843SOL     OW12427   5.928   4.183   0.974
 3843SOL    HW112428   5.933   4.232   0.887
 3843SOL    HW212429   5.861   4.109   0.966
 3844SOL     OW12430   2.263   4.204   6.693
 3844SOL    HW112431   2.247   4.172   6.786
 3844SOL    HW212432   2.315   4.290   6.696
 3845SOL     OW12433   3.226   3.412   3.766
 3845SOL    HW112434   3.263   3.504   3.757
 3845SOL    HW212435   3.193   3.398   3.860
 3846SOL     OW12436   6.852   4.255   3.486
 3846SOL    HW112437   6.942   4.250   3.443
 3846SOL    HW212438   6.857   4.312   3.568
 3847SOL     OW12439   0.968   0.228   0.290
 3847SOL    HW112440   1.044   0.163   0.296
 3847SOL    HW212441   0.992   0.302   0.228
 3848SOL     OW12442   3.252   5.038   0.438
 3848SOL    HW112443   3.271   5.036   0.536
 3848SOL    HW212444   3.181   4.971   0.416
 3849SOL     OW12445   2.452   2.310   5.870
 3849SOL    HW112446   2.542   2.266   5.879
 3849SOL    HW212447   2.413   2.323   5.962
 3850SOL     OW12448   2.431   3.596   1.474
 3850SOL    HW112449   2.405   3.630   1.384
 3850SOL    HW212450   2.409   3.664   1.543
 3851SOL     OW12451   2.336   2.628   1.551
 3851SOL    HW112452   2.431   2.646   1.527
 3851SOL    HW212453   2.277   2.699   1.512
 3852SOL     OW12454   4.736   1.038   5.961
 3852SOL    HW112455   4.707   0.942   5.953
 3852SOL    HW212456   4.658   1.098   5.944
 3853SOL     OW12457   1.519   2.924   2.429
 3853SOL    HW112458   1.435   2.892   2.384
 3853SOL    HW212459   1.556   2.850   2.485
 3854SOL     OW12460   1.225   2.976   4.770
 3854SOL    HW112461   1.201   3.038   4.845
 3854SOL    HW212462   1.165   2.897   4.772
 3855SOL     OW12463   6.830   1.969   5.234
 3855SOL    HW112464   6.797   1.885   5.192
 3855SOL    HW212465   6.792   2.048   5.186
 3856SOL     OW12466   0.932   6.570   5.232
 3856SOL    HW112467   0.905   6.572   5.136
 3856SOL    HW212468   0.997   6.644   5.249
 3857SOL     OW12469   0.757   0.018   6.065
 3857SOL    HW112470   0.835   6.989   6.107
 3857SOL    HW212471   0.712   0.073   6.134
 3858SOL     OW12472   2.140   5.333   6.512
 3858SOL    HW112473   2.130   5.299   6.606
 3858SOL    HW212474   2.145   5.433   6.514
 3859SOL     OW12475   6.595   2.272   1.963
 3859SOL    HW112476   6.627   2.245   1.872
 3859SOL    HW212477   6.498   2.295   1.958
 3860SOL     OW12478   2.042   6.622   5.080
 3860SOL    HW112479   2.076   6.546   5.024
 3860SOL    HW212480   2.014   6.697   5.021
 3861SOL     OW12481   4.449   4.744   1.081
 3861SOL    HW112482   4.536   4.791   1.064
 3861SOL    HW212483   4.440   4.723   1.178
 3862SOL     OW12484   1.229   5.046   5.793
 3862SOL    HW112485   1.309   5.050   5.732
 3862SOL    HW212486   1.185   5.136   5.794
 3863SOL     OW12487   3.385   2.978   0.860
 3863SOL    HW112488   3.348   2.892   0.825
 3863SOL    HW212489   3.315   3.025   0.915
 3864SOL     OW12490   3.142   1.823   0.011
 3864SOL    HW112491   3.239   1.838   7.011
 3864SOL    HW212492   3.100   1.777   6.952
 3865SOL     OW12493   4.517   0.690   2.229
 3865SOL    HW112494   4.563   0.605   2.203
 3865SOL    HW212495   4.466   0.726   2.151
 3866SOL     OW12496   3.911   6.367   6.101
 3866SOL    HW112497   3.855   6.314   6.037
 3866SOL    HW212498   3.983   6.309   6.139
 3867SOL     OW12499   1.871   3.842   3.905
 3867SOL    HW112500   1.805   3.863   3.833
 3867SOL    HW212501   1.823   3.804   3.984
 3868SOL     OW12502   1.495   5.578   2.641
 3868SOL    HW112503   1.460   5.488   2.616
 3868SOL    HW212504   1.584   5.568   2.684
 3869SOL     OW12505   1.554   1.555   4.126
 3869SOL    HW112506   1.578   1.531   4.032
 3869SOL    HW212507   1.483   1.493   4.159
 3870SOL     OW12508   3.838   4.438   0.629
 3870SOL    HW112509   3.826   4.356   0.684
 3870SOL    HW212510   3.857   4.516   0.688
 3871SOL     OW12511   3.070   1.761   4.651
 3871SOL    HW112512   3.007   1.838   4.663
 3871SOL    HW212513   3.021   1.675   4.664
 3872SOL     OW12514   4.341   3.606   0.440
 3872SOL    HW112515   4.321   3.513   0.469
 3872SOL    HW212516   4.323   3.669   0.516
 3873SOL     OW12517   5.071   4.479   1.752
 3873SOL    HW112518   5.152   4.487   1.810
 3873SOL    HW212519   5.072   4.552   1.683
 3874SOL     OW12520   4.883   5.884   6.421
 3874SOL    HW112521   4.947   5.841   6.485
 3874SOL    HW212522   4.805   5.921   6.472
 3875SOL     OW12523   2.026   4.173   0.452
 3875SOL    HW112524   2.109   4.171   0.508
 3875SOL    HW212525   2.051   4.173   0.355
 3876SOL     OW12526   5.381   4.083   2.347
 3876SOL    HW112527   5.459   4.020   2.352
 3876SOL    HW212528   5.398   4.162   2.406
 3877SOL     OW12529   5.795   1.193   2.630
 3877SOL    HW112530   5.840   1.279   2.650
 3877SOL    HW212531   5.824   1.160   2.540
 3878SOL     OW12532   4.140   6.029   4.652
 3878SOL    HW112533   4.082   6.033   4.733
 3878SOL    HW212534   4.159   5.934   4.628
 3879SOL     OW12535   3.028   5.899   1.389
 3879SOL    HW112536   3.124   5.881   1.365
 3879SOL    HW212537   2.970   5.877   1.310
 3880SOL     OW12538   5.421   2.524   4.033
 3880SOL    HW112539   5.453   2.596   4.095
 3880SOL    HW212540   5.488   2.510   3.960
 3881SOL     OW12541   1.337   5.165   1.161
 3881SOL    HW112542   1.422   5.135   1.203
 3881SOL    HW212543   1.342   5.153   1.062
 3882SOL     OW12544   0.863   5.935   6.139
 3882SOL    HW112545   0.768   5.933   6.106
 3882SOL    HW212546   0.898   6.028   6.133
 3883SOL     OW12547   3.256   1.532   6.507
 3883SOL    HW112548   3.257   1.503   6.602
 3883SOL    HW212549   3.258   1.632   6.502
 3884SOL     OW12550   1.913   5.128   5.465
 3884SOL    HW112551   1.949   5.043   5.425
 3884SOL    HW212552   1.926   5.203   5.401
 3885SOL     OW12553   6.950   1.484   5.363
 3885SOL    HW112554   6.912   1.571   5.392
 3885SOL    HW212555   0.013   1.499   5.309
 3886SOL     OW12556   0.214   6.101   5.338
 3886SOL    HW112557   0.227   6.005   5.314
 3886SOL    HW212558   0.117   6.120   5.349
 3887SOL     OW12559   5.241   3.283   5.133
 3887SOL    HW112560   5.331   3.326   5.141
 3887SOL    HW212561   5.176   3.332   5.190
 3888SOL     OW12562   5.575   2.091   1.861
 3888SOL    HW112563   5.567   2.190   1.874
 3888SOL    HW212564   5.573   2.070   1.763
 3889SOL     OW12565   6.961   5.521   6.863
 3889SOL    HW112566   6.900   5.442   6.855
 3889SOL    HW212567   6.928   5.596   6.806
 3890SOL     OW12568   6.696   3.477   2.791
 3890SOL    HW112569   6.634   3.399   2.801
 3890SOL    HW212570   6.662   3.537   2.718
 3891SOL     OW12571   6.037   5.005   6.223
 3891SOL    HW112572   5.965   5.000   6.154
 3891SOL    HW212573   6.036   5.095   6.266
 3892SOL     OW12574   5.550   5.343   4.268
 3892SOL    HW112575   5.497   5.375   4.190
 3892SOL    HW212576   5.508   5.261   4.306
 3893SOL     OW12577   3.022   6.173   4.031
 3893SOL    HW112578   2.923   6.160   4.039
 3893SOL    HW212579   3.049   6.256   4.079
 3894SOL     OW12580   4.935   5.519   6.940
 3894SOL    HW112581   4.928   5.547   6.845
 3894SOL    HW212582   5.028   5.532   6.973
 3895SOL     OW12583   1.939   2.459   5.641
 3895SOL    HW112584   1.997   2.451   5.722
 3895SOL    HW212585   1.849   2.494   5.668
 3896SOL     OW12586   6.387   2.723   6.245
 3896SOL    HW112587   6.321   2.661   6.287
 3896SOL    HW212588   6.473   2.718   6.295
 3897SOL     OW12589   3.141   6.610   3.326
 3897SOL    HW112590   3.175   6.516   3.316
 3897SOL    HW212591   3.213   6.667   3.365
 3898SOL     OW12592   2.987   3.399   4.788
 3898SOL    HW112593   2.980   3.304   4.757
 3898SOL    HW212594   3.076   3.413   4.830
 3899SOL     OW12595   4.759   1.969   4.941
 3899SOL    HW112596   4.727   1.910   4.866
 3899SOL    HW212597   4.707   2.054   4.940
 3900SOL     OW12598   6.977   2.493   4.355
 3900SOL    HW112599   0.041   2.440   4.343
 3900SOL    HW212600   6.982   2.545   4.440
 3901SOL     OW12601   2.648   5.621   4.896
 3901SOL    HW112602   2.712   5.617   4.819
 3901SOL    HW212603   2.630   5.529   4.929
 3902SOL     OW12604   4.282   4.655   2.600
 3902SOL    HW112605   4.379   4.635   2.615
 3902SOL    HW212606   4.265   4.667   2.502
 3903SOL     OW12607   4.815   3.127   5.934
 3903SOL    HW112608   4.827   3.032   5.904
 3903SOL    HW212609   4.748   3.172   5.875
 3904SOL     OW12610   2.356   6.562   0.894
 3904SOL    HW112611   2.426   6.624   0.930
 3904SOL    HW212612   2.267   6.607   0.895
 3905SOL     OW12613   6.163   0.616   6.169
 3905SOL    HW112614   6.087   0.561   6.204
 3905SOL    HW212615   6.202   0.573   6.088
 3906SOL     OW12616   0.042   6.061   4.763
 3906SOL    HW112617   0.135   6.024   4.752
 3906SOL    HW212618   0.021   6.119   4.685
 3907SOL     OW12619   0.548   1.661   5.324
 3907SOL    HW112620   0.531   1.758   5.313
 3907SOL    HW212621   0.572   1.620   5.236
 3908SOL     OW12622   2.585   0.820   4.365
 3908SOL    HW112623   2.585   0.855   4.271
 3908SOL    HW212624   2.534   0.883   4.424
 3909SOL     OW12625   5.100   2.678   1.434
 3909SOL    HW112626   5.167   2.634   1.375
 3909SOL    HW212627   5.137   2.686   1.526
 3910SOL     OW12628   3.233   2.273   0.617
 3910SOL    HW112629   3.151   2.222   0.642
 3910SOL    HW212630   3.279   2.227   0.541
 3911SOL     OW12631   0.024   0.720   1.635
 3911SOL    HW112632   0.008   0.662   1.715
 3911SOL    HW212633   0.057   0.664   1.559
 3912SOL     OW12634   4.081   4.236   0.046
 3912SOL    HW112635   4.003   4.298   0.039
 3912SOL    HW212636   4.107   4.226   0.142
 3913SOL     OW12637   4.189   5.575   1.373
 3913SOL    HW112638   4.257   5.642   1.406
 3913SOL    HW212639   4.174   5.506   1.444
 3914SOL     OW12640   6.706   2.317   0.001
 3914SOL    HW112641   6.632   2.337   0.065
 3914SOL    HW212642   6.667   2.308   6.928
 3915SOL     OW12643   5.351   0.493   5.547
 3915SOL    HW112644   5.357   0.558   5.623
 3915SOL    HW212645   5.360   0.542   5.461
 3916SOL     OW12646   2.040   2.362   2.751
 3916SOL    HW112647   1.954   2.332   2.710
 3916SOL    HW212648   2.115   2.305   2.716
 3917SOL     OW12649   3.701   4.906   2.060
 3917SOL    HW112650   3.751   4.925   1.976
 3917SOL    HW212651   3.626   4.843   2.041
 3918SOL     OW12652   5.063   0.273   0.748
 3918SOL    HW112653   5.118   0.355   0.760
 3918SOL    HW212654   4.966   0.297   0.757
 3919SOL     OW12655   4.748   5.788   3.241
 3919SOL    HW112656   4.794   5.751   3.322
 3919SOL    HW212657   4.810   5.788   3.163
 3920SOL     OW12658   2.780   1.776   5.320
 3920SOL    HW112659   2.766   1.875   5.326
 3920SOL    HW212660   2.867   1.758   5.275
 3921SOL     OW12661   1.367   3.458   6.382
 3921SOL    HW112662   1.334   3.543   6.342
 3921SOL    HW212663   1.465   3.449   6.364
 3922SOL     OW12664   5.027   3.445   3.439
 3922SOL    HW112665   5.008   3.532   3.485
 3922SOL    HW212666   5.012   3.456   3.341
 3923SOL     OW12667   5.461   1.607   1.399
 3923SOL    HW112668   5.516   1.669   1.343
 3923SOL    HW212669   5.480   1.624   1.496
 3924SOL     OW12670   4.802   4.769   4.571
 3924SOL    HW112671   4.786   4.852   4.518
 3924SOL    HW212672   4.715   4.733   4.606
 3925SOL     OW12673   4.919   5.713   1.500
 3925SOL    HW112674   4.951   5.804   1.475
 3925SOL    HW212675   4.867   5.673   1.425
 3926SOL     OW12676   0.775   5.752   5.241
 3926SOL    HW112677   0.875   5.752   5.239
 3926SOL    HW212678   0.740   5.680   5.181
 3927SOL     OW12679   5.764   1.656   5.581
 3927SOL    HW112680   5.695   1.613   5.639
 3927SOL    HW212681   5.727   1.667   5.489
 3928SOL     OW12682   3.612   5.680   2.553
 3928SOL    HW112683   3.697   5.731   2.539
 3928SOL    HW212684   3.540   5.743   2.583
 3929SOL     OW12685   0.832   1.663   5.785
 3929SOL    HW112686   0.927   1.632   5.793
 3929SOL    HW212687   0.830   1.752   5.738
 3930SOL     OW12688   1.298   5.385   3.725
 3930SOL    HW112689   1.337   5.294   3.714
 3930SOL    HW212690   1.334   5.426   3.809
 3931SOL     OW12691   1.314   2.321   0.146
 3931SOL    HW112692   1.242   2.287   0.085
 3931SOL    HW212693   1.282   2.317   0.241
 3932SOL     OW12694   2.356   4.276   2.889
 3932SOL    HW112695   2.337   4.312   2.798
 3932SOL    HW212696   2.366   4.177   2.884
 3933SOL     OW12697   2.089   5.594   1.366
 3933SOL    HW112698   2.044   5.554   1.287
 3933SOL    HW212699   2.186   5.606   1.347
 3934SOL     OW12700   2.031   6.868   1.300
 3934SOL    HW112701   1.952   6.838   1.245
 3934SOL    HW212702   2.002   6.885   1.394
 3935SOL     OW12703   0.285   3.461   4.808
 3935SOL    HW112704   0.211   3.394   4.800
 3935SOL    HW212705   0.372   3.418   4.782
 3936SOL     OW12706   0.307   4.285   5.064
 3936SOL    HW112707   0.362   4.253   4.987
 3936SOL    HW212708   0.357   4.356   5.114
 3937SOL     OW12709   1.253   6.429   0.635
 3937SOL    HW112710   1.170   6.381   0.605
 3937SOL    HW212711   1.301   6.466   0.556
 3938SOL     OW12712   0.340   3.154   0.668
 3938SOL    HW112713   0.254   3.113   0.638
 3938SOL    HW212714   0.357   3.130   0.763
 3939SOL     OW12715   1.369   6.512   3.493
 3939SOL    HW112716   1.445   6.486   3.552
 3939SOL    HW212717   1.328   6.597   3.526
 3940SOL     OW12718   2.920   5.471   6.785
 3940SOL    HW112719   2.971   5.484   6.700
 3940SOL    HW212720   2.823   5.489   6.768
 3941SOL     OW12721   4.803   5.686   2.533
 3941SOL    HW112722   4.879   5.738   2.493
 3941SOL    HW212723   4.745   5.748   2.586
 3942SOL     OW12724   6.587   6.662   6.543
 3942SOL    HW112725   6.532   6.580   6.525
 3942SOL    HW212726   6.529   6.734   6.579
 3943SOL     OW12727   2.240   3.122   6.670
 3943SOL    HW112728   2.295   3.199   6.704
 3943SOL    HW212729   2.279   3.036   6.703
 3944SOL     OW12730   4.073   3.154   6.758
 3944SOL    HW112731   4.074   3.184   6.853
 3944SOL    HW212732   4.166   3.138   6.727
 3945SOL     OW12733   5.517   0.560   3.517
 3945SOL    HW112734   5.508   0.483   3.580
 3945SOL    HW212735   5.519   0.646   3.569
 3946SOL     OW12736   0.276   3.358   0.296
 3946SOL    HW112737   0.216   3.307   0.233
 3946SOL    HW212738   0.314   3.437   0.248
 3947SOL     OW12739   5.379   6.587   2.169
 3947SOL    HW112740   5.349   6.493   2.188
 3947SOL    HW212741   5.329   6.650   2.229
 3948SOL     OW12742   1.756   2.285   5.035
 3948SOL    HW112743   1.708   2.267   4.949
 3948SOL    HW212744   1.707   2.242   5.111
 3949SOL     OW12745   6.873   7.002   2.221
 3949SOL    HW112746   6.936   0.059   2.224
 3949SOL    HW212747   6.779   0.016   2.229
 3950SOL     OW12748   2.945   4.560   1.580
 3950SOL    HW112749   2.958   4.492   1.508
 3950SOL    HW212750   2.906   4.515   1.661
 3951SOL     OW12751   0.680   2.765   4.203
 3951SOL    HW112752   0.647   2.765   4.297
 3951SOL    HW212753   0.625   2.827   4.147
 3952SOL     OW12754   5.839   4.227   6.713
 3952SOL    HW112755   5.825   4.317   6.673
 3952SOL    HW212756   5.936   4.215   6.736
 3953SOL     OW12757   3.079   3.841   5.891
 3953SOL    HW112758   3.118   3.896   5.817
 3953SOL    HW212759   3.045   3.755   5.854
 3954SOL     OW12760   0.731   3.273   4.951
 3954SOL    HW112761   0.702   3.197   5.010
 3954SOL    HW212762   0.706   3.360   4.993
 3955SOL     OW12763   5.888   3.867   0.160
 3955SOL    HW112764   5.797   3.838   0.129
 3955SOL    HW212765   5.878   3.932   0.235
 3956SOL     OW12766   6.492   3.063   5.440
 3956SOL    HW112767   6.473   2.965   5.439
 3956SOL    HW212768   6.557   3.085   5.368
 3957SOL     OW12769   0.683   2.054   1.787
 3957SOL    HW112770   0.606   1.999   1.755
 3957SOL    HW212771   0.696   2.039   1.885
 3958SOL     OW12772   5.408   6.257   0.527
 3958SOL    HW112773   5.388   6.314   0.448
 3958SOL    HW212774   5.480   6.191   0.504
 3959SOL     OW12775   2.134   5.090   1.776
 3959SOL    HW112776   2.098   5.050   1.860
 3959SOL    HW212777   2.059   5.123   1.719
 3960SOL     OW12778   4.789   3.302   0.870
 3960SOL    HW112779   4.705   3.336   0.828
 3960SOL    HW212780   4.768   3.255   0.955
 3961SOL     OW12781   6.502   0.484   1.395
 3961SOL    HW112782   6.569   0.492   1.469
 3961SOL    HW212783   6.486   0.387   1.376
 3962SOL     OW12784   0.615   6.867   5.909
 3962SOL    HW112785   0.655   6.925   5.980
 3962SOL    HW212786   0.589   6.924   5.831
 3963SOL     OW12787   4.912   4.455   3.883
 3963SOL    HW112788   4.985   4.391   3.907
 3963SOL    HW212789   4.943   4.514   3.808
 3964SOL     OW12790   5.632   5.766   0.176
 3964SOL    HW112791   5.592   5.771   0.268
 3964SOL    HW212792   5.629   5.857   0.134
 3965SOL     OW12793   3.513   3.609   0.992
 3965SOL    HW112794   3.512   3.511   0.972
 3965SOL    HW212795   3.424   3.649   0.970
 3966SOL     OW12796   6.678   4.130   5.557
 3966SOL    HW112797   6.693   4.076   5.474
 3966SOL    HW212798   6.625   4.212   5.535
 3967SOL     OW12799   1.524   6.532   0.125
 3967SOL    HW112800   1.462   6.610   0.121
 3967SOL    HW212801   1.599   6.546   0.060
 3968SOL     OW12802   5.101   2.287   0.849
 3968SOL    HW112803   5.038   2.326   0.782
 3968SOL    HW212804   5.052   2.222   0.907
 3969SOL     OW12805   0.211   6.028   0.939
 3969SOL    HW112806   0.227   6.108   0.998
 3969SOL    HW212807   0.207   5.946   0.996
 3970SOL     OW12808   4.946   4.362   4.215
 3970SOL    HW112809   4.910   4.305   4.141
 3970SOL    HW212810   4.876   4.428   4.244
 3971SOL     OW12811   6.791   6.245   3.849
 3971SOL    HW112812   6.784   6.308   3.772
 3971SOL    HW212813   6.734   6.278   3.925
 3972SOL     OW12814   1.013   0.205   6.110
 3972SOL    HW112815   0.983   0.299   6.123
 3972SOL    HW212816   1.089   0.203   6.045
 3973SOL     OW12817   3.257   3.211   3.266
 3973SOL    HW112818   3.257   3.229   3.168
 3973SOL    HW212819   3.263   3.113   3.282
 3974SOL     OW12820   5.467   1.261   6.883
 3974SOL    HW112821   5.477   1.304   6.793
 3974SOL    HW212822   5.553   1.217   6.909
 3975SOL     OW12823   0.020   6.378   5.598
 3975SOL    HW112824   6.970   6.375   5.670
 3975SOL    HW212825   0.006   6.460   5.543
 3976SOL     OW12826   0.655   2.789   6.718
 3976SOL    HW112827   0.659   2.857   6.792
 3976SOL    HW212828   0.670   2.835   6.631
 3977SOL     OW12829   2.956   5.881   4.672
 3977SOL    HW112830   2.927   5.812   4.606
 3977SOL    HW212831   3.054   5.871   4.690
 3978SOL     OW12832   6.520   3.818   0.175
 3978SOL    HW112833   6.458   3.892   0.150
 3978SOL    HW212834   6.495   3.735   0.125
 3979SOL     OW12835   1.431   6.879   3.057
 3979SOL    HW112836   1.361   6.808   3.057
 3979SOL    HW212837   1.511   6.848   3.006
 3980SOL     OW12838   4.912   3.927   4.082
 3980SOL    HW112839   4.948   3.836   4.061
 3980SOL    HW212840   4.861   3.961   4.003
 3981SOL     OW12841   6.755   1.697   5.874
 3981SOL    HW112842   6.816   1.741   5.809
 3981SOL    HW212843   6.799   1.616   5.912
 3982SOL     OW12844   2.083   3.006   4.093
 3982SOL    HW112845   2.069   3.077   4.024
 3982SOL    HW212846   2.020   3.021   4.170
 3983SOL     OW12847   2.730   6.851   4.054
 3983SOL    HW112848   2.794   6.832   3.979
 3983SOL    HW212849   2.674   6.769   4.071
 3984SOL     OW12850   1.980   6.061   1.908
 3984SOL    HW112851   2.040   5.984   1.887
 3984SOL    HW212852   2.020   6.146   1.873
 3985SOL     OW12853   2.035   2.911   1.963
 3985SOL    HW112854   2.105   2.934   1.895
 3985SOL    HW212855   2.063   2.947   2.052
 3986SOL     OW12856   0.954   2.040   2.261
 3986SOL    HW112857   1.007   2.117   2.296
 3986SOL    HW212858   1.012   1.959   2.257
 3987SOL     OW12859   1.678   3.857   5.117
 3987SOL    HW112860   1.767   3.869   5.072
 3987SOL    HW212861   1.649   3.762   5.109
 3988SOL     OW12862   5.205   0.125   0.928
 3988SOL    HW112863   5.238   0.044   0.880
 3988SOL    HW212864   5.146   0.179   0.867
 3989SOL     OW12865   4.416   0.656   5.856
 3989SOL    HW112866   4.371   0.735   5.898
 3989SOL    HW212867   4.352   0.611   5.794
 3990SOL     OW12868   0.351   2.165   3.595
 3990SOL    HW112869   0.358   2.079   3.544
 3990SOL    HW212870   0.394   2.154   3.684
 3991SOL     OW12871   0.974   1.780   3.700
 3991SOL    HW112872   1.058   1.767   3.648
 3991SOL    HW212873   0.899   1.732   3.655
 3992SOL     OW12874   5.549   3.819   6.606
 3992SOL    HW112875   5.576   3.724   6.617
 3992SOL    HW212876   5.631   3.875   6.591
 3993SOL     OW12877   1.596   0.452   4.172
 3993SOL    HW112878   1.693   0.431   4.182
 3993SOL    HW212879   1.550   0.375   4.128
 3994SOL     OW12880   2.876   1.999   3.338
 3994SOL    HW112881   2.948   1.950   3.386
 3994SOL    HW212882   2.829   1.938   3.274
 3995SOL     OW12883   1.744   2.993   2.298
 3995SOL    HW112884   1.804   3.022   2.373
 3995SOL    HW212885   1.657   2.961   2.335
 3996SOL     OW12886   5.807   5.910   4.904
 3996SOL    HW112887   5.778   5.886   4.812
 3996SOL    HW212888   5.906   5.895   4.913
 3997SOL     OW12889   4.963   3.676   2.782
 3997SOL    HW112890   4.929   3.723   2.701
 3997SOL    HW212891   4.919   3.586   2.789
 3998SOL     OW12892   4.580   2.069   3.332
 3998SOL    HW112893   4.502   2.052   3.273
 3998SOL    HW212894   4.550   2.116   3.415
 3999SOL     OW12895   3.963   3.405   0.912
 3999SOL    HW112896   3.879   3.456   0.894
 3999SOL    HW212897   3.940   3.309   0.930
 4000SOL     OW12898   2.304   4.814   2.606
 4000SOL    HW112899   2.243   4.846   2.534
 4000SOL    HW212900   2.360   4.890   2.639
 4001SOL     OW12901   6.871   5.622   4.503
 4001SOL    HW112902   6.785   5.666   4.528
 4001SOL    HW212903   6.890   5.637   4.406
 4002SOL     OW12904   3.863   3.494   4.383
 4002SOL    HW112905   3.793   3.422   4.391
 4002SOL    HW212906   3.820   3.578   4.350
 4003SOL     OW12907   1.970   0.876   4.490
 4003SOL    HW112908   1.939   0.920   4.574
 4003SOL    HW212909   2.012   0.944   4.430
 4004SOL     OW12910   1.460   4.059   4.126
 4004SOL    HW112911   1.450   3.974   4.073
 4004SOL    HW212912   1.371   4.085   4.163
 4005SOL     OW12913   4.719   3.464   6.580
 4005SOL    HW112914   4.620   3.469   6.572
 4005SOL    HW212915   4.757   3.557   6.572
 4006SOL     OW12916   6.712   5.692   2.208
 4006SOL    HW112917   6.647   5.722   2.139
 4006SOL    HW212918   6.805   5.700   2.172
 4007SOL     OW12919   0.247   0.905   2.058
 4007SOL    HW112920   0.320   0.837   2.059
 4007SOL    HW212921   0.210   0.912   1.965
 4008SOL     OW12922   3.284   1.143   1.321
 4008SOL    HW112923   3.214   1.213   1.335
 4008SOL    HW212924   3.240   1.056   1.297
 4009SOL     OW12925   4.825   2.359   0.374
 4009SOL    HW112926   4.837   2.338   0.471
 4009SOL    HW212927   4.773   2.444   0.365
 4010SOL     OW12928   1.972   4.903   1.529
 4010SOL    HW112929   1.874   4.886   1.524
 4010SOL    HW212930   1.989   4.994   1.566
 4011SOL     OW12931   6.015   5.863   5.747
 4011SOL    HW112932   5.995   5.774   5.707
 4011SOL    HW212933   5.994   5.861   5.845
 4012SOL     OW12934   5.158   6.366   2.821
 4012SOL    HW112935   5.219   6.320   2.886
 4012SOL    HW212936   5.211   6.399   2.743
 4013SOL     OW12937   0.240   1.530   6.265
 4013SOL    HW112938   0.326   1.493   6.301
 4013SOL    HW212939   0.165   1.505   6.326
 4014SOL     OW12940   2.962   5.003   1.956
 4014SOL    HW112941   2.926   4.922   1.911
 4014SOL    HW212942   3.053   4.983   1.994
 4015SOL     OW12943   4.125   4.830   6.419
 4015SOL    HW112944   4.053   4.789   6.362
 4015SOL    HW212945   4.203   4.854   6.361
 4016SOL     OW12946   5.285   4.991   4.789
 4016SOL    HW112947   5.209   4.984   4.725
 4016SOL    HW212948   5.370   4.962   4.743
 4017SOL     OW12949   0.935   4.867   6.027
 4017SOL    HW112950   0.931   4.880   6.126
 4017SOL    HW212951   0.953   4.770   6.007
 4018SOL     OW12952   4.071   6.233   0.982
 4018SOL    HW112953   4.047   6.323   0.946
 4018SOL    HW212954   3.999   6.202   1.044
 4019SOL     OW12955   6.246   3.970   2.425
 4019SOL    HW112956   6.157   3.952   2.383
 4019SOL    HW212957   6.260   4.068   2.433
 4020SOL     OW12958   6.238   5.263   4.569
 4020SOL    HW112959   6.160   5.324   4.582
 4020SOL    HW212960   6.301   5.272   4.646
 4021SOL     OW12961   4.980   4.302   6.239
 4021SOL    HW112962   4.994   4.352   6.153
 4021SOL    HW212963   4.935   4.215   6.219
 4022SOL     OW12964   3.058   6.589   1.594
 4022SOL    HW112965   3.095   6.681   1.605
 4022SOL    HW212966   2.959   6.594   1.577
 4023SOL     OW12967   0.877   1.467   4.452
 4023SOL    HW112968   0.835   1.406   4.384
 4023SOL    HW212969   0.913   1.547   4.405
 4024SOL     OW12970   0.518   6.479   4.410
 4024SOL    HW112971   0.541   6.566   4.454
 4024SOL    HW212972   0.442   6.493   4.347
 4025SOL     OW12973   6.575   5.640   3.442
 4025SOL    HW112974   6.605   5.706   3.373
 4025SOL    HW212975   6.535   5.689   3.520
 4026SOL     OW12976   0.698   6.877   4.354
 4026SOL    HW112977   0.659   6.795   4.312
 4026SOL    HW212978   0.625   6.943   4.372
 4027SOL     OW12979   3.235   4.804   5.232
 4027SOL    HW112980   3.190   4.722   5.269
 4027SOL    HW212981   3.221   4.880   5.295
 4028SOL     OW12982   4.781   0.874   3.774
 4028SOL    HW112983   4.835   0.813   3.716
 4028SOL    HW212984   4.687   0.839   3.780
 4029SOL     OW12985   1.694   6.224   0.298
 4029SOL    HW112986   1.752   6.304   0.314
 4029SOL    HW212987   1.662   6.225   0.203
 4030SOL     OW12988   0.628   1.558   2.281
 4030SOL    HW112989   0.631   1.656   2.298
 4030SOL    HW212990   0.654   1.539   2.187
 4031SOL     OW12991   6.068   6.357   0.460
 4031SOL    HW112992   6.132   6.294   0.417
 4031SOL    HW212993   6.011   6.400   0.390
 4032SOL     OW12994   5.025   0.492   2.480
 4032SOL    HW112995   5.099   0.429   2.454
 4032SOL    HW212996   5.053   0.544   2.561
 4033SOL     OW12997   1.858   2.335   2.423
 4033SOL    HW112998   1.816   2.289   2.501
 4033SOL    HW212999   1.876   2.430   2.445
 4034SOL     OW13000   0.897   2.701   5.391
 4034SOL    HW113001   0.959   2.778   5.384
 4034SOL    HW213002   0.859   2.679   5.301
 4035SOL     OW13003   4.587   1.937   1.603
 4035SOL    HW113004   4.507   1.878   1.601
 4035SOL    HW213005   4.559   2.030   1.630
 4036SOL     OW13006   2.864   5.432   3.173
 4036SOL    HW113007   2.765   5.436   3.189
 4036SOL    HW213008   2.906   5.370   3.239
 4037SOL     OW13009   2.362   1.497   5.814
 4037SOL    HW113010   2.298   1.462   5.746
 4037SOL    HW213011   2.361   1.439   5.895
 4038SOL     OW13012   3.253   4.718   5.632
 4038SOL    HW113013   3.261   4.633   5.683
 4038SOL    HW213014   3.342   4.745   5.598
 4039SOL     OW13015   5.413   5.311   1.444
 4039SOL    HW113016   5.471   5.258   1.506
 4039SOL    HW213017   5.383   5.395   1.490
 4040SOL     OW13018   3.075   6.630   5.180
 4040SOL    HW113019   3.156   6.597   5.228
 4040SOL    HW213020   2.996   6.623   5.241
 4041SOL     OW13021   2.151   6.658   1.581
 4041SOL    HW113022   2.064   6.642   1.627
 4041SOL    HW213023   2.188   6.747   1.610
 4042SOL     OW13024   6.918   1.299   2.608
 4042SOL    HW113025   6.932   1.214   2.558
 4042SOL    HW213026   6.946   1.377   2.552
 4043SOL     OW13027   5.124   3.198   6.272
 4043SOL    HW113028   5.124   3.223   6.175
 4043SOL    HW213029   5.084   3.107   6.284
 4044SOL     OW13030   4.896   4.406   3.314
 4044SOL    HW113031   4.955   4.449   3.245
 4044SOL    HW213032   4.836   4.340   3.269
 4045SOL     OW13033   5.178   1.267   5.439
 4045SOL    HW113034   5.108   1.255   5.368
 4045SOL    HW213035   5.266   1.284   5.395
 4046SOL     OW13036   5.742   1.604   3.452
 4046SOL    HW113037   5.697   1.562   3.374
 4046SOL    HW213038   5.802   1.678   3.420
 4047SOL     OW13039   2.468   2.855   6.497
 4047SOL    HW113040   2.414   2.772   6.494
 4047SOL    HW213041   2.490   2.884   6.403
 4048SOL     OW13042   4.608   1.844   2.226
 4048SOL    HW113043   4.551   1.817   2.148
 4048SOL    HW213044   4.558   1.827   2.311
 4049SOL     OW13045   4.201   4.309   0.911
 4049SOL    HW113046   4.236   4.277   0.999
 4049SOL    HW213047   4.218   4.407   0.902
 4050SOL     OW13048   1.109   5.726   2.256
 4050SOL    HW113049   1.187   5.673   2.288
 4050SOL    HW213050   1.137   5.787   2.182
 4051SOL     OW13051   5.532   1.122   4.813
 4051SOL    HW113052   5.618   1.171   4.830
 4051SOL    HW213053   5.467   1.142   4.886
 4052SOL     OW13054   5.967   1.759   3.325
 4052SOL    HW113055   5.986   1.724   3.233
 4052SOL    HW213056   6.050   1.752   3.380
 4053SOL     OW13057   1.218   5.336   4.027
 4053SOL    HW113058   1.200   5.297   4.117
 4053SOL    HW213059   1.315   5.358   4.018
 4054SOL     OW13060   3.875   3.598   1.352
 4054SOL    HW113061   3.911   3.632   1.439
 4054SOL    HW213062   3.873   3.498   1.353
 4055SOL     OW13063   0.484   3.687   0.163
 4055SOL    HW113064   0.438   3.745   0.231
 4055SOL    HW213065   0.560   3.639   0.205
 4056SOL     OW13066   5.066   3.600   0.252
 4056SOL    HW113067   5.156   3.561   0.234
 4056SOL    HW213068   5.050   3.601   0.351
 4057SOL     OW13069   0.385   3.553   6.964
 4057SOL    HW113070   0.416   3.611   0.020
 4057SOL    HW213071   0.456   3.488   6.941
 4058SOL     OW13072   2.462   0.688   5.294
 4058SOL    HW113073   2.438   0.741   5.212
 4058SOL    HW213074   2.554   0.712   5.323
 4059SOL     OW13075   0.380   1.557   3.714
 4059SOL    HW113076   0.443   1.629   3.742
 4059SOL    HW213077   0.358   1.499   3.792
 4060SOL     OW13078   6.740   6.389   4.885
 4060SOL    HW113079   6.678   6.354   4.815
 4060SOL    HW213080   6.823   6.332   4.888
 4061SOL     OW13081   1.062   5.483   0.570
 4061SOL    HW113082   1.021   5.453   0.656
 4061SOL    HW213083   1.091   5.579   0.578
 4062SOL     OW13084   1.950   2.923   1.462
 4062SOL    HW113085   2.037   2.964   1.438
 4062SOL    HW213086   1.878   2.958   1.401
 4063SOL     OW13087   4.233   0.619   0.111
 4063SOL    HW113088   4.231   0.660   0.020
 4063SOL    HW213089   4.285   0.678   0.172
 4064SOL     OW13090   1.805   1.461   5.717
 4064SOL    HW113091   1.740   1.484   5.789
 4064SOL    HW213092   1.885   1.520   5.723
 4065SOL     OW13093   2.923   6.417   0.910
 4065SOL    HW113094   2.857   6.341   0.913
 4065SOL    HW213095   2.886   6.491   0.854
 4066SOL     OW13096   0.804   3.964   3.580
 4066SOL    HW113097   0.724   3.908   3.559
 4066SOL    HW213098   0.784   4.022   3.659
 4067SOL     OW13099   5.320   5.056   0.657
 4067SOL    HW113100   5.332   4.977   0.597
 4067SOL    HW213101   5.277   5.028   0.742
 4068SOL     OW13102   2.167   3.062   4.519
 4068SOL    HW113103   2.147   3.148   4.566
 4068SOL    HW213104   2.215   3.001   4.582
 4069SOL     OW13105   3.963   6.461   6.526
 4069SOL    HW113106   3.864   6.450   6.530
 4069SOL    HW213107   3.991   6.533   6.589
 4070SOL     OW13108   1.303   3.319   3.620
 4070SOL    HW113109   1.308   3.223   3.591
 4070SOL    HW213110   1.207   3.344   3.634
 4071SOL     OW13111   1.375   0.888   3.879
 4071SOL    HW113112   1.295   0.927   3.924
 4071SOL    HW213113   1.369   0.788   3.882
 4072SOL     OW13114   2.520   5.167   2.967
 4072SOL    HW113115   2.476   5.111   2.897
 4072SOL    HW213116   2.606   5.125   2.996
 4073SOL     OW13117   3.879   4.697   0.262
 4073SOL    HW113118   3.791   4.709   0.216
 4073SOL    HW213119   3.878   4.612   0.314
 4074SOL     OW13120   1.679   5.359   2.862
 4074SOL    HW113121   1.584   5.357   2.893
 4074SOL    HW213122   1.740   5.331   2.937
 4075SOL     OW13123   6.642   1.220   1.065
 4075SOL    HW113124   6.543   1.227   1.076
 4075SOL    HW213125   6.679   1.310   1.042
 4076SOL     OW13126   2.357   4.265   5.211
 4076SOL    HW113127   2.441   4.307   5.177
 4076SOL    HW213128   2.369   4.166   5.215
 4077SOL     OW13129   2.980   0.555   1.794
 4077SOL    HW113130   2.957   0.589   1.885
 4077SOL    HW213131   3.077   0.533   1.789
 4078SOL     OW13132   2.939   4.787   2.502
 4078SOL    HW113133   2.934   4.780   2.403
 4078SOL    HW213134   3.019   4.738   2.536
 4079SOL     OW13135   0.878   1.934   4.172
 4079SOL    HW113136   0.904   1.915   4.078
 4079SOL    HW213137   0.781   1.954   4.177
 4080SOL     OW13138   6.203   1.791   5.152
 4080SOL    HW113139   6.137   1.844   5.098
 4080SOL    HW213140   6.263   1.741   5.091
 4081SOL     OW13141   1.635   3.305   3.837
 4081SOL    HW113142   1.581   3.381   3.801
 4081SOL    HW213143   1.586   3.219   3.825
 4082SOL     OW13144   0.960   3.166   1.424
 4082SOL    HW113145   1.054   3.138   1.445
 4082SOL    HW213146   0.902   3.085   1.416
 4083SOL     OW13147   5.552   2.782   4.723
 4083SOL    HW113148   5.644   2.820   4.712
 4083SOL    HW213149   5.547   2.694   4.676
 4084SOL     OW13150   0.238   1.639   4.084
 4084SOL    HW113151   0.287   1.627   4.170
 4084SOL    HW213152   0.272   1.572   4.017
 4085SOL     OW13153   2.788   6.070   0.567
 4085SOL    HW113154   2.803   6.155   0.617
 4085SOL    HW213155   2.698   6.034   0.589
 4086SOL     OW13156   1.185   5.289   0.409
 4086SOL    HW113157   1.253   5.255   0.473
 4086SOL    HW213158   1.137   5.367   0.450
 4087SOL     OW13159   1.486   1.755   2.561
 4087SOL    HW113160   1.506   1.825   2.629
 4087SOL    HW213161   1.394   1.768   2.526
 4088SOL     OW13162   6.584   2.076   0.860
 4088SOL    HW113163   6.636   2.140   0.916
 4088SOL    HW213164   6.537   2.010   0.919
 4089SOL     OW13165   0.857   1.232   5.074
 4089SOL    HW113166   0.951   1.249   5.045
 4089SOL    HW213167   0.856   1.200   5.169
 4090SOL     OW13168   2.037   4.903   5.366
 4090SOL    HW113169   2.132   4.905   5.337
 4090SOL    HW213170   2.012   4.811   5.395
 4091SOL     OW13171   4.768   6.190   0.528
 4091SOL    HW113172   4.707   6.112   0.520
 4091SOL    HW213173   4.800   6.198   0.623
 4092SOL     OW13174   0.347   2.345   4.821
 4092SOL    HW113175   0.268   2.322   4.878
 4092SOL    HW213176   0.413   2.397   4.876
 4093SOL     OW13177   5.811   0.925   4.892
 4093SOL    HW113178   5.896   0.872   4.890
 4093SOL    HW213179   5.818   1.002   4.829
 4094SOL     OW13180   2.578   4.485   5.189
 4094SOL    HW113181   2.677   4.488   5.177
 4094SOL    HW213182   2.556   4.480   5.286
 4095SOL     OW13183   1.259   3.661   6.237
 4095SOL    HW113184   1.281   3.714   6.155
 4095SOL    HW213185   1.170   3.616   6.225
 4096SOL     OW13186   4.246   4.772   2.025
 4096SOL    HW113187   4.230   4.870   2.032
 4096SOL    HW213188   4.172   4.729   1.974
 4097SOL     OW13189   3.181   3.539   5.239
 4097SOL    HW113190   3.106   3.475   5.254
 4097SOL    HW213191   3.202   3.543   5.142
 4098SOL     OW13192   0.432   2.160   2.783
 4098SOL    HW113193   0.471   2.069   2.800
 4098SOL    HW213194   0.429   2.178   2.685
 4099SOL     OW13195   4.274   6.137   1.882
 4099SOL    HW113196   4.180   6.110   1.902
 4099SOL    HW213197   4.310   6.081   1.807
 4100SOL     OW13198   3.849   5.916   3.186
 4100SOL    HW113199   3.749   5.917   3.183
 4100SOL    HW213200   3.884   5.839   3.132
 4101SOL     OW13201   5.492   1.238   6.216
 4101SOL    HW113202   5.543   1.295   6.281
 4101SOL    HW213203   5.555   1.204   6.146
 4102SOL     OW13204   6.114   1.319   0.752
 4102SOL    HW113205   6.020   1.345   0.733
 4102SOL    HW213206   6.172   1.401   0.754
 4103SOL     OW13207   0.403   0.241   2.217
 4103SOL    HW113208   0.350   0.277   2.293
 4103SOL    HW213209   0.486   0.197   2.252
 4104SOL     OW13210   1.679   4.988   2.934
 4104SOL    HW113211   1.687   4.895   2.969
 4104SOL    HW213212   1.743   5.048   2.981
 4105SOL     OW13213   5.115   4.818   0.079
 4105SOL    HW113214   5.098   4.892   0.014
 4105SOL    HW213215   5.030   4.794   0.125
 4106SOL     OW13216   6.811   3.696   5.098
 4106SOL    HW113217   6.716   3.688   5.130
 4106SOL    HW213218   6.812   3.745   5.011
 4107SOL     OW13219   6.996   0.875   0.945
 4107SOL    HW113220   7.008   0.781   0.913
 4107SOL    HW213221   6.928   0.921   0.889
 4108SOL     OW13222   6.354   3.619   5.582
 4108SOL    HW113223   6.392   3.530   5.554
 4108SOL    HW213224   6.263   3.605   5.621
 4109SOL     OW13225   3.303   6.156   3.694
 4109SOL    HW113226   3.376   6.130   3.756
 4109SOL    HW213227   3.304   6.096   3.614
 4110SOL     OW13228   5.012   3.281   5.642
 4110SOL    HW113229   4.915   3.258   5.651
 4110SOL    HW213230   5.025   3.378   5.660
 4111SOL     OW13231   4.342   3.166   6.718
 4111SOL    HW113232   4.376   3.181   6.625
 4111SOL    HW213233   4.413   3.193   6.784
 4112SOL     OW13234   3.688   1.162   4.478
 4112SOL    HW113235   3.720   1.256   4.468
 4112SOL    HW213236   3.751   1.100   4.432
 4113SOL     OW13237   3.686   5.333   4.648
 4113SOL    HW113238   3.723   5.289   4.729
 4113SOL    HW213239   3.712   5.281   4.566
 4114SOL     OW13240   2.873   1.896   2.351
 4114SOL    HW113241   2.873   1.996   2.342
 4114SOL    HW213242   2.789   1.860   2.312
 4115SOL     OW13243   5.145   4.742   1.913
 4115SOL    HW113244   5.204   4.662   1.909
 4115SOL    HW213245   5.192   4.816   1.961
 4116SOL     OW13246   2.750   1.131   2.104
 4116SOL    HW113247   2.692   1.050   2.107
 4116SOL    HW213248   2.824   1.121   2.170
 4117SOL     OW13249   1.313   5.805   1.428
 4117SOL    HW113250   1.245   5.732   1.427
 4117SOL    HW213251   1.402   5.768   1.403
 4118SOL     OW13252   2.333   6.648   0.201
 4118SOL    HW113253   2.327   6.673   0.297
 4118SOL    HW213254   2.250   6.598   0.174
 4119SOL     OW13255   4.074   0.964   3.694
 4119SOL    HW113256   4.110   1.027   3.625
 4119SOL    HW213257   4.079   1.007   3.784
 4120SOL     OW13258   3.812   0.712   1.592
 4120SOL    HW113259   3.737   0.693   1.655
 4120SOL    HW213260   3.838   0.628   1.545
 4121SOL     OW13261   6.498   2.869   5.055
 4121SOL    HW113262   6.433   2.938   5.022
 4121SOL    HW213263   6.524   2.809   4.980
 4122SOL     OW13264   1.790   5.862   6.016
 4122SOL    HW113265   1.705   5.915   6.019
 4122SOL    HW213266   1.815   5.846   5.920
 4123SOL     OW13267   5.149   3.794   6.516
 4123SOL    HW113268   5.053   3.822   6.523
 4123SOL    HW213269   5.194   3.849   6.445
 4124SOL     OW13270   4.941   6.867   3.884
 4124SOL    HW113271   5.009   6.928   3.925
 4124SOL    HW213272   4.930   6.890   3.787
 4125SOL     OW13273   5.001   1.300   1.033
 4125SOL    HW113274   5.075   1.254   0.984
 4125SOL    HW213275   5.040   1.374   1.089
 4126SOL     OW13276   2.036   4.661   4.278
 4126SOL    HW113277   2.104   4.714   4.227
 4126SOL    HW213278   2.040   4.565   4.249
 4127SOL     OW13279   6.586   3.741   5.684
 4127SOL    HW113280   6.498   3.738   5.637
 4127SOL    HW213281   6.608   3.650   5.719
 4128SOL     OW13282   0.988   1.936   2.960
 4128SOL    HW113283   1.084   1.934   2.935
 4128SOL    HW213284   0.977   1.972   3.052
 4129SOL     OW13285   5.492   2.577   5.787
 4129SOL    HW113286   5.397   2.545   5.779
 4129SOL    HW213287   5.553   2.514   5.739
 4130SOL     OW13288   5.714   3.833   0.977
 4130SOL    HW113289   5.769   3.756   1.008
 4130SOL    HW213290   5.666   3.807   0.893
 4131SOL     OW13291   6.519   4.711   3.206
 4131SOL    HW113292   6.517   4.787   3.271
 4131SOL    HW213293   6.455   4.640   3.236
 4132SOL     OW13294   5.414   2.364   3.685
 4132SOL    HW113295   5.334   2.359   3.745
 4132SOL    HW213296   5.495   2.383   3.739
 4133SOL     OW13297   3.314   1.479   1.204
 4133SOL    HW113298   3.357   1.395   1.172
 4133SOL    HW213299   3.340   1.496   1.299
 4134SOL     OW13300   0.808   1.278   6.876
 4134SOL    HW113301   0.826   1.223   6.958
 4134SOL    HW213302   0.790   1.373   6.903
 4135SOL     OW13303   1.161   0.730   1.354
 4135SOL    HW113304   1.173   0.756   1.450
 4135SOL    HW213305   1.065   0.736   1.329
 4136SOL     OW13306   1.215   2.221   3.511
 4136SOL    HW113307   1.312   2.199   3.516
 4136SOL    HW213308   1.192   2.255   3.420
 4137SOL     OW13309   3.185   4.484   6.343
 4137SOL    HW113310   3.196   4.577   6.308
 4137SOL    HW213311   3.118   4.435   6.287
 4138SOL     OW13312   4.381   4.894   3.379
 4138SOL    HW113313   4.330   4.925   3.299
 4138SOL    HW213314   4.405   4.972   3.436
 4139SOL     OW13315   2.072   1.239   6.638
 4139SOL    HW113316   2.121   1.174   6.695
 4139SOL    HW213317   2.131   1.318   6.620
 4140SOL     OW13318   4.364   1.429   4.868
 4140SOL    HW113319   4.323   1.340   4.886
 4140SOL    HW213320   4.373   1.479   4.955
 4141SOL     OW13321   5.274   5.615   0.606
 4141SOL    HW113322   5.263   5.516   0.601
 4141SOL    HW213323   5.311   5.649   0.519
 4142SOL     OW13324   6.271   3.926   1.484
 4142SOL    HW113325   6.309   3.893   1.398
 4142SOL    HW213326   6.180   3.966   1.468
 4143SOL     OW13327   0.529   2.758   1.167
 4143SOL    HW113328   0.465   2.817   1.215
 4143SOL    HW213329   0.543   2.791   1.074
 4144SOL     OW13330   4.464   0.534   2.582
 4144SOL    HW113331   4.433   0.599   2.652
 4144SOL    HW213332   4.525   0.581   2.518
 4145SOL     OW13333   2.307   6.745   2.548
 4145SOL    HW113334   2.262   6.677   2.490
 4145SOL    HW213335   2.268   6.835   2.530
 4146SOL     OW13336   5.222   5.854   0.222
 4146SOL    HW113337   5.306   5.834   0.272
 4146SOL    HW213338   5.223   5.806   0.135
 4147SOL     OW13339   3.506   2.239   5.559
 4147SOL    HW113340   3.466   2.248   5.650
 4147SOL    HW213341   3.436   2.211   5.494
 4148SOL     OW13342   6.259   0.502   3.726
 4148SOL    HW113343   6.206   0.539   3.650
 4148SOL    HW213344   6.343   0.556   3.737
 4149SOL     OW13345   5.430   3.845   1.907
 4149SOL    HW113346   5.496   3.778   1.942
 4149SOL    HW213347   5.363   3.797   1.850
 4150SOL     OW13348   5.077   0.559   6.582
 4150SOL    HW113349   5.122   0.483   6.535
 4150SOL    HW213350   4.980   0.539   6.592
 4151SOL     OW13351   0.692   5.428   0.841
 4151SOL    HW113352   0.787   5.456   0.849
 4151SOL    HW213353   0.685   5.351   0.778
 4152SOL     OW13354   3.551   4.281   1.299
 4152SOL    HW113355   3.618   4.234   1.356
 4152SOL    HW213356   3.500   4.215   1.244
 4153SOL     OW13357   6.405   4.957   5.865
 4153SOL    HW113358   6.350   5.039   5.852
 4153SOL    HW213359   6.362   4.899   5.935
 4154SOL     OW13360   5.296   3.069   5.885
 4154SOL    HW113361   5.304   2.970   5.899
 4154SOL    HW213362   5.327   3.091   5.792
 4155SOL     OW13363   0.846   3.196   1.836
 4155SOL    HW113364   0.859   3.283   1.789
 4155SOL    HW213365   0.885   3.201   1.928
 4156SOL     OW13366   6.110   0.028   5.570
 4156SOL    HW113367   6.130   6.952   5.551
 4156SOL    HW213368   6.020   0.052   5.533
 4157SOL     OW13369   3.580   0.999   4.915
 4157SOL    HW113370   3.565   1.092   4.881
 4157SOL    HW213371   3.607   0.939   4.840
 4158SOL     OW13372   1.076   6.625   3.935
 4158SOL    HW113373   1.148   6.560   3.959
 4158SOL    HW213374   1.017   6.584   3.864
 4159SOL     OW13375   0.957   2.815   5.090
 4159SOL    HW113376   0.955   2.913   5.111
 4159SOL    HW213377   0.864   2.780   5.086
 4160SOL     OW13378   1.417   0.890   0.861
 4160SOL    HW113379   1.493   0.825   0.852
 4160SOL    HW213380   1.380   0.884   0.954
 4161SOL     OW13381   6.113   1.854   0.350
 4161SOL    HW113382   6.064   1.778   0.306
 4161SOL    HW213383   6.055   1.936   0.348
 4162SOL     OW13384   6.241   0.282   5.433
 4162SOL    HW113385   6.227   0.259   5.336
 4162SOL    HW213386   6.239   0.198   5.487
 4163SOL     OW13387   5.573   1.530   4.137
 4163SOL    HW113388   5.503   1.548   4.206
 4163SOL    HW213389   5.657   1.498   4.182
 4164SOL     OW13390   2.280   0.307   5.996
 4164SOL    HW113391   2.358   0.318   5.934
 4164SOL    HW213392   2.224   0.229   5.966
 4165SOL     OW13393   3.995   6.472   2.176
 4165SOL    HW113394   4.094   6.475   2.190
 4165SOL    HW213395   3.976   6.467   2.078
 4166SOL     OW13396   5.542   2.941   0.808
 4166SOL    HW113397   5.604   3.019   0.798
 4166SOL    HW213398   5.534   2.916   0.904
 4167SOL     OW13399   1.943   2.676   1.622
 4167SOL    HW113400   1.955   2.739   1.545
 4167SOL    HW213401   1.865   2.705   1.677
 4168SOL     OW13402   1.297   5.122   0.901
 4168SOL    HW113403   1.321   5.031   0.865
 4168SOL    HW213404   1.294   5.187   0.826
 4169SOL     OW13405   5.808   3.464   4.537
 4169SOL    HW113406   5.758   3.536   4.586
 4169SOL    HW213407   5.817   3.488   4.441
 4170SOL     OW13408   4.640   2.571   5.723
 4170SOL    HW113409   4.564   2.510   5.744
 4170SOL    HW213410   4.615   2.629   5.645
 4171SOL     OW13411   5.996   3.988   2.015
 4171SOL    HW113412   5.943   4.067   2.044
 4171SOL    HW213413   5.934   3.915   1.985
 4172SOL     OW13414   1.806   1.846   0.377
 4172SOL    HW113415   1.714   1.886   0.371
 4172SOL    HW213416   1.873   1.919   0.387
 4173SOL     OW13417   5.278   3.706   5.466
 4173SOL    HW113418   5.331   3.710   5.381
 4173SOL    HW213419   5.316   3.773   5.531
 4174SOL     OW13420   4.941   0.810   4.581
 4174SOL    HW113421   4.980   0.737   4.526
 4174SOL    HW213422   4.960   0.793   4.678
 4175SOL     OW13423   3.207   1.121   3.101
 4175SOL    HW113424   3.110   1.125   3.079
 4175SOL    HW213425   3.259   1.094   3.019
 4176SOL     OW13426   5.622   6.306   2.723
 4176SOL    HW113427   5.559   6.298   2.646
 4176SOL    HW213428   5.576   6.351   2.799
 4177SOL     OW13429   6.940   5.634   2.580
 4177SOL    HW113430   6.970   5.713   2.632
 4177SOL    HW213431   6.868   5.661   2.516
 4178SOL     OW13432   4.003   2.560   5.787
 4178SOL    HW113433   3.934   2.534   5.854
 4178SOL    HW213434   4.020   2.659   5.794
 4179SOL     OW13435   5.642   3.172   6.226
 4179SOL    HW113436   5.697   3.244   6.184
 4179SOL    HW213437   5.554   3.166   6.179
 4180SOL     OW13438   4.407   3.808   1.762
 4180SOL    HW113439   4.371   3.816   1.669
 4180SOL    HW213440   4.497   3.851   1.766
 4181SOL     OW13441   0.403   1.011   6.688
 4181SOL    HW113442   0.479   0.959   6.648
 4181SOL    HW213443   0.421   1.109   6.680
 4182SOL     OW13444   5.582   1.159   3.651
 4182SOL    HW113445   5.604   1.257   3.658
 4182SOL    HW213446   5.492   1.142   3.690
 4183SOL     OW13447   1.357   1.658   1.398
 4183SOL    HW113448   1.304   1.598   1.459
 4183SOL    HW213449   1.386   1.606   1.318
 4184SOL     OW13450   4.679   5.542   0.353
 4184SOL    HW113451   4.766   5.492   0.346
 4184SOL    HW213452   4.683   5.604   0.432
 4185SOL     OW13453   0.286   0.052   4.215
 4185SOL    HW113454   0.309   0.119   4.145
 4185SOL    HW213455   0.281   6.980   4.173
 4186SOL     OW13456   3.168   4.200   1.139
 4186SOL    HW113457   3.196   4.281   1.191
 4186SOL    HW213458   3.168   4.221   1.042
 4187SOL     OW13459   4.279   4.168   6.871
 4187SOL    HW113460   4.189   4.167   6.914
 4187SOL    HW213461   4.329   4.249   6.901
 4188SOL     OW13462   4.762   6.542   4.608
 4188SOL    HW113463   4.836   6.581   4.663
 4188SOL    HW213464   4.800   6.505   4.523
 4189SOL     OW13465   2.352   2.834   3.940
 4189SOL    HW113466   2.425   2.888   3.898
 4189SOL    HW213467   2.264   2.878   3.921
 4190SOL     OW13468   2.947   0.235   1.538
 4190SOL    HW113469   3.035   0.267   1.503
 4190SOL    HW213470   2.875   0.256   1.471
 4191SOL     OW13471   6.304   2.051   2.430
 4191SOL    HW113472   6.277   1.995   2.352
 4191SOL    HW213473   6.337   2.140   2.397
 4192SOL     OW13474   6.426   1.651   3.322
 4192SOL    HW113475   6.405   1.587   3.248
 4192SOL    HW213476   6.341   1.677   3.368
 4193SOL     OW13477   1.603   0.209   1.922
 4193SOL    HW113478   1.674   0.271   1.888
 4193SOL    HW213479   1.619   0.190   2.018
 4194SOL     OW13480   0.398   0.487   4.431
 4194SOL    HW113481   0.310   0.478   4.384
 4194SOL    HW213482   0.388   0.462   4.527
 4195SOL     OW13483   4.799   0.570   1.961
 4195SOL    HW113484   4.811   0.502   1.889
 4195SOL    HW213485   4.780   0.659   1.920
 4196SOL     OW13486   4.554   2.510   3.549
 4196SOL    HW113487   4.574   2.510   3.451
 4196SOL    HW213488   4.470   2.457   3.565
 4197SOL     OW13489   4.375   4.572   4.019
 4197SOL    HW113490   4.359   4.650   4.080
 4197SOL    HW213491   4.334   4.590   3.930
 4198SOL     OW13492   5.659   3.766   5.812
 4198SOL    HW113493   5.708   3.852   5.799
 4198SOL    HW213494   5.679   3.730   5.903
 4199SOL     OW13495   3.158   4.084   5.144
 4199SOL    HW113496   3.149   4.082   5.044
 4199SOL    HW213497   3.070   4.061   5.186
 4200SOL     OW13498   2.237   0.040   6.240
 4200SOL    HW113499   2.303   0.054   6.165
 4200SOL    HW213500   2.277   7.001   6.310
 4201SOL     OW13501   5.978   6.314   4.317
 4201SOL    HW113502   5.985   6.292   4.414
 4201SOL    HW213503   6.051   6.268   4.267
 4202SOL     OW13504   5.301   4.232   4.455
 4202SOL    HW113505   5.285   4.317   4.406
 4202SOL    HW213506   5.337   4.252   4.546
 4203SOL     OW13507   5.395   5.450   3.658
 4203SOL    HW113508   5.422   5.354   3.644
 4203SOL    HW213509   5.297   5.454   3.680
 4204SOL     OW13510   2.997   3.849   0.430
 4204SOL    HW113511   3.025   3.944   0.439
 4204SOL    HW213512   3.023   3.815   0.339
 4205SOL     OW13513   2.575   5.452   2.994
 4205SOL    HW113514   2.565   5.361   2.953
 4205SOL    HW213515   2.578   5.444   3.093
 4206SOL     OW13516   6.021   6.950   4.730
 4206SOL    HW113517   6.016   6.859   4.689
 4206SOL    HW213518   6.117   6.972   4.750
 4207SOL     OW13519   0.892   0.690   1.314
 4207SOL    HW113520   0.867   0.597   1.338
 4207SOL    HW213521   0.815   0.751   1.334
 4208SOL     OW13522   0.919   3.385   1.629
 4208SOL    HW113523   0.972   3.356   1.549
 4208SOL    HW213524   0.894   3.481   1.619
 4209SOL     OW13525   2.983   0.126   4.877
 4209SOL    HW113526   2.926   0.203   4.847
 4209SOL    HW213527   2.991   0.127   4.976
 4210SOL     OW13528   5.058   2.610   0.563
 4210SOL    HW113529   5.086   2.674   0.635
 4210SOL    HW213530   5.119   2.530   0.564
 4211SOL     OW13531   4.886   4.143   3.513
 4211SOL    HW113532   4.932   4.225   3.548
 4211SOL    HW213533   4.936   4.062   3.544
 4212SOL     OW13534   6.548   6.884   2.392
 4212SOL    HW113535   6.499   6.839   2.317
 4212SOL    HW213536   6.514   6.978   2.401
 4213SOL     OW13537   0.822   0.789   2.393
 4213SOL    HW113538   0.728   0.807   2.365
 4213SOL    HW213539   0.823   0.737   2.478
 4214SOL     OW13540   1.926   4.077   4.452
 4214SOL    HW113541   2.023   4.090   4.474
 4214SOL    HW213542   1.883   4.166   4.436
 4215SOL     OW13543   0.863   5.449   4.664
 4215SOL    HW113544   0.932   5.418   4.599
 4215SOL    HW213545   0.907   5.472   4.751
 4216SOL     OW13546   2.142   3.428   5.427
 4216SOL    HW113547   2.101   3.337   5.418
 4216SOL    HW213548   2.238   3.419   5.452
 4217SOL     OW13549   6.796   0.417   3.368
 4217SOL    HW113550   6.785   0.489   3.300
 4217SOL    HW213551   6.860   0.447   3.439
 4218SOL     OW13552   3.344   6.495   2.951
 4218SOL    HW113553   3.443   6.489   2.941
 4218SOL    HW213554   3.300   6.435   2.885
 4219SOL     OW13555   4.822   6.372   3.530
 4219SOL    HW113556   4.880   6.421   3.466
 4219SOL    HW213557   4.796   6.283   3.492
 4220SOL     OW13558   0.580   3.580   3.512
 4220SOL    HW113559   0.583   3.547   3.606
 4220SOL    HW213560   0.486   3.576   3.478
 4221SOL     OW13561   5.583   5.588   6.075
 4221SOL    HW113562   5.504   5.546   6.031
 4221SOL    HW213563   5.566   5.593   6.174
 4222SOL     OW13564   4.303   2.606   0.055
 4222SOL    HW113565   4.207   2.633   0.062
 4222SOL    HW213566   4.361   2.679   0.092
 4223SOL     OW13567   3.884   3.946   2.625
 4223SOL    HW113568   3.846   3.963   2.534
 4223SOL    HW213569   3.832   3.997   2.693
 4224SOL     OW13570   4.402   2.227   5.080
 4224SOL    HW113571   4.468   2.273   5.140
 4224SOL    HW213572   4.317   2.278   5.079
 4225SOL     OW13573   5.239   0.643   4.983
 4225SOL    HW113574   5.182   0.724   4.981
 4225SOL    HW213575   5.326   0.661   4.937
 4226SOL     OW13576   1.642   0.774   3.505
 4226SOL    HW113577   1.547   0.745   3.487
 4226SOL    HW213578   1.649   0.873   3.490
 4227SOL     OW13579   5.770   4.316   0.439
 4227SOL    HW113580   5.813   4.393   0.391
 4227SOL    HW213581   5.690   4.349   0.489
 4228SOL     OW13582   6.272   5.550   2.331
 4228SOL    HW113583   6.173   5.559   2.323
 4228SOL    HW213584   6.296   5.511   2.420
 4229SOL     OW13585   4.989   4.884   5.736
 4229SOL    HW113586   4.922   4.958   5.731
 4229SOL    HW213587   5.066   4.904   5.676
 4230SOL     OW13588   3.333   0.220   4.174
 4230SOL    HW113589   3.312   0.122   4.178
 4230SOL    HW213590   3.248   0.272   4.175
 4231SOL     OW13591   3.960   6.212   5.295
 4231SOL    HW113592   3.915   6.128   5.327
 4231SOL    HW213593   3.994   6.263   5.374
 4232SOL     OW13594   2.132   3.939   1.859
 4232SOL    HW113595   2.149   3.849   1.817
 4232SOL    HW213596   2.200   4.004   1.826
 4233SOL     OW13597   5.473   0.009   1.303
 4233SOL    HW113598   5.531   6.950   1.281
 4233SOL    HW213599   5.377   7.000   1.304
 4234SOL     OW13600   3.294   4.050   5.434
 4234SOL    HW113601   3.252   3.980   5.375
 4234SOL    HW213602   3.376   4.086   5.389
 4235SOL     OW13603   6.928   3.483   5.686
 4235SOL    HW113604   6.875   3.402   5.663
 4235SOL    HW213605   6.994   3.460   5.758
 4236SOL     OW13606   1.067   4.203   5.141
 4236SOL    HW113607   0.971   4.229   5.134
 4236SOL    HW213608   1.117   4.273   5.192
 4237SOL     OW13609   5.174   4.469   4.311
 4237SOL    HW113610   5.104   4.404   4.282
 4237SOL    HW213611   5.143   4.517   4.393
 4238SOL     OW13612   4.042   4.781   3.801
 4238SOL    HW113613   4.082   4.863   3.760
 4238SOL    HW213614   3.943   4.794   3.810
 4239SOL     OW13615   5.029   5.615   5.959
 4239SOL    HW113616   5.023   5.583   6.054
 4239SOL    HW213617   4.998   5.710   5.954
 4240SOL     OW13618   2.606   4.568   6.477
 4240SOL    HW113619   2.543   4.562   6.400
 4240SOL    HW213620   2.646   4.659   6.480
 4241SOL     OW13621   3.670   0.942   0.020
 4241SOL    HW113622   3.734   0.944   0.096
 4241SOL    HW213623   3.675   1.029   6.990
 4242SOL     OW13624   1.458   0.184   2.441
 4242SOL    HW113625   1.513   0.242   2.381
 4242SOL    HW213626   1.373   0.232   2.465
 4243SOL     OW13627   1.575   3.029   3.512
 4243SOL    HW113628   1.644   3.092   3.546
 4243SOL    HW213629   1.591   2.938   3.550
 4244SOL     OW13630   3.332   6.370   1.577
 4244SOL    HW113631   3.319   6.442   1.509
 4244SOL    HW213632   3.245   6.324   1.594
 4245SOL     OW13633   6.719   3.163   1.927
 4245SOL    HW113634   6.623   3.144   1.906
 4245SOL    HW213635   6.753   3.092   1.989
 4246SOL     OW13636   4.252   2.314   4.125
 4246SOL    HW113637   4.163   2.274   4.148
 4246SOL    HW213638   4.316   2.299   4.201
 4247SOL     OW13639   2.100   4.427   6.146
 4247SOL    HW113640   2.059   4.402   6.234
 4247SOL    HW213641   2.198   4.406   6.148
 4248SOL     OW13642   1.668   7.004   2.842
 4248SOL    HW113643   1.762   6.977   2.863
 4248SOL    HW213644   1.624   6.932   2.788
 4249SOL     OW13645   6.590   6.832   5.539
 4249SOL    HW113646   6.578   6.738   5.571
 4249SOL    HW213647   6.522   6.852   5.469
 4250SOL     OW13648   6.281   5.801   4.043
 4250SOL    HW113649   6.247   5.878   3.989
 4250SOL    HW213650   6.220   5.722   4.033
 4251SOL     OW13651   6.180   2.581   5.545
 4251SOL    HW113652   6.228   2.494   5.561
 4251SOL    HW213653   6.204   2.616   5.455
 4252SOL     OW13654   0.080   6.567   0.090
 4252SOL    HW113655   7.000   6.569   0.084
 4252SOL    HW213656   0.114   6.651   0.132
 4253SOL     OW13657   4.507   5.409   2.708
 4253SOL    HW113658   4.574   5.340   2.736
 4253SOL    HW213659   4.483   5.467   2.786
 4254SOL     OW13660   2.135   2.532   5.860
 4254SOL    HW113661   2.149   2.460   5.928
 4254SOL    HW213662   2.159   2.621   5.900
 4255SOL     OW13663   1.248   3.366   3.260
 4255SOL    HW113664   1.339   3.370   3.221
 4255SOL    HW213665   1.230   3.273   3.293
 4256SOL     OW13666   0.313   5.886   1.292
 4256SOL    HW113667   0.379   5.872   1.365
 4256SOL    HW213668   0.349   5.849   1.206
 4257SOL     OW13669   6.777   0.093   4.030
 4257SOL    HW113670   6.813   0.129   3.944
 4257SOL    HW213671   6.694   0.041   4.013
 4258SOL     OW13672   3.089   5.523   1.028
 4258SOL    HW113673   3.187   5.542   1.026
 4258SOL    HW213674   3.062   5.478   0.943
 4259SOL     OW13675   1.117   0.435   0.167
 4259SOL    HW113676   1.186   0.492   0.211
 4259SOL    HW213677   1.086   0.479   0.083
 4260SOL     OW13678   5.401   0.911   4.670
 4260SOL    HW113679   5.434   0.984   4.731
 4260SOL    HW213680   5.410   0.823   4.716
 4261SOL     OW13681   2.632   6.251   4.238
 4261SOL    HW113682   2.653   6.345   4.211
 4261SOL    HW213683   2.699   6.189   4.196
 4262SOL     OW13684   2.591   4.686   6.120
 4262SOL    HW113685   2.562   4.699   6.215
 4262SOL    HW213686   2.520   4.637   6.070
 4263SOL     OW13687   1.927   1.889   3.725
 4263SOL    HW113688   2.012   1.874   3.776
 4263SOL    HW213689   1.873   1.960   3.771
 4264SOL     OW13690   4.631   2.147   5.610
 4264SOL    HW113691   4.544   2.195   5.604
 4264SOL    HW213692   4.635   2.077   5.539
 4265SOL     OW13693   2.149   0.081   5.925
 4265SOL    HW113694   2.101   0.034   5.999
 4265SOL    HW213695   2.145   0.026   5.842
 4266SOL     OW13696   1.460   5.120   1.786
 4266SOL    HW113697   1.458   5.184   1.863
 4266SOL    HW213698   1.519   5.156   1.714
 4267SOL     OW13699   1.220   4.240   4.550
 4267SOL    HW113700   1.281   4.196   4.616
 4267SOL    HW213701   1.184   4.171   4.487
 4268SOL     OW13702   1.038   3.952   6.030
 4268SOL    HW113703   0.966   3.962   6.098
 4268SOL    HW213704   1.108   4.023   6.043
 4269SOL     OW13705   2.935   1.290   4.968
 4269SOL    HW113706   2.913   1.256   4.877
 4269SOL    HW213707   2.850   1.317   5.015
 4270SOL     OW13708   3.683   3.048   0.243
 4270SOL    HW113709   3.748   3.114   0.204
 4270SOL    HW213710   3.603   3.042   0.185
 4271SOL     OW13711   6.936   1.068   1.459
 4271SOL    HW113712   6.875   1.003   1.505
 4271SOL    HW213713   6.932   1.053   1.360
 4272SOL     OW13714   6.693   0.833   6.216
 4272SOL    HW113715   6.664   0.814   6.309
 4272SOL    HW213716   6.621   0.806   6.152
 4273SOL     OW13717   2.850   5.983   4.374
 4273SOL    HW113718   2.821   6.036   4.453
 4273SOL    HW213719   2.772   5.934   4.336
 4274SOL     OW13720   7.016   1.527   2.410
 4274SOL    HW113721   7.011   1.468   2.329
 4274SOL    HW213722   6.981   1.618   2.386
 4275SOL     OW13723   0.460   2.411   3.481
 4275SOL    HW113724   0.401   2.342   3.523
 4275SOL    HW213725   0.524   2.446   3.550
 4276SOL     OW13726   2.124   5.874   2.895
 4276SOL    HW113727   2.025   5.861   2.880
 4276SOL    HW213728   2.161   5.793   2.942
 4277SOL     OW13729   6.692   5.689   2.851
 4277SOL    HW113730   6.759   5.757   2.880
 4277SOL    HW213731   6.692   5.683   2.752
 4278SOL     OW13732   1.162   6.960   1.306
 4278SOL    HW113733   1.127   7.013   1.229
 4278SOL    HW213734   1.128   6.999   1.392
 4279SOL     OW13735   0.813   2.023   3.657
 4279SOL    HW113736   0.888   1.958   3.670
 4279SOL    HW213737   0.837   2.111   3.696
 4280SOL     OW13738   1.970   6.303   6.435
 4280SOL    HW113739   1.892   6.359   6.406
 4280SOL    HW213740   2.022   6.274   6.355
 4281SOL     OW13741   5.427   6.011   3.034
 4281SOL    HW113742   5.450   6.014   3.131
 4281SOL    HW213743   5.418   5.915   3.005
 4282SOL     OW13744   4.529   5.204   1.926
 4282SOL    HW113745   4.595   5.151   1.980
 4282SOL    HW213746   4.570   5.292   1.900
 4283SOL     OW13747   4.935   1.487   4.709
 4283SOL    HW113748   4.838   1.467   4.720
 4283SOL    HW213749   4.973   1.518   4.796
 4284SOL     OW13750   4.532   5.286   6.438
 4284SOL    HW113751   4.580   5.239   6.363
 4284SOL    HW213752   4.480   5.219   6.491
 4285SOL     OW13753   3.654   1.224   6.076
 4285SOL    HW113754   3.636   1.316   6.043
 4285SOL    HW213755   3.580   1.194   6.136
 4286SOL     OW13756   5.948   0.538   6.397
 4286SOL    HW113757   5.997   0.526   6.483
 4286SOL    HW213758   5.948   0.635   6.372
 4287SOL     OW13759   3.480   0.843   1.249
 4287SOL    HW113760   3.463   0.813   1.342
 4287SOL    HW213761   3.395   0.877   1.208
 4288SOL     OW13762   0.023   6.097   1.907
 4288SOL    HW113763   0.021   6.169   1.839
 4288SOL    HW213764   0.107   6.105   1.962
 4289SOL     OW13765   0.407   4.754   4.546
 4289SOL    HW113766   0.459   4.688   4.600
 4289SOL    HW213767   0.358   4.707   4.473
 4290SOL     OW13768   0.450   1.282   3.022
 4290SOL    HW113769   0.486   1.319   2.937
 4290SOL    HW213770   0.482   1.337   3.099
 4291SOL     OW13771   3.946   4.286   6.543
 4291SOL    HW113772   3.867   4.246   6.589
 4291SOL    HW213773   3.952   4.250   6.450
 4292SOL     OW13774   6.474   1.315   1.720
 4292SOL    HW113775   6.531   1.341   1.798
 4292SOL    HW213776   6.432   1.226   1.737
 4293SOL     OW13777   3.891   2.853   0.086
 4293SOL    HW113778   3.792   2.854   0.073
 4293SOL    HW213779   3.937   2.850   7.017
 4294SOL     OW13780   2.435   1.784   6.491
 4294SOL    HW113781   2.491   1.867   6.486
 4294SOL    HW213782   2.422   1.758   6.587
 4295SOL     OW13783   4.229   6.141   3.056
 4295SOL    HW113784   4.259   6.099   2.970
 4295SOL    HW213785   4.203   6.236   3.040
 4296SOL     OW13786   2.657   6.639   2.614
 4296SOL    HW113787   2.729   6.624   2.681
 4296SOL    HW213788   2.574   6.590   2.642
 4297SOL     OW13789   5.188   5.056   0.301
 4297SOL    HW113790   5.130   5.007   0.366
 4297SOL    HW213791   5.134   5.124   0.252
 4298SOL     OW13792   1.786   0.435   0.475
 4298SOL    HW113793   1.844   0.436   0.557
 4298SOL    HW213794   1.828   0.492   0.404
 4299SOL     OW13795   1.087   2.773   0.011
 4299SOL    HW113796   1.168   2.807   0.059
 4299SOL    HW213797   1.067   2.680   0.040
 4300SOL     OW13798   2.833   0.190   1.802
 4300SOL    HW113799   2.922   0.185   1.848
 4300SOL    HW213800   2.841   0.251   1.723
 4301SOL     OW13801   2.217   5.570   6.877
 4301SOL    HW113802   2.300   5.561   6.931
 4301SOL    HW213803   2.139   5.583   6.937
 4302SOL     OW13804   3.177   4.889   5.828
 4302SOL    HW113805   3.204   4.825   5.755
 4302SOL    HW213806   3.141   4.972   5.787
 4303SOL     OW13807   5.052   5.556   3.191
 4303SOL    HW113808   4.965   5.515   3.161
 4303SOL    HW213809   5.098   5.494   3.254
 4304SOL     OW13810   3.176   3.902   1.491
 4304SOL    HW113811   3.265   3.893   1.447
 4304SOL    HW213812   3.113   3.834   1.454
 4305SOL     OW13813   1.312   6.339   6.052
 4305SOL    HW113814   1.233   6.380   6.007
 4305SOL    HW213815   1.396   6.377   6.013
 4306SOL     OW13816   5.480   4.186   5.135
 4306SOL    HW113817   5.444   4.264   5.186
 4306SOL    HW213818   5.450   4.191   5.040
 4307SOL     OW13819   0.323   0.913   5.691
 4307SOL    HW113820   0.345   0.922   5.788
 4307SOL    HW213821   0.405   0.928   5.636
 4308SOL     OW13822   4.731   5.492   6.257
 4308SOL    HW113823   4.819   5.448   6.238
 4308SOL    HW213824   4.728   5.521   6.352
 4309SOL     OW13825   1.329   1.102   0.067
 4309SOL    HW113826   1.290   1.194   0.057
 4309SOL    HW213827   1.333   1.058   6.996
 4310SOL     OW13828   6.715   2.258   3.087
 4310SOL    HW113829   6.694   2.333   3.025
 4310SOL    HW213830   6.801   2.276   3.134
 4311SOL     OW13831   0.676   6.968   1.580
 4311SOL    HW113832   0.717   6.950   1.669
 4311SOL    HW213833   0.735   6.932   1.508
 4312SOL     OW13834   6.631   4.678   2.401
 4312SOL    HW113835   6.731   4.686   2.407
 4312SOL    HW213836   6.599   4.610   2.467
 4313SOL     OW13837   0.740   2.963   6.531
 4313SOL    HW113838   0.764   2.991   6.438
 4313SOL    HW213839   0.726   3.045   6.587
 4314SOL     OW13840   0.829   1.481   6.428
 4314SOL    HW113841   0.811   1.562   6.372
 4314SOL    HW213842   0.891   1.420   6.378
 4315SOL     OW13843   2.715   1.328   5.128
 4315SOL    HW113844   2.683   1.397   5.194
 4315SOL    HW213845   2.638   1.298   5.072
 4316SOL     OW13846   4.695   6.022   1.668
 4316SOL    HW113847   4.709   5.945   1.731
 4316SOL    HW213848   4.773   6.028   1.606
 4317SOL     OW13849   4.918   0.742   5.838
 4317SOL    HW113850   4.934   0.774   5.931
 4317SOL    HW213851   4.942   0.813   5.773
 4318SOL     OW13852   0.989   6.389   4.326
 4318SOL    HW113853   1.057   6.449   4.285
 4318SOL    HW213854   1.027   6.345   4.407
 4319SOL     OW13855   1.013   3.925   2.485
 4319SOL    HW113856   1.062   3.916   2.571
 4319SOL    HW213857   0.962   4.011   2.484
 4320SOL     OW13858   3.264   0.162   0.575
 4320SOL    HW113859   3.337   0.100   0.603
 4320SOL    HW213860   3.279   0.252   0.615
 4321SOL     OW13861   6.502   6.518   3.136
 4321SOL    HW113862   6.413   6.561   3.119
 4321SOL    HW213863   6.512   6.497   3.233
 4322SOL     OW13864   1.993   2.185   4.980
 4322SOL    HW113865   2.042   2.144   5.057
 4322SOL    HW213866   1.908   2.226   5.013
 4323SOL     OW13867   4.699   4.937   0.206
 4323SOL    HW113868   4.621   4.918   0.265
 4323SOL    HW213869   4.680   5.017   0.150
 4324SOL     OW13870   1.192   4.862   5.572
 4324SOL    HW113871   1.123   4.883   5.642
 4324SOL    HW213872   1.253   4.791   5.606
 4325SOL     OW13873   2.230   0.005   2.441
 4325SOL    HW113874   2.155   7.017   2.376
 4325SOL    HW213875   2.286   0.085   2.419
 4326SOL     OW13876   5.206   2.219   2.076
 4326SOL    HW113877   5.297   2.216   2.036
 4326SOL    HW213878   5.199   2.297   2.138
 4327SOL     OW13879   2.555   5.480   3.778
 4327SOL    HW113880   2.614   5.399   3.791
 4327SOL    HW213881   2.501   5.468   3.695
 4328SOL     OW13882   6.645   0.430   3.827
 4328SOL    HW113883   6.729   0.382   3.805
 4328SOL    HW213884   6.610   0.397   3.915
 4329SOL     OW13885   7.011   2.647   6.811
 4329SOL    HW113886   6.917   2.656   6.843
 4329SOL    HW213887   0.009   2.553   6.782
 4330SOL     OW13888   2.679   5.160   4.466
 4330SOL    HW113889   2.673   5.234   4.398
 4330SOL    HW213890   2.593   5.154   4.516
 4331SOL     OW13891   5.890   2.109   2.274
 4331SOL    HW113892   5.884   2.059   2.188
 4331SOL    HW213893   5.883   2.045   2.351
 4332SOL     OW13894   1.154   5.373   1.493
 4332SOL    HW113895   1.148   5.473   1.499
 4332SOL    HW213896   1.152   5.334   1.585
 4333SOL     OW13897   4.281   2.240   6.033
 4333SOL    HW113898   4.265   2.144   6.013
 4333SOL    HW213899   4.282   2.254   6.132
 4334SOL     OW13900   0.541   2.708   4.437
 4334SOL    HW113901   0.481   2.659   4.500
 4334SOL    HW213902   0.495   2.791   4.406
 4335SOL     OW13903   2.494   3.880   1.417
 4335SOL    HW113904   2.486   3.966   1.468
 4335SOL    HW213905   2.551   3.894   1.336
 4336SOL     OW13906   2.760   5.929   5.191
 4336SOL    HW113907   2.692   5.931   5.263
 4336SOL    HW213908   2.765   6.019   5.147
 4337SOL     OW13909   0.853   5.039   3.742
 4337SOL    HW113910   0.848   5.086   3.831
 4337SOL    HW213911   0.852   5.107   3.669
 4338SOL     OW13912   3.208   2.643   5.732
 4338SOL    HW113913   3.168   2.570   5.677
 4338SOL    HW213914   3.292   2.675   5.690
 4339SOL     OW13915   4.103   4.938   6.008
 4339SOL    HW113916   4.027   4.911   6.066
 4339SOL    HW213917   4.104   4.883   5.925
 4340SOL     OW13918   6.403   4.072   1.688
 4340SOL    HW113919   6.359   4.022   1.613
 4340SOL    HW213920   6.335   4.130   1.733
 4341SOL     OW13921   6.261   6.089   1.529
 4341SOL    HW113922   6.240   6.007   1.582
 4341SOL    HW213923   6.318   6.151   1.583
 4342SOL     OW13924   4.973   3.562   2.441
 4342SOL    HW113925   4.989   3.477   2.492
 4342SOL    HW213926   4.967   3.542   2.344
 4343SOL     OW13927   3.675   6.709   5.913
 4343SOL    HW113928   3.673   6.748   5.821
 4343SOL    HW213929   3.769   6.679   5.934
 4344SOL     OW13930   6.915   3.921   2.896
 4344SOL    HW113931   6.998   3.924   2.952
 4344SOL    HW213932   6.883   3.827   2.887
 4345SOL     OW13933   3.300   3.059   2.659
 4345SOL    HW113934   3.243   3.050   2.577
 4345SOL    HW213935   3.325   3.155   2.671
 4346SOL     OW13936   1.160   2.764   2.798
 4346SOL    HW113937   1.158   2.863   2.786
 4346SOL    HW213938   1.230   2.740   2.865
 4347SOL     OW13939   6.829   5.723   0.446
 4347SOL    HW113940   6.782   5.785   0.509
 4347SOL    HW213941   6.906   5.771   0.404
 4348SOL     OW13942   5.734   5.054   4.786
 4348SOL    HW113943   5.747   4.959   4.757
 4348SOL    HW213944   5.700   5.055   4.880
 4349SOL     OW13945   0.297   3.276   4.077
 4349SOL    HW113946   0.348   3.299   3.994
 4349SOL    HW213947   0.360   3.244   4.147
 4350SOL     OW13948   3.694   0.920   3.938
 4350SOL    HW113949   3.713   1.018   3.941
 4350SOL    HW213950   3.615   0.899   3.995
 4351SOL     OW13951   0.659   5.563   0.508
 4351SOL    HW113952   0.646   5.474   0.550
 4351SOL    HW213953   0.716   5.620   0.568
 4352SOL     OW13954   3.624   5.032   1.808
 4352SOL    HW113955   3.619   5.123   1.765
 4352SOL    HW213956   3.607   5.041   1.906
 4353SOL     OW13957   2.568   2.744   1.018
 4353SOL    HW113958   2.584   2.648   0.991
 4353SOL    HW213959   2.647   2.799   0.990
 4354SOL     OW13960   5.804   6.532   2.578
 4354SOL    HW113961   5.777   6.520   2.673
 4354SOL    HW213962   5.900   6.558   2.573
 4355SOL     OW13963   1.880   4.932   2.483
 4355SOL    HW113964   1.867   4.895   2.575
 4355SOL    HW213965   1.803   4.992   2.460
 4356SOL     OW13966   6.240   2.713   5.278
 4356SOL    HW113967   6.306   2.760   5.336
 4356SOL    HW213968   6.285   2.685   5.193
 4357SOL     OW13969   5.359   0.533   2.018
 4357SOL    HW113970   5.280   0.582   2.055
 4357SOL    HW213971   5.427   0.598   1.985
 4358SOL     OW13972   2.972   6.989   0.402
 4358SOL    HW113973   2.981   6.990   0.302
 4358SOL    HW213974   3.062   6.976   0.443
 4359SOL     OW13975   3.078   1.943   1.183
 4359SOL    HW113976   2.998   1.886   1.203
 4359SOL    HW213977   3.161   1.889   1.194
 4360SOL     OW13978   2.464   4.773   4.008
 4360SOL    HW113979   2.391   4.734   3.952
 4360SOL    HW213980   2.550   4.725   3.989
 4361SOL     OW13981   0.067   2.093   0.111
 4361SOL    HW113982   0.043   2.109   0.016
 4361SOL    HW213983   0.165   2.074   0.118
 4362SOL     OW13984   0.865   5.515   3.180
 4362SOL    HW113985   0.919   5.592   3.214
 4362SOL    HW213986   0.896   5.491   3.088
 4363SOL     OW13987   3.931   1.246   2.402
 4363SOL    HW113988   4.020   1.252   2.357
 4363SOL    HW213989   3.921   1.321   2.467
 4364SOL     OW13990   4.085   3.252   3.011
 4364SOL    HW113991   4.088   3.241   2.912
 4364SOL    HW213992   4.034   3.176   3.052
 4365SOL     OW13993   2.014   1.209   1.148
 4365SOL    HW113994   1.988   1.113   1.137
 4365SOL    HW213995   1.935   1.267   1.125
 4366SOL     OW13996   5.051   7.008   4.543
 4366SOL    HW113997   5.024   6.921   4.503
 4366SOL    HW213998   5.046   7.002   4.643
 4367SOL     OW13999   2.936   6.188   2.926
 4367SOL    HW114000   2.900   6.096   2.944
 4367SOL    HW214001   2.955   6.234   3.012
 4368SOL     OW14002   4.819   4.142   3.931
 4368SOL    HW114003   4.916   4.161   3.914
 4368SOL    HW214004   4.774   4.119   3.845
 4369SOL     OW14005   5.203   3.959   3.735
 4369SOL    HW114006   5.112   3.927   3.710
 4369SOL    HW214007   5.255   3.977   3.651
 4370SOL     OW14008   3.699   4.431   1.607
 4370SOL    HW114009   3.658   4.340   1.613
 4370SOL    HW214010   3.665   4.488   1.682
 4371SOL     OW14011   2.265   1.014   1.707
 4371SOL    HW114012   2.199   0.997   1.633
 4371SOL    HW214013   2.332   0.940   1.709
 4372SOL     OW14014   1.816   3.321   4.335
 4372SOL    HW114015   1.761   3.327   4.251
 4372SOL    HW214016   1.760   3.281   4.407
 4373SOL     OW14017   3.294   0.831   6.511
 4373SOL    HW114018   3.281   0.748   6.565
 4373SOL    HW214019   3.236   0.827   6.430
 4374SOL     OW14020   2.717   6.398   0.491
 4374SOL    HW114021   2.719   6.492   0.458
 4374SOL    HW214022   2.811   6.366   0.506
 4375SOL     OW14023   4.593   1.534   5.270
 4375SOL    HW114024   4.638   1.613   5.230
 4375SOL    HW214025   4.530   1.564   5.342
 4376SOL     OW14026   2.327   5.708   6.656
 4376SOL    HW114027   2.307   5.643   6.730
 4376SOL    HW214028   2.306   5.801   6.686
 4377SOL     OW14029   5.153   6.688   6.556
 4377SOL    HW114030   5.248   6.662   6.537
 4377SOL    HW214031   5.144   6.715   6.652
 4378SOL     OW14032   2.497   5.169   2.274
 4378SOL    HW114033   2.536   5.080   2.249
 4378SOL    HW214034   2.558   5.214   2.339
 4379SOL     OW14035   1.080   0.154   1.480
 4379SOL    HW114036   0.991   0.183   1.446
 4379SOL    HW214037   1.111   0.217   1.551
 4380SOL     OW14038   2.044   4.974   4.375
 4380SOL    HW114039   2.096   4.929   4.302
 4380SOL    HW214040   2.108   5.005   4.446
 4381SOL     OW14041   4.794   6.166   5.645
 4381SOL    HW114042   4.801   6.179   5.744
 4381SOL    HW214043   4.752   6.246   5.603
 4382SOL     OW14044   4.937   3.472   3.132
 4382SOL    HW114045   4.860   3.427   3.176
 4382SOL    HW214046   4.965   3.420   3.051
 4383SOL     OW14047   1.005   1.687   7.007
 4383SOL    HW114048   0.964   1.754   0.050
 4383SOL    HW214049   0.934   1.625   6.974
 4384SOL     OW14050   3.921   6.514   1.157
 4384SOL    HW114051   3.998   6.455   1.181
 4384SOL    HW214052   3.918   6.527   1.058
 4385SOL     OW14053   6.240   1.895   2.213
 4385SOL    HW114054   6.255   1.796   2.210
 4385SOL    HW214055   6.304   1.941   2.152
 4386SOL     OW14056   1.441   3.629   6.667
 4386SOL    HW114057   1.358   3.625   6.723
 4386SOL    HW214058   1.421   3.674   6.581
 4387SOL     OW14059   6.878   2.679   1.859
 4387SOL    HW114060   6.899   2.605   1.795
 4387SOL    HW214061   6.963   2.715   1.898
 4388SOL     OW14062   3.114   1.461   5.301
 4388SOL    HW114063   3.183   1.452   5.230
 4388SOL    HW214064   3.158   1.457   5.391
 4389SOL     OW14065   5.864   1.990   2.036
 4389SOL    HW114066   5.798   1.922   2.066
 4389SOL    HW214067   5.827   2.041   1.959
 4390SOL     OW14068   4.137   2.580   1.731
 4390SOL    HW114069   4.069   2.508   1.719
 4390SOL    HW214070   4.090   2.667   1.748
 4391SOL     OW14071   0.616   5.847   1.142
 4391SOL    HW114072   0.572   5.772   1.191
 4391SOL    HW214073   0.621   5.825   1.045
 4392SOL     OW14074   5.314   3.300   4.216
 4392SOL    HW114075   5.273   3.388   4.194
 4392SOL    HW214076   5.248   3.244   4.266
 4393SOL     OW14077   4.823   5.632   3.460
 4393SOL    HW114078   4.910   5.629   3.509
 4393SOL    HW214079   4.748   5.647   3.525
 4394SOL     OW14080   4.809   1.049   2.593
 4394SOL    HW114081   4.749   1.087   2.522
 4394SOL    HW214082   4.872   0.983   2.552
 4395SOL     OW14083   4.714   1.871   1.359
 4395SOL    HW114084   4.685   1.897   1.451
 4395SOL    HW214085   4.633   1.847   1.305
 4396SOL     OW14086   1.193   0.930   4.133
 4396SOL    HW114087   1.207   1.027   4.154
 4396SOL    HW214088   1.118   0.895   4.190
 4397SOL     OW14089   6.293   0.285   6.453
 4397SOL    HW114090   6.227   0.319   6.386
 4397SOL    HW214091   6.385   0.314   6.426
 4398SOL     OW14092   0.052   4.840   3.969
 4398SOL    HW114093   6.978   4.828   3.936
 4398SOL    HW214094   0.051   4.902   4.048
 4399SOL     OW14095   2.715   1.375   1.512
 4399SOL    HW114096   2.644   1.417   1.568
 4399SOL    HW214097   2.690   1.280   1.493
 4400SOL     OW14098   3.396   5.762   3.771
 4400SOL    HW114099   3.380   5.782   3.868
 4400SOL    HW214100   3.358   5.672   3.749
 4401SOL     OW14101   5.723   6.704   4.413
 4401SOL    HW114102   5.666   6.635   4.369
 4401SOL    HW214103   5.820   6.682   4.399
 4402SOL     OW14104   6.440   0.798   3.232
 4402SOL    HW114105   6.448   0.755   3.322
 4402SOL    HW214106   6.344   0.817   3.212
 4403SOL     OW14107   0.792   6.916   2.744
 4403SOL    HW114108   0.798   6.879   2.837
 4403SOL    HW214109   0.733   6.996   2.743
 4404SOL     OW14110   1.672   4.201   3.437
 4404SOL    HW114111   1.731   4.171   3.512
 4404SOL    HW214112   1.608   4.128   3.414
 4405SOL     OW14113   3.505   4.162   6.560
 4405SOL    HW114114   3.508   4.239   6.497
 4405SOL    HW214115   3.413   4.153   6.598
 4406SOL     OW14116   5.529   3.576   1.788
 4406SOL    HW114117   5.596   3.630   1.841
 4406SOL    HW214118   5.541   3.479   1.808
 4407SOL     OW14119   0.178   6.753   0.230
 4407SOL    HW114120   0.097   6.749   0.289
 4407SOL    HW214121   0.179   6.839   0.180
 4408SOL     OW14122   4.900   6.169   0.755
 4408SOL    HW114123   4.938   6.081   0.784
 4408SOL    HW214124   4.843   6.206   0.828
 4409SOL     OW14125   2.200   1.213   2.068
 4409SOL    HW114126   2.159   1.294   2.109
 4409SOL    HW214127   2.286   1.239   2.023
 4410SOL     OW14128   2.452   5.683   1.448
 4410SOL    HW114129   2.429   5.738   1.528
 4410SOL    HW214130   2.547   5.698   1.422
 4411SOL     OW14131   3.928   3.030   3.048
 4411SOL    HW114132   3.832   3.033   3.077
 4411SOL    HW214133   3.932   3.018   2.949
 4412SOL     OW14134   3.728   1.579   6.178
 4412SOL    HW114135   3.787   1.503   6.205
 4412SOL    HW214136   3.682   1.556   6.092
 4413SOL     OW14137   4.147   5.463   4.547
 4413SOL    HW114138   4.219   5.525   4.515
 4413SOL    HW214139   4.116   5.405   4.471
 4414SOL     OW14140   3.322   5.499   1.526
 4414SOL    HW114141   3.297   5.404   1.539
 4414SOL    HW214142   3.316   5.523   1.429
 4415SOL     OW14143   4.586   1.999   1.069
 4415SOL    HW114144   4.509   2.062   1.083
 4415SOL    HW214145   4.557   1.924   1.010
 4416SOL     OW14146   3.161   1.119   4.048
 4416SOL    HW114147   3.111   1.069   4.119
 4416SOL    HW214148   3.100   1.137   3.971
 4417SOL     OW14149   0.480   0.685   0.613
 4417SOL    HW114150   0.390   0.719   0.640
 4417SOL    HW214151   0.507   0.611   0.674
 4418SOL     OW14152   4.551   0.693   3.837
 4418SOL    HW114153   4.509   0.784   3.828
 4418SOL    HW214154   4.524   0.653   3.925
 4419SOL     OW14155   6.876   5.482   0.132
 4419SOL    HW114156   6.937   5.477   0.211
 4419SOL    HW214157   6.928   5.510   0.051
 4420SOL     OW14158   4.197   0.764   6.891
 4420SOL    HW114159   4.109   0.809   6.905
 4420SOL    HW214160   4.267   0.833   6.873
 4421SOL     OW14161   1.852   1.814   3.458
 4421SOL    HW114162   1.895   1.833   3.369
 4421SOL    HW214163   1.919   1.827   3.531
 4422SOL     OW14164   2.129   4.028   5.863
 4422SOL    HW114165   2.148   3.934   5.833
 4422SOL    HW214166   2.186   4.092   5.811
 4423SOL     OW14167   6.826   1.577   6.750
 4423SOL    HW114168   6.846   1.659   6.696
 4423SOL    HW214169   6.802   1.604   6.843
 4424SOL     OW14170   0.030   6.526   3.940
 4424SOL    HW114171   7.017   6.441   3.982
 4424SOL    HW214172   0.126   6.540   3.963
 4425SOL     OW14173   4.513   4.499   0.285
 4425SOL    HW114174   4.568   4.470   0.207
 4425SOL    HW214175   4.477   4.419   0.333
 4426SOL     OW14176   1.211   0.434   5.340
 4426SOL    HW114177   1.261   0.368   5.396
 4426SOL    HW214178   1.267   0.516   5.329
 4427SOL     OW14179   1.304   6.276   3.201
 4427SOL    HW114180   1.366   6.355   3.210
 4427SOL    HW214181   1.355   6.198   3.164
 4428SOL     OW14182   2.541   5.799   2.912
 4428SOL    HW114183   2.458   5.804   2.967
 4428SOL    HW214184   2.523   5.834   2.820
 4429SOL     OW14185   3.697   0.746   3.096
 4429SOL    HW114186   3.619   0.797   3.132
 4429SOL    HW214187   3.691   0.743   2.996
 4430SOL     OW14188   1.191   0.451   1.375
 4430SOL    HW114189   1.154   0.438   1.467
 4430SOL    HW214190   1.214   0.548   1.363
 4431SOL     OW14191   2.127   1.647   3.438
 4431SOL    HW114192   2.146   1.673   3.344
 4431SOL    HW214193   2.196   1.583   3.470
 4432SOL     OW14194   2.942   3.672   3.826
 4432SOL    HW114195   2.928   3.611   3.748
 4432SOL    HW214196   2.922   3.624   3.911
 4433SOL     OW14197   6.920   0.612   3.544
 4433SOL    HW114198   6.826   0.626   3.574
 4433SOL    HW214199   6.970   0.699   3.550
 4434SOL     OW14200   4.857   2.348   4.403
 4434SOL    HW114201   4.809   2.303   4.478
 4434SOL    HW214202   4.793   2.365   4.328
 4435SOL     OW14203   3.715   2.929   2.484
 4435SOL    HW114204   3.639   2.894   2.539
 4435SOL    HW214205   3.687   2.937   2.388
 4436SOL     OW14206   5.111   0.711   0.746
 4436SOL    HW114207   5.184   0.774   0.720
 4436SOL    HW214208   5.138   0.618   0.722
 4437SOL     OW14209   3.609   0.276   4.724
 4437SOL    HW114210   3.661   0.241   4.646
 4437SOL    HW214211   3.665   0.269   4.807
 4438SOL     OW14212   3.867   3.626   6.387
 4438SOL    HW114213   3.859   3.626   6.487
 4438SOL    HW214214   3.791   3.677   6.347
 4439SOL     OW14215   2.140   4.938   2.423
 4439SOL    HW114216   2.165   4.988   2.340
 4439SOL    HW214217   2.042   4.947   2.439
 4440SOL     OW14218   6.705   0.692   6.764
 4440SOL    HW114219   6.799   0.689   6.730
 4440SOL    HW214220   6.645   0.642   6.703
 4441SOL     OW14221   5.800   2.318   3.811
 4441SOL    HW114222   5.853   2.351   3.890
 4441SOL    HW214223   5.749   2.236   3.838
 4442SOL     OW14224   2.113   6.727   2.194
 4442SOL    HW114225   2.101   6.814   2.242
 4442SOL    HW214226   2.060   6.656   2.240
 4443SOL     OW14227   2.702   1.606   5.919
 4443SOL    HW114228   2.634   1.637   5.986
 4443SOL    HW214229   2.716   1.507   5.928
 4444SOL     OW14230   5.537   0.889   2.764
 4444SOL    HW114231   5.625   0.920   2.800
 4444SOL    HW214232   5.474   0.966   2.757
 4445SOL     OW14233   1.678   1.242   6.083
 4445SOL    HW114234   1.628   1.187   6.150
 4445SOL    HW214235   1.757   1.284   6.127
 4446SOL     OW14236   5.420   5.723   3.682
 4446SOL    HW114237   5.428   5.752   3.587
 4446SOL    HW214238   5.434   5.624   3.689
 4447SOL     OW14239   4.875   3.302   4.919
 4447SOL    HW114240   4.796   3.358   4.894
 4447SOL    HW214241   4.906   3.328   5.011
 4448SOL     OW14242   2.665   2.588   6.256
 4448SOL    HW114243   2.569   2.613   6.271
 4448SOL    HW214244   2.669   2.502   6.204
 4449SOL     OW14245   0.846   1.647   5.458
 4449SOL    HW114246   0.828   1.553   5.488
 4449SOL    HW214247   0.774   1.676   5.394
 4450SOL     OW14248   4.120   3.662   3.525
 4450SOL    HW114249   4.081   3.719   3.452
 4450SOL    HW214250   4.069   3.676   3.609
 4451SOL     OW14251   0.003   4.135   1.678
 4451SOL    HW114252   0.045   4.154   1.767
 4451SOL    HW214253   6.978   4.218   1.644
 4452SOL     OW14254   6.605   4.246   6.489
 4452SOL    HW114255   6.698   4.220   6.463
 4452SOL    HW214256   6.559   4.287   6.411
 4453SOL     OW14257   5.305   1.995   1.013
 4453SOL    HW114258   5.216   2.036   1.034
 4453SOL    HW214259   5.296   1.896   1.011
 4454SOL     OW14260   5.469   3.245   1.160
 4454SOL    HW114261   5.447   3.152   1.191
 4454SOL    HW214262   5.514   3.295   1.234
 4455SOL     OW14263   4.494   1.609   1.514
 4455SOL    HW114264   4.478   1.610   1.415
 4455SOL    HW214265   4.447   1.686   1.556
 4456SOL     OW14266   1.312   5.786   2.604
 4456SOL    HW114267   1.394   5.737   2.634
 4456SOL    HW214268   1.287   5.756   2.512
 4457SOL     OW14269   5.112   1.961   6.507
 4457SOL    HW114270   5.037   1.962   6.573
 4457SOL    HW214271   5.111   1.875   6.456
 4458SOL     OW14272   3.700   1.887   7.014
 4458SOL    HW114273   3.785   1.886   6.962
 4458SOL    HW214274   3.720   1.894   0.092
 4459SOL     OW14275   5.106   6.140   5.875
 4459SOL    HW114276   5.116   6.145   5.776
 4459SOL    HW214277   5.185   6.184   5.919
 4460SOL     OW14278   1.251   1.196   6.049
 4460SOL    HW114279   1.284   1.210   5.955
 4460SOL    HW214280   1.313   1.240   6.113
 4461SOL     OW14281   2.458   0.523   2.191
 4461SOL    HW114282   2.423   0.495   2.281
 4461SOL    HW214283   2.418   0.466   2.120
 4462SOL     OW14284   6.869   5.753   1.153
 4462SOL    HW114285   6.798   5.775   1.220
 4462SOL    HW214286   6.948   5.813   1.167
 4463SOL     OW14287   1.261   3.710   5.748
 4463SOL    HW114288   1.356   3.704   5.719
 4463SOL    HW214289   1.211   3.772   5.687
 4464SOL     OW14290   5.955   3.381   6.797
 4464SOL    HW114291   6.006   3.425   6.871
 4464SOL    HW214292   5.866   3.352   6.829
 4465SOL     OW14293   1.026   6.029   1.691
 4465SOL    HW114294   1.095   6.005   1.623
 4465SOL    HW214295   0.970   6.105   1.657
 4466SOL     OW14296   0.806   2.489   3.536
 4466SOL    HW114297   0.713   2.498   3.572
 4466SOL    HW214298   0.871   2.481   3.611
 4467SOL     OW14299   1.225   0.222   3.285
 4467SOL    HW114300   1.233   0.278   3.368
 4467SOL    HW214301   1.314   0.183   3.262
 4468SOL     OW14302   1.561   2.358   0.314
 4468SOL    HW114303   1.544   2.399   0.403
 4468SOL    HW214304   1.479   2.366   0.257
 4469SOL     OW14305   4.097   0.006   0.476
 4469SOL    HW114306   4.164   6.992   0.410
 4469SOL    HW214307   4.021   0.048   0.427
 4470SOL     OW14308   4.837   5.498   1.064
 4470SOL    HW114309   4.847   5.584   1.014
 4470SOL    HW214310   4.807   5.518   1.157
 4471SOL     OW14311   6.470   3.231   0.608
 4471SOL    HW114312   6.525   3.148   0.613
 4471SOL    HW214313   6.530   3.310   0.601
 4472SOL     OW14314   1.974   4.627   1.582
 4472SOL    HW114315   2.057   4.598   1.534
 4472SOL    HW214316   1.963   4.726   1.572
 4473SOL     OW14317   0.760   0.182   5.853
 4473SOL    HW114318   0.742   0.272   5.893
 4473SOL    HW214319   0.764   0.113   5.926
 4474SOL     OW14320   6.013   0.413   3.839
 4474SOL    HW114321   6.108   0.438   3.818
 4474SOL    HW214322   5.950   0.474   3.792
 4475SOL     OW14323   1.477   4.031   6.956
 4475SOL    HW114324   1.489   4.126   6.926
 4475SOL    HW214325   1.392   3.995   6.918
 4476SOL     OW14326   5.006   6.469   2.448
 4476SOL    HW114327   4.973   6.375   2.442
 4476SOL    HW214328   5.011   6.509   2.357
 4477SOL     OW14329   1.513   1.592   6.866
 4477SOL    HW114330   1.512   1.593   6.766
 4477SOL    HW214331   1.509   1.497   6.899
 4478SOL     OW14332   1.465   5.336   1.959
 4478SOL    HW114333   1.411   5.377   1.886
 4478SOL    HW214334   1.553   5.383   1.966
 4479SOL     OW14335   0.235   0.063   5.844
 4479SOL    HW114336   0.152   0.013   5.819
 4479SOL    HW214337   0.255   0.131   5.774
 4480SOL     OW14338   1.003   4.731   3.889
 4480SOL    HW114339   1.065   4.778   3.827
 4480SOL    HW214340   0.910   4.734   3.853
 4481SOL     OW14341   1.046   0.011   3.421
 4481SOL    HW114342   0.950   0.036   3.412
 4481SOL    HW214343   1.083   7.006   3.332
 4482SOL     OW14344   0.769   4.468   3.820
 4482SOL    HW114345   0.706   4.434   3.889
 4482SOL    HW214346   0.783   4.566   3.832
 4483SOL     OW14347   5.027   2.597   1.721
 4483SOL    HW114348   5.024   2.677   1.781
 4483SOL    HW214349   4.936   2.581   1.682
 4484SOL     OW14350   3.957   2.892   6.476
 4484SOL    HW114351   3.927   2.983   6.447
 4484SOL    HW214352   3.885   2.850   6.532
 4485SOL     OW14353   4.615   0.667   6.792
 4485SOL    HW114354   4.601   0.766   6.799
 4485SOL    HW214355   4.652   0.632   6.878
 4486SOL     OW14356   6.717   2.663   3.744
 4486SOL    HW114357   6.630   2.705   3.767
 4486SOL    HW214358   6.779   2.668   3.823
 4487SOL     OW14359   3.253   3.094   5.907
 4487SOL    HW114360   3.218   3.037   5.832
 4487SOL    HW214361   3.217   3.060   5.994
 4488SOL     OW14362   6.938   1.491   5.917
 4488SOL    HW114363   6.946   1.473   5.818
 4488SOL    HW214364   0.005   1.468   5.961
 4489SOL     OW14365   6.597   0.851   3.000
 4489SOL    HW114366   6.606   0.950   3.007
 4489SOL    HW214367   6.533   0.819   3.069
 4490SOL     OW14368   6.658   2.394   3.345
 4490SOL    HW114369   6.750   2.369   3.314
 4490SOL    HW214370   6.597   2.403   3.266
 4491SOL     OW14371   1.848   3.126   3.305
 4491SOL    HW114372   1.820   3.143   3.400
 4491SOL    HW214373   1.914   3.195   3.277
 4492SOL     OW14374   4.468   3.925   6.696
 4492SOL    HW114375   4.531   3.847   6.688
 4492SOL    HW214376   4.505   4.002   6.644
 4493SOL     OW14377   5.788   5.108   3.227
 4493SOL    HW114378   5.719   5.093   3.157
 4493SOL    HW214379   5.834   5.022   3.247
 4494SOL     OW14380   6.198   3.392   4.056
 4494SOL    HW114381   6.282   3.364   4.008
 4494SOL    HW214382   6.149   3.311   4.087
 4495SOL     OW14383   4.512   6.220   2.044
 4495SOL    HW114384   4.453   6.174   1.978
 4495SOL    HW214385   4.460   6.242   2.126
 4496SOL     OW14386   5.139   4.311   5.872
 4496SOL    HW114387   5.181   4.315   5.963
 4496SOL    HW214388   5.043   4.286   5.881
 4497SOL     OW14389   6.319   5.247   1.053
 4497SOL    HW114390   6.356   5.338   1.035
 4497SOL    HW214391   6.220   5.247   1.036
 4498SOL     OW14392   0.487   3.828   6.902
 4498SOL    HW114393   0.501   3.747   6.960
 4498SOL    HW214394   0.540   3.818   6.818
 4499SOL     OW14395   6.364   3.252   6.763
 4499SOL    HW114396   6.374   3.181   6.694
 4499SOL    HW214397   6.294   3.317   6.735
 4500SOL     OW14398   3.363   3.731   4.791
 4500SOL    HW114399   3.437   3.665   4.805
 4500SOL    HW214400   3.352   3.749   4.694
 4501SOL     OW14401   0.995   4.552   4.486
 4501SOL    HW114402   1.017   4.632   4.543
 4501SOL    HW214403   1.080   4.507   4.458
 4502SOL     OW14404   6.279   3.088   0.011
 4502SOL    HW114405   6.326   3.136   6.957
 4502SOL    HW214406   6.235   3.154   0.072
 4503SOL     OW14407   1.538   1.950   2.752
 4503SOL    HW114408   1.619   1.905   2.790
 4503SOL    HW214409   1.555   2.049   2.747
 4504SOL     OW14410   4.500   2.514   4.698
 4504SOL    HW114411   4.440   2.447   4.741
 4504SOL    HW214412   4.491   2.602   4.746
 4505SOL     OW14413   1.932   5.308   5.826
 4505SOL    HW114414   1.914   5.210   5.837
 4505SOL    HW214415   2.023   5.321   5.788
 4506SOL     OW14416   4.187   0.095   5.492
 4506SOL    HW114417   4.156   0.058   5.404
 4506SOL    HW214418   4.265   0.041   5.525
 4507SOL     OW14419   6.147   4.362   1.487
 4507SOL    HW114420   6.077   4.418   1.531
 4507SOL    HW214421   6.237   4.405   1.499
 4508SOL     OW14422   1.449   4.444   0.542
 4508SOL    HW114423   1.356   4.422   0.569
 4508SOL    HW214424   1.474   4.389   0.461
 4509SOL     OW14425   1.006   1.906   3.949
 4509SOL    HW114426   1.079   1.974   3.948
 4509SOL    HW214427   1.013   1.848   3.868
 4510SOL     OW14428   3.682   6.841   5.259
 4510SOL    HW114429   3.611   6.801   5.317
 4510SOL    HW214430   3.710   6.774   5.190
 4511SOL     OW14431   5.997   3.498   6.363
 4511SOL    HW114432   6.067   3.481   6.432
 4511SOL    HW214433   6.025   3.458   6.276
 4512SOL     OW14434   2.982   4.796   0.690
 4512SOL    HW114435   3.019   4.704   0.703
 4512SOL    HW214436   2.890   4.801   0.731
 4513SOL     OW14437   5.186   0.866   1.915
 4513SOL    HW114438   5.226   0.801   1.850
 4513SOL    HW214439   5.210   0.959   1.887
 4514SOL     OW14440   3.661   1.467   5.689
 4514SOL    HW114441   3.624   1.555   5.660
 4514SOL    HW214442   3.655   1.402   5.613
 4515SOL     OW14443   7.013   5.193   0.894
 4515SOL    HW114444   0.062   5.129   0.929
 4515SOL    HW214445   6.922   5.154   0.909
 4516SOL     OW14446   1.380   6.853   4.649
 4516SOL    HW114447   1.344   6.828   4.559
 4516SOL    HW214448   1.431   6.776   4.687
 4517SOL     OW14449   3.728   6.838   5.669
 4517SOL    HW114450   3.672   6.921   5.668
 4517SOL    HW214451   3.814   6.856   5.622
 4518SOL     OW14452   1.379   1.386   4.255
 4518SOL    HW114453   1.309   1.325   4.219
 4518SOL    HW214454   1.353   1.416   4.347
 4519SOL     OW14455   6.379   2.586   4.501
 4519SOL    HW114456   6.389   2.578   4.402
 4519SOL    HW214457   6.282   2.591   4.525
 4520SOL     OW14458   0.622   4.352   3.069
 4520SOL    HW114459   0.555   4.426   3.081
 4520SOL    HW214460   0.580   4.275   3.023
 4521SOL     OW14461   5.693   2.440   5.655
 4521SOL    HW114462   5.776   2.489   5.683
 4521SOL    HW214463   5.710   2.342   5.659
 4522SOL     OW14464   5.876   0.400   3.498
 4522SOL    HW114465   5.832   0.315   3.530
 4522SOL    HW214466   5.962   0.378   3.452
 4523SOL     OW14467   3.717   3.295   6.882
 4523SOL    HW114468   3.618   3.301   6.879
 4523SOL    HW214469   3.749   3.224   6.818
 4524SOL     OW14470   6.037   0.442   5.134
 4524SOL    HW114471   5.996   0.355   5.160
 4524SOL    HW214472   5.970   0.498   5.086
 4525SOL     OW14473   6.543   1.554   5.580
 4525SOL    HW114474   6.583   1.541   5.671
 4525SOL    HW214475   6.603   1.610   5.524
 4526SOL     OW14476   3.912   1.306   0.566
 4526SOL    HW114477   3.990   1.272   0.513
 4526SOL    HW214478   3.936   1.394   0.608
 4527SOL     OW14479   3.620   1.209   3.992
 4527SOL    HW114480   3.590   1.286   4.049
 4527SOL    HW214481   3.717   1.220   3.970
 4528SOL     OW14482   5.541   0.091   6.397
 4528SOL    HW114483   5.532   0.110   6.495
 4528SOL    HW214484   5.520   0.174   6.345
 4529SOL     OW14485   3.568   0.238   3.564
 4529SOL    HW114486   3.624   0.170   3.518
 4529SOL    HW214487   3.576   0.326   3.518
 4530SOL     OW14488   0.597   2.875   5.006
 4530SOL    HW114489   0.517   2.817   5.023
 4530SOL    HW214490   0.618   2.875   4.909
 4531SOL     OW14491   7.009   3.256   3.542
 4531SOL    HW114492   6.963   3.307   3.469
 4531SOL    HW214493   6.947   3.245   3.619
 4532SOL     OW14494   6.629   1.749   0.320
 4532SOL    HW114495   6.543   1.708   0.289
 4532SOL    HW214496   6.609   1.822   0.385
 4533SOL     OW14497   2.749   5.916   2.622
 4533SOL    HW114498   2.743   5.832   2.567
 4533SOL    HW214499   2.844   5.930   2.650
 4534SOL     OW14500   6.680   3.849   5.458
 4534SOL    HW114501   6.651   3.828   5.552
 4534SOL    HW214502   6.780   3.852   5.455
 4535SOL     OW14503   4.978   2.591   2.685
 4535SOL    HW114504   5.033   2.552   2.759
 4535SOL    HW214505   4.889   2.547   2.682
 4536SOL     OW14506   6.607   1.135   4.069
 4536SOL    HW114507   6.566   1.084   4.145
 4536SOL    HW214508   6.544   1.205   4.038
 4537SOL     OW14509   3.797   3.142   5.884
 4537SOL    HW114510   3.781   3.216   5.818
 4537SOL    HW214511   3.709   3.102   5.909
 4538SOL     OW14512   3.569   1.193   2.534
 4538SOL    HW114513   3.538   1.240   2.617
 4538SOL    HW214514   3.567   1.094   2.548
 4539SOL     OW14515   1.125   1.778   2.466
 4539SOL    HW114516   1.130   1.866   2.512
 4539SOL    HW214517   1.130   1.792   2.367
 4540SOL     OW14518   3.185   3.042   4.548
 4540SOL    HW114519   3.246   3.086   4.482
 4540SOL    HW214520   3.239   2.995   4.617
 4541SOL     OW14521   6.099   1.585   1.229
 4541SOL    HW114522   6.055   1.496   1.214
 4541SOL    HW214523   6.084   1.614   1.323
 4542SOL     OW14524   4.523   0.441   3.685
 4542SOL    HW114525   4.576   0.356   3.694
 4542SOL    HW214526   4.560   0.510   3.746
 4543SOL     OW14527   5.330   1.911   1.848
 4543SOL    HW114528   5.286   1.878   1.931
 4543SOL    HW214529   5.353   2.007   1.858
 4544SOL     OW14530   3.654   4.534   6.576
 4544SOL    HW114531   3.678   4.630   6.589
 4544SOL    HW214532   3.591   4.505   6.648
 4545SOL     OW14533   4.079   2.820   5.813
 4545SOL    HW114534   4.168   2.797   5.854
 4545SOL    HW214535   4.045   2.904   5.853
 4546SOL     OW14536   0.911   6.651   6.475
 4546SOL    HW114537   0.980   6.706   6.428
 4546SOL    HW214538   0.844   6.712   6.518
 4547SOL     OW14539   4.241   2.033   1.396
 4547SOL    HW114540   4.275   1.991   1.312
 4547SOL    HW214541   4.189   2.115   1.373
 4548SOL     OW14542   1.493   3.082   3.928
 4548SOL    HW114543   1.453   3.142   3.997
 4548SOL    HW214544   1.450   2.992   3.932
 4549SOL     OW14545   4.923   1.838   2.607
 4549SOL    HW114546   5.014   1.845   2.565
 4549SOL    HW214547   4.932   1.845   2.706
 4550SOL     OW14548   1.415   6.077   4.825
 4550SOL    HW114549   1.327   6.056   4.781
 4550SOL    HW214550   1.472   5.995   4.826
 4551SOL     OW14551   0.563   2.749   5.783
 4551SOL    HW114552   0.660   2.730   5.800
 4551SOL    HW214553   0.549   2.761   5.684
 4552SOL     OW14554   0.255   3.016   3.916
 4552SOL    HW114555   0.231   3.007   4.013
 4552SOL    HW214556   0.177   2.993   3.859
 4553SOL     OW14557   5.078   4.576   0.797
 4553SOL    HW114558   5.012   4.504   0.775
 4553SOL    HW214559   5.057   4.616   0.886
 4554SOL     OW14560   5.495   7.014   3.343
 4554SOL    HW114561   5.444   6.938   3.302
 4554SOL    HW214562   5.434   0.047   3.402
 4555SOL     OW14563   5.483   1.791   0.258
 4555SOL    HW114564   5.437   1.703   0.250
 4555SOL    HW214565   5.564   1.781   0.317
 4556SOL     OW14566   5.195   1.308   4.665
 4556SOL    HW114567   5.139   1.380   4.624
 4556SOL    HW214568   5.278   1.348   4.704
 4557SOL     OW14569   5.163   0.237   5.765
 4557SOL    HW114570   5.089   0.173   5.742
 4557SOL    HW214571   5.127   0.330   5.763
 4558SOL     OW14572   6.579   3.473   5.754
 4558SOL    HW114573   6.532   3.404   5.700
 4558SOL    HW214574   6.572   3.449   5.851
 4559SOL     OW14575   0.765   6.625   1.646
 4559SOL    HW114576   0.703   6.642   1.723
 4559SOL    HW214577   0.712   6.611   1.563
 4560SOL     OW14578   4.997   2.842   2.989
 4560SOL    HW114579   5.091   2.838   2.956
 4560SOL    HW214580   4.989   2.791   3.075
 4561SOL     OW14581   3.041   0.087   6.414
 4561SOL    HW114582   3.112   0.056   6.351
 4561SOL    HW214583   2.951   0.070   6.373
 4562SOL     OW14584   3.413   5.283   5.174
 4562SOL    HW114585   3.370   5.315   5.090
 4562SOL    HW214586   3.468   5.201   5.154
 4563SOL     OW14587   5.159   2.443   6.300
 4563SOL    HW114588   5.170   2.473   6.205
 4563SOL    HW214589   5.160   2.523   6.361
 4564SOL     OW14590   1.698   5.712   6.861
 4564SOL    HW114591   1.659   5.803   6.843
 4564SOL    HW214592   1.734   5.673   6.776
 4565SOL     OW14593   2.533   0.859   4.084
 4565SOL    HW114594   2.545   0.809   3.998
 4565SOL    HW214595   2.463   0.929   4.073
 4566SOL     OW14596   0.861   1.900   0.171
 4566SOL    HW114597   0.784   1.893   0.234
 4566SOL    HW214598   0.938   1.943   0.217
 4567SOL     OW14599   6.768   0.711   0.530
 4567SOL    HW114600   6.753   0.791   0.588
 4567SOL    HW214601   6.764   0.628   0.586
 4568SOL     OW14602   3.561   5.082   5.073
 4568SOL    HW114603   3.496   5.059   5.000
 4568SOL    HW214604   3.563   5.008   5.139
 4569SOL     OW14605   0.043   1.834   4.187
 4569SOL    HW114606   0.090   1.922   4.195
 4569SOL    HW214607   0.099   1.770   4.134
 4570SOL     OW14608   6.748   5.146   4.579
 4570SOL    HW114609   6.651   5.130   4.560
 4570SOL    HW214610   6.783   5.073   4.637
 4571SOL     OW14611   3.386   3.295   4.171
 4571SOL    HW114612   3.460   3.232   4.146
 4571SOL    HW214613   3.417   3.389   4.163
 4572SOL     OW14614   2.380   6.254   1.840
 4572SOL    HW114615   2.448   6.214   1.779
 4572SOL    HW214616   2.425   6.298   1.917
 4573SOL     OW14617   5.511   6.590   0.619
 4573SOL    HW114618   5.433   6.592   0.681
 4573SOL    HW214619   5.479   6.580   0.525
 4574SOL     OW14620   0.666   4.343   1.823
 4574SOL    HW114621   0.644   4.273   1.890
 4574SOL    HW214622   0.591   4.409   1.816
 4575SOL     OW14623   6.576   6.838   1.913
 4575SOL    HW114624   6.552   6.929   1.948
 4575SOL    HW214625   6.633   6.849   1.831
 4576SOL     OW14626   3.244   5.895   4.710
 4576SOL    HW114627   3.261   5.993   4.694
 4576SOL    HW214628   3.298   5.841   4.645
 4577SOL     OW14629   1.137   2.641   4.477
 4577SOL    HW114630   1.073   2.708   4.441
 4577SOL    HW214631   1.112   2.550   4.444
 4578SOL     OW14632   0.551   4.131   3.784
 4578SOL    HW114633   0.516   4.160   3.695
 4578SOL    HW214634   0.513   4.041   3.806
 4579SOL     OW14635   5.263   2.372   4.210
 4579SOL    HW114636   5.309   2.430   4.143
 4579SOL    HW214637   5.171   2.351   4.178
 4580SOL     OW14638   0.080   5.838   0.450
 4580SOL    HW114639   0.060   5.850   0.548
 4580SOL    HW214640   0.161   5.891   0.425
 4581SOL     OW14641   3.614   5.615   3.482
 4581SOL    HW114642   3.575   5.679   3.416
 4581SOL    HW214643   3.608   5.654   3.573
 4582SOL     OW14644   4.451   6.859   3.086
 4582SOL    HW114645   4.405   6.948   3.079
 4582SOL    HW214646   4.492   6.836   2.998
 4583SOL     OW14647   4.373   1.604   5.466
 4583SOL    HW114648   4.383   1.678   5.532
 4583SOL    HW214649   4.279   1.568   5.470
 4584SOL     OW14650   0.377   4.610   5.698
 4584SOL    HW114651   0.400   4.705   5.677
 4584SOL    HW214652   0.366   4.559   5.613
 4585SOL     OW14653   3.860   6.568   2.657
 4585SOL    HW114654   3.825   6.591   2.748
 4585SOL    HW214655   3.822   6.480   2.628
 4586SOL     OW14656   3.087   6.228   2.292
 4586SOL    HW114657   3.007   6.178   2.326
 4586SOL    HW214658   3.119   6.187   2.207
 4587SOL     OW14659   2.358   4.413   1.142
 4587SOL    HW114660   2.304   4.335   1.173
 4587SOL    HW214661   2.307   4.463   1.072
 4588SOL     OW14662   4.466   3.815   5.586
 4588SOL    HW114663   4.449   3.848   5.493
 4588SOL    HW214664   4.392   3.844   5.646
 4589SOL     OW14665   0.631   1.381   4.072
 4589SOL    HW114666   0.672   1.335   4.151
 4589SOL    HW214667   0.643   1.480   4.082
 4590SOL     OW14668   4.478   5.697   2.585
 4590SOL    HW114669   4.509   5.718   2.492
 4590SOL    HW214670   4.529   5.618   2.620
 4591SOL     OW14671   6.131   6.193   4.942
 4591SOL    HW114672   6.178   6.178   5.029
 4591SOL    HW214673   6.036   6.217   4.959
 4592SOL     OW14674   3.161   1.777   5.846
 4592SOL    HW114675   3.140   1.853   5.785
 4592SOL    HW214676   3.079   1.751   5.896
 4593SOL     OW14677   3.937   6.735   1.411
 4593SOL    HW114678   3.942   6.661   1.343
 4593SOL    HW214679   3.852   6.727   1.463
 4594SOL     OW14680   3.239   1.574   2.742
 4594SOL    HW114681   3.224   1.595   2.645
 4594SOL    HW214682   3.239   1.475   2.756
 4595SOL     OW14683   4.288   2.579   5.677
 4595SOL    HW114684   4.344   2.497   5.686
 4595SOL    HW214685   4.198   2.562   5.717
 4596SOL     OW14686   6.450   0.028   2.054
 4596SOL    HW114687   6.386   6.970   2.055
 4596SOL    HW214688   6.430   0.087   1.976
 4597SOL     OW14689   6.878   4.709   6.785
 4597SOL    HW114690   6.807   4.759   6.835
 4597SOL    HW214691   6.924   4.646   6.848
 4598SOL     OW14692   3.298   4.596   0.592
 4598SOL    HW114693   3.214   4.596   0.646
 4598SOL    HW214694   3.372   4.637   0.645
 4599SOL     OW14695   2.052   5.395   0.264
 4599SOL    HW114696   1.956   5.375   0.278
 4599SOL    HW214697   2.062   5.462   0.190
 4600SOL     OW14698   3.924   5.188   1.407
 4600SOL    HW114699   3.933   5.088   1.403
 4600SOL    HW214700   3.839   5.215   1.363
 4601SOL     OW14701   1.982   5.865   4.540
 4601SOL    HW114702   2.054   5.931   4.518
 4601SOL    HW214703   2.024   5.778   4.568
 4602SOL     OW14704   1.827   1.084   0.673
 4602SOL    HW114705   1.895   1.139   0.720
 4602SOL    HW214706   1.849   0.987   0.683
 4603SOL     OW14707   3.293   0.807   2.175
 4603SOL    HW114708   3.229   0.753   2.229
 4603SOL    HW214709   3.255   0.899   2.161
 4604SOL     OW14710   2.678   0.532   2.356
 4604SOL    HW114711   2.627   0.517   2.271
 4604SOL    HW214712   2.626   0.496   2.433
 4605SOL     OW14713   5.177   6.725   5.803
 4605SOL    HW114714   5.136   6.658   5.741
 4605SOL    HW214715   5.105   6.784   5.840
 4606SOL     OW14716   6.863   6.361   5.849
 4606SOL    HW114717   6.961   6.350   5.868
 4606SOL    HW214718   6.813   6.367   5.936
 4607SOL     OW14719   2.294   2.077   1.419
 4607SOL    HW114720   2.272   2.168   1.383
 4607SOL    HW214721   2.323   2.085   1.515
 4608SOL     OW14722   1.860   3.629   5.304
 4608SOL    HW114723   1.809   3.545   5.284
 4608SOL    HW214724   1.901   3.665   5.221
 4609SOL     OW14725   4.010   6.690   6.676
 4609SOL    HW114726   4.089   6.744   6.706
 4609SOL    HW214727   3.946   6.679   6.752
 4610SOL     OW14728   0.769   3.271   6.717
 4610SOL    HW114729   0.766   3.182   6.763
 4610SOL    HW214730   0.853   3.319   6.743
 4611SOL     OW14731   0.829   3.481   0.153
 4611SOL    HW114732   0.841   3.579   0.135
 4611SOL    HW214733   0.916   3.433   0.138
 4612SOL     OW14734   2.404   0.344   6.252
 4612SOL    HW114735   2.497   0.372   6.226
 4612SOL    HW214736   2.353   0.318   6.170
 4613SOL     OW14737   2.677   5.451   2.026
 4613SOL    HW114738   2.726   5.408   1.950
 4613SOL    HW214739   2.730   5.440   2.110
 4614SOL     OW14740   2.302   5.335   0.626
 4614SOL    HW114741   2.304   5.413   0.564
 4614SOL    HW214742   2.208   5.307   0.641
 4615SOL     OW14743   0.071   2.929   0.255
 4615SOL    HW114744   7.005   2.877   0.255
 4615SOL    HW214745   0.050   3.027   0.262
 4616SOL     OW14746   5.822   0.935   0.051
 4616SOL    HW114747   5.919   0.930   0.075
 4616SOL    HW214748   5.773   0.989   0.120
 4617SOL     OW14749   0.332   3.397   1.955
 4617SOL    HW114750   0.404   3.455   1.992
 4617SOL    HW214751   0.320   3.317   2.014
 4618SOL     OW14752   1.029   1.943   6.146
 4618SOL    HW114753   1.048   2.034   6.183
 4618SOL    HW214754   0.998   1.883   6.220
 4619SOL     OW14755   3.239   0.592   4.086
 4619SOL    HW114756   3.318   0.560   4.137
 4619SOL    HW214757   3.264   0.673   4.033
 4620SOL     OW14758   2.432   4.511   6.295
 4620SOL    HW114759   2.446   4.437   6.230
 4620SOL    HW214760   2.381   4.478   6.374
 4621SOL     OW14761   0.458   6.692   6.288
 4621SOL    HW114762   0.492   6.782   6.314
 4621SOL    HW214763   0.407   6.652   6.364
 4622SOL     OW14764   2.443   3.632   1.026
 4622SOL    HW114765   2.360   3.681   1.053
 4622SOL    HW214766   2.420   3.536   1.010
 4623SOL     OW14767   6.037   4.275   2.572
 4623SOL    HW114768   6.010   4.372   2.573
 4623SOL    HW214769   6.119   4.265   2.515
 4624SOL     OW14770   4.718   6.799   5.490
 4624SOL    HW114771   4.709   6.883   5.437
 4624SOL    HW214772   4.740   6.723   5.429
 4625SOL     OW14773   1.275   3.198   6.395
 4625SOL    HW114774   1.271   3.146   6.480
 4625SOL    HW214775   1.301   3.292   6.414
 4626SOL     OW14776   5.828   5.354   2.235
 4626SOL    HW114777   5.833   5.296   2.153
 4626SOL    HW214778   5.910   5.410   2.241
 4627SOL     OW14779   2.279   0.576   6.047
 4627SOL    HW114780   2.295   0.611   6.140
 4627SOL    HW214781   2.271   0.477   6.051
 4628SOL     OW14782   6.839   3.949   1.697
 4628SOL    HW114783   6.913   4.016   1.695
 4628SOL    HW214784   6.875   3.860   1.723
 4629SOL     OW14785   3.516   5.466   4.927
 4629SOL    HW114786   3.419   5.472   4.949
 4629SOL    HW214787   3.569   5.517   4.995
 4630SOL     OW14788   2.442   0.469   2.886
 4630SOL    HW114789   2.403   0.551   2.843
 4630SOL    HW214790   2.372   0.397   2.888
 4631SOL     OW14791   2.442   0.871   2.582
 4631SOL    HW114792   2.389   0.953   2.601
 4631SOL    HW214793   2.420   0.837   2.490
 4632SOL     OW14794   5.413   5.403   4.047
 4632SOL    HW114795   5.436   5.311   4.017
 4632SOL    HW214796   5.379   5.457   3.970
 4633SOL     OW14797   5.947   2.567   5.659
 4633SOL    HW114798   5.945   2.649   5.717
 4633SOL    HW214799   6.037   2.558   5.616
 4634SOL     OW14800   3.598   4.762   0.987
 4634SOL    HW114801   3.549   4.774   1.073
 4634SOL    HW214802   3.533   4.767   0.911
 4635SOL     OW14803   5.036   4.461   1.211
 4635SOL    HW114804   4.945   4.478   1.173
 4635SOL    HW214805   5.078   4.384   1.163
 4636SOL     OW14806   1.632   5.000   0.851
 4636SOL    HW114807   1.556   4.942   0.881
 4636SOL    HW214808   1.597   5.075   0.795
 4637SOL     OW14809   1.689   1.106   5.198
 4637SOL    HW114810   1.717   1.202   5.199
 4637SOL    HW214811   1.714   1.064   5.285
 4638SOL     OW14812   5.357   3.620   6.464
 4638SOL    HW114813   5.426   3.693   6.462
 4638SOL    HW214814   5.268   3.659   6.485
 4639SOL     OW14815   6.707   3.276   5.492
 4639SOL    HW114816   6.644   3.214   5.537
 4639SOL    HW214817   6.711   3.254   5.395
 4640SOL     OW14818   5.901   4.013   2.610
 4640SOL    HW114819   5.951   4.096   2.585
 4640SOL    HW214820   5.829   4.035   2.676
 4641SOL     OW14821   2.825   4.647   5.397
 4641SOL    HW114822   2.812   4.608   5.306
 4641SOL    HW214823   2.901   4.600   5.443
 4642SOL     OW14824   5.550   5.620   4.418
 4642SOL    HW114825   5.649   5.609   4.429
 4642SOL    HW214826   5.505   5.608   4.507
 4643SOL     OW14827   4.004   2.932   1.222
 4643SOL    HW114828   4.097   2.947   1.189
 4643SOL    HW214829   3.991   2.835   1.241
 4644SOL     OW14830   2.463   4.874   4.773
 4644SOL    HW114831   2.451   4.970   4.750
 4644SOL    HW214832   2.538   4.865   4.839
 4645SOL     OW14833   1.989   6.071   4.737
 4645SOL    HW114834   1.946   6.013   4.668
 4645SOL    HW214835   1.942   6.059   4.825
 4646SOL     OW14836   3.611   0.379   1.915
 4646SOL    HW114837   3.675   0.310   1.948
 4646SOL    HW214838   3.626   0.465   1.966
 4647SOL     OW14839   6.899   0.454   4.406
 4647SOL    HW114840   6.860   0.371   4.445
 4647SOL    HW214841   6.905   0.524   4.477
 4648SOL     OW14842   2.110   4.699   2.793
 4648SOL    HW114843   2.160   4.703   2.707
 4648SOL    HW214844   2.093   4.604   2.818
 4649SOL     OW14845   5.405   6.578   6.527
 4649SOL    HW114846   5.439   6.607   6.617
 4649SOL    HW214847   5.466   6.613   6.456
 4650SOL     OW14848   6.883   4.944   1.869
 4650SOL    HW114849   6.964   5.003   1.874
 4650SOL    HW214850   6.899   4.871   1.803
 4651SOL     OW14851   0.242   1.794   1.329
 4651SOL    HW114852   0.208   1.765   1.419
 4651SOL    HW214853   0.301   1.874   1.340
 4652SOL     OW14854   0.175   5.890   5.676
 4652SOL    HW114855   0.234   5.948   5.621
 4652SOL    HW214856   0.108   5.845   5.617
 4653SOL     OW14857   0.814   5.548   6.427
 4653SOL    HW114858   0.883   5.598   6.375
 4653SOL    HW214859   0.723   5.581   6.403
 4654SOL     OW14860   0.919   1.557   6.665
 4654SOL    HW114861   1.017   1.574   6.655
 4654SOL    HW214862   0.882   1.520   6.579
 4655SOL     OW14863   0.446   5.513   3.453
 4655SOL    HW114864   0.493   5.473   3.375
 4655SOL    HW214865   0.476   5.608   3.466
 4656SOL     OW14866   2.224   0.273   2.883
 4656SOL    HW114867   2.223   0.219   2.967
 4656SOL    HW214868   2.169   0.228   2.813
 4657SOL     OW14869   5.981   6.865   6.800
 4657SOL    HW114870   5.933   6.902   6.721
 4657SOL    HW214871   6.060   6.923   6.821
 4658SOL     OW14872   5.078   0.895   3.613
 4658SOL    HW114873   5.164   0.844   3.618
 4658SOL    HW214874   5.086   0.980   3.665
 4659SOL     OW14875   2.371   2.299   4.264
 4659SOL    HW114876   2.338   2.294   4.170
 4659SOL    HW214877   2.295   2.325   4.324
 4660SOL     OW14878   6.558   1.228   5.675
 4660SOL    HW114879   6.461   1.211   5.692
 4660SOL    HW214880   6.589   1.304   5.732
 4661SOL     OW14881   4.023   3.262   3.534
 4661SOL    HW114882   3.938   3.225   3.495
 4661SOL    HW214883   4.072   3.314   3.464
 4662SOL     OW14884   5.459   0.371   4.293
 4662SOL    HW114885   5.361   0.386   4.300
 4662SOL    HW214886   5.478   0.273   4.301
 4663SOL     OW14887   0.250   1.627   2.172
 4663SOL    HW114888   0.285   1.719   2.191
 4663SOL    HW214889   0.150   1.629   2.172
 4664SOL     OW14890   3.006   3.195   0.468
 4664SOL    HW114891   2.928   3.225   0.524
 4664SOL    HW214892   3.021   3.261   0.395
 4665SOL     OW14893   5.441   0.772   7.001
 4665SOL    HW114894   5.518   0.750   0.041
 4665SOL    HW214895   5.360   0.790   0.037
 4666SOL     OW14896   2.631   1.543   0.103
 4666SOL    HW114897   2.575   1.533   0.021
 4666SOL    HW214898   2.689   1.462   0.114
 4667SOL     OW14899   0.658   5.464   5.554
 4667SOL    HW114900   0.666   5.558   5.519
 4667SOL    HW214901   0.614   5.465   5.643
 4668SOL     OW14902   5.532   1.791   4.866
 4668SOL    HW114903   5.433   1.791   4.848
 4668SOL    HW214904   5.581   1.817   4.783
 4669SOL     OW14905   2.744   0.571   1.057
 4669SOL    HW114906   2.746   0.491   0.997
 4669SOL    HW214907   2.773   0.652   1.005
 4670SOL     OW14908   1.722   1.057   4.360
 4670SOL    HW114909   1.751   0.963   4.342
 4670SOL    HW214910   1.795   1.105   4.409
 4671SOL     OW14911   5.539   3.728   0.782
 4671SOL    HW114912   5.462   3.700   0.839
 4671SOL    HW214913   5.574   3.649   0.732
 4672SOL     OW14914   2.324   3.403   5.753
 4672SOL    HW114915   2.247   3.343   5.776
 4672SOL    HW214916   2.336   3.406   5.654
 4673SOL     OW14917   3.582   0.486   2.418
 4673SOL    HW114918   3.515   0.472   2.491
 4673SOL    HW214919   3.566   0.575   2.375
 4674SOL     OW14920   4.205   6.086   6.203
 4674SOL    HW114921   4.302   6.080   6.226
 4674SOL    HW214922   4.159   6.146   6.268
 4675SOL     OW14923   1.465   4.073   6.028
 4675SOL    HW114924   1.369   4.092   6.051
 4675SOL    HW214925   1.512   4.159   6.008
 4676SOL     OW14926   1.034   5.696   3.867
 4676SOL    HW114927   1.005   5.699   3.771
 4676SOL    HW214928   1.000   5.612   3.910
 4677SOL     OW14929   0.623   3.110   0.767
 4677SOL    HW114930   0.597   3.114   0.864
 4677SOL    HW214931   0.702   3.169   0.751
 4678SOL     OW14932   2.308   4.176   2.086
 4678SOL    HW114933   2.357   4.261   2.068
 4678SOL    HW214934   2.319   4.114   2.008
 4679SOL     OW14935   4.464   0.157   1.463
 4679SOL    HW114936   4.561   0.148   1.440
 4679SOL    HW214937   4.450   0.240   1.516
 4680SOL     OW14938   1.697   0.551   1.120
 4680SOL    HW114939   1.647   0.604   1.189
 4680SOL    HW214940   1.779   0.512   1.161
 4681SOL     OW14941   4.968   5.725   2.246
 4681SOL    HW114942   4.886   5.672   2.225
 4681SOL    HW214943   5.035   5.712   2.173
 4682SOL     OW14944   3.528   4.161   0.015
 4682SOL    HW114945   3.613   4.203   7.002
 4682SOL    HW214946   3.510   4.078   6.982
 4683SOL     OW14947   6.240   4.478   3.952
 4683SOL    HW114948   6.259   4.383   3.977
 4683SOL    HW214949   6.143   4.497   3.966
 4684SOL     OW14950   5.880   6.455   0.238
 4684SOL    HW114951   5.930   6.523   0.186
 4684SOL    HW214952   5.852   6.493   0.327
 4685SOL     OW14953   3.364   3.881   5.016
 4685SOL    HW114954   3.366   3.814   4.942
 4685SOL    HW214955   3.285   3.942   5.004
 4686SOL     OW14956   3.529   5.978   0.649
 4686SOL    HW114957   3.463   5.933   0.709
 4686SOL    HW214958   3.532   5.929   0.562
 4687SOL     OW14959   3.112   0.730   2.907
 4687SOL    HW114960   3.122   0.829   2.899
 4687SOL    HW214961   3.143   0.700   2.997
 4688SOL     OW14962   5.844   3.167   5.677
 4688SOL    HW114963   5.939   3.185   5.703
 4688SOL    HW214964   5.841   3.133   5.583
 4689SOL     OW14965   6.465   0.692   2.607
 4689SOL    HW114966   6.435   0.741   2.688
 4689SOL    HW214967   6.393   0.696   2.537
 4690SOL     OW14968   2.133   2.036   0.903
 4690SOL    HW114969   2.099   1.973   0.833
 4690SOL    HW214970   2.196   2.101   0.860
 4691SOL     OW14971   6.751   4.246   1.880
 4691SOL    HW114972   6.804   4.162   1.884
 4691SOL    HW214973   6.675   4.242   1.945
 4692SOL     OW14974   5.099   3.383   1.939
 4692SOL    HW114975   5.077   3.288   1.960
 4692SOL    HW214976   5.139   3.389   1.848
 4693SOL     OW14977   1.371   0.672   3.436
 4693SOL    HW114978   1.378   0.698   3.340
 4693SOL    HW214979   1.296   0.723   3.479
 4694SOL     OW14980   1.726   0.480   6.933
 4694SOL    HW114981   1.668   0.398   6.935
 4694SOL    HW214982   1.741   0.507   6.838
 4695SOL     OW14983   1.198   6.441   1.480
 4695SOL    HW114984   1.223   6.438   1.577
 4695SOL    HW214985   1.121   6.380   1.464
 4696SOL     OW14986   2.370   5.425   5.523
 4696SOL    HW114987   2.365   5.525   5.527
 4696SOL    HW214988   2.436   5.399   5.452
 4697SOL     OW14989   4.087   5.360   1.510
 4697SOL    HW114990   4.023   5.293   1.474
 4697SOL    HW214991   4.100   5.345   1.608
 4698SOL     OW14992   5.035   1.276   4.370
 4698SOL    HW114993   5.112   1.253   4.429
 4698SOL    HW214994   4.997   1.365   4.398
 4699SOL     OW14995   1.442   6.943   2.381
 4699SOL    HW114996   1.364   6.936   2.319
 4699SOL    HW214997   1.437   0.009   2.433
 4700SOL     OW14998   6.344   2.035   1.992
 4700SOL    HW114999   6.316   2.129   1.969
 4700SOL    HW215000   6.385   1.992   1.912
 4701SOL     OW15001   3.027   2.197   1.786
 4701SOL    HW115002   3.114   2.176   1.830
 4701SOL    HW215003   2.965   2.238   1.853
 4702SOL     OW15004   5.381   4.887   6.573
 4702SOL    HW115005   5.473   4.894   6.612
 4702SOL    HW215006   5.349   4.978   6.545
 4703SOL     OW15007   0.872   5.482   3.470
 4703SOL    HW115008   0.819   5.491   3.386
 4703SOL    HW215009   0.883   5.572   3.512
 4704SOL     OW15010   1.156   5.382   5.072
 4704SOL    HW115011   1.224   5.370   4.999
 4704SOL    HW215012   1.073   5.331   5.048
 4705SOL     OW15013   3.560   1.838   1.745
 4705SOL    HW115014   3.516   1.863   1.659
 4705SOL    HW215015   3.491   1.810   1.812
 4706SOL     OW15016   2.833   1.188   0.647
 4706SOL    HW115017   2.828   1.268   0.588
 4706SOL    HW215018   2.855   1.107   0.593
 4707SOL     OW15019   1.730   6.249   1.551
 4707SOL    HW115020   1.694   6.173   1.605
 4707SOL    HW215021   1.669   6.327   1.559
 4708SOL     OW15022   1.371   2.706   4.319
 4708SOL    HW115023   1.297   2.680   4.381
 4708SOL    HW215024   1.455   2.722   4.371
 4709SOL     OW15025   4.880   4.057   5.442
 4709SOL    HW115026   4.942   4.026   5.370
 4709SOL    HW215027   4.875   4.157   5.440
 4710SOL     OW15028   6.324   5.874   5.352
 4710SOL    HW115029   6.392   5.801   5.357
 4710SOL    HW215030   6.366   5.961   5.377
 4711SOL     OW15031   5.323   3.656   2.467
 4711SOL    HW115032   5.349   3.561   2.449
 4711SOL    HW215033   5.283   3.696   2.384
 4712SOL     OW15034   4.775   4.401   5.594
 4712SOL    HW115035   4.707   4.472   5.613
 4712SOL    HW215036   4.739   4.312   5.623
 4713SOL     OW15037   6.113   4.115   1.148
 4713SOL    HW115038   6.173   4.039   1.126
 4713SOL    HW215039   6.047   4.129   1.074
 4714SOL     OW15040   4.248   1.325   6.752
 4714SOL    HW115041   4.341   1.336   6.786
 4714SOL    HW215042   4.184   1.333   6.828
 4715SOL     OW15043   6.228   1.632   2.154
 4715SOL    HW115044   6.203   1.557   2.093
 4715SOL    HW215045   6.297   1.601   2.219
 4716SOL     OW15046   3.732   5.016   5.976
 4716SOL    HW115047   3.792   5.034   5.899
 4716SOL    HW215048   3.654   5.079   5.973
 4717SOL     OW15049   2.850   5.097   5.111
 4717SOL    HW115050   2.889   5.157   5.180
 4717SOL    HW215051   2.918   5.030   5.081
 4718SOL     OW15052   4.713   4.790   0.737
 4718SOL    HW115053   4.650   4.831   0.802
 4718SOL    HW215054   4.805   4.825   0.753
 4719SOL     OW15055   0.336   4.501   3.794
 4719SOL    HW115056   0.371   4.506   3.887
 4719SOL    HW215057   0.412   4.489   3.730
 4720SOL     OW15058   1.980   3.062   6.800
 4720SOL    HW115059   2.060   3.056   6.740
 4720SOL    HW215060   2.003   3.025   6.890
 4721SOL     OW15061   6.955   2.933   2.874
 4721SOL    HW115062   0.010   2.994   2.847
 4721SOL    HW215063   6.870   2.963   2.832
 4722SOL     OW15064   1.083   5.677   6.827
 4722SOL    HW115065   1.048   5.674   6.734
 4722SOL    HW215066   1.175   5.716   6.827
 4723SOL     OW15067   3.781   4.058   0.383
 4723SOL    HW115068   3.711   4.124   0.356
 4723SOL    HW215069   3.784   3.983   0.317
 4724SOL     OW15070   0.665   6.662   5.097
 4724SOL    HW115071   0.613   6.585   5.059
 4724SOL    HW215072   0.704   6.715   5.022
 4725SOL     OW15073   5.222   6.065   1.040
 4725SOL    HW115074   5.206   5.974   1.078
 4725SOL    HW215075   5.279   6.057   0.958
 4726SOL     OW15076   1.138   3.202   5.621
 4726SOL    HW115077   1.222   3.150   5.607
 4726SOL    HW215078   1.143   3.253   5.706
 4727SOL     OW15079   0.063   4.754   1.024
 4727SOL    HW115080   7.011   4.753   1.094
 4727SOL    HW215081   0.096   4.847   1.012
 4728SOL     OW15082   6.508   1.503   4.631
 4728SOL    HW115083   6.501   1.416   4.680
 4728SOL    HW215084   6.590   1.502   4.574
 4729SOL     OW15085   6.096   1.776   1.956
 4729SOL    HW115086   6.124   1.714   2.029
 4729SOL    HW215087   6.037   1.847   1.993
 4730SOL     OW15088   3.182   6.703   4.477
 4730SOL    HW115089   3.171   6.645   4.557
 4730SOL    HW215090   3.113   6.680   4.409
 4731SOL     OW15091   3.334   6.364   0.392
 4731SOL    HW115092   3.294   6.304   0.461
 4731SOL    HW215093   3.342   6.314   0.306
 4732SOL     OW15094   0.456   4.986   4.391
 4732SOL    HW115095   0.390   5.006   4.318
 4732SOL    HW215096   0.424   4.909   4.445
 4733SOL     OW15097   2.119   3.738   2.869
 4733SOL    HW115098   2.143   3.675   2.944
 4733SOL    HW215099   2.058   3.808   2.904
 4734SOL     OW15100   4.792   3.721   6.619
 4734SOL    HW115101   4.797   3.782   6.540
 4734SOL    HW215102   4.868   3.742   6.682
 4735SOL     OW15103   0.264   0.698   4.787
 4735SOL    HW115104   0.211   0.718   4.704
 4735SOL    HW215105   0.285   0.784   4.834
 4736SOL     OW15106   6.259   2.005   3.194
 4736SOL    HW115107   6.324   2.004   3.118
 4736SOL    HW215108   6.292   1.946   3.267
 4737SOL     OW15109   2.370   5.009   6.983
 4737SOL    HW115110   2.373   4.937   6.914
 4737SOL    HW215111   2.275   5.034   7.002
 4738SOL     OW15112   1.013   6.529   3.331
 4738SOL    HW115113   1.070   6.560   3.407
 4738SOL    HW215114   0.933   6.589   3.323
 4739SOL     OW15115   6.568   2.856   3.025
 4739SOL    HW115116   6.611   2.779   3.074
 4739SOL    HW215117   6.513   2.821   2.950
 4740SOL     OW15118   0.680   0.840   1.415
 4740SOL    HW115119   0.611   0.912   1.413
 4740SOL    HW215120   0.719   0.833   1.507
 4741SOL     OW15121   4.609   4.379   1.667
 4741SOL    HW115122   4.564   4.356   1.754
 4741SOL    HW215123   4.553   4.446   1.618
 4742SOL     OW15124   2.636   5.714   2.152
 4742SOL    HW115125   2.630   5.778   2.076
 4742SOL    HW215126   2.673   5.627   2.119
 4743SOL     OW15127   2.402   2.691   0.216
 4743SOL    HW115128   2.314   2.688   0.169
 4743SOL    HW215129   2.409   2.775   0.270
 4744SOL     OW15130   1.826   2.669   4.927
 4744SOL    HW115131   1.807   2.649   5.024
 4744SOL    HW215132   1.818   2.585   4.874
 4745SOL     OW15133   3.153   5.933   5.059
 4745SOL    HW115134   3.121   5.929   5.154
 4745SOL    HW215135   3.074   5.930   4.998
 4746SOL     OW15136   6.080   0.726   0.645
 4746SOL    HW115137   6.080   0.746   0.547
 4746SOL    HW215138   6.063   0.810   0.696
 4747SOL     OW15139   6.585   2.453   1.597
 4747SOL    HW115140   6.597   2.437   1.696
 4747SOL    HW215141   6.499   2.500   1.582
 4748SOL     OW15142   1.840   0.791   1.655
 4748SOL    HW115143   1.875   0.809   1.563
 4748SOL    HW215144   1.800   0.875   1.692
 4749SOL     OW15145   2.021   0.196   6.347
 4749SOL    HW115146   2.104   0.141   6.335
 4749SOL    HW215147   1.957   0.175   6.273
 4750SOL     OW15148   0.623   1.362   4.639
 4750SOL    HW115149   0.705   1.387   4.587
 4750SOL    HW215150   0.645   1.286   4.700
 4751SOL     OW15151   1.152   3.316   5.864
 4751SOL    HW115152   1.223   3.386   5.867
 4751SOL    HW215153   1.136   3.280   5.956
 4752SOL     OW15154   2.600   6.453   1.780
 4752SOL    HW115155   2.514   6.483   1.821
 4752SOL    HW215156   2.672   6.457   1.850
 4753SOL     OW15157   0.195   0.218   5.046
 4753SOL    HW115158   0.294   0.201   5.046
 4753SOL    HW215159   0.148   0.140   5.005
 4754SOL     OW15160   0.761   0.409   5.643
 4754SOL    HW115161   0.811   0.489   5.608
 4754SOL    HW215162   0.826   0.338   5.671
 4755SOL     OW15163   2.364   1.737   0.411
 4755SOL    HW115164   2.407   1.726   0.321
 4755SOL    HW215165   2.323   1.829   0.418
 4756SOL     OW15166   5.097   2.910   1.226
 4756SOL    HW115167   5.124   2.832   1.282
 4756SOL    HW215168   5.130   2.994   1.268
 4757SOL     OW15169   1.960   1.886   1.832
 4757SOL    HW115170   1.917   1.887   1.742
 4757SOL    HW215171   1.899   1.930   1.898
 4758SOL     OW15172   4.767   4.454   5.164
 4758SOL    HW115173   4.716   4.536   5.137
 4758SOL    HW215174   4.803   4.409   5.082
 4759SOL     OW15175   5.869   4.739   5.473
 4759SOL    HW115176   5.898   4.824   5.516
 4759SOL    HW215177   5.904   4.661   5.524
 4760SOL     OW15178   1.702   2.226   0.693
 4760SOL    HW115179   1.694   2.215   0.792
 4760SOL    HW215180   1.758   2.153   0.655
 4761SOL     OW15181   1.608   5.708   5.437
 4761SOL    HW115182   1.653   5.619   5.430
 4761SOL    HW215183   1.666   5.777   5.393
 4762SOL     OW15184   3.439   0.172   2.795
 4762SOL    HW115185   3.348   0.187   2.832
 4762SOL    HW215186   3.505   0.232   2.841
 4763SOL     OW15187   6.070   5.845   4.918
 4763SOL    HW115188   6.129   5.863   4.840
 4763SOL    HW215189   6.125   5.818   4.997
 4764SOL     OW15190   4.149   3.471   5.099
 4764SOL    HW115191   4.103   3.549   5.057
 4764SOL    HW215192   4.130   3.388   5.046
 4765SOL     OW15193   6.805   5.136   5.127
 4765SOL    HW115194   6.793   5.122   5.226
 4765SOL    HW215195   6.881   5.081   5.094
 4766SOL     OW15196   2.830   0.217   3.635
 4766SOL    HW115197   2.917   0.170   3.622
 4766SOL    HW215198   2.780   0.221   3.549
 4767SOL     OW15199   4.448   5.630   6.067
 4767SOL    HW115200   4.432   5.676   5.980
 4767SOL    HW215201   4.362   5.593   6.102
 4768SOL     OW15202   0.218   1.139   4.792
 4768SOL    HW115203   0.255   1.092   4.872
 4768SOL    HW215204   0.283   1.132   4.716
 4769SOL     OW15205   3.234   0.003   1.937
 4769SOL    HW115206   3.302   0.068   1.972
 4769SOL    HW215207   3.211   0.028   1.842
 4770SOL     OW15208   2.548   0.366   3.871
 4770SOL    HW115209   2.621   0.425   3.906
 4770SOL    HW215210   2.582   0.272   3.864
 4771SOL     OW15211   3.789   4.135   5.432
 4771SOL    HW115212   3.800   4.151   5.334
 4771SOL    HW215213   3.856   4.188   5.483
 4772SOL     OW15214   2.191   2.318   1.386
 4772SOL    HW115215   2.257   2.380   1.344
 4772SOL    HW215216   2.099   2.356   1.380
 4773SOL     OW15217   6.221   5.816   3.609
 4773SOL    HW115218   6.278   5.895   3.590
 4773SOL    HW215219   6.136   5.846   3.654
 4774SOL     OW15220   1.033   4.434   0.539
 4774SOL    HW115221   1.095   4.417   0.615
 4774SOL    HW215222   0.985   4.349   0.515
 4775SOL     OW15223   2.516   1.356   2.371
 4775SOL    HW115224   2.514   1.411   2.454
 4775SOL    HW215225   2.471   1.406   2.297
 4776SOL     OW15226   3.932   5.072   1.684
 4776SOL    HW115227   4.026   5.065   1.649
 4776SOL    HW215228   3.874   5.116   1.615
 4777SOL     OW15229   2.631   4.673   1.433
 4777SOL    HW115230   2.632   4.613   1.513
 4777SOL    HW215231   2.540   4.670   1.391
 4778SOL     OW15232   5.158   3.751   1.754
 4778SOL    HW115233   5.066   3.724   1.728
 4778SOL    HW215234   5.223   3.717   1.686
 4779SOL     OW15235   4.926   0.881   3.086
 4779SOL    HW115236   4.871   0.798   3.094
 4779SOL    HW215237   4.961   0.907   3.177
 4780SOL     OW15238   1.827   6.640   5.381
 4780SOL    HW115239   1.795   6.575   5.312
 4780SOL    HW215240   1.780   6.624   5.467
 4781SOL     OW15241   1.940   5.497   2.163
 4781SOL    HW115242   1.887   5.561   2.106
 4781SOL    HW215243   1.945   5.533   2.256
 4782SOL     OW15244   5.780   6.147   6.513
 4782SOL    HW115245   5.708   6.166   6.579
 4782SOL    HW215246   5.851   6.218   6.520
 4783SOL     OW15247   6.508   4.248   2.033
 4783SOL    HW115248   6.551   4.208   2.113
 4783SOL    HW215249   6.432   4.190   2.002
 4784SOL     OW15250   6.115   4.468   5.544
 4784SOL    HW115251   6.046   4.423   5.488
 4784SOL    HW215252   6.193   4.493   5.487
 4785SOL     OW15253   5.987   0.230   0.740
 4785SOL    HW115254   6.059   0.168   0.708
 4785SOL    HW215255   5.898   0.196   0.710
 4786SOL     OW15256   1.423   3.130   2.610
 4786SOL    HW115257   1.482   3.115   2.531
 4786SOL    HW215258   1.367   3.212   2.594
 4787SOL     OW15259   3.677   2.114   2.315
 4787SOL    HW115260   3.701   2.203   2.353
 4787SOL    HW215261   3.667   2.121   2.216
 4788SOL     OW15262   0.890   6.107   5.280
 4788SOL    HW115263   0.791   6.097   5.286
 4788SOL    HW215264   0.925   6.054   5.202
 4789SOL     OW15265   6.517   0.212   0.735
 4789SOL    HW115266   6.556   0.195   0.644
 4789SOL    HW215267   6.508   0.310   0.750
 4790SOL     OW15268   4.976   1.040   0.311
 4790SOL    HW115269   5.058   0.983   0.302
 4790SOL    HW215270   4.974   1.108   0.238
 4791SOL     OW15271   4.862   0.310   2.644
 4791SOL    HW115272   4.778   0.349   2.681
 4791SOL    HW215273   4.886   0.357   2.559
 4792SOL     OW15274   2.639   2.269   1.609
 4792SOL    HW115275   2.645   2.348   1.548
 4792SOL    HW215276   2.670   2.187   1.560
 4793SOL     OW15277   0.833   6.629   6.054
 4793SOL    HW115278   0.923   6.584   6.052
 4793SOL    HW215279   0.784   6.600   6.137
 4794SOL     OW15280   3.884   0.832   2.154
 4794SOL    HW115281   3.971   0.841   2.105
 4794SOL    HW215282   3.901   0.842   2.252
 4795SOL     OW15283   6.489   2.913   4.309
 4795SOL    HW115284   6.502   2.962   4.395
 4795SOL    HW215285   6.393   2.888   4.299
 4796SOL     OW15286   5.996   3.848   0.932
 4796SOL    HW115287   5.987   3.879   1.027
 4796SOL    HW215288   5.940   3.767   0.918
 4797SOL     OW15289   0.240   4.662   4.892
 4797SOL    HW115290   0.227   4.571   4.932
 4797SOL    HW215291   0.184   4.670   4.809
 4798SOL     OW15292   6.608   4.382   4.829
 4798SOL    HW115293   6.513   4.407   4.850
 4798SOL    HW215294   6.631   4.412   4.737
 4799SOL     OW15295   4.081   1.266   5.069
 4799SOL    HW115296   4.119   1.189   5.019
 4799SOL    HW215297   3.983   1.270   5.055
 4800SOL     OW15298   1.843   1.825   4.456
 4800SOL    HW115299   1.777   1.812   4.382
 4800SOL    HW215300   1.935   1.829   4.417
 4801SOL     OW15301   0.684   2.425   1.014
 4801SOL    HW115302   0.760   2.490   1.014
 4801SOL    HW215303   0.721   2.332   1.012
 4802SOL     OW15304   1.912   0.783   2.399
 4802SOL    HW115305   1.824   0.824   2.373
 4802SOL    HW215306   1.960   0.844   2.461
 4803SOL     OW15307   0.938   0.033   0.825
 4803SOL    HW115308   1.031   0.055   0.854
 4803SOL    HW215309   0.900   0.110   0.773
 4804SOL     OW15310   4.258   5.687   0.154
 4804SOL    HW115311   4.239   5.728   0.243
 4804SOL    HW215312   4.310   5.603   0.166
 4805SOL     OW15313   1.025   1.955   0.442
 4805SOL    HW115314   1.075   1.876   0.478
 4805SOL    HW215315   1.003   2.018   0.518
 4806SOL     OW15316   0.714   2.893   3.406
 4806SOL    HW115317   0.635   2.949   3.379
 4806SOL    HW215318   0.796   2.925   3.359
 4807SOL     OW15319   0.506   6.875   0.782
 4807SOL    HW115320   0.603   6.863   0.763
 4807SOL    HW215321   0.471   6.952   0.728
 4808SOL     OW15322   5.076   3.545   1.247
 4808SOL    HW115323   5.089   3.518   1.152
 4808SOL    HW215324   5.093   3.643   1.256
 4809SOL     OW15325   4.293   5.863   6.712
 4809SOL    HW115326   4.227   5.938   6.715
 4809SOL    HW215327   4.316   5.842   6.617
 4810SOL     OW15328   0.769   0.583   0.778
 4810SOL    HW115329   0.841   0.575   0.709
 4810SOL    HW215330   0.703   0.508   0.765
 4811SOL     OW15331   4.883   6.211   2.393
 4811SOL    HW115332   4.955   6.144   2.378
 4811SOL    HW215333   4.836   6.230   2.307
 4812SOL     OW15334   6.369   5.153   4.332
 4812SOL    HW115335   6.320   5.122   4.251
 4812SOL    HW215336   6.305   5.195   4.396
 4813SOL     OW15337   5.949   2.776   2.456
 4813SOL    HW115338   6.020   2.797   2.388
 4813SOL    HW215339   5.891   2.702   2.422
 4814SOL     OW15340   0.088   3.427   1.431
 4814SOL    HW115341   0.159   3.498   1.438
 4814SOL    HW215342   0.048   3.411   1.521
 4815SOL     OW15343   3.898   6.256   2.333
 4815SOL    HW115344   3.930   6.323   2.266
 4815SOL    HW215345   3.941   6.168   2.315
 4816SOL     OW15346   5.294   5.558   3.406
 4816SOL    HW115347   5.236   5.633   3.436
 4816SOL    HW215348   5.317   5.500   3.485
 4817SOL     OW15349   6.776   1.866   6.513
 4817SOL    HW115350   6.849   1.918   6.470
 4817SOL    HW215351   6.738   1.918   6.590
 4818SOL     OW15352   0.257   6.314   4.301
 4818SOL    HW115353   0.190   6.269   4.360
 4818SOL    HW215354   0.320   6.247   4.263
 4819SOL     OW15355   1.348   2.759   0.604
 4819SOL    HW115356   1.339   2.687   0.673
 4819SOL    HW215357   1.398   2.836   0.644
 4820SOL     OW15358   0.596   2.869   2.590
 4820SOL    HW115359   0.637   2.923   2.664
 4820SOL    HW215360   0.598   2.922   2.505
 4821SOL     OW15361   6.819   5.810   3.607
 4821SOL    HW115362   6.786   5.724   3.567
 4821SOL    HW215363   6.752   5.882   3.590
 4822SOL     OW15364   1.970   3.772   4.581
 4822SOL    HW115365   1.948   3.726   4.494
 4822SOL    HW215366   1.944   3.868   4.574
 4823SOL     OW15367   2.068   2.626   2.100
 4823SOL    HW115368   2.155   2.628   2.149
 4823SOL    HW215369   2.084   2.639   2.002
 4824SOL     OW15370   5.932   1.544   6.572
 4824SOL    HW115371   5.923   1.452   6.611
 4824SOL    HW215372   6.026   1.559   6.543
 4825SOL     OW15373   1.309   6.761   3.655
 4825SOL    HW115374   1.342   6.785   3.746
 4825SOL    HW215375   1.327   6.837   3.592
 4826SOL     OW15376   4.179   0.607   1.283
 4826SOL    HW115377   4.102   0.568   1.333
 4826SOL    HW215378   4.196   0.701   1.316
 4827SOL     OW15379   7.013   1.962   0.406
 4827SOL    HW115380   0.038   1.952   0.317
 4827SOL    HW215381   6.928   2.013   0.396
 4828SOL     OW15382   5.233   1.057   4.512
 4828SOL    HW115383   5.288   0.984   4.553
 4828SOL    HW215384   5.217   1.128   4.580
 4829SOL     OW15385   3.964   6.818   5.385
 4829SOL    HW115386   3.978   6.908   5.424
 4829SOL    HW215387   3.894   6.823   5.313
 4830SOL     OW15388   2.361   5.986   2.998
 4830SOL    HW115389   2.387   6.074   2.961
 4830SOL    HW215390   2.284   5.949   2.947
 4831SOL     OW15391   3.153   4.563   5.299
 4831SOL    HW115392   3.065   4.516   5.289
 4831SOL    HW215393   3.222   4.499   5.333
 4832SOL     OW15394   3.475   3.486   4.653
 4832SOL    HW115395   3.453   3.538   4.571
 4832SOL    HW215396   3.444   3.391   4.643
 4833SOL     OW15397   6.293   3.372   4.689
 4833SOL    HW115398   6.232   3.416   4.623
 4833SOL    HW215399   6.384   3.412   4.683
 4834SOL     OW15400   1.147   4.803   1.017
 4834SOL    HW115401   1.189   4.731   1.073
 4834SOL    HW215402   1.124   4.881   1.075
 4835SOL     OW15403   6.797   2.705   5.981
 4835SOL    HW115404   6.795   2.612   5.943
 4835SOL    HW215405   6.892   2.734   5.993
 4836SOL     OW15406   4.837   1.664   5.817
 4836SOL    HW115407   4.743   1.696   5.827
 4836SOL    HW215408   4.900   1.740   5.830
 4837SOL     OW15409   0.206   4.046   3.962
 4837SOL    HW115410   0.167   4.041   4.054
 4837SOL    HW215411   0.295   4.001   3.960
 4838SOL     OW15412   2.320   3.663   5.860
 4838SOL    HW115413   2.224   3.682   5.839
 4838SOL    HW215414   2.349   3.582   5.809
 4839SOL     OW15415   2.497   1.379   0.906
 4839SOL    HW115416   2.542   1.340   0.986
 4839SOL    HW215417   2.399   1.392   0.925
 4840SOL     OW15418   6.148   3.782   4.436
 4840SOL    HW115419   6.220   3.792   4.367
 4840SOL    HW215420   6.154   3.691   4.477
 4841SOL     OW15421   3.044   6.253   3.166
 4841SOL    HW115422   2.970   6.318   3.149
 4841SOL    HW215423   3.127   6.303   3.189
 4842SOL     OW15424   3.610   5.835   2.929
 4842SOL    HW115425   3.589   5.739   2.950
 4842SOL    HW215426   3.698   5.840   2.881
 4843SOL     OW15427   0.118   1.556   7.010
 4843SOL    HW115428   0.155   1.489   0.055
 4843SOL    HW215429   0.148   1.535   6.917
 4844SOL     OW15430   2.066   5.705   5.251
 4844SOL    HW115431   2.154   5.657   5.247
 4844SOL    HW215432   1.996   5.642   5.286
 4845SOL     OW15433   4.934   3.631   4.830
 4845SOL    HW115434   4.913   3.724   4.797
 4845SOL    HW215435   4.893   3.618   4.920
 4846SOL     OW15436   6.603   3.670   4.529
 4846SOL    HW115437   6.585   3.755   4.578
 4846SOL    HW215438   6.623   3.598   4.596
 4847SOL     OW15439   2.653   6.339   6.237
 4847SOL    HW115440   2.636   6.422   6.290
 4847SOL    HW215441   2.647   6.259   6.297
 4848SOL     OW15442   4.688   1.058   4.281
 4848SOL    HW115443   4.700   1.098   4.190
 4848SOL    HW215444   4.773   1.067   4.333
 4849SOL     OW15445   2.389   6.168   1.282
 4849SOL    HW115446   2.387   6.128   1.374
 4849SOL    HW215447   2.384   6.267   1.289
 4850SOL     OW15448   3.729   0.220   0.944
 4850SOL    HW115449   3.703   0.124   0.941
 4850SOL    HW215450   3.655   0.274   0.984
 4851SOL     OW15451   3.437   4.341   6.373
 4851SOL    HW115452   3.343   4.376   6.367
 4851SOL    HW215453   3.499   4.407   6.331
 4852SOL     OW15454   5.742   4.978   5.687
 4852SOL    HW115455   5.724   5.072   5.715
 4852SOL    HW215456   5.665   4.944   5.633
 4853SOL     OW15457   4.165   6.807   2.556
 4853SOL    HW115458   4.228   6.848   2.491
 4853SOL    HW215459   4.086   6.769   2.507
 4854SOL     OW15460   4.800   6.322   2.131
 4854SOL    HW115461   4.831   6.409   2.170
 4854SOL    HW215462   4.701   6.314   2.140
 4855SOL     OW15463   4.679   4.780   5.966
 4855SOL    HW115464   4.755   4.731   5.924
 4855SOL    HW215465   4.653   4.858   5.910
 4856SOL     OW15466   0.496   4.117   3.007
 4856SOL    HW115467   0.474   4.107   2.910
 4856SOL    HW215468   0.525   4.028   3.044
 4857SOL     OW15469   2.301   2.605   5.318
 4857SOL    HW115470   2.313   2.530   5.383
 4857SOL    HW215471   2.207   2.637   5.322
 4858SOL     OW15472   1.517   6.131   4.467
 4858SOL    HW115473   1.533   6.037   4.500
 4858SOL    HW215474   1.549   6.196   4.537
 4859SOL     OW15475   6.835   5.872   2.987
 4859SOL    HW115476   6.830   5.972   2.992
 4859SOL    HW215477   6.906   5.839   3.049
 4860SOL     OW15478   4.061   5.366   2.202
 4860SOL    HW115479   4.043   5.383   2.299
 4860SOL    HW215480   4.141   5.307   2.192
 4861SOL     OW15481   0.029   4.153   5.965
 4861SOL    HW115482   0.078   4.227   6.010
 4861SOL    HW215483   6.968   4.190   5.919
 4862SOL     OW15484   2.049   5.916   4.236
 4862SOL    HW115485   1.979   5.846   4.232
 4862SOL    HW215486   2.138   5.874   4.256
 4863SOL     OW15487   5.325   2.074   2.677
 4863SOL    HW115488   5.353   2.026   2.760
 4863SOL    HW215489   5.258   2.144   2.700
 4864SOL     OW15490   2.259   1.424   1.030
 4864SOL    HW115491   2.246   1.484   1.109
 4864SOL    HW215492   2.171   1.407   0.986
 4865SOL     OW15493   3.838   5.569   4.560
 4865SOL    HW115494   3.938   5.564   4.563
 4865SOL    HW215495   3.801   5.477   4.552
 4866SOL     OW15496   0.473   4.941   1.988
 4866SOL    HW115497   0.453   4.970   1.894
 4866SOL    HW215498   0.417   4.993   2.052
 4867SOL     OW15499   5.136   4.989   4.095
 4867SOL    HW115500   5.124   5.086   4.077
 4867SOL    HW215501   5.059   4.955   4.149
 4868SOL     OW15502   1.420   6.607   1.471
 4868SOL    HW115503   1.349   6.536   1.475
 4868SOL    HW215504   1.397   6.674   1.401
 4869SOL     OW15505   6.283   1.700   1.060
 4869SOL    HW115506   6.382   1.694   1.076
 4869SOL    HW215507   6.236   1.643   1.128
 4870SOL     OW15508   6.798   0.246   0.763
 4870SOL    HW115509   6.848   0.199   0.690
 4870SOL    HW215510   6.747   0.179   0.817
 4871SOL     OW15511   1.533   3.798   4.641
 4871SOL    HW115512   1.595   3.847   4.703
 4871SOL    HW215513   1.562   3.811   4.547
 4872SOL     OW15514   0.833   0.371   4.328
 4872SOL    HW115515   0.819   0.276   4.300
 4872SOL    HW215516   0.930   0.394   4.321
 4873SOL     OW15517   1.110   6.199   4.912
 4873SOL    HW115518   1.136   6.121   4.855
 4873SOL    HW215519   1.176   6.210   4.986
 4874SOL     OW15520   5.619   2.939   3.822
 4874SOL    HW115521   5.625   3.000   3.901
 4874SOL    HW215522   5.699   2.879   3.820
 4875SOL     OW15523   6.350   2.984   6.376
 4875SOL    HW115524   6.358   2.905   6.316
 4875SOL    HW215525   6.427   3.046   6.359
 4876SOL     OW15526   6.868   1.591   0.334
 4876SOL    HW115527   6.793   1.654   0.316
 4876SOL    HW215528   6.955   1.637   0.314
 4877SOL     OW15529   6.040   1.446   1.720
 4877SOL    HW115530   5.948   1.471   1.751
 4877SOL    HW215531   6.035   1.369   1.658
 4878SOL     OW15532   0.075   2.811   1.936
 4878SOL    HW115533   0.139   2.813   2.013
 4878SOL    HW215534   0.110   2.868   1.862
 4879SOL     OW15535   4.493   5.776   3.293
 4879SOL    HW115536   4.593   5.775   3.287
 4879SOL    HW215537   4.465   5.813   3.381
 4880SOL     OW15538   5.941   2.082   6.049
 4880SOL    HW115539   5.957   2.152   5.979
 4880SOL    HW215540   6.005   2.095   6.124
 4881SOL     OW15541   3.075   5.364   6.986
 4881SOL    HW115542   3.018   5.393   6.908
 4881SOL    HW215543   3.142   5.435   7.005
 4882SOL     OW15544   4.756   6.779   6.815
 4882SOL    HW115545   4.783   6.702   6.759
 4882SOL    HW215546   4.691   6.837   6.766
 4883SOL     OW15547   6.093   5.410   0.416
 4883SOL    HW115548   6.031   5.349   0.366
 4883SOL    HW215549   6.185   5.373   0.413
 4884SOL     OW15550   4.078   6.210   1.616
 4884SOL    HW115551   4.096   6.250   1.706
 4884SOL    HW215552   4.158   6.222   1.557
 4885SOL     OW15553   2.372   6.652   2.793
 4885SOL    HW115554   2.347   6.697   2.707
 4885SOL    HW215555   2.447   6.702   2.836
 4886SOL     OW15556   5.839   0.894   6.122
 4886SOL    HW115557   5.776   0.825   6.156
 4886SOL    HW215558   5.848   0.886   6.023
 4887SOL     OW15559   0.408   1.864   5.810
 4887SOL    HW115560   0.462   1.941   5.774
 4887SOL    HW215561   0.369   1.889   5.898
 4888SOL     OW15562   3.220   5.513   1.824
 4888SOL    HW115563   3.232   5.462   1.738
 4888SOL    HW215564   3.210   5.610   1.803
 4889SOL     OW15565   1.614   2.928   6.206
 4889SOL    HW115566   1.662   2.954   6.290
 4889SOL    HW215567   1.517   2.951   6.215
 4890SOL     OW15568   1.100   0.568   4.253
 4890SOL    HW115569   1.195   0.542   4.273
 4890SOL    HW215570   1.066   0.627   4.326
 4891SOL     OW15571   1.671   3.483   1.013
 4891SOL    HW115572   1.734   3.430   0.956
 4891SOL    HW215573   1.712   3.501   1.102
 4892SOL     OW15574   1.407   5.783   1.730
 4892SOL    HW115575   1.363   5.873   1.732
 4892SOL    HW215576   1.500   5.792   1.693
 4893SOL     OW15577   1.305   3.336   6.100
 4893SOL    HW115578   1.313   3.398   6.178
 4893SOL    HW215579   1.302   3.241   6.133
 4894SOL     OW15580   1.706   0.955   3.085
 4894SOL    HW115581   1.739   0.867   3.119
 4894SOL    HW215582   1.674   1.011   3.162
 4895SOL     OW15583   5.726   4.438   0.045
 4895SOL    HW115584   5.826   4.442   0.047
 4895SOL    HW215585   5.696   4.352   0.086
 4896SOL     OW15586   4.460   5.845   3.011
 4896SOL    HW115587   4.447   5.819   3.107
 4896SOL    HW215588   4.534   5.911   3.003
 4897SOL     OW15589   2.843   5.886   6.129
 4897SOL    HW115590   2.934   5.900   6.168
 4897SOL    HW215591   2.818   5.790   6.139
 4898SOL     OW15592   6.050   2.342   4.765
 4898SOL    HW115593   6.033   2.404   4.841
 4898SOL    HW215594   6.134   2.369   4.718
 4899SOL     OW15595   5.032   4.622   4.510
 4899SOL    HW115596   4.986   4.553   4.566
 4899SOL    HW215597   4.980   4.707   4.513
 4900SOL     OW15598   0.550   6.679   5.583
 4900SOL    HW115599   0.612   6.718   5.514
 4900SOL    HW215600   0.536   6.582   5.562
 4901SOL     OW15601   0.167   6.811   3.276
 4901SOL    HW115602   0.080   6.773   3.244
 4901SOL    HW215603   0.236   6.802   3.205
 4902SOL     OW15604   3.244   4.869   1.891
 4902SOL    HW115605   3.176   4.808   1.851
 4902SOL    HW215606   3.333   4.824   1.891
 4903SOL     OW15607   5.641   5.860   5.648
 4903SOL    HW115608   5.720   5.906   5.608
 4903SOL    HW215609   5.661   5.840   5.744
 4904SOL     OW15610   3.281   6.080   3.433
 4904SOL    HW115611   3.331   6.163   3.406
 4904SOL    HW215612   3.209   6.061   3.365
 4905SOL     OW15613   6.399   3.545   3.474
 4905SOL    HW115614   6.371   3.534   3.570
 4905SOL    HW215615   6.406   3.643   3.453
 4906SOL     OW15616   4.905   0.740   1.249
 4906SOL    HW115617   4.964   0.721   1.170
 4906SOL    HW215618   4.817   0.776   1.217
 4907SOL     OW15619   2.332   1.760   2.514
 4907SOL    HW115620   2.287   1.805   2.436
 4907SOL    HW215621   2.317   1.814   2.597
 4908SOL     OW15622   3.893   5.217   0.217
 4908SOL    HW115623   3.811   5.208   0.160
 4908SOL    HW215624   3.973   5.186   0.166
 4909SOL     OW15625   5.711   0.202   5.694
 4909SOL    HW115626   5.650   0.237   5.623
 4909SOL    HW215627   5.799   0.248   5.687
 4910SOL     OW15628   5.630   6.998   6.691
 4910SOL    HW115629   5.685   6.981   6.609
 4910SOL    HW215630   5.576   0.062   6.677
 4911SOL     OW15631   1.064   3.088   6.054
 4911SOL    HW115632   0.995   3.043   5.997
 4911SOL    HW215633   1.098   3.023   6.123
 4912SOL     OW15634   2.423   2.321   1.935
 4912SOL    HW115635   2.408   2.416   1.910
 4912SOL    HW215636   2.355   2.263   1.889
 4913SOL     OW15637   2.878   3.510   2.263
 4913SOL    HW115638   2.865   3.533   2.167
 4913SOL    HW215639   2.831   3.424   2.283
 4914SOL     OW15640   1.716   6.188   2.262
 4914SOL    HW115641   1.671   6.162   2.176
 4914SOL    HW215642   1.808   6.149   2.264
 4915SOL     OW15643   2.767   5.982   3.001
 4915SOL    HW115644   2.734   6.051   3.066
 4915SOL    HW215645   2.689   5.938   2.957
 4916SOL     OW15646   1.753   1.460   2.285
 4916SOL    HW115647   1.754   1.557   2.259
 4916SOL    HW215648   1.740   1.453   2.384
 4917SOL     OW15649   2.237   5.286   6.266
 4917SOL    HW115650   2.187   5.214   6.218
 4917SOL    HW215651   2.197   5.299   6.357
 4918SOL     OW15652   2.194   0.227   3.789
 4918SOL    HW115653   2.160   0.301   3.732
 4918SOL    HW215654   2.222   0.263   3.878
 4919SOL     OW15655   2.513   3.126   1.480
 4919SOL    HW115656   2.513   3.213   1.529
 4919SOL    HW215657   2.511   3.143   1.381
 4920SOL     OW15658   4.251   0.916   0.499
 4920SOL    HW115659   4.281   0.983   0.431
 4920SOL    HW215660   4.185   0.854   0.458
 4921SOL     OW15661   1.396   4.143   1.837
 4921SOL    HW115662   1.448   4.187   1.911
 4921SOL    HW215663   1.385   4.208   1.762
 4922SOL     OW15664   1.009   2.646   5.646
 4922SOL    HW115665   1.036   2.742   5.655
 4922SOL    HW215666   0.963   2.633   5.558
 4923SOL     OW15667   3.305   1.948   0.564
 4923SOL    HW115668   3.402   1.952   0.585
 4923SOL    HW215669   3.267   1.861   0.595
 4924SOL     OW15670   0.098   3.932   4.201
 4924SOL    HW115671   0.110   3.901   4.295
 4924SOL    HW215672   0.048   3.863   4.149
 4925SOL     OW15673   4.445   5.693   6.321
 4925SOL    HW115674   4.466   5.667   6.227
 4925SOL    HW215675   4.489   5.628   6.384
 4926SOL     OW15676   4.004   2.775   0.931
 4926SOL    HW115677   3.936   2.714   0.972
 4926SOL    HW215678   3.977   2.870   0.945
 4927SOL     OW15679   4.074   3.735   2.983
 4927SOL    HW115680   4.057   3.811   3.046
 4927SOL    HW215681   4.100   3.654   3.036
 4928SOL     OW15682   0.790   6.183   0.883
 4928SOL    HW115683   0.719   6.249   0.910
 4928SOL    HW215684   0.768   6.146   0.792
 4929SOL     OW15685   0.878   5.187   4.282
 4929SOL    HW115686   0.822   5.108   4.309
 4929SOL    HW215687   0.842   5.270   4.324
 4930SOL     OW15688   0.330   2.392   0.323
 4930SOL    HW115689   0.411   2.351   0.365
 4930SOL    HW215690   0.345   2.404   0.225
 4931SOL     OW15691   6.691   0.234   1.243
 4931SOL    HW115692   6.767   0.174   1.267
 4931SOL    HW215693   6.721   0.300   1.173
 4932SOL     OW15694   4.128   2.207   1.030
 4932SOL    HW115695   4.091   2.277   0.968
 4932SOL    HW215696   4.077   2.208   1.115
 4933SOL     OW15697   2.883   0.765   5.183
 4933SOL    HW115698   2.889   0.785   5.086
 4933SOL    HW215699   2.956   0.813   5.232
 4934SOL     OW15700   1.737   5.715   5.041
 4934SOL    HW115701   1.639   5.706   5.023
 4934SOL    HW215702   1.771   5.630   5.082
 4935SOL     OW15703   1.655   1.072   0.420
 4935SOL    HW115704   1.675   1.057   0.517
 4935SOL    HW215705   1.623   1.166   0.407
 4936SOL     OW15706   4.432   5.710   1.414
 4936SOL    HW115707   4.444   5.691   1.317
 4936SOL    HW215708   4.393   5.802   1.426
 4937SOL     OW15709   1.107   2.934   5.407
 4937SOL    HW115710   1.203   2.941   5.380
 4937SOL    HW215711   1.053   3.003   5.358
 4938SOL     OW15712   3.514   4.828   1.667
 4938SOL    HW115713   3.512   4.912   1.721
 4938SOL    HW215714   3.524   4.749   1.729
 4939SOL     OW15715   0.996   1.656   1.680
 4939SOL    HW115716   1.020   1.751   1.700
 4939SOL    HW215717   1.057   1.595   1.729
 4940SOL     OW15718   0.328   1.493   5.397
 4940SOL    HW115719   0.401   1.562   5.400
 4940SOL    HW215720   0.257   1.516   5.463
 4941SOL     OW15721   4.095   2.849   5.535
 4941SOL    HW115722   4.081   2.946   5.514
 4941SOL    HW215723   4.087   2.835   5.633
 4942SOL     OW15724   0.575   1.462   3.215
 4942SOL    HW115725   0.532   1.553   3.212
 4942SOL    HW215726   0.581   1.431   3.309
 4943SOL     OW15727   5.646   2.683   6.973
 4943SOL    HW115728   5.655   2.679   6.874
 4943SOL    HW215729   5.568   2.628   7.002
 4944SOL     OW15730   0.993   5.394   6.553
 4944SOL    HW115731   0.929   5.426   6.484
 4944SOL    HW215732   0.953   5.403   6.644
 4945SOL     OW15733   2.284   0.477   5.372
 4945SOL    HW115734   2.255   0.535   5.448
 4945SOL    HW215735   2.344   0.529   5.311
 4946SOL     OW15736   2.929   5.315   0.190
 4946SOL    HW115737   2.994   5.339   0.117
 4946SOL    HW215738   2.975   5.325   0.279
 4947SOL     OW15739   1.237   0.597   1.011
 4947SOL    HW115740   1.141   0.571   1.023
 4947SOL    HW215741   1.287   0.523   0.966
 4948SOL     OW15742   1.818   1.979   2.036
 4948SOL    HW115743   1.838   2.036   2.116
 4948SOL    HW215744   1.786   1.889   2.066
 4949SOL     OW15745   0.253   4.320   6.069
 4949SOL    HW115746   0.320   4.301   5.998
 4949SOL    HW215747   0.201   4.401   6.045
 4950SOL     OW15748   3.478   4.521   5.588
 4950SOL    HW115749   3.533   4.443   5.559
 4950SOL    HW215750   3.475   4.524   5.688
 4951SOL     OW15751   4.846   5.532   2.746
 4951SOL    HW115752   4.835   5.609   2.684
 4951SOL    HW215753   4.873   5.451   2.695
 4952SOL     OW15754   0.444   0.245   6.437
 4952SOL    HW115755   0.532   0.281   6.470
 4952SOL    HW215756   0.382   0.235   6.515
 4953SOL     OW15757   1.420   2.475   5.008
 4953SOL    HW115758   1.425   2.485   4.908
 4953SOL    HW215759   1.354   2.541   5.044
 4954SOL     OW15760   2.850   3.658   4.800
 4954SOL    HW115761   2.751   3.643   4.809
 4954SOL    HW215762   2.894   3.572   4.772
 4955SOL     OW15763   4.110   5.764   5.961
 4955SOL    HW115764   4.145   5.835   5.900
 4955SOL    HW215765   4.080   5.686   5.907
 4956SOL     OW15766   3.050   0.120   5.134
 4956SOL    HW115767   3.118   0.169   5.189
 4956SOL    HW215768   3.086   0.031   5.107
 4957SOL     OW15769   5.942   4.642   6.866
 4957SOL    HW115770   5.964   4.727   6.913
 4957SOL    HW215771   5.853   4.651   6.819
 4958SOL     OW15772   4.198   5.870   0.687
 4958SOL    HW115773   4.177   5.931   0.611
 4958SOL    HW215774   4.278   5.814   0.664
 4959SOL     OW15775   0.453   2.372   3.021
 4959SOL    HW115776   0.454   2.319   2.936
 4959SOL    HW215777   0.359   2.401   3.040
 4960SOL     OW15778   5.129   4.775   3.828
 4960SOL    HW115779   5.145   4.872   3.846
 4960SOL    HW215780   5.124   4.725   3.914
 4961SOL     OW15781   3.449   2.151   1.356
 4961SOL    HW115782   3.386   2.149   1.434
 4961SOL    HW215783   3.523   2.086   1.371
 4962SOL     OW15784   1.202   4.074   0.807
 4962SOL    HW115785   1.285   4.020   0.824
 4962SOL    HW215786   1.128   4.041   0.865
 4963SOL     OW15787   0.570   3.377   6.252
 4963SOL    HW115788   0.549   3.288   6.292
 4963SOL    HW215789   0.659   3.373   6.206
 4964SOL     OW15790   2.382   6.498   4.410
 4964SOL    HW115791   2.435   6.461   4.486
 4964SOL    HW215792   2.318   6.567   4.445
 4965SOL     OW15793   1.298   5.995   2.897
 4965SOL    HW115794   1.324   6.085   2.864
 4965SOL    HW215795   1.202   5.979   2.877
 4966SOL     OW15796   3.182   6.525   4.128
 4966SOL    HW115797   3.189   6.544   4.030
 4966SOL    HW215798   3.086   6.524   4.155
 4967SOL     OW15799   4.334   4.785   4.838
 4967SOL    HW115800   4.331   4.713   4.907
 4967SOL    HW215801   4.295   4.869   4.877
 4968SOL     OW15802   0.034   2.573   3.332
 4968SOL    HW115803   0.133   2.571   3.345
 4968SOL    HW215804   7.008   2.586   3.420
 4969SOL     OW15805   0.251   5.537   4.106
 4969SOL    HW115806   0.160   5.525   4.145
 4969SOL    HW215807   0.311   5.579   4.174
 4970SOL     OW15808   1.466   1.502   1.173
 4970SOL    HW115809   1.548   1.558   1.181
 4970SOL    HW215810   1.460   1.465   1.080
 4971SOL     OW15811   0.167   5.815   2.311
 4971SOL    HW115812   0.178   5.884   2.383
 4971SOL    HW215813   0.232   5.835   2.237
 4972SOL     OW15814   0.595   4.614   0.706
 4972SOL    HW115815   0.527   4.619   0.633
 4972SOL    HW215816   0.686   4.602   0.666
 4973SOL     OW15817   6.361   1.264   1.012
 4973SOL    HW115818   6.332   1.282   0.918
 4973SOL    HW215819   6.343   1.344   1.069
 4974SOL     OW15820   3.419   6.617   4.872
 4974SOL    HW115821   3.432   6.612   4.971
 4974SOL    HW215822   3.424   6.712   4.843
 4975SOL     OW15823   5.216   4.981   0.892
 4975SOL    HW115824   5.191   5.034   0.973
 4975SOL    HW215825   5.268   4.900   0.921
 4976SOL     OW15826   1.581   6.761   3.475
 4976SOL    HW115827   1.617   6.848   3.511
 4976SOL    HW215828   1.547   6.705   3.551
 4977SOL     OW15829   1.231   4.235   5.704
 4977SOL    HW115830   1.278   4.319   5.677
 4977SOL    HW215831   1.295   4.174   5.750
 4978SOL     OW15832   5.669   4.435   4.696
 4978SOL    HW115833   5.701   4.434   4.601
 4978SOL    HW215834   5.643   4.528   4.721
 4979SOL     OW15835   2.299   6.753   6.137
 4979SOL    HW115836   2.340   6.757   6.228
 4979SOL    HW215837   2.286   6.658   6.110
 4980SOL     OW15838   5.666   3.083   4.042
 4980SOL    HW115839   5.643   3.179   4.026
 4980SOL    HW215840   5.631   3.055   4.131
 4981SOL     OW15841   2.652   4.768   2.501
 4981SOL    HW115842   2.595   4.708   2.557
 4981SOL    HW215843   2.748   4.743   2.512
 4982SOL     OW15844   3.994   2.161   5.801
 4982SOL    HW115845   4.052   2.169   5.882
 4982SOL    HW215846   3.964   2.066   5.792
 4983SOL     OW15847   5.865   5.226   2.765
 4983SOL    HW115848   5.869   5.305   2.703
 4983SOL    HW215849   5.939   5.163   2.744
 4984SOL     OW15850   4.886   3.671   3.518
 4984SOL    HW115851   4.799   3.656   3.472
 4984SOL    HW215852   4.940   3.737   3.466
 4985SOL     OW15853   5.833   0.705   2.439
 4985SOL    HW115854   5.736   0.706   2.462
 4985SOL    HW215855   5.873   0.617   2.465
 4986SOL     OW15856   1.157   4.782   1.408
 4986SOL    HW115857   1.097   4.832   1.471
 4986SOL    HW215858   1.245   4.765   1.453
 4987SOL     OW15859   0.611   1.187   2.486
 4987SOL    HW115860   0.678   1.112   2.483
 4987SOL    HW215861   0.563   1.184   2.573
 4988SOL     OW15862   6.128   5.989   3.921
 4988SOL    HW115863   6.085   5.904   3.889
 4988SOL    HW215864   6.056   6.056   3.941
 4989SOL     OW15865   4.761   0.349   3.348
 4989SOL    HW115866   4.709   0.420   3.302
 4989SOL    HW215867   4.859   0.361   3.328
 4990SOL     OW15868   4.550   2.350   5.281
 4990SOL    HW115869   4.469   2.365   5.337
 4990SOL    HW215870   4.632   2.361   5.338
 4991SOL     OW15871   1.005   4.574   6.043
 4991SOL    HW115872   0.978   4.492   5.991
 4991SOL    HW215873   1.092   4.556   6.089
 4992SOL     OW15874   0.841   3.601   3.893
 4992SOL    HW115875   0.861   3.562   3.803
 4992SOL    HW215876   0.886   3.690   3.901
 4993SOL     OW15877   2.921   6.162   3.469
 4993SOL    HW115878   2.843   6.115   3.512
 4993SOL    HW215879   2.965   6.101   3.404
 4994SOL     OW15880   3.519   5.102   5.496
 4994SOL    HW115881   3.560   5.013   5.478
 4994SOL    HW215882   3.522   5.158   5.412
 4995SOL     OW15883   0.064   0.803   6.051
 4995SOL    HW115884   0.071   0.849   5.963
 4995SOL    HW215885   0.144   0.743   6.064
 4996SOL     OW15886   0.202   1.254   4.134
 4996SOL    HW115887   0.127   1.293   4.187
 4996SOL    HW215888   0.173   1.166   4.095
 4997SOL     OW15889   4.239   1.843   1.180
 4997SOL    HW115890   4.229   1.783   1.258
 4997SOL    HW215891   4.220   1.793   1.096
 4998SOL     OW15892   0.943   3.705   3.306
 4998SOL    HW115893   1.039   3.693   3.331
 4998SOL    HW215894   0.922   3.803   3.300
 4999SOL     OW15895   0.923   2.811   4.402
 4999SOL    HW115896   0.995   2.875   4.375
 4999SOL    HW215897   0.877   2.775   4.321
 5000SOL     OW15898   3.179   5.722   2.780
 5000SOL    HW115899   3.197   5.640   2.835
 5000SOL    HW215900   3.261   5.779   2.779
 5001SOL     OW15901   0.346   5.980   3.465
 5001SOL    HW115902   0.403   5.901   3.487
 5001SOL    HW215903   0.341   6.040   3.545
 5002SOL     OW15904   1.604   4.163   3.853
 5002SOL    HW115905   1.528   4.208   3.805
 5002SOL    HW215906   1.617   4.207   3.942
 5003SOL     OW15907   4.453   0.989   3.614
 5003SOL    HW115908   4.429   0.910   3.559
 5003SOL    HW215909   4.390   1.064   3.593
 5004SOL     OW15910   3.430   5.352   0.103
 5004SOL    HW115911   3.356   5.370   0.168
 5004SOL    HW215912   3.392   5.343   0.011
 5005SOL     OW15913   2.909   2.871   0.176
 5005SOL    HW115914   2.932   2.836   0.267
 5005SOL    HW215915   2.905   2.796   0.111
 5006SOL     OW15916   4.821   1.898   1.726
 5006SOL    HW115917   4.732   1.873   1.688
 5006SOL    HW215918   4.808   1.949   1.811
 5007SOL     OW15919   5.671   6.473   1.873
 5007SOL    HW115920   5.760   6.477   1.827
 5007SOL    HW215921   5.681   6.504   1.968
 5008SOL     OW15922   5.710   0.101   2.310
 5008SOL    HW115923   5.777   0.164   2.349
 5008SOL    HW215924   5.638   0.153   2.265
 5009SOL     OW15925   6.602   2.303   0.441
 5009SOL    HW115926   6.591   2.310   0.342
 5009SOL    HW215927   6.696   2.327   0.466
 5010SOL     OW15928   3.534   3.567   1.282
 5010SOL    HW115929   3.577   3.653   1.311
 5010SOL    HW215930   3.545   3.555   1.184
 5011SOL     OW15931   1.826   2.840   6.668
 5011SOL    HW115932   1.921   2.810   6.668
 5011SOL    HW215933   1.821   2.937   6.692
 5012SOL     OW15934   6.113   1.793   6.305
 5012SOL    HW115935   6.072   1.878   6.339
 5012SOL    HW215936   6.191   1.815   6.247
 5013SOL     OW15937   5.807   7.014   5.869
 5013SOL    HW115938   5.782   0.071   5.810
 5013SOL    HW215939   5.906   7.015   5.884
 5014SOL     OW15940   6.129   3.284   1.629
 5014SOL    HW115941   6.113   3.374   1.591
 5014SOL    HW215942   6.204   3.289   1.695
 5015SOL     OW15943   5.669   6.776   4.013
 5015SOL    HW115944   5.747   6.822   3.971
 5015SOL    HW215945   5.691   6.680   4.028
 5016SOL     OW15946   1.936   3.388   5.808
 5016SOL    HW115947   1.869   3.456   5.778
 5016SOL    HW215948   2.001   3.430   5.870
 5017SOL     OW15949   0.696   3.254   2.236
 5017SOL    HW115950   0.673   3.197   2.157
 5017SOL    HW215951   0.614   3.302   2.268
 5018SOL     OW15952   1.325   0.211   0.073
 5018SOL    HW115953   1.286   0.170   0.156
 5018SOL    HW215954   1.301   0.308   0.070
 5019SOL     OW15955   1.508   5.213   4.590
 5019SOL    HW115956   1.602   5.178   4.600
 5019SOL    HW215957   1.510   5.312   4.599
 5020SOL     OW15958   2.534   0.052   4.284
 5020SOL    HW115959   2.540   0.022   4.188
 5020SOL    HW215960   2.550   6.993   4.344
 5021SOL     OW15961   2.141   0.880   0.521
 5021SOL    HW115962   2.207   0.819   0.477
 5021SOL    HW215963   2.116   0.953   0.458
 5022SOL     OW15964   6.823   3.010   1.614
 5022SOL    HW115965   6.804   3.103   1.647
 5022SOL    HW215966   6.805   2.944   1.687
 5023SOL     OW15967   6.891   4.209   2.452
 5023SOL    HW115968   6.849   4.219   2.542
 5023SOL    HW215969   6.973   4.153   2.459
 5024SOL     OW15970   4.074   3.559   1.133
 5024SOL    HW115971   3.999   3.589   1.192
 5024SOL    HW215972   4.038   3.501   1.061
 5025SOL     OW15973   4.425   1.033   4.322
 5025SOL    HW115974   4.524   1.031   4.310
 5025SOL    HW215975   4.399   1.119   4.366
 5026SOL     OW15976   4.200   6.976   4.664
 5026SOL    HW115977   4.236   6.905   4.603
 5026SOL    HW215978   4.106   6.953   4.689
 5027SOL     OW15979   5.306   6.472   0.357
 5027SOL    HW115980   5.236   6.493   0.424
 5027SOL    HW215981   5.292   6.527   0.274
 5028SOL     OW15982   6.104   1.928   2.581
 5028SOL    HW115983   6.184   1.952   2.525
 5028SOL    HW215984   6.123   1.949   2.677
 5029SOL     OW15985   6.192   1.948   2.851
 5029SOL    HW115986   6.122   1.988   2.909
 5029SOL    HW215987   6.272   1.926   2.907
 5030SOL     OW15988   0.224   4.276   6.575
 5030SOL    HW115989   0.149   4.213   6.594
 5030SOL    HW215990   0.266   4.305   6.661
 5031SOL     OW15991   6.504   6.689   6.011
 5031SOL    HW115992   6.410   6.721   5.999
 5031SOL    HW215993   6.538   6.722   6.099
 5032SOL     OW15994   2.792   3.310   5.462
 5032SOL    HW115995   2.773   3.390   5.404
 5032SOL    HW215996   2.766   3.331   5.556
 5033SOL     OW15997   2.201   0.703   6.807
 5033SOL    HW115998   2.264   0.764   6.759
 5033SOL    HW215999   2.243   0.672   6.893
 5034SOL     OW16000   4.505   6.543   4.575
 5034SOL    HW116001   4.487   6.543   4.476
 5034SOL    HW216002   4.603   6.553   4.592
 5035SOL     OW16003   1.860   3.488   3.841
 5035SOL    HW116004   1.782   3.431   3.816
 5035SOL    HW216005   1.887   3.544   3.763
 5036SOL     OW16006   6.855   2.512   5.588
 5036SOL    HW116007   6.884   2.451   5.514
 5036SOL    HW216008   6.887   2.605   5.569
 5037SOL     OW16009   4.181   4.100   1.477
 5037SOL    HW116010   4.225   4.175   1.526
 5037SOL    HW216011   4.220   4.013   1.508
 5038SOL     OW16012   4.073   3.637   4.198
 5038SOL    HW116013   3.980   3.626   4.234
 5038SOL    HW216014   4.088   3.734   4.174
 5039SOL     OW16015   1.211   3.519   6.784
 5039SOL    HW116016   1.180   3.602   6.831
 5039SOL    HW216017   1.132   3.461   6.763
 5040SOL     OW16018   0.399   0.685   5.304
 5040SOL    HW116019   0.419   0.592   5.275
 5040SOL    HW216020   0.480   0.727   5.344
 5041SOL     OW16021   0.009   3.250   1.631
 5041SOL    HW116022   6.938   3.267   1.591
 5041SOL    HW216023   0.025   3.151   1.634
 5042SOL     OW16024   0.552   2.784   6.264
 5042SOL    HW116025   0.465   2.796   6.311
 5042SOL    HW216026   0.625   2.770   6.331
 5043SOL     OW16027   4.093   6.339   1.252
 5043SOL    HW116028   4.161   6.332   1.326
 5043SOL    HW216029   4.127   6.290   1.171
 5044SOL     OW16030   6.057   4.614   0.499
 5044SOL    HW116031   6.011   4.636   0.413
 5044SOL    HW216032   6.058   4.515   0.512
 5045SOL     OW16033   6.139   3.411   6.585
 5045SOL    HW116034   6.198   3.486   6.614
 5045SOL    HW216035   6.056   3.411   6.641
 5046SOL     OW16036   3.637   2.995   3.020
 5046SOL    HW116037   3.548   2.954   3.001
 5046SOL    HW216038   3.697   2.980   2.941
 5047SOL     OW16039   0.943   3.995   3.339
 5047SOL    HW116040   0.897   4.064   3.284
 5047SOL    HW216041   0.902   3.990   3.430
 5048SOL     OW16042   1.845   1.087   5.693
 5048SOL    HW116043   1.783   1.159   5.662
 5048SOL    HW216044   1.852   1.088   5.792
 5049SOL     OW16045   4.824   1.670   6.653
 5049SOL    HW116046   4.878   1.642   6.573
 5049SOL    HW216047   4.763   1.596   6.679
 5050SOL     OW16048   1.556   0.440   0.642
 5050SOL    HW116049   1.618   0.414   0.567
 5050SOL    HW216050   1.463   0.449   0.607
 5051SOL     OW16051   4.458   5.403   1.233
 5051SOL    HW116052   4.525   5.360   1.293
 5051SOL    HW216053   4.397   5.334   1.196
 5052SOL     OW16054   2.677   1.209   5.438
 5052SOL    HW116055   2.651   1.221   5.342
 5052SOL    HW216056   2.635   1.280   5.493
 5053SOL     OW16057   0.183   0.025   1.646
 5053SOL    HW116058   0.274   7.018   1.614
 5053SOL    HW216059   0.175   0.005   1.744
 5054SOL     OW16060   3.665   5.042   4.033
 5054SOL    HW116061   3.623   5.105   3.967
 5054SOL    HW216062   3.685   4.956   3.987
 5055SOL     OW16063   6.601   3.511   6.660
 5055SOL    HW116064   6.682   3.494   6.603
 5055SOL    HW216065   6.550   3.426   6.672
 5056SOL     OW16066   5.425   4.298   4.678
 5056SOL    HW116067   5.507   4.353   4.697
 5056SOL    HW216068   5.417   4.226   4.746
 5057SOL     OW16069   0.892   5.982   2.283
 5057SOL    HW116070   0.845   5.895   2.267
 5057SOL    HW216071   0.976   5.985   2.228
 5058SOL     OW16072   3.214   5.276   5.396
 5058SOL    HW116073   3.209   5.177   5.412
 5058SOL    HW216074   3.275   5.294   5.319
 5059SOL     OW16075   0.354   0.248   1.824
 5059SOL    HW116076   0.433   0.285   1.873
 5059SOL    HW216077   0.273   0.302   1.845
 5060SOL     OW16078   6.418   1.812   5.557
 5060SOL    HW116079   6.457   1.803   5.465
 5060SOL    HW216080   6.320   1.795   5.553
 5061SOL     OW16081   5.564   4.242   0.113
 5061SOL    HW116082   5.549   4.179   0.189
 5061SOL    HW216083   5.480   4.251   0.060
 5062SOL     OW16084   0.516   0.437   0.784
 5062SOL    HW116085   0.432   0.482   0.813
 5062SOL    HW216086   0.547   0.375   0.856
 5063SOL     OW16087   1.330   6.754   1.269
 5063SOL    HW116088   1.271   6.827   1.305
 5063SOL    HW216089   1.274   6.684   1.225
 5064SOL     OW16090   4.943   3.121   6.858
 5064SOL    HW116091   5.030   3.143   6.814
 5064SOL    HW216092   4.886   3.203   6.861
 5065SOL     OW16093   2.360   5.982   5.356
 5065SOL    HW116094   2.356   5.937   5.267
 5065SOL    HW216095   2.355   6.081   5.344
 5066SOL     OW16096   5.051   4.953   1.208
 5066SOL    HW116097   4.966   4.986   1.167
 5066SOL    HW216098   5.069   5.004   1.292
 5067SOL     OW16099   4.648   0.986   0.043
 5067SOL    HW116100   4.745   0.985   0.018
 5067SOL    HW216101   4.633   0.922   0.118
 5068SOL     OW16102   2.889   5.102   1.523
 5068SOL    HW116103   2.848   5.040   1.456
 5068SOL    HW216104   2.944   5.050   1.588
 5069SOL     OW16105   0.672   5.154   3.327
 5069SOL    HW116106   0.585   5.109   3.345
 5069SOL    HW216107   0.712   5.185   3.413
 5070SOL     OW16108   4.852   3.139   4.487
 5070SOL    HW116109   4.794   3.177   4.415
 5070SOL    HW216110   4.819   3.048   4.512
 5071SOL     OW16111   4.306   1.083   6.497
 5071SOL    HW116112   4.402   1.111   6.496
 5071SOL    HW216113   4.297   0.994   6.451
 5072SOL     OW16114   1.254   4.243   1.085
 5072SOL    HW116115   1.321   4.312   1.058
 5072SOL    HW216116   1.300   4.156   1.102
 5073SOL     OW16117   4.255   2.023   3.690
 5073SOL    HW116118   4.216   1.956   3.627
 5073SOL    HW216119   4.190   2.098   3.703
 5074SOL     OW16120   3.218   4.289   6.082
 5074SOL    HW116121   3.257   4.198   6.098
 5074SOL    HW216122   3.122   4.280   6.057
 5075SOL     OW16123   0.126   5.695   4.558
 5075SOL    HW116124   0.188   5.634   4.509
 5075SOL    HW216125   0.038   5.651   4.571
 5076SOL     OW16126   3.457   0.215   1.514
 5076SOL    HW116127   3.391   0.272   1.465
 5076SOL    HW216128   3.459   0.242   1.610
 5077SOL     OW16129   0.267   2.479   2.474
 5077SOL    HW116130   0.319   2.544   2.418
 5077SOL    HW216131   0.187   2.525   2.512
 5078SOL     OW16132   1.104   1.073   3.865
 5078SOL    HW116133   1.127   1.091   3.769
 5078SOL    HW216134   1.019   1.019   3.869
 5079SOL     OW16135   3.832   4.992   5.346
 5079SOL    HW116136   3.831   4.948   5.255
 5079SOL    HW216137   3.791   5.083   5.339
 5080SOL     OW16138   5.724   6.667   5.749
 5080SOL    HW116139   5.744   6.571   5.767
 5080SOL    HW216140   5.638   6.693   5.792
 5081SOL     OW16141   3.173   3.603   3.452
 5081SOL    HW116142   3.083   3.566   3.475
 5081SOL    HW216143   3.180   3.696   3.487
 5082SOL     OW16144   6.276   6.165   4.701
 5082SOL    HW116145   6.234   6.178   4.791
 5082SOL    HW216146   6.274   6.068   4.678
 5083SOL     OW16147   1.608   6.079   1.754
 5083SOL    HW116148   1.510   6.094   1.738
 5083SOL    HW216149   1.627   6.086   1.851
 5084SOL     OW16150   2.329   5.787   3.257
 5084SOL    HW116151   2.422   5.819   3.241
 5084SOL    HW216152   2.277   5.856   3.307
 5085SOL     OW16153   6.416   3.140   6.040
 5085SOL    HW116154   6.418   3.047   6.005
 5085SOL    HW216155   6.448   3.140   6.135
 5086SOL     OW16156   6.548   5.173   3.393
 5086SOL    HW116157   6.466   5.201   3.443
 5086SOL    HW216158   6.620   5.242   3.404
 5087SOL     OW16159   0.209   5.836   5.324
 5087SOL    HW116160   0.135   5.777   5.357
 5087SOL    HW216161   0.247   5.798   5.240
 5088SOL     OW16162   5.609   0.421   0.141
 5088SOL    HW116163   5.654   0.351   0.086
 5088SOL    HW216164   5.656   0.428   0.230
 5089SOL     OW16165   5.306   3.186   3.230
 5089SOL    HW116166   5.275   3.205   3.323
 5089SOL    HW216167   5.350   3.097   3.226
 5090SOL     OW16168   1.402   4.851   0.900
 5090SOL    HW116169   1.410   4.771   0.840
 5090SOL    HW216170   1.321   4.840   0.958
 5091SOL     OW16171   1.784   5.894   2.448
 5091SOL    HW116172   1.706   5.952   2.471
 5091SOL    HW216173   1.861   5.916   2.508
 5092SOL     OW16174   3.566   2.693   1.830
 5092SOL    HW116175   3.518   2.781   1.828
 5092SOL    HW216176   3.610   2.682   1.919
 5093SOL     OW16177   0.493   2.166   0.936
 5093SOL    HW116178   0.465   2.215   0.853
 5093SOL    HW216179   0.590   2.183   0.953
 5094SOL     OW16180   6.766   0.360   6.519
 5094SOL    HW116181   6.696   0.303   6.562
 5094SOL    HW216182   6.732   0.395   6.432
 5095SOL     OW16183   2.926   0.340   5.410
 5095SOL    HW116184   2.853   0.368   5.472
 5095SOL    HW216185   2.979   0.421   5.382
 5096SOL     OW16186   4.190   5.030   1.990
 5096SOL    HW116187   4.224   5.048   1.897
 5096SOL    HW216188   4.090   5.037   1.990
 5097SOL     OW16189   0.638   0.564   6.323
 5097SOL    HW116190   0.544   0.592   6.340
 5097SOL    HW216191   0.641   0.507   6.241
 5098SOL     OW16192   0.190   2.861   2.208
 5098SOL    HW116193   0.111   2.803   2.188
 5098SOL    HW216194   0.173   2.913   2.292
 5099SOL     OW16195   0.802   6.571   4.308
 5099SOL    HW116196   0.889   6.522   4.297
 5099SOL    HW216197   0.752   6.533   4.386
 5100SOL     OW16198   5.127   6.377   6.344
 5100SOL    HW116199   5.226   6.379   6.329
 5100SOL    HW216200   5.087   6.465   6.317
 5101SOL     OW16201   4.505   6.061   0.561
 5101SOL    HW116202   4.459   6.149   0.557
 5101SOL    HW216203   4.462   5.998   0.496
 5102SOL     OW16204   3.545   6.157   4.878
 5102SOL    HW116205   3.501   6.130   4.963
 5102SOL    HW216206   3.637   6.119   4.874
 5103SOL     OW16207   1.213   0.436   4.573
 5103SOL    HW116208   1.264   0.435   4.486
 5103SOL    HW216209   1.120   0.402   4.557
 5104SOL     OW16210   1.492   6.873   1.088
 5104SOL    HW116211   1.533   6.797   1.037
 5104SOL    HW216212   1.422   6.838   1.150
 5105SOL     OW16213   2.219   3.196   6.409
 5105SOL    HW116214   2.265   3.165   6.492
 5105SOL    HW216215   2.272   3.270   6.368
 5106SOL     OW16216   3.524   0.719   2.286
 5106SOL    HW116217   3.512   0.727   2.385
 5106SOL    HW216218   3.447   0.760   2.239
 5107SOL     OW16219   1.164   0.113   5.912
 5107SOL    HW116220   1.187   0.016   5.901
 5107SOL    HW216221   1.147   0.154   5.823
 5108SOL     OW16222   3.021   3.961   3.828
 5108SOL    HW116223   2.972   4.009   3.755
 5108SOL    HW216224   2.997   3.864   3.825
 5109SOL     OW16225   6.943   1.261   1.053
 5109SOL    HW116226   6.981   1.318   0.981
 5109SOL    HW216227   6.952   1.309   1.141
 5110SOL     OW16228   2.090   5.986   5.440
 5110SOL    HW116229   2.095   6.078   5.402
 5110SOL    HW216230   2.165   5.931   5.405
 5111SOL     OW16231   1.774   1.294   0.181
 5111SOL    HW116232   1.700   1.283   0.114
 5111SOL    HW216233   1.738   1.277   0.273
 5112SOL     OW16234   0.280   6.678   3.691
 5112SOL    HW116235   0.258   6.588   3.653
 5112SOL    HW216236   0.302   6.741   3.617
 5113SOL     OW16237   0.704   6.824   6.576
 5113SOL    HW116238   0.758   6.842   6.658
 5113SOL    HW216239   0.665   6.732   6.582
 5114SOL     OW16240   3.660   4.724   0.117
 5114SOL    HW116241   3.588   4.694   0.053
 5114SOL    HW216242   3.646   4.820   0.141
 5115SOL     OW16243   1.988   3.892   5.447
 5115SOL    HW116244   2.080   3.898   5.409
 5115SOL    HW216245   1.925   3.854   5.378
 5116SOL     OW16246   0.378   3.455   1.301
 5116SOL    HW116247   0.425   3.500   1.377
 5116SOL    HW216248   0.287   3.495   1.289
 5117SOL     OW16249   2.477   4.458   3.965
 5117SOL    HW116250   2.441   4.422   3.879
 5117SOL    HW216251   2.532   4.539   3.947
 5118SOL     OW16252   4.399   6.911   1.485
 5118SOL    HW116253   4.425   6.996   1.440
 5118SOL    HW216254   4.312   6.879   1.448
 5119SOL     OW16255   6.485   7.018   2.727
 5119SOL    HW116256   6.475   0.042   2.816
 5119SOL    HW216257   6.578   6.984   2.716
 5120SOL     OW16258   4.762   1.183   2.840
 5120SOL    HW116259   4.849   1.208   2.883
 5120SOL    HW216260   4.780   1.120   2.764
 5121SOL     OW16261   1.082   3.814   4.747
 5121SOL    HW116262   1.054   3.734   4.800
 5121SOL    HW216263   1.178   3.835   4.767
 5122SOL     OW16264   2.131   5.968   3.376
 5122SOL    HW116265   2.113   6.063   3.350
 5122SOL    HW216266   2.082   5.947   3.460
 5123SOL     OW16267   5.828   4.400   2.078
 5123SOL    HW116268   5.741   4.421   2.034
 5123SOL    HW216269   5.862   4.481   2.125
 5124SOL     OW16270   2.838   5.897   0.346
 5124SOL    HW116271   2.744   5.888   0.313
 5124SOL    HW216272   2.838   5.945   0.434
 5125SOL     OW16273   6.689   2.453   6.153
 5125SOL    HW116274   6.720   2.452   6.058
 5125SOL    HW216275   6.644   2.366   6.175
 5126SOL     OW16276   4.376   2.942   6.521
 5126SOL    HW116277   4.469   2.910   6.538
 5126SOL    HW216278   4.329   2.877   6.461
 5127SOL     OW16279   5.395   3.363   6.775
 5127SOL    HW116280   5.442   3.445   6.745
 5127SOL    HW216281   5.441   3.282   6.738
 5128SOL     OW16282   0.848   6.822   6.789
 5128SOL    HW116283   0.920   6.885   6.759
 5128SOL    HW216284   0.884   6.764   6.862
 5129SOL     OW16285   4.056   2.163   2.172
 5129SOL    HW116286   4.129   2.217   2.129
 5129SOL    HW216287   4.050   2.187   2.269
 5130SOL     OW16288   0.814   6.795   4.903
 5130SOL    HW116289   0.884   6.815   4.972
 5130SOL    HW216290   0.849   6.818   4.812
 5131SOL     OW16291   3.658   4.945   3.240
 5131SOL    HW116292   3.582   4.918   3.181
 5131SOL    HW216293   3.742   4.901   3.210
 5132SOL     OW16294   3.748   1.442   6.506
 5132SOL    HW116295   3.699   1.513   6.455
 5132SOL    HW216296   3.688   1.364   6.521
 5133SOL     OW16297   4.860   4.767   6.837
 5133SOL    HW116298   4.761   4.760   6.827
 5133SOL    HW216299   4.893   4.848   6.790
 5134SOL     OW16300   5.906   5.967   0.539
 5134SOL    HW116301   5.827   5.970   0.601
 5134SOL    HW216302   5.898   5.887   0.479
 5135SOL     OW16303   0.189   2.943   2.517
 5135SOL    HW116304   0.193   3.004   2.596
 5135SOL    HW216305   0.128   2.866   2.537
 5136SOL     OW16306   1.008   1.291   5.967
 5136SOL    HW116307   0.954   1.217   6.007
 5136SOL    HW216308   1.105   1.264   5.964
 5137SOL     OW16309   5.236   0.633   3.760
 5137SOL    HW116310   5.237   0.591   3.670
 5137SOL    HW216311   5.172   0.584   3.819
 5138SOL     OW16312   2.944   3.247   3.218
 5138SOL    HW116313   2.967   3.185   3.293
 5138SOL    HW216314   3.007   3.230   3.142
 5139SOL     OW16315   2.890   0.738   5.780
 5139SOL    HW116316   2.896   0.755   5.681
 5139SOL    HW216317   2.961   0.791   5.827
 5140SOL     OW16318   3.212   3.473   6.392
 5140SOL    HW116319   3.145   3.526   6.442
 5140SOL    HW216320   3.192   3.375   6.402
 5141SOL     OW16321   6.863   2.871   1.387
 5141SOL    HW116322   6.796   2.796   1.387
 5141SOL    HW216323   6.859   2.919   1.474
 5142SOL     OW16324   0.162   0.155   2.055
 5142SOL    HW116325   0.226   0.219   2.096
 5142SOL    HW216326   0.211   0.079   2.013
 5143SOL     OW16327   6.816   6.542   2.706
 5143SOL    HW116328   6.763   6.459   2.723
 5143SOL    HW216329   6.758   6.608   2.658
 5144SOL     OW16330   2.147   2.970   5.211
 5144SOL    HW116331   2.093   3.019   5.142
 5144SOL    HW216332   2.239   2.955   5.175
 5145SOL     OW16333   2.585   5.668   5.887
 5145SOL    HW116334   2.515   5.728   5.925
 5145SOL    HW216335   2.548   5.576   5.875
 5146SOL     OW16336   5.821   6.237   6.859
 5146SOL    HW116337   5.787   6.265   6.950
 5146SOL    HW216338   5.896   6.173   6.870
 5147SOL     OW16339   4.554   2.475   3.267
 5147SOL    HW116340   4.559   2.551   3.201
 5147SOL    HW216341   4.495   2.403   3.230
 5148SOL     OW16342   0.179   0.371   6.371
 5148SOL    HW116343   0.097   0.393   6.319
 5148SOL    HW216344   0.217   0.284   6.338
 5149SOL     OW16345   4.516   5.622   4.169
 5149SOL    HW116346   4.441   5.588   4.112
 5149SOL    HW216347   4.580   5.548   4.188
 5150SOL     OW16348   6.249   6.955   3.270
 5150SOL    HW116349   6.313   6.902   3.215
 5150SOL    HW216350   6.287   6.969   3.361
 5151SOL     OW16351   6.009   6.157   2.181
 5151SOL    HW116352   6.106   6.133   2.171
 5151SOL    HW216353   5.997   6.255   2.164
 5152SOL     OW16354   1.852   1.529   6.769
 5152SOL    HW116355   1.801   1.563   6.848
 5152SOL    HW216356   1.891   1.439   6.790
 5153SOL     OW16357   0.932   2.125   0.636
 5153SOL    HW116358   0.872   2.078   0.700
 5153SOL    HW216359   0.982   2.197   0.685
 5154SOL     OW16360   0.336   3.137   0.942
 5154SOL    HW116361   0.258   3.173   0.995
 5154SOL    HW216362   0.421   3.160   0.990
 5155SOL     OW16363   1.727   1.706   6.972
 5155SOL    HW116364   1.720   1.805   6.984
 5155SOL    HW216365   1.635   1.667   6.965
 5156SOL     OW16366   6.154   6.251   5.296
 5156SOL    HW116367   6.214   6.171   5.287
 5156SOL    HW216368   6.209   6.334   5.289
 5157SOL     OW16369   3.396   0.218   2.027
 5157SOL    HW116370   3.464   0.277   1.984
 5157SOL    HW216371   3.350   0.268   2.100
 5158SOL     OW16372   1.241   1.960   1.999
 5158SOL    HW116373   1.219   1.959   1.901
 5158SOL    HW216374   1.340   1.968   2.011
 5159SOL     OW16375   5.779   3.370   6.084
 5159SOL    HW116376   5.759   3.362   5.986
 5159SOL    HW216377   5.877   3.360   6.100
 5160SOL     OW16378   6.158   6.907   2.862
 5160SOL    HW116379   6.168   6.919   2.763
 5160SOL    HW216380   6.071   6.946   2.892
 5161SOL     OW16381   1.220   3.093   0.756
 5161SOL    HW116382   1.164   3.091   0.673
 5161SOL    HW216383   1.193   3.172   0.812
 5162SOL     OW16384   6.973   6.774   4.321
 5162SOL    HW116385   6.905   6.771   4.395
 5162SOL    HW216386   6.933   6.736   4.238
 5163SOL     OW16387   3.804   0.245   2.449
 5163SOL    HW116388   3.877   0.273   2.512
 5163SOL    HW216389   3.717   0.286   2.478
 5164SOL     OW16390   2.659   3.435   0.220
 5164SOL    HW116391   2.653   3.434   0.319
 5164SOL    HW216392   2.626   3.349   0.183
 5165SOL     OW16393   1.842   4.186   6.208
 5165SOL    HW116394   1.786   4.103   6.199
 5165SOL    HW216395   1.883   4.207   6.119
 5166SOL     OW16396   0.813   4.582   0.512
 5166SOL    HW116397   0.836   4.673   0.477
 5166SOL    HW216398   0.897   4.526   0.517
 5167SOL     OW16399   5.450   3.433   5.612
 5167SOL    HW116400   5.356   3.446   5.581
 5167SOL    HW216401   5.480   3.514   5.663
 5168SOL     OW16402   4.253   2.191   2.847
 5168SOL    HW116403   4.304   2.187   2.762
 5168SOL    HW216404   4.309   2.236   2.917
 5169SOL     OW16405   4.956   5.926   4.665
 5169SOL    HW116406   5.026   5.998   4.668
 5169SOL    HW216407   4.905   5.926   4.752
 5170SOL     OW16408   2.130   3.601   6.394
 5170SOL    HW116409   2.205   3.665   6.408
 5170SOL    HW216410   2.145   3.520   6.451
 5171SOL     OW16411   2.327   5.825   5.720
 5171SOL    HW116412   2.374   5.846   5.806
 5171SOL    HW216413   2.271   5.903   5.693
 5172SOL     OW16414   5.663   5.276   5.271
 5172SOL    HW116415   5.751   5.233   5.292
 5172SOL    HW216416   5.676   5.376   5.267
 5173SOL     OW16417   4.733   5.440   5.516
 5173SOL    HW116418   4.778   5.474   5.599
 5173SOL    HW216419   4.714   5.342   5.526
 5174SOL     OW16420   2.208   6.508   2.948
 5174SOL    HW116421   2.260   6.558   2.878
 5174SOL    HW216422   2.233   6.542   3.039
 5175SOL     OW16423   2.525   2.802   6.940
 5175SOL    HW116424   2.577   2.796   6.856
 5175SOL    HW216425   2.456   2.730   6.943
 5176SOL     OW16426   6.378   5.603   6.538
 5176SOL    HW116427   6.473   5.622   6.562
 5176SOL    HW216428   6.318   5.647   6.605
 5177SOL     OW16429   6.144   6.975   0.760
 5177SOL    HW116430   6.240   6.979   0.734
 5177SOL    HW216431   6.136   6.986   0.859
 5178SOL     OW16432   1.245   4.075   1.468
 5178SOL    HW116433   1.286   3.986   1.487
 5178SOL    HW216434   1.148   4.074   1.490
 5179SOL     OW16435   4.633   6.051   3.019
 5179SOL    HW116436   4.666   6.129   2.964
 5179SOL    HW216437   4.707   5.985   3.030
 5180SOL     OW16438   1.879   4.850   2.730
 5180SOL    HW116439   1.869   4.934   2.783
 5180SOL    HW216440   1.937   4.786   2.779
 5181SOL     OW16441   6.299   0.761   5.669
 5181SOL    HW116442   6.210   0.798   5.641
 5181SOL    HW216443   6.303   0.663   5.650
 5182SOL     OW16444   2.345   6.222   2.844
 5182SOL    HW116445   2.328   6.317   2.868
 5182SOL    HW216446   2.260   6.180   2.811
 5183SOL     OW16447   4.223   2.304   3.828
 5183SOL    HW116448   4.303   2.331   3.775
 5183SOL    HW216449   4.245   2.306   3.926
 5184SOL     OW16450   1.810   1.282   3.246
 5184SOL    HW116451   1.725   1.243   3.211
 5184SOL    HW216452   1.799   1.307   3.342
 5185SOL     OW16453   6.921   0.853   2.377
 5185SOL    HW116454   6.939   0.946   2.407
 5185SOL    HW216455   6.829   0.826   2.405
 5186SOL     OW16456   6.797   3.933   6.905
 5186SOL    HW116457   6.732   3.857   6.902
 5186SOL    HW216458   6.755   4.014   6.863
 5187SOL     OW16459   1.242   4.647   5.074
 5187SOL    HW116460   1.216   4.662   4.979
 5187SOL    HW216461   1.342   4.644   5.082
 5188SOL     OW16462   5.688   0.400   2.390
 5188SOL    HW116463   5.773   0.362   2.353
 5188SOL    HW216464   5.636   0.444   2.317
 5189SOL     OW16465   4.961   6.433   0.001
 5189SOL    HW116466   5.045   6.460   6.974
 5189SOL    HW216467   4.893   6.505   7.012
 5190SOL     OW16468   1.967   4.811   6.900
 5190SOL    HW116469   1.889   4.871   6.917
 5190SOL    HW216470   1.942   4.741   6.833
 5191SOL     OW16471   2.677   4.789   1.990
 5191SOL    HW116472   2.747   4.718   1.991
 5191SOL    HW216473   2.671   4.829   1.898
 5192SOL     OW16474   1.135   4.661   2.369
 5192SOL    HW116475   1.063   4.697   2.427
 5192SOL    HW216476   1.109   4.570   2.335
 5193SOL     OW16477   5.917   1.190   5.544
 5193SOL    HW116478   5.975   1.114   5.518
 5193SOL    HW216479   5.955   1.275   5.507
 5194SOL     OW16480   4.882   1.194   5.789
 5194SOL    HW116481   4.805   1.231   5.737
 5194SOL    HW216482   4.848   1.133   5.860
 5195SOL     OW16483   0.465   0.479   5.120
 5195SOL    HW116484   0.526   0.508   5.046
 5195SOL    HW216485   0.389   0.427   5.082
 5196SOL     OW16486   5.878   6.692   3.676
 5196SOL    HW116487   5.794   6.732   3.638
 5196SOL    HW216488   5.914   6.624   3.612
 5197SOL     OW16489   1.038   2.778   4.819
 5197SOL    HW116490   0.997   2.773   4.911
 5197SOL    HW216491   0.983   2.723   4.756
 5198SOL     OW16492   6.098   5.040   3.301
 5198SOL    HW116493   6.161   4.981   3.251
 5198SOL    HW216494   6.096   5.131   3.260
 5199SOL     OW16495   0.276   4.587   1.091
 5199SOL    HW116496   0.199   4.637   1.050
 5199SOL    HW216497   0.350   4.651   1.110
 5200SOL     OW16498   6.756   3.778   4.842
 5200SOL    HW116499   6.790   3.702   4.787
 5200SOL    HW216500   6.668   3.808   4.806
 5201SOL     OW16501   0.753   5.450   4.357
 5201SOL    HW116502   0.757   5.482   4.262
 5201SOL    HW216503   0.740   5.529   4.418
 5202SOL     OW16504   1.014   4.544   1.313
 5202SOL    HW116505   1.053   4.478   1.377
 5202SOL    HW216506   1.076   4.622   1.305
 5203SOL     OW16507   0.492   2.939   6.994
 5203SOL    HW116508   0.404   2.903   6.963
 5203SOL    HW216509   0.487   2.960   0.072
 5204SOL     OW16510   4.583   4.540   6.679
 5204SOL    HW116511   4.579   4.639   6.688
 5204SOL    HW216512   4.492   4.501   6.695
 5205SOL     OW16513   1.225   0.213   0.732
 5205SOL    HW116514   1.263   0.121   0.728
 5205SOL    HW216515   1.146   0.220   0.670
 5206SOL     OW16516   0.451   4.322   4.785
 5206SOL    HW116517   0.487   4.412   4.762
 5206SOL    HW216518   0.395   4.287   4.710
 5207SOL     OW16519   1.654   4.606   3.678
 5207SOL    HW116520   1.671   4.569   3.586
 5207SOL    HW216521   1.675   4.704   3.679
 5208SOL     OW16522   4.789   0.894   0.446
 5208SOL    HW116523   4.863   0.948   0.406
 5208SOL    HW216524   4.827   0.833   0.516
 5209SOL     OW16525   5.508   5.683   2.648
 5209SOL    HW116526   5.543   5.763   2.696
 5209SOL    HW216527   5.562   5.666   2.565
 5210SOL     OW16528   4.613   4.301   3.183
 5210SOL    HW116529   4.548   4.331   3.253
 5210SOL    HW216530   4.667   4.224   3.219
 5211SOL     OW16531   3.674   3.727   2.322
 5211SOL    HW116532   3.659   3.663   2.398
 5211SOL    HW216533   3.771   3.730   2.300
 5212SOL     OW16534   0.828   0.958   6.887
 5212SOL    HW116535   0.753   0.959   6.953
 5212SOL    HW216536   0.913   0.934   6.933
 5213SOL     OW16537   4.319   2.414   6.738
 5213SOL    HW116538   4.405   2.450   6.702
 5213SOL    HW216539   4.242   2.453   6.687
 5214SOL     OW16540   5.860   1.742   6.773
 5214SOL    HW116541   5.905   1.688   6.702
 5214SOL    HW216542   5.783   1.690   6.811
 5215SOL     OW16543   5.977   5.122   2.475
 5215SOL    HW116544   5.998   5.103   2.571
 5215SOL    HW216545   6.059   5.158   2.430
 5216SOL     OW16546   4.595   5.615   1.620
 5216SOL    HW116547   4.669   5.682   1.625
 5216SOL    HW216548   4.531   5.641   1.548
 5217SOL     OW16549   2.919   5.025   3.627
 5217SOL    HW116550   2.836   4.990   3.672
 5217SOL    HW216551   2.997   5.014   3.689
 5218SOL     OW16552   1.746   6.752   4.644
 5218SOL    HW116553   1.827   6.694   4.647
 5218SOL    HW216554   1.664   6.696   4.647
 5219SOL     OW16555   2.730   5.886   0.920
 5219SOL    HW116556   2.728   5.986   0.919
 5219SOL    HW216557   2.693   5.852   0.833
 5220SOL     OW16558   0.786   6.980   2.295
 5220SOL    HW116559   0.874   0.006   2.309
 5220SOL    HW216560   0.772   6.911   2.367
 5221SOL     OW16561   5.011   1.956   5.063
 5221SOL    HW116562   5.024   1.877   5.122
 5221SOL    HW216563   4.919   1.955   5.025
 5222SOL     OW16564   0.795   6.483   2.544
 5222SOL    HW116565   0.746   6.567   2.568
 5222SOL    HW216566   0.893   6.499   2.554
 5223SOL     OW16567   5.320   7.011   0.666
 5223SOL    HW116568   5.237   6.958   0.682
 5223SOL    HW216569   5.365   6.978   0.582
 5224SOL     OW16570   5.328   1.481   3.191
 5224SOL    HW116571   5.237   1.482   3.232
 5224SOL    HW216572   5.344   1.568   3.143
 5225SOL     OW16573   5.946   6.258   5.451
 5225SOL    HW116574   5.902   6.336   5.406
 5225SOL    HW216575   6.040   6.249   5.419
 5226SOL     OW16576   1.906   6.157   3.763
 5226SOL    HW116577   1.988   6.175   3.818
 5226SOL    HW216578   1.876   6.063   3.776
 5227SOL     OW16579   5.418   3.812   3.409
 5227SOL    HW116580   5.390   3.718   3.393
 5227SOL    HW216581   5.512   3.814   3.443
 5228SOL     OW16582   5.302   0.449   1.076
 5228SOL    HW116583   5.307   0.515   1.151
 5228SOL    HW216584   5.307   0.357   1.113
 5229SOL     OW16585   1.354   4.418   4.334
 5229SOL    HW116586   1.405   4.500   4.360
 5229SOL    HW216587   1.307   4.381   4.415
 5230SOL     OW16588   1.444   6.096   6.597
 5230SOL    HW116589   1.527   6.152   6.589
 5230SOL    HW216590   1.403   6.083   6.507
 5231SOL     OW16591   3.662   2.990   4.038
 5231SOL    HW116592   3.721   2.920   4.076
 5231SOL    HW216593   3.693   3.014   3.946
 5232SOL     OW16594   5.550   2.996   5.417
 5232SOL    HW116595   5.548   3.054   5.335
 5232SOL    HW216596   5.641   2.956   5.427
 5233SOL     OW16597   0.515   0.887   2.652
 5233SOL    HW116598   0.543   0.978   2.683
 5233SOL    HW216599   0.427   0.864   2.692
 5234SOL     OW16600   4.307   6.080   0.982
 5234SOL    HW116601   4.232   6.146   0.969
 5234SOL    HW216602   4.270   5.987   0.976
 5235SOL     OW16603   0.829   3.587   1.282
 5235SOL    HW116604   0.756   3.626   1.225
 5235SOL    HW216605   0.876   3.515   1.231
 5236SOL     OW16606   5.206   3.258   1.093
 5236SOL    HW116607   5.205   3.199   1.013
 5236SOL    HW216608   5.301   3.278   1.118
 5237SOL     OW16609   2.478   1.896   4.513
 5237SOL    HW116610   2.540   1.876   4.589
 5237SOL    HW216611   2.384   1.895   4.546
 5238SOL     OW16612   1.762   4.036   1.256
 5238SOL    HW116613   1.793   4.089   1.177
 5238SOL    HW216614   1.784   4.086   1.340
 5239SOL     OW16615   3.021   3.287   5.309
 5239SOL    HW116616   2.945   3.315   5.369
 5239SOL    HW216617   2.993   3.296   5.214
 5240SOL     OW16618   2.880   1.882   4.978
 5240SOL    HW116619   2.782   1.898   4.983
 5240SOL    HW216620   2.929   1.967   4.993
 5241SOL     OW16621   2.844   5.470   5.671
 5241SOL    HW116622   2.761   5.414   5.668
 5241SOL    HW216623   2.872   5.482   5.766
 5242SOL     OW16624   4.978   0.967   6.371
 5242SOL    HW116625   4.944   1.059   6.353
 5242SOL    HW216626   5.078   0.971   6.382
 5243SOL     OW16627   0.619   3.683   0.413
 5243SOL    HW116628   0.618   3.783   0.415
 5243SOL    HW216629   0.591   3.647   0.502
 5244SOL     OW16630   5.468   3.928   6.872
 5244SOL    HW116631   5.480   4.027   6.865
 5244SOL    HW216632   5.494   3.885   6.786
 5245SOL     OW16633   4.629   4.184   6.502
 5245SOL    HW116634   4.554   4.221   6.557
 5245SOL    HW216635   4.685   4.124   6.558
 5246SOL     OW16636   0.844   3.591   2.865
 5246SOL    HW116637   0.894   3.547   2.790
 5246SOL    HW216638   0.856   3.538   2.949
 5247SOL     OW16639   0.568   5.139   1.206
 5247SOL    HW116640   0.556   5.074   1.131
 5247SOL    HW216641   0.491   5.202   1.207
 5248SOL     OW16642   4.429   0.813   6.550
 5248SOL    HW116643   4.429   0.851   6.642
 5248SOL    HW216644   4.514   0.839   6.503
 5249SOL     OW16645   1.503   5.425   5.116
 5249SOL    HW116646   1.468   5.511   5.154
 5249SOL    HW216647   1.602   5.422   5.127
 5250SOL     OW16648   0.528   1.465   6.347
 5250SOL    HW116649   0.583   1.473   6.431
 5250SOL    HW216650   0.567   1.394   6.289
 5251SOL     OW16651   0.053   2.706   1.330
 5251SOL    HW116652   0.063   2.696   1.231
 5251SOL    HW216653   6.983   2.745   1.351
 5252SOL     OW16654   3.858   6.091   0.481
 5252SOL    HW116655   3.955   6.098   0.502
 5252SOL    HW216656   3.830   5.995   0.483
 5253SOL     OW16657   5.944   2.878   3.686
 5253SOL    HW116658   5.986   2.966   3.710
 5253SOL    HW216659   6.007   2.826   3.629
 5254SOL     OW16660   4.687   1.192   4.021
 5254SOL    HW116661   4.747   1.271   4.008
 5254SOL    HW216662   4.634   1.178   3.937
 5255SOL     OW16663   3.494   6.514   4.485
 5255SOL    HW116664   3.495   6.470   4.575
 5255SOL    HW216665   3.481   6.613   4.495
 5256SOL     OW16666   5.834   6.626   2.896
 5256SOL    HW116667   5.865   6.586   2.982
 5256SOL    HW216668   5.836   6.725   2.903
 5257SOL     OW16669   3.346   1.599   2.014
 5257SOL    HW116670   3.256   1.600   2.055
 5257SOL    HW216671   3.409   1.654   2.068
 5258SOL     OW16672   5.818   2.470   1.964
 5258SOL    HW116673   5.778   2.435   2.048
 5258SOL    HW216674   5.897   2.528   1.985
 5259SOL     OW16675   4.940   4.280   2.371
 5259SOL    HW116676   5.005   4.206   2.353
 5259SOL    HW216677   4.848   4.251   2.344
 5260SOL     OW16678   5.112   3.157   1.332
 5260SOL    HW116679   5.135   3.179   1.237
 5260SOL    HW216680   5.084   3.241   1.379
 5261SOL     OW16681   2.069   2.161   4.472
 5261SOL    HW116682   2.161   2.140   4.504
 5261SOL    HW216683   2.073   2.230   4.400
 5262SOL     OW16684   2.379   0.395   1.697
 5262SOL    HW116685   2.279   0.399   1.686
 5262SOL    HW216686   2.421   0.471   1.648
 5263SOL     OW16687   0.837   6.527   0.572
 5263SOL    HW116688   0.884   6.491   0.653
 5263SOL    HW216689   0.740   6.541   0.593
 5264SOL     OW16690   0.783   2.499   0.634
 5264SOL    HW116691   0.863   2.466   0.683
 5264SOL    HW216692   0.700   2.470   0.683
 5265SOL     OW16693   5.183   4.678   2.371
 5265SOL    HW116694   5.084   4.677   2.384
 5265SOL    HW216695   5.210   4.765   2.329
 5266SOL     OW16696   1.849   6.930   0.972
 5266SOL    HW116697   1.936   6.980   0.967
 5266SOL    HW216698   1.851   6.868   1.050
 5267SOL     OW16699   5.034   4.396   4.865
 5267SOL    HW116700   4.979   4.394   4.782
 5267SOL    HW216701   5.071   4.304   4.882
 5268SOL     OW16702   6.110   4.711   5.154
 5268SOL    HW116703   6.096   4.736   5.058
 5268SOL    HW216704   6.022   4.686   5.195
 5269SOL     OW16705   1.066   5.631   4.346
 5269SOL    HW116706   1.033   5.725   4.358
 5269SOL    HW216707   1.134   5.629   4.272
 5270SOL     OW16708   6.640   3.144   3.062
 5270SOL    HW116709   6.606   3.058   3.023
 5270SOL    HW216710   6.612   3.150   3.158
 5271SOL     OW16711   5.052   4.617   4.989
 5271SOL    HW116712   5.040   4.528   4.944
 5271SOL    HW216713   5.027   4.690   4.925
 5272SOL     OW16714   1.534   1.177   3.988
 5272SOL    HW116715   1.581   1.265   3.981
 5272SOL    HW216716   1.448   1.189   4.037
 5273SOL     OW16717   0.606   0.881   4.808
 5273SOL    HW116718   0.634   0.976   4.793
 5273SOL    HW216719   0.580   0.840   4.721
 5274SOL     OW16720   6.443   5.412   3.873
 5274SOL    HW116721   6.466   5.508   3.886
 5274SOL    HW216722   6.346   5.398   3.894
 5275SOL     OW16723   2.610   6.808   6.716
 5275SOL    HW116724   2.532   6.845   6.766
 5275SOL    HW216725   2.591   6.713   6.691
 5276SOL     OW16726   0.156   0.390   0.867
 5276SOL    HW116727   0.158   0.315   0.801
 5276SOL    HW216728   0.188   0.357   0.956
 5277SOL     OW16729   0.887   1.676   2.594
 5277SOL    HW116730   0.978   1.704   2.565
 5277SOL    HW216731   0.871   1.705   2.689
 5278SOL     OW16732   0.841   4.577   6.495
 5278SOL    HW116733   0.763   4.515   6.489
 5278SOL    HW216734   0.835   4.645   6.423
 5279SOL     OW16735   2.415   5.923   6.364
 5279SOL    HW116736   2.462   5.973   6.292
 5279SOL    HW216737   2.458   5.834   6.377
 5280SOL     OW16738   4.432   6.728   5.153
 5280SOL    HW116739   4.355   6.697   5.098
 5280SOL    HW216740   4.507   6.756   5.093
 5281SOL     OW16741   2.765   0.298   5.196
 5281SOL    HW116742   2.678   0.310   5.243
 5281SOL    HW216743   2.840   0.304   5.262
 5282SOL     OW16744   1.353   6.999   1.631
 5282SOL    HW116745   1.339   0.047   1.558
 5282SOL    HW216746   1.451   6.993   1.651
 5283SOL     OW16747   0.692   0.593   4.144
 5283SOL    HW116748   0.782   0.551   4.131
 5283SOL    HW216749   0.681   0.621   4.239
 5284SOL     OW16750   4.211   2.760   1.432
 5284SOL    HW116751   4.267   2.690   1.388
 5284SOL    HW216752   4.151   2.718   1.501
 5285SOL     OW16753   1.659   1.801   4.263
 5285SOL    HW116754   1.581   1.739   4.266
 5285SOL    HW216755   1.632   1.891   4.296
 5286SOL     OW16756   6.130   3.141   1.244
 5286SOL    HW116757   6.206   3.206   1.249
 5286SOL    HW216758   6.160   3.053   1.282
 5287SOL     OW16759   2.194   5.094   1.354
 5287SOL    HW116760   2.261   5.081   1.426
 5287SOL    HW216761   2.160   5.005   1.322
 5288SOL     OW16762   3.855   0.487   1.458
 5288SOL    HW116763   3.864   0.472   1.359
 5288SOL    HW216764   3.773   0.442   1.491
 5289SOL     OW16765   2.254   4.771   6.136
 5289SOL    HW116766   2.290   4.686   6.097
 5289SOL    HW216767   2.171   4.797   6.087
 5290SOL     OW16768   1.424   3.197   4.733
 5290SOL    HW116769   1.466   3.170   4.819
 5290SOL    HW216770   1.343   3.140   4.716
 5291SOL     OW16771   2.836   4.762   4.465
 5291SOL    HW116772   2.806   4.705   4.541
 5291SOL    HW216773   2.780   4.742   4.385
 5292SOL     OW16774   0.196   3.935   5.900
 5292SOL    HW116775   0.289   3.955   5.868
 5292SOL    HW216776   0.152   4.019   5.930
 5293SOL     OW16777   2.203   6.301   4.186
 5293SOL    HW116778   2.291   6.256   4.205
 5293SOL    HW216779   2.135   6.269   4.252
 5294SOL     OW16780   4.196   0.358   5.465
 5294SOL    HW116781   4.104   0.390   5.443
 5294SOL    HW216782   4.196   0.258   5.472
 5295SOL     OW16783   2.942   1.739   2.561
 5295SOL    HW116784   2.969   1.653   2.519
 5295SOL    HW216785   2.920   1.805   2.489
 5296SOL     OW16786   4.787   4.860   1.733
 5296SOL    HW116787   4.728   4.935   1.702
 5296SOL    HW216788   4.763   4.835   1.826
 5297SOL     OW16789   3.018   5.207   0.449
 5297SOL    HW116790   2.945   5.217   0.516
 5297SOL    HW216791   3.089   5.147   0.486
 5298SOL     OW16792   1.938   0.496   0.076
 5298SOL    HW116793   1.860   0.508   0.015
 5298SOL    HW216794   1.918   0.539   0.164
 5299SOL     OW16795   3.056   1.342   1.438
 5299SOL    HW116796   3.029   1.249   1.412
 5299SOL    HW216797   2.975   1.400   1.444
 5300SOL     OW16798   2.228   4.738   6.879
 5300SOL    HW116799   2.130   4.760   6.886
 5300SOL    HW216800   2.243   4.679   6.800
 5301SOL     OW16801   5.202   0.198   6.027
 5301SOL    HW116802   5.175   0.209   5.931
 5301SOL    HW216803   5.126   0.222   6.087
 5302SOL     OW16804   5.688   6.365   3.225
 5302SOL    HW116805   5.626   6.404   3.292
 5302SOL    HW216806   5.684   6.265   3.229
 5303SOL     OW16807   0.614   5.208   5.841
 5303SOL    HW116808   0.558   5.125   5.844
 5303SOL    HW216809   0.558   5.285   5.809
 5304SOL     OW16810   6.945   0.827   2.096
 5304SOL    HW116811   0.009   0.875   2.121
 5304SOL    HW216812   6.892   0.807   2.179
 5305SOL     OW16813   1.291   5.129   3.236
 5305SOL    HW116814   1.282   5.142   3.138
 5305SOL    HW216815   1.230   5.192   3.284
 5306SOL     OW16816   0.222   3.196   6.098
 5306SOL    HW116817   0.316   3.229   6.107
 5306SOL    HW216818   0.163   3.271   6.066
 5307SOL     OW16819   6.319   1.547   1.687
 5307SOL    HW116820   6.224   1.562   1.715
 5307SOL    HW216821   6.339   1.449   1.692
 5308SOL     OW16822   1.556   4.019   3.179
 5308SOL    HW116823   1.518   3.944   3.234
 5308SOL    HW216824   1.482   4.075   3.143
 5309SOL     OW16825   6.231   6.105   2.604
 5309SOL    HW116826   6.327   6.089   2.583
 5309SOL    HW216827   6.192   6.167   2.535
 5310SOL     OW16828   5.451   2.905   2.401
 5310SOL    HW116829   5.550   2.911   2.412
 5310SOL    HW216830   5.412   2.854   2.477
 5311SOL     OW16831   5.899   0.152   0.433
 5311SOL    HW116832   5.853   0.197   0.509
 5311SOL    HW216833   5.985   0.111   0.465
 5312SOL     OW16834   0.005   6.451   0.584
 5312SOL    HW116835   0.020   6.472   0.681
 5312SOL    HW216836   6.928   6.429   0.570
 5313SOL     OW16837   0.762   5.442   5.254
 5313SOL    HW116838   0.855   5.468   5.227
 5313SOL    HW216839   0.764   5.402   5.345
 5314SOL     OW16840   6.257   0.861   1.948
 5314SOL    HW116841   6.222   0.788   1.890
 5314SOL    HW216842   6.348   0.890   1.916
 5315SOL     OW16843   4.333   0.914   4.543
 5315SOL    HW116844   4.385   0.939   4.461
 5315SOL    HW216845   4.387   0.933   4.625
 5316SOL     OW16846   0.527   2.083   4.579
 5316SOL    HW116847   0.612   2.121   4.543
 5316SOL    HW216848   0.462   2.157   4.596
 5317SOL     OW16849   6.513   2.286   6.510
 5317SOL    HW116850   6.506   2.277   6.410
 5317SOL    HW216851   6.425   2.265   6.552
 5318SOL     OW16852   6.931   3.853   6.667
 5318SOL    HW116853   6.896   3.857   6.761
 5318SOL    HW216854   6.960   3.760   6.646
 5319SOL     OW16855   4.517   6.785   1.024
 5319SOL    HW116856   4.443   6.760   0.962
 5319SOL    HW216857   4.516   6.727   1.105
 5320SOL     OW16858   2.959   5.776   1.086
 5320SOL    HW116859   2.865   5.778   1.051
 5320SOL    HW216860   3.000   5.687   1.068
 5321SOL     OW16861   1.702   4.299   4.907
 5321SOL    HW116862   1.792   4.279   4.868
 5321SOL    HW216863   1.707   4.291   5.006
 5322SOL     OW16864   5.664   6.608   2.143
 5322SOL    HW116865   5.568   6.582   2.155
 5322SOL    HW216866   5.670   6.694   2.093
 5323SOL     OW16867   3.982   1.158   5.550
 5323SOL    HW116868   3.955   1.110   5.633
 5323SOL    HW216869   3.964   1.100   5.471
 5324SOL     OW16870   2.138   1.545   0.252
 5324SOL    HW116871   2.238   1.545   0.255
 5324SOL    HW216872   2.103   1.457   0.285
 5325SOL     OW16873   2.282   1.916   4.731
 5325SOL    HW116874   2.333   1.946   4.812
 5325SOL    HW216875   2.187   1.946   4.740
 5326SOL     OW16876   6.261   6.716   2.400
 5326SOL    HW116877   6.165   6.728   2.375
 5326SOL    HW216878   6.292   6.626   2.370
 5327SOL     OW16879   6.080   2.395   5.049
 5327SOL    HW116880   6.094   2.307   5.095
 5327SOL    HW216881   6.043   2.461   5.115
 5328SOL     OW16882   4.132   4.634   0.075
 5328SOL    HW116883   4.197   4.662   0.146
 5328SOL    HW216884   4.042   4.621   0.116
 5329SOL     OW16885   1.613   6.460   6.442
 5329SOL    HW116886   1.520   6.481   6.413
 5329SOL    HW216887   1.667   6.433   6.362
 5330SOL     OW16888   2.417   3.590   0.563
 5330SOL    HW116889   2.333   3.574   0.510
 5330SOL    HW216890   2.426   3.687   0.584
 5331SOL     OW16891   6.306   0.664   6.385
 5331SOL    HW116892   6.261   0.640   6.299
 5331SOL    HW216893   6.323   0.763   6.387
 5332SOL     OW16894   1.078   5.085   2.274
 5332SOL    HW116895   1.108   4.990   2.279
 5332SOL    HW216896   1.132   5.135   2.206
 5333SOL     OW16897   0.787   5.999   4.250
 5333SOL    HW116898   0.800   6.081   4.194
 5333SOL    HW216899   0.778   5.919   4.191
 5334SOL     OW16900   2.848   0.297   4.162
 5334SOL    HW116901   2.768   0.348   4.194
 5334SOL    HW216902   2.904   0.356   4.105
 5335SOL     OW16903   6.586   5.834   0.565
 5335SOL    HW116904   6.637   5.884   0.635
 5335SOL    HW216905   6.531   5.763   0.608
 5336SOL     OW16906   1.682   3.831   2.181
 5336SOL    HW116907   1.613   3.831   2.108
 5336SOL    HW216908   1.687   3.922   2.222
 5337SOL     OW16909   4.697   4.467   1.411
 5337SOL    HW116910   4.677   4.536   1.481
 5337SOL    HW216911   4.753   4.394   1.452
 5338SOL     OW16912   6.509   2.261   6.237
 5338SOL    HW116913   6.478   2.168   6.219
 5338SOL    HW216914   6.445   2.326   6.195
 5339SOL     OW16915   6.650   1.830   3.418
 5339SOL    HW116916   6.597   1.747   3.403
 5339SOL    HW216917   6.636   1.863   3.512
 5340SOL     OW16918   5.249   2.186   6.429
 5340SOL    HW116919   5.199   2.270   6.408
 5340SOL    HW216920   5.184   2.110   6.438
 5341SOL     OW16921   4.356   0.398   0.223
 5341SOL    HW116922   4.294   0.330   0.185
 5341SOL    HW216923   4.330   0.489   0.190
 5342SOL     OW16924   3.434   0.759   5.689
 5342SOL    HW116925   3.441   0.765   5.589
 5342SOL    HW216926   3.494   0.686   5.722
 5343SOL     OW16927   3.945   3.823   2.289
 5343SOL    HW116928   3.915   3.911   2.327
 5343SOL    HW216929   3.999   3.775   2.358
 5344SOL     OW16930   2.333   2.158   3.097
 5344SOL    HW116931   2.245   2.196   3.070
 5344SOL    HW216932   2.406   2.204   3.047
 5345SOL     OW16933   4.470   6.971   1.771
 5345SOL    HW116934   4.515   0.040   1.755
 5345SOL    HW216935   4.451   6.926   1.684
 5346SOL     OW16936   2.752   6.330   2.575
 5346SOL    HW116937   2.698   6.276   2.640
 5346SOL    HW216938   2.847   6.301   2.579
 5347SOL     OW16939   0.445   1.938   1.060
 5347SOL    HW116940   0.382   1.869   1.024
 5347SOL    HW216941   0.460   2.008   0.991
 5348SOL     OW16942   0.572   0.855   6.550
 5348SOL    HW116943   0.578   0.765   6.592
 5348SOL    HW216944   0.561   0.845   6.451
 5349SOL     OW16945   6.299   0.779   1.610
 5349SOL    HW116946   6.224   0.840   1.635
 5349SOL    HW216947   6.323   0.793   1.514
 5350SOL     OW16948   2.485   1.663   6.091
 5350SOL    HW116949   2.503   1.661   6.190
 5350SOL    HW216950   2.436   1.747   6.068
 5351SOL     OW16951   4.260   6.995   1.998
 5351SOL    HW116952   4.274   0.074   1.999
 5351SOL    HW216953   4.319   6.954   1.927
 5352SOL     OW16954   3.199   5.281   3.858
 5352SOL    HW116955   3.189   5.381   3.862
 5352SOL    HW216956   3.108   5.239   3.851
 5353SOL     OW16957   5.839   5.999   5.188
 5353SOL    HW116958   5.917   6.056   5.215
 5353SOL    HW216959   5.839   5.989   5.089
 5354SOL     OW16960   0.831   4.132   1.446
 5354SOL    HW116961   0.789   4.191   1.378
 5354SOL    HW216962   0.861   4.187   1.524
 5355SOL     OW16963   4.921   2.291   4.881
 5355SOL    HW116964   4.843   2.257   4.933
 5355SOL    HW216965   4.928   2.390   4.894
 5356SOL     OW16966   6.400   3.763   1.262
 5356SOL    HW116967   6.440   3.721   1.344
 5356SOL    HW216968   6.440   3.720   1.181
 5357SOL     OW16969   3.881   0.152   0.142
 5357SOL    HW116970   3.800   0.200   0.175
 5357SOL    HW216971   3.867   0.125   0.046
 5358SOL     OW16972   4.550   3.059   0.676
 5358SOL    HW116973   4.609   2.983   0.648
 5358SOL    HW216974   4.561   3.075   0.774
 5359SOL     OW16975   1.949   0.763   6.719
 5359SOL    HW116976   1.912   0.821   6.791
 5359SOL    HW216977   2.030   0.715   6.753
 5360SOL     OW16978   3.528   6.933   6.825
 5360SOL    HW116979   3.607   6.926   6.886
 5360SOL    HW216980   3.446   6.901   6.873
 5361SOL     OW16981   2.123   0.813   5.904
 5361SOL    HW116982   2.146   0.716   5.902
 5361SOL    HW216983   2.045   0.830   5.844
 5362SOL     OW16984   5.002   5.282   2.617
 5362SOL    HW116985   4.948   5.336   2.552
 5362SOL    HW216986   4.944   5.253   2.693
 5363SOL     OW16987   0.936   5.517   6.057
 5363SOL    HW116988   0.854   5.571   6.038
 5363SOL    HW216989   0.917   5.420   6.042
 5364SOL     OW16990   0.957   6.435   0.850
 5364SOL    HW116991   1.047   6.469   0.876
 5364SOL    HW216992   0.918   6.382   0.925
 5365SOL     OW16993   4.269   1.972   5.965
 5365SOL    HW116994   4.326   1.896   5.997
 5365SOL    HW216995   4.227   1.948   5.877
 5366SOL     OW16996   3.808   3.265   0.141
 5366SOL    HW116997   3.807   3.235   0.046
 5366SOL    HW216998   3.756   3.350   0.150
 5367SOL     OW16999   0.171   5.007   1.026
 5367SOL    HW117000   0.178   5.065   1.107
 5367SOL    HW217001   0.247   5.028   0.964
 5368SOL     OW17002   6.343   1.870   3.868
 5368SOL    HW117003   6.429   1.918   3.849
 5368SOL    HW217004   6.319   1.883   3.964
 5369SOL     OW17005   1.819   3.984   3.269
 5369SOL    HW117006   1.721   3.985   3.248
 5369SOL    HW217007   1.871   4.008   3.187
 5370SOL     OW17008   3.853   3.142   1.143
 5370SOL    HW117009   3.915   3.074   1.182
 5370SOL    HW217010   3.770   3.097   1.111
 5371SOL     OW17011   0.686   4.255   4.932
 5371SOL    HW117012   0.605   4.290   4.884
 5371SOL    HW217013   0.753   4.222   4.865
 5372SOL     OW17014   2.645   5.290   2.474
 5372SOL    HW117015   2.565   5.324   2.523
 5372SOL    HW217016   2.705   5.242   2.538
 5373SOL     OW17017   2.976   4.804   3.406
 5373SOL    HW117018   2.899   4.803   3.470
 5373SOL    HW217019   3.058   4.836   3.453
 5374SOL     OW17020   2.987   2.264   0.332
 5374SOL    HW117021   2.895   2.272   0.294
 5374SOL    HW217022   2.983   2.216   0.420
 5375SOL     OW17023   1.404   4.811   3.832
 5375SOL    HW117024   1.484   4.786   3.778
 5375SOL    HW217025   1.422   4.794   3.929
 5376SOL     OW17026   1.457   3.283   1.014
 5376SOL    HW117027   1.432   3.303   0.919
 5376SOL    HW217028   1.529   3.345   1.044
 5377SOL     OW17029   0.317   1.127   0.703
 5377SOL    HW117030   0.335   1.052   0.767
 5377SOL    HW217031   0.368   1.208   0.732
 5378SOL     OW17032   5.213   0.389   0.396
 5378SOL    HW117033   5.302   0.345   0.407
 5378SOL    HW217034   5.167   0.354   0.315
 5379SOL     OW17035   0.342   6.056   2.044
 5379SOL    HW117036   0.344   5.956   2.050
 5379SOL    HW217037   0.364   6.095   2.134
 5380SOL     OW17038   2.986   0.471   3.973
 5380SOL    HW117039   3.066   0.529   3.962
 5380SOL    HW217040   3.007   0.379   3.940
 5381SOL     OW17041   5.680   4.280   1.231
 5381SOL    HW117042   5.681   4.181   1.220
 5381SOL    HW217043   5.734   4.323   1.159
 5382SOL     OW17044   1.731   0.385   1.407
 5382SOL    HW117045   1.805   0.376   1.341
 5382SOL    HW217046   1.644   0.396   1.358
 5383SOL     OW17047   2.346   1.980   4.987
 5383SOL    HW117048   2.381   2.074   4.980
 5383SOL    HW217049   2.268   1.978   5.049
 5384SOL     OW17050   5.753   6.513   4.016
 5384SOL    HW117051   5.692   6.470   3.950
 5384SOL    HW217052   5.765   6.453   4.095
 5385SOL     OW17053   3.515   3.984   2.421
 5385SOL    HW117054   3.511   3.885   2.409
 5385SOL    HW217055   3.507   4.006   2.518
 5386SOL     OW17056   5.559   6.135   4.648
 5386SOL    HW117057   5.509   6.111   4.565
 5386SOL    HW217058   5.608   6.221   4.634
 5387SOL     OW17059   2.944   5.434   1.682
 5387SOL    HW117060   2.880   5.489   1.736
 5387SOL    HW217061   2.923   5.337   1.694
 5388SOL     OW17062   5.581   0.337   2.628
 5388SOL    HW117063   5.621   0.363   2.540
 5388SOL    HW217064   5.596   0.240   2.645
 5389SOL     OW17065   4.775   2.289   0.792
 5389SOL    HW117066   4.765   2.385   0.766
 5389SOL    HW217067   4.762   2.279   0.890
 5390SOL     OW17068   6.078   4.828   5.779
 5390SOL    HW117069   6.173   4.812   5.806
 5390SOL    HW217070   6.029   4.741   5.773
 5391SOL     OW17071   2.330   2.991   6.954
 5391SOL    HW117072   2.414   2.970   7.005
 5391SOL    HW217073   2.339   2.958   6.860
 5392SOL     OW17074   6.635   3.078   2.281
 5392SOL    HW117075   6.708   3.073   2.350
 5392SOL    HW217076   6.641   3.165   2.232
 5393SOL     OW17077   6.919   0.068   6.788
 5393SOL    HW117078   6.862   7.006   6.797
 5393SOL    HW217079   7.015   0.043   6.799
 5394SOL     OW17080   0.912   3.974   5.785
 5394SOL    HW117081   0.951   3.965   5.876
 5394SOL    HW217082   0.887   4.069   5.768
 5395SOL     OW17083   4.035   1.776   0.227
 5395SOL    HW117084   4.110   1.828   0.265
 5395SOL    HW217085   4.041   1.681   0.257
 5396SOL     OW17086   4.916   3.448   2.156
 5396SOL    HW117087   4.977   3.409   2.087
 5396SOL    HW217088   4.850   3.378   2.184
 5397SOL     OW17089   0.320   3.545   1.581
 5397SOL    HW117090   0.392   3.504   1.637
 5397SOL    HW217091   0.234   3.545   1.632
 5398SOL     OW17092   2.920   2.457   1.620
 5398SOL    HW117093   2.990   2.387   1.606
 5398SOL    HW217094   2.909   2.475   1.718
 5399SOL     OW17095   1.751   5.842   1.253
 5399SOL    HW117096   1.753   5.834   1.353
 5399SOL    HW217097   1.728   5.936   1.228
 5400SOL     OW17098   2.900   4.370   0.552
 5400SOL    HW117099   2.972   4.315   0.594
 5400SOL    HW217100   2.848   4.313   0.487
 5401SOL     OW17101   6.177   3.000   1.576
 5401SOL    HW117102   6.184   3.098   1.558
 5401SOL    HW217103   6.083   2.976   1.600
 5402SOL     OW17104   1.194   6.372   1.735
 5402SOL    HW117105   1.100   6.402   1.751
 5402SOL    HW217106   1.257   6.427   1.791
 5403SOL     OW17107   0.341   2.817   6.401
 5403SOL    HW117108   0.265   2.762   6.434
 5403SOL    HW217109   0.366   2.885   6.470
 5404SOL     OW17110   1.918   2.696   3.512
 5404SOL    HW117111   1.995   2.687   3.575
 5404SOL    HW217112   1.944   2.754   3.435
 5405SOL     OW17113   6.586   5.019   6.156
 5405SOL    HW117114   6.598   4.920   6.146
 5405SOL    HW217115   6.490   5.043   6.142
 5406SOL     OW17116   2.131   0.605   5.677
 5406SOL    HW117117   2.070   0.638   5.605
 5406SOL    HW217118   2.225   0.630   5.655
 5407SOL     OW17119   4.158   3.430   6.657
 5407SOL    HW117120   4.227   3.367   6.693
 5407SOL    HW217121   4.071   3.382   6.647
 5408SOL     OW17122   2.898   0.520   6.639
 5408SOL    HW117123   2.982   0.563   6.606
 5408SOL    HW217124   2.893   0.426   6.605
 5409SOL     OW17125   3.719   0.780   2.787
 5409SOL    HW117126   3.675   0.830   2.713
 5409SOL    HW217127   3.817   0.799   2.786
 5410SOL     OW17128   2.504   2.110   2.271
 5410SOL    HW117129   2.552   2.138   2.354
 5410SOL    HW217130   2.556   2.138   2.191
 5411SOL     OW17131   0.536   5.552   5.103
 5411SOL    HW117132   0.590   5.511   5.176
 5411SOL    HW217133   0.583   5.540   5.016
 5412SOL     OW17134   6.461   2.834   0.949
 5412SOL    HW117135   6.528   2.761   0.938
 5412SOL    HW217136   6.508   2.921   0.962
 5413SOL     OW17137   2.081   0.916   1.450
 5413SOL    HW117138   2.028   0.834   1.430
 5413SOL    HW217139   2.117   0.954   1.366
 5414SOL     OW17140   3.773   1.241   5.139
 5414SOL    HW117141   3.797   1.267   5.232
 5414SOL    HW217142   3.769   1.141   5.133
 5415SOL     OW17143   6.253   4.867   2.035
 5415SOL    HW117144   6.319   4.825   1.972
 5415SOL    HW217145   6.286   4.957   2.062
 5416SOL     OW17146   4.708   5.535   4.812
 5416SOL    HW117147   4.753   5.583   4.887
 5416SOL    HW217148   4.649   5.463   4.850
 5417SOL     OW17149   3.442   6.793   4.552
 5417SOL    HW117150   3.446   6.829   4.645
 5417SOL    HW217151   3.355   6.818   4.510
 5418SOL     OW17152   3.563   0.363   2.949
 5418SOL    HW117153   3.656   0.381   2.979
 5418SOL    HW217154   3.510   0.448   2.952
 5419SOL     OW17155   3.305   4.295   6.799
 5419SOL    HW117156   3.297   4.197   6.778
 5419SOL    HW217157   3.256   4.347   6.730
 5420SOL     OW17158   1.226   1.492   2.522
 5420SOL    HW117159   1.182   1.581   2.508
 5420SOL    HW217160   1.305   1.484   2.461
 5421SOL     OW17161   1.702   3.615   1.873
 5421SOL    HW117162   1.698   3.520   1.842
 5421SOL    HW217163   1.792   3.633   1.914
 5422SOL     OW17164   2.431   3.192   1.242
 5422SOL    HW117165   2.390   3.278   1.210
 5422SOL    HW217166   2.398   3.117   1.185
 5423SOL     OW17167   5.822   3.541   0.055
 5423SOL    HW117168   5.730   3.577   0.036
 5423SOL    HW217169   5.816   3.472   0.127
 5424SOL     OW17170   5.173   4.036   4.583
 5424SOL    HW117171   5.205   4.102   4.515
 5424SOL    HW217172   5.119   4.084   4.653
 5425SOL     OW17173   4.953   0.656   5.312
 5425SOL    HW117174   4.937   0.694   5.403
 5425SOL    HW217175   4.866   0.629   5.270
 5426SOL     OW17176   6.065   0.051   5.003
 5426SOL    HW117177   6.040   0.131   4.948
 5426SOL    HW217178   5.998   0.040   5.078
 5427SOL     OW17179   3.850   5.563   6.714
 5427SOL    HW117180   3.931   5.597   6.762
 5427SOL    HW217181   3.872   5.547   6.618
 5428SOL     OW17182   1.562   0.264   6.867
 5428SOL    HW117183   1.525   0.305   6.783
 5428SOL    HW217184   1.489   0.254   6.934
 5429SOL     OW17185   1.019   2.472   6.569
 5429SOL    HW117186   0.997   2.375   6.563
 5429SOL    HW217187   0.944   2.521   6.614
 5430SOL     OW17188   2.042   2.736   5.583
 5430SOL    HW117189   2.124   2.688   5.614
 5430SOL    HW217190   1.966   2.670   5.574
 5431SOL     OW17191   3.821   6.043   4.825
 5431SOL    HW117192   3.908   6.042   4.874
 5431SOL    HW217193   3.813   6.126   4.771
 5432SOL     OW17194   5.275   6.739   1.289
 5432SOL    HW117195   5.243   6.816   1.344
 5432SOL    HW217196   5.371   6.753   1.265
 5433SOL     OW17197   0.534   1.892   5.024
 5433SOL    HW117198   0.505   1.883   4.929
 5433SOL    HW217199   0.630   1.867   5.033
 5434SOL     OW17200   2.787   0.477   5.788
 5434SOL    HW117201   2.811   0.573   5.804
 5434SOL    HW217202   2.756   0.465   5.694
 5435SOL     OW17203   4.476   0.340   1.702
 5435SOL    HW117204   4.477   0.392   1.787
 5435SOL    HW217205   4.558   0.283   1.696
 5436SOL     OW17206   4.841   4.139   2.813
 5436SOL    HW117207   4.782   4.136   2.732
 5436SOL    HW217208   4.807   4.208   2.876
 5437SOL     OW17209   2.979   3.314   0.108
 5437SOL    HW117210   2.902   3.305   0.045
 5437SOL    HW217211   3.027   3.226   0.113
 5438SOL     OW17212   6.308   2.271   0.881
 5438SOL    HW117213   6.346   2.249   0.791
 5438SOL    HW217214   6.292   2.187   0.933
 5439SOL     OW17215   1.101   2.111   1.433
 5439SOL    HW117216   1.128   2.192   1.485
 5439SOL    HW217217   1.171   2.040   1.442
 5440SOL     OW17218   0.918   1.639   0.975
 5440SOL    HW117219   0.938   1.561   1.034
 5440SOL    HW217220   0.843   1.692   1.014
 5441SOL     OW17221   3.770   2.092   3.267
 5441SOL    HW117222   3.762   2.148   3.349
 5441SOL    HW217223   3.727   2.003   3.283
 5442SOL     OW17224   4.027   0.393   2.534
 5442SOL    HW117225   3.971   0.406   2.616
 5442SOL    HW217226   4.123   0.384   2.560
 5443SOL     OW17227   3.326   6.865   5.241
 5443SOL    HW117228   3.264   6.843   5.166
 5443SOL    HW217229   3.280   6.925   5.306
 5444SOL     OW17230   6.832   6.955   3.315
 5444SOL    HW117231   6.835   0.028   3.278
 5444SOL    HW217232   6.738   6.924   3.322
 5445SOL     OW17233   5.795   3.775   2.198
 5445SOL    HW117234   5.847   3.690   2.203
 5445SOL    HW217235   5.854   3.852   2.223
 5446SOL     OW17236   6.271   5.323   6.006
 5446SOL    HW117237   6.187   5.374   6.023
 5446SOL    HW217238   6.263   5.275   5.918
 5447SOL     OW17239   3.844   2.469   0.022
 5447SOL    HW117240   3.929   2.503   0.063
 5447SOL    HW217241   3.774   2.461   0.093
 5448SOL     OW17242   5.589   2.497   5.408
 5448SOL    HW117243   5.597   2.408   5.363
 5448SOL    HW217244   5.631   2.491   5.499
 5449SOL     OW17245   0.824   3.446   6.463
 5449SOL    HW117246   0.869   3.366   6.422
 5449SOL    HW217247   0.748   3.416   6.520
 5450SOL     OW17248   2.002   0.269   0.937
 5450SOL    HW117249   2.043   0.281   1.028
 5450SOL    HW217250   1.903   0.278   0.943
 5451SOL     OW17251   0.793   6.688   2.967
 5451SOL    HW117252   0.861   6.620   2.940
 5451SOL    HW217253   0.837   6.775   2.983
 5452SOL     OW17254   2.446   4.004   6.545
 5452SOL    HW117255   2.495   4.086   6.515
 5452SOL    HW217256   2.378   4.028   6.614
 5453SOL     OW17257   6.030   5.025   6.803
 5453SOL    HW117258   6.060   4.970   6.725
 5453SOL    HW217259   6.041   5.122   6.782
 5454SOL     OW17260   0.005   4.521   6.916
 5454SOL    HW117261   0.037   4.507   7.009
 5454SOL    HW217262   0.009   4.435   6.866
 5455SOL     OW17263   6.476   3.556   0.800
 5455SOL    HW117264   6.542   3.502   0.748
 5455SOL    HW217265   6.521   3.638   0.836
 5456SOL     OW17266   3.275   6.624   0.469
 5456SOL    HW117267   3.308   6.535   0.440
 5456SOL    HW217268   3.196   6.613   0.529
 5457SOL     OW17269   6.242   3.154   0.883
 5457SOL    HW117270   6.179   3.127   0.809
 5457SOL    HW217271   6.194   3.149   0.970
 5458SOL     OW17272   2.020   4.339   6.784
 5458SOL    HW117273   2.099   4.311   6.728
 5458SOL    HW217274   1.941   4.282   6.761
 5459SOL     OW17275   1.678   4.502   6.584
 5459SOL    HW117276   1.623   4.458   6.513
 5459SOL    HW217277   1.618   4.547   6.650
 5460SOL     OW17278   2.800   0.392   1.358
 5460SOL    HW117279   2.848   0.430   1.279
 5460SOL    HW217280   2.704   0.377   1.335
 5461SOL     OW17281   4.650   0.023   5.089
 5461SOL    HW117282   4.715   0.070   5.029
 5461SOL    HW217283   4.609   6.966   5.039
 5462SOL     OW17284   0.991   0.553   0.589
 5462SOL    HW117285   0.963   0.459   0.567
 5462SOL    HW217286   1.089   0.564   0.570
 5463SOL     OW17287   6.762   2.904   0.818
 5463SOL    HW117288   6.850   2.865   0.842
 5463SOL    HW217289   6.748   2.990   0.867
 5464SOL     OW17290   1.954   0.043   4.490
 5464SOL    HW117291   1.961   0.109   4.565
 5464SOL    HW217292   2.013   0.071   4.415
 5465SOL     OW17293   2.569   0.252   5.392
 5465SOL    HW117294   2.606   0.190   5.462
 5465SOL    HW217295   2.469   0.246   5.392
 5466SOL     OW17296   4.568   4.641   4.613
 5466SOL    HW117297   4.559   4.584   4.694
 5466SOL    HW217298   4.498   4.615   4.546
 5467SOL     OW17299   5.325   1.369   2.431
 5467SOL    HW117300   5.397   1.326   2.486
 5467SOL    HW217301   5.239   1.369   2.483
 5468SOL     OW17302   4.208   1.749   5.019
 5468SOL    HW117303   4.199   1.716   4.926
 5468SOL    HW217304   4.222   1.671   5.081
 5469SOL     OW17305   4.358   4.189   6.592
 5469SOL    HW117306   4.328   4.169   6.499
 5469SOL    HW217307   4.311   4.128   6.656
 5470SOL     OW17308   1.724   5.141   3.824
 5470SOL    HW117309   1.757   5.190   3.743
 5470SOL    HW217310   1.783   5.163   3.902
 5471SOL     OW17311   6.586   5.532   1.853
 5471SOL    HW117312   6.601   5.473   1.933
 5471SOL    HW217313   6.661   5.520   1.788
 5472SOL     OW17314   3.879   5.065   5.726
 5472SOL    HW117315   3.815   5.002   5.683
 5472SOL    HW217316   3.972   5.035   5.709
 5473SOL     OW17317   1.225   3.649   3.381
 5473SOL    HW117318   1.250   3.558   3.350
 5473SOL    HW217319   1.253   3.661   3.476
 5474SOL     OW17320   1.479   5.647   3.672
 5474SOL    HW117321   1.431   5.605   3.749
 5474SOL    HW217322   1.414   5.695   3.614
 5475SOL     OW17323   2.826   2.127   1.195
 5475SOL    HW117324   2.831   2.226   1.180
 5475SOL    HW217325   2.892   2.081   1.136
 5476SOL     OW17326   1.426   3.093   5.929
 5476SOL    HW117327   1.404   3.185   5.895
 5476SOL    HW217328   1.415   3.091   6.028
 5477SOL     OW17329   2.160   2.905   3.107
 5477SOL    HW117330   2.128   2.994   3.076
 5477SOL    HW217331   2.172   2.906   3.206
 5478SOL     OW17332   6.161   6.104   5.661
 5478SOL    HW117333   6.249   6.062   5.638
 5478SOL    HW217334   6.109   6.041   5.719
 5479SOL     OW17335   4.762   0.641   5.053
 5479SOL    HW117336   4.725   0.731   5.075
 5479SOL    HW217337   4.686   0.576   5.042
 5480SOL     OW17338   0.355   3.725   4.177
 5480SOL    HW117339   0.404   3.739   4.263
 5480SOL    HW217340   0.257   3.715   4.195
 5481SOL     OW17341   4.420   6.456   3.862
 5481SOL    HW117342   4.355   6.435   3.789
 5481SOL    HW217343   4.494   6.512   3.825
 5482SOL     OW17344   1.897   4.281   1.392
 5482SOL    HW117345   1.847   4.299   1.477
 5482SOL    HW217346   1.978   4.227   1.412
 5483SOL     OW17347   0.270   2.650   5.709
 5483SOL    HW117348   0.361   2.691   5.716
 5483SOL    HW217349   0.263   2.576   5.776
 5484SOL     OW17350   4.612   0.837   5.156
 5484SOL    HW117351   4.601   0.834   5.255
 5484SOL    HW217352   4.636   0.929   5.127
 5485SOL     OW17353   2.907   0.493   5.056
 5485SOL    HW117354   2.859   0.414   5.096
 5485SOL    HW217355   2.894   0.573   5.115
 5486SOL     OW17356   2.935   6.310   5.091
 5486SOL    HW117357   3.012   6.281   5.148
 5486SOL    HW217358   2.963   6.386   5.033
 5487SOL     OW17359   3.338   5.499   5.899
 5487SOL    HW117360   3.299   5.588   5.873
 5487SOL    HW217361   3.375   5.454   5.819
 5488SOL     OW17362   5.968   2.027   0.712
 5488SOL    HW117363   5.940   1.935   0.741
 5488SOL    HW217364   5.991   2.025   0.614
 5489SOL     OW17365   6.807   4.175   2.898
 5489SOL    HW117366   6.846   4.084   2.907
 5489SOL    HW217367   6.830   4.230   2.979
 5490SOL     OW17368   1.790   6.509   2.944
 5490SOL    HW117369   1.851   6.471   2.875
 5490SOL    HW217370   1.825   6.488   3.035
 5491SOL     OW17371   6.503   4.386   0.564
 5491SOL    HW117372   6.423   4.340   0.602
 5491SOL    HW217373   6.536   4.335   0.484
 5492SOL     OW17374   0.002   2.473   6.240
 5492SOL    HW117375   0.050   2.545   6.189
 5492SOL    HW217376   6.941   2.512   6.285
 5493SOL     OW17377   3.744   3.829   1.239
 5493SOL    HW117378   3.785   3.747   1.279
 5493SOL    HW217379   3.743   3.820   1.139
 5494SOL     OW17380   5.834   3.899   5.167
 5494SOL    HW117381   5.846   3.801   5.157
 5494SOL    HW217382   5.809   3.939   5.079
 5495SOL     OW17383   5.890   6.744   0.560
 5495SOL    HW117384   5.988   6.729   0.578
 5495SOL    HW217385   5.855   6.668   0.504
 5496SOL     OW17386   3.848   0.250   4.239
 5496SOL    HW117387   3.757   0.221   4.269
 5496SOL    HW217388   3.905   0.269   4.319
 5497SOL     OW17389   1.462   0.771   5.836
 5497SOL    HW117390   1.557   0.748   5.857
 5497SOL    HW217391   1.406   0.766   5.919
 5498SOL     OW17392   0.803   5.362   1.569
 5498SOL    HW117393   0.822   5.460   1.578
 5498SOL    HW217394   0.846   5.313   1.645
 5499SOL     OW17395   1.880   0.364   4.955
 5499SOL    HW117396   1.889   0.427   5.032
 5499SOL    HW217397   1.803   0.392   4.898
 5500SOL     OW17398   2.520   0.794   0.965
 5500SOL    HW117399   2.528   0.835   1.056
 5500SOL    HW217400   2.610   0.795   0.921
 5501SOL     OW17401   3.692   3.568   6.640
 5501SOL    HW117402   3.681   3.615   6.728
 5501SOL    HW217403   3.603   3.557   6.597
 5502SOL     OW17404   4.769   2.629   0.396
 5502SOL    HW117405   4.726   2.674   0.319
 5502SOL    HW217406   4.869   2.639   0.390
 5503SOL     OW17407   6.323   4.008   0.863
 5503SOL    HW117408   6.409   3.966   0.835
 5503SOL    HW217409   6.276   3.947   0.927
 5504SOL     OW17410   3.486   1.464   0.018
 5504SOL    HW117411   3.388   1.478   0.026
 5504SOL    HW217412   3.506   1.404   6.960
 5505SOL     OW17413   3.153   5.250   3.020
 5505SOL    HW117414   3.130   5.184   3.092
 5505SOL    HW217415   3.227   5.309   3.051
 5506SOL     OW17416   0.327   3.229   5.787
 5506SOL    HW117417   0.339   3.131   5.802
 5506SOL    HW217418   0.374   3.280   5.859
 5507SOL     OW17419   2.742   6.698   6.985
 5507SOL    HW117420   2.706   6.715   6.893
 5507SOL    HW217421   2.773   6.783   0.006
 5508SOL     OW17422   6.710   1.111   6.360
 5508SOL    HW117423   6.708   1.203   6.399
 5508SOL    HW217424   6.704   1.043   6.433
 5509SOL     OW17425   6.754   5.083   0.933
 5509SOL    HW117426   6.698   5.143   0.875
 5509SOL    HW217427   6.721   4.989   0.927
 5510SOL     OW17428   4.248   4.946   0.210
 5510SOL    HW117429   4.153   4.977   0.211
 5510SOL    HW217430   4.256   4.862   0.263
 5511SOL     OW17431   0.257   2.156   5.597
 5511SOL    HW117432   0.269   2.066   5.555
 5511SOL    HW217433   0.285   2.227   5.533
 5512SOL     OW17434   2.647   0.857   2.108
 5512SOL    HW117435   2.588   0.878   2.186
 5512SOL    HW217436   2.642   0.759   2.088
 5513SOL     OW17437   4.219   4.325   0.620
 5513SOL    HW117438   4.208   4.328   0.720
 5513SOL    HW217439   4.134   4.294   0.578
 5514SOL     OW17440   3.098   1.269   0.429
 5514SOL    HW117441   3.155   1.246   0.508
 5514SOL    HW217442   3.026   1.332   0.456
 5515SOL     OW17443   2.788   5.734   2.393
 5515SOL    HW117444   2.865   5.764   2.337
 5515SOL    HW217445   2.771   5.637   2.379
 5516SOL     OW17446   1.700   2.073   5.531
 5516SOL    HW117447   1.639   2.151   5.535
 5516SOL    HW217448   1.795   2.103   5.543
 5517SOL     OW17449   1.164   2.430   3.285
 5517SOL    HW117450   1.074   2.469   3.306
 5517SOL    HW217451   1.175   2.423   3.186
 5518SOL     OW17452   4.584   4.840   6.791
 5518SOL    HW117453   4.523   4.863   6.867
 5518SOL    HW217454   4.560   4.895   6.712
 5519SOL     OW17455   4.580   2.609   3.936
 5519SOL    HW117456   4.545   2.584   4.026
 5519SOL    HW217457   4.519   2.573   3.865
 5520SOL     OW17458   5.056   6.950   1.636
 5520SOL    HW117459   5.035   6.855   1.614
 5520SOL    HW217460   5.010   6.976   1.721
 5521SOL     OW17461   4.851   6.115   1.960
 5521SOL    HW117462   4.904   6.166   1.892
 5521SOL    HW217463   4.823   6.177   2.033
 5522SOL     OW17464   6.057   6.180   1.085
 5522SOL    HW117465   6.084   6.174   0.989
 5522SOL    HW217466   5.963   6.149   1.096
 5523SOL     OW17467   5.145   1.036   1.010
 5523SOL    HW117468   5.171   1.038   1.106
 5523SOL    HW217469   5.089   0.954   0.993
 5524SOL     OW17470   2.388   1.660   3.797
 5524SOL    HW117471   2.320   1.599   3.757
 5524SOL    HW217472   2.429   1.717   3.726
 5525SOL     OW17473   5.772   1.447   1.817
 5525SOL    HW117474   5.786   1.360   1.864
 5525SOL    HW217475   5.682   1.448   1.773
 5526SOL     OW17476   5.377   4.922   4.029
 5526SOL    HW117477   5.283   4.947   4.055
 5526SOL    HW217478   5.375   4.838   3.974
 5527SOL     OW17479   5.841   1.134   3.815
 5527SOL    HW117480   5.880   1.199   3.880
 5527SOL    HW217481   5.761   1.175   3.770
 5528SOL     OW17482   0.765   1.015   6.631
 5528SOL    HW117483   0.773   1.004   6.730
 5528SOL    HW217484   0.680   0.973   6.600
 5529SOL     OW17485   3.701   0.608   2.083
 5529SOL    HW117486   3.622   0.616   2.143
 5529SOL    HW217487   3.768   0.679   2.107
 5530SOL     OW17488   6.493   2.385   1.013
 5530SOL    HW117489   6.558   2.311   1.031
 5530SOL    HW217490   6.413   2.349   0.967
 5531SOL     OW17491   2.303   3.919   1.049
 5531SOL    HW117492   2.242   3.996   1.067
 5531SOL    HW217493   2.396   3.943   1.077
 5532SOL     OW17494   1.335   2.897   0.135
 5532SOL    HW117495   1.398   2.953   0.188
 5532SOL    HW217496   1.247   2.893   0.181
 5533SOL     OW17497   3.121   1.717   2.247
 5533SOL    HW117498   3.038   1.767   2.270
 5533SOL    HW217499   3.099   1.645   2.180
 5534SOL     OW17500   1.588   0.141   4.995
 5534SOL    HW117501   1.553   0.054   5.031
 5534SOL    HW217502   1.624   0.126   4.902
 5535SOL     OW17503   0.382   1.816   2.988
 5535SOL    HW117504   0.450   1.884   3.014
 5535SOL    HW217505   0.428   1.729   2.968
 5536SOL     OW17506   3.901   6.018   4.518
 5536SOL    HW117507   3.880   6.095   4.458
 5536SOL    HW217508   3.981   6.041   4.574
 5537SOL     OW17509   2.944   1.510   3.214
 5537SOL    HW117510   2.886   1.454   3.273
 5537SOL    HW217511   2.897   1.595   3.190
 5538SOL     OW17512   4.450   5.387   4.867
 5538SOL    HW117513   4.472   5.416   4.960
 5538SOL    HW217514   4.363   5.426   4.839
 5539SOL     OW17515   2.498   4.853   0.568
 5539SOL    HW117516   2.423   4.802   0.526
 5539SOL    HW217517   2.575   4.791   0.583
 5540SOL     OW17518   4.823   5.307   1.790
 5540SOL    HW117519   4.904   5.352   1.827
 5540SOL    HW217520   4.842   5.274   1.698
 5541SOL     OW17521   4.681   1.427   5.779
 5541SOL    HW117522   4.777   1.456   5.786
 5541SOL    HW217523   4.622   1.508   5.775
 5542SOL     OW17524   5.243   4.470   6.765
 5542SOL    HW117525   5.299   4.401   6.718
 5542SOL    HW217526   5.274   4.479   6.859
 5543SOL     OW17527   7.002   2.183   5.924
 5543SOL    HW117528   0.013   2.121   5.851
 5543SOL    HW217529   6.924   2.237   5.891
 5544SOL     OW17530   5.731   1.086   6.843
 5544SOL    HW117531   5.669   1.014   6.811
 5544SOL    HW217532   5.779   1.055   6.925
 5545SOL     OW17533   2.672   2.501   1.801
 5545SOL    HW117534   2.766   2.493   1.835
 5545SOL    HW217535   2.642   2.413   1.764
 5546SOL     OW17536   3.247   4.998   5.430
 5546SOL    HW117537   3.342   4.988   5.460
 5546SOL    HW217538   3.186   5.000   5.509
 5547SOL     OW17539   3.613   5.813   4.057
 5547SOL    HW117540   3.704   5.824   4.097
 5547SOL    HW217541   3.562   5.743   4.107
 5548SOL     OW17542   0.109   2.821   5.215
 5548SOL    HW117543   0.116   2.723   5.198
 5548SOL    HW217544   0.015   2.851   5.198
 5549SOL     OW17545   3.381   4.334   0.428
 5549SOL    HW117546   3.415   4.373   0.514
 5549SOL    HW217547   3.288   4.367   0.411
 5550SOL     OW17548   3.419   6.878   2.375
 5550SOL    HW117549   3.351   6.805   2.370
 5550SOL    HW217550   3.510   6.838   2.383
 5551SOL     OW17551   0.116   1.315   2.786
 5551SOL    HW117552   0.035   1.312   2.729
 5551SOL    HW217553   0.097   1.367   2.870
 5552SOL     OW17554   1.025   2.650   1.562
 5552SOL    HW117555   0.964   2.721   1.597
 5552SOL    HW217556   1.011   2.566   1.614
 5553SOL     OW17557   4.990   6.159   6.987
 5553SOL    HW117558   5.005   6.130   0.062
 5553SOL    HW217559   4.975   6.258   6.985
 5554SOL     OW17560   3.362   1.288   4.132
 5554SOL    HW117561   3.384   1.257   4.224
 5554SOL    HW217562   3.275   1.248   4.103
 5555SOL     OW17563   0.718   6.175   1.907
 5555SOL    HW117564   0.784   6.244   1.875
 5555SOL    HW217565   0.655   6.217   1.971
 5556SOL     OW17566   0.676   1.053   4.454
 5556SOL    HW117567   0.631   0.964   4.457
 5556SOL    HW217568   0.760   1.050   4.508
 5557SOL     OW17569   2.741   0.966   3.213
 5557SOL    HW117570   2.801   0.961   3.293
 5557SOL    HW217571   2.704   1.059   3.205
 5558SOL     OW17572   5.151   2.697   4.950
 5558SOL    HW117573   5.129   2.677   5.046
 5558SOL    HW217574   5.248   2.679   4.933
 5559SOL     OW17575   2.615   0.648   1.299
 5559SOL    HW117576   2.592   0.744   1.285
 5559SOL    HW217577   2.659   0.612   1.217
 5560SOL     OW17578   6.824   1.105   4.340
 5560SOL    HW117579   6.896   1.168   4.370
 5560SOL    HW217580   6.735   1.150   4.345
 5561SOL     OW17581   1.755   3.789   2.897
 5561SOL    HW117582   1.744   3.689   2.902
 5561SOL    HW217583   1.665   3.831   2.887
 5562SOL     OW17584   3.030   2.170   6.513
 5562SOL    HW117585   3.105   2.169   6.447
 5562SOL    HW217586   3.054   2.228   6.591
 5563SOL     OW17587   3.924   4.265   1.717
 5563SOL    HW117588   3.847   4.319   1.684
 5563SOL    HW217589   3.890   4.189   1.772
 5564SOL     OW17590   6.196   3.737   2.094
 5564SOL    HW117591   6.134   3.716   2.018
 5564SOL    HW217592   6.177   3.829   2.129
 5565SOL     OW17593   3.266   3.034   5.550
 5565SOL    HW117594   3.243   3.112   5.492
 5565SOL    HW217595   3.193   3.020   5.617
 5566SOL     OW17596   1.967   4.590   0.464
 5566SOL    HW117597   1.880   4.543   0.477
 5566SOL    HW217598   1.951   4.688   0.450
 5567SOL     OW17599   1.863   5.148   3.090
 5567SOL    HW117600   1.941   5.209   3.100
 5567SOL    HW217601   1.886   5.057   3.123
 5568SOL     OW17602   3.792   2.647   1.015
 5568SOL    HW117603   3.711   2.688   1.056
 5568SOL    HW217604   3.815   2.562   1.063
 5569SOL     OW17605   5.390   2.153   6.673
 5569SOL    HW117606   5.454   2.223   6.641
 5569SOL    HW217607   5.313   2.147   6.610
 5570SOL     OW17608   0.650   3.539   5.083
 5570SOL    HW117609   0.559   3.580   5.078
 5570SOL    HW217610   0.679   3.532   5.178
 5571SOL     OW17611   6.393   4.685   6.802
 5571SOL    HW117612   6.401   4.641   6.713
 5571SOL    HW217613   6.352   4.622   6.868
 5572SOL     OW17614   6.026   2.593   5.220
 5572SOL    HW117615   5.955   2.602   5.290
 5572SOL    HW217616   6.106   2.647   5.246
 5573SOL     OW17617   0.084   4.060   0.193
 5573SOL    HW117618   0.062   4.022   0.103
 5573SOL    HW217619   7.018   4.077   0.243
 5574SOL     OW17620   0.645   6.237   4.466
 5574SOL    HW117621   0.575   6.167   4.482
 5574SOL    HW217622   0.602   6.326   4.455
 5575SOL     OW17623   1.033   1.022   1.282
 5575SOL    HW117624   0.986   1.050   1.365
 5575SOL    HW217625   0.966   1.009   1.209
 5576SOL     OW17626   6.042   6.058   6.959
 5576SOL    HW117627   5.997   5.971   6.980
 5576SOL    HW217628   6.039   6.117   0.020
 5577SOL     OW17629   2.146   3.995   4.805
 5577SOL    HW117630   2.210   4.032   4.872
 5577SOL    HW217631   2.064   3.963   4.852
 5578SOL     OW17632   3.219   1.807   6.514
 5578SOL    HW117633   3.201   1.828   6.418
 5578SOL    HW217634   3.253   1.889   6.560
 5579SOL     OW17635   4.865   5.209   2.061
 5579SOL    HW117636   4.848   5.217   1.963
 5579SOL    HW217637   4.949   5.156   2.076
 5580SOL     OW17638   5.128   0.825   1.358
 5580SOL    HW117639   5.142   0.917   1.321
 5580SOL    HW217640   5.050   0.782   1.313
 5581SOL     OW17641   2.367   3.124   0.302
 5581SOL    HW117642   2.409   3.035   0.321
 5581SOL    HW217643   2.294   3.141   0.369
 5582SOL     OW17644   3.259   2.952   3.342
 5582SOL    HW117645   3.310   2.981   3.423
 5582SOL    HW217646   3.206   2.870   3.364
 5583SOL     OW17647   4.678   0.603   0.025
 5583SOL    HW117648   4.656   0.666   0.099
 5583SOL    HW217649   4.777   0.598   0.013
 5584SOL     OW17650   5.343   3.057   2.974
 5584SOL    HW117651   5.377   3.131   3.032
 5584SOL    HW217652   5.251   3.080   2.942
 5585SOL     OW17653   0.201   6.762   4.567
 5585SOL    HW117654   0.208   6.697   4.492
 5585SOL    HW217655   0.142   6.839   4.540
 5586SOL     OW17656   2.393   1.360   6.391
 5586SOL    HW117657   2.311   1.385   6.340
 5586SOL    HW217658   2.398   1.261   6.400
 5587SOL     OW17659   3.328   6.376   4.322
 5587SOL    HW117660   3.278   6.433   4.256
 5587SOL    HW217661   3.391   6.434   4.374
 5588SOL     OW17662   4.772   0.432   6.108
 5588SOL    HW117663   4.691   0.403   6.057
 5588SOL    HW217664   4.756   0.523   6.147
 5589SOL     OW17665   2.823   3.946   6.851
 5589SOL    HW117666   2.846   4.043   6.852
 5589SOL    HW217667   2.760   3.926   6.926
 5590SOL     OW17668   6.587   6.917   3.630
 5590SOL    HW117669   6.515   6.852   3.654
 5590SOL    HW217670   6.676   6.873   3.643
 5591SOL     OW17671   5.377   0.161   0.255
 5591SOL    HW117672   5.408   0.188   0.164
 5591SOL    HW217673   5.301   0.096   0.246
 5592SOL     OW17674   1.618   2.217   2.798
 5592SOL    HW117675   1.674   2.284   2.846
 5592SOL    HW217676   1.529   2.257   2.777
 5593SOL     OW17677   1.971   4.270   4.843
 5593SOL    HW117678   2.061   4.233   4.868
 5593SOL    HW217679   1.968   4.286   4.745
 5594SOL     OW17680   3.232   1.453   6.209
 5594SOL    HW117681   3.200   1.464   6.303
 5594SOL    HW217682   3.275   1.537   6.178
 5595SOL     OW17683   0.290   2.004   6.025
 5595SOL    HW117684   0.278   1.988   6.123
 5595SOL    HW217685   0.341   2.089   6.011
 5596SOL     OW17686   4.867   2.320   3.655
 5596SOL    HW117687   4.825   2.388   3.715
 5596SOL    HW217688   4.928   2.365   3.591
 5597SOL     OW17689   0.183   1.833   6.258
 5597SOL    HW117690   0.213   1.744   6.290
 5597SOL    HW217691   0.092   1.825   6.218
 5598SOL     OW17692   6.785   1.873   4.214
 5598SOL    HW117693   6.775   1.946   4.146
 5598SOL    HW217694   6.874   1.829   4.203
 5599SOL     OW17695   5.479   2.322   2.830
 5599SOL    HW117696   5.383   2.305   2.809
 5599SOL    HW217697   5.500   2.288   2.922
 5600SOL     OW17698   1.938   2.178   2.235
 5600SOL    HW117699   1.993   2.239   2.178
 5600SOL    HW217700   1.906   2.227   2.316
 5601SOL     OW17701   5.442   3.510   6.051
 5601SOL    HW117702   5.512   3.579   6.072
 5601SOL    HW217703   5.426   3.508   5.953
 5602SOL     OW17704   6.362   2.326   2.363
 5602SOL    HW117705   6.263   2.319   2.375
 5602SOL    HW217706   6.383   2.411   2.315
 5603SOL     OW17707   3.514   2.212   6.054
 5603SOL    HW117708   3.553   2.128   6.090
 5603SOL    HW217709   3.517   2.283   6.124
 5604SOL     OW17710   0.912   6.488   3.765
 5604SOL    HW117711   0.882   6.552   3.695
 5604SOL    HW217712   0.975   6.422   3.725
 5605SOL     OW17713   4.221   0.023   3.994
 5605SOL    HW117714   4.159   0.018   4.073
 5605SOL    HW217715   4.255   0.117   3.984
 5606SOL     OW17716   4.670   2.850   0.218
 5606SOL    HW117717   4.754   2.896   0.189
 5606SOL    HW217718   4.608   2.841   0.140
 5607SOL     OW17719   0.214   2.474   3.099
 5607SOL    HW117720   0.115   2.460   3.106
 5607SOL    HW217721   0.243   2.543   3.166
 5608SOL     OW17722   5.046   0.523   3.931
 5608SOL    HW117723   4.992   0.464   3.871
 5608SOL    HW217724   4.986   0.591   3.975
 5609SOL     OW17725   6.646   0.570   7.013
 5609SOL    HW117726   6.717   0.501   7.002
 5609SOL    HW217727   6.659   0.643   6.947
 5610SOL     OW17728   6.083   5.967   6.556
 5610SOL    HW117729   6.088   6.000   6.462
 5610SOL    HW217730   6.122   6.035   6.618
 5611SOL     OW17731   6.223   4.116   1.974
 5611SOL    HW117732   6.295   4.073   2.028
 5611SOL    HW217733   6.142   4.058   1.975
 5612SOL     OW17734   3.828   2.083   0.427
 5612SOL    HW117735   3.866   2.074   0.519
 5612SOL    HW217736   3.850   2.174   0.392
 5613SOL     OW17737   6.211   5.137   5.801
 5613SOL    HW117738   6.224   5.182   5.713
 5613SOL    HW217739   6.117   5.105   5.809
 5614SOL     OW17740   5.042   2.821   4.580
 5614SOL    HW117741   5.024   2.727   4.609
 5614SOL    HW217742   5.062   2.823   4.482
 5615SOL     OW17743   0.590   3.093   3.658
 5615SOL    HW117744   0.658   3.091   3.731
 5615SOL    HW217745   0.610   3.168   3.595
 5616SOL     OW17746   2.089   3.433   2.723
 5616SOL    HW117747   2.116   3.337   2.709
 5616SOL    HW217748   2.129   3.467   2.808
 5617SOL     OW17749   1.465   4.721   6.123
 5617SOL    HW117750   1.375   4.691   6.155
 5617SOL    HW217751   1.455   4.805   6.070
 5618SOL     OW17752   4.792   6.799   2.473
 5618SOL    HW117753   4.797   6.896   2.452
 5618SOL    HW217754   4.757   6.750   2.393
 5619SOL     OW17755   3.365   3.333   2.997
 5619SOL    HW117756   3.334   3.426   3.019
 5619SOL    HW217757   3.465   3.329   3.005
 5620SOL     OW17758   4.960   4.822   4.243
 5620SOL    HW117759   4.874   4.840   4.195
 5620SOL    HW217760   4.957   4.730   4.282
 5621SOL     OW17761   1.286   2.493   6.574
 5621SOL    HW117762   1.323   2.536   6.656
 5621SOL    HW217763   1.187   2.508   6.570
 5622SOL     OW17764   4.629   5.342   4.200
 5622SOL    HW117765   4.633   5.331   4.101
 5622SOL    HW217766   4.714   5.309   4.241
 5623SOL     OW17767   4.536   4.830   3.714
 5623SOL    HW117768   4.452   4.790   3.751
 5623SOL    HW217769   4.595   4.757   3.678
 5624SOL     OW17770   4.853   4.622   3.467
 5624SOL    HW117771   4.875   4.534   3.426
 5624SOL    HW217772   4.914   4.692   3.431
 5625SOL     OW17773   2.722   6.252   5.970
 5625SOL    HW117774   2.760   6.338   5.937
 5625SOL    HW217775   2.706   6.257   6.068
 5626SOL     OW17776   0.949   4.623   6.738
 5626SOL    HW117777   0.983   4.548   6.795
 5626SOL    HW217778   0.911   4.587   6.653
 5627SOL     OW17779   1.303   5.363   0.178
 5627SOL    HW117780   1.247   5.413   0.112
 5627SOL    HW217781   1.246   5.331   0.253
 5628SOL     OW17782   2.148   3.842   0.429
 5628SOL    HW117783   2.126   3.877   0.520
 5628SOL    HW217784   2.063   3.819   0.381
 5629SOL     OW17785   6.876   3.666   3.533
 5629SOL    HW117786   6.800   3.731   3.536
 5629SOL    HW217787   6.950   3.703   3.478
 5630SOL     OW17788   0.658   3.553   0.663
 5630SOL    HW117789   0.745   3.505   0.652
 5630SOL    HW217790   0.602   3.506   0.732
 5631SOL     OW17791   3.699   1.397   1.401
 5631SOL    HW117792   3.723   1.325   1.466
 5631SOL    HW217793   3.605   1.426   1.417
 5632SOL     OW17794   4.885   6.568   5.824
 5632SOL    HW117795   4.818   6.518   5.769
 5632SOL    HW217796   4.886   6.531   5.917
 5633SOL     OW17797   1.442   5.473   5.607
 5633SOL    HW117798   1.473   5.518   5.524
 5633SOL    HW217799   1.366   5.412   5.585
 5634SOL     OW17800   2.956   0.564   1.501
 5634SOL    HW117801   2.958   0.551   1.600
 5634SOL    HW217802   2.892   0.499   1.460
 5635SOL     OW17803   3.371   0.616   1.998
 5635SOL    HW117804   3.433   0.662   1.934
 5635SOL    HW217805   3.346   0.679   2.071
 5636SOL     OW17806   5.051   0.502   5.772
 5636SOL    HW117807   4.981   0.572   5.785
 5636SOL    HW217808   5.139   0.537   5.805
 5637SOL     OW17809   5.082   6.954   4.815
 5637SOL    HW117810   5.152   7.011   4.859
 5637SOL    HW217811   5.021   6.917   4.886
 5638SOL     OW17812   6.618   5.521   0.818
 5638SOL    HW117813   6.558   5.546   0.741
 5638SOL    HW217814   6.622   5.422   0.825
 5639SOL     OW17815   2.721   0.655   1.749
 5639SOL    HW117816   2.681   0.613   1.830
 5639SOL    HW217817   2.820   0.640   1.749
 5640SOL     OW17818   2.852   6.676   3.413
 5640SOL    HW117819   2.942   6.647   3.380
 5640SOL    HW217820   2.861   6.764   3.460
 5641SOL     OW17821   6.730   3.970   3.975
 5641SOL    HW117822   6.802   3.908   3.945
 5641SOL    HW217823   6.709   3.954   4.072
 5642SOL     OW17824   2.313   3.613   6.672
 5642SOL    HW117825   2.263   3.553   6.735
 5642SOL    HW217826   2.256   3.692   6.649
 5643SOL     OW17827   6.073   2.465   4.444
 5643SOL    HW117828   6.048   2.561   4.430
 5643SOL    HW217829   6.097   2.424   4.356
 5644SOL     OW17830   4.224   0.547   4.918
 5644SOL    HW117831   4.240   0.598   5.003
 5644SOL    HW217832   4.235   0.449   4.935
 5645SOL     OW17833   6.281   6.410   3.651
 5645SOL    HW117834   6.211   6.447   3.712
 5645SOL    HW217835   6.367   6.459   3.664
 5646SOL     OW17836   6.532   6.305   3.980
 5646SOL    HW117837   6.545   6.299   4.079
 5646SOL    HW217838   6.456   6.247   3.953
 5647SOL     OW17839   0.014   4.248   6.824
 5647SOL    HW117840   0.070   4.201   6.893
 5647SOL    HW217841   7.008   4.183   6.753
 5648SOL     OW17842   2.681   1.037   4.808
 5648SOL    HW117843   2.603   1.024   4.747
 5648SOL    HW217844   2.766   1.022   4.757
 5649SOL     OW17845   0.937   6.877   5.120
 5649SOL    HW117846   0.991   6.839   5.196
 5649SOL    HW217847   0.938   6.977   5.125
 5650SOL     OW17848   6.348   4.703   6.240
 5650SOL    HW117849   6.325   4.775   6.305
 5650SOL    HW217850   6.444   4.712   6.214
 5651SOL     OW17851   6.032   1.299   2.419
 5651SOL    HW117852   5.986   1.297   2.331
 5651SOL    HW217853   6.098   1.374   2.421
 5652SOL     OW17854   5.533   3.981   0.574
 5652SOL    HW117855   5.486   3.897   0.600
 5652SOL    HW217856   5.469   4.058   0.579
 5653SOL     OW17857   2.249   5.992   6.781
 5653SOL    HW117858   2.162   6.042   6.781
 5653SOL    HW217859   2.324   6.058   6.778
 5654SOL     OW17860   1.308   6.082   6.334
 5654SOL    HW117861   1.224   6.129   6.360
 5654SOL    HW217862   1.303   6.056   6.237
 5655SOL     OW17863   0.388   5.537   3.085
 5655SOL    HW117864   0.481   5.515   3.115
 5655SOL    HW217865   0.345   5.597   3.152
 5656SOL     OW17866   3.598   5.476   6.600
 5656SOL    HW117867   3.684   5.484   6.650
 5656SOL    HW217868   3.612   5.422   6.517
 5657SOL     OW17869   3.931   5.545   2.036
 5657SOL    HW117870   3.845   5.573   2.077
 5657SOL    HW217871   3.983   5.491   2.102
 5658SOL     OW17872   5.597   7.015   5.344
 5658SOL    HW117873   5.498   7.009   5.357
 5658SOL    HW217874   5.643   6.973   5.423
 5659SOL     OW17875   3.740   4.094   2.796
 5659SOL    HW117876   3.696   4.069   2.882
 5659SOL    HW217877   3.708   4.184   2.767
 5660SOL     OW17878   6.491   6.465   1.049
 5660SOL    HW117879   6.530   6.543   1.000
 5660SOL    HW217880   6.444   6.498   1.131
 5661SOL     OW17881   6.390   5.912   4.838
 5661SOL    HW117882   6.391   5.968   4.921
 5661SOL    HW217883   6.478   5.922   4.791
 5662SOL     OW17884   2.064   4.608   4.816
 5662SOL    HW117885   2.084   4.517   4.852
 5662SOL    HW217886   2.109   4.619   4.727
 5663SOL     OW17887   2.442   4.350   0.562
 5663SOL    HW117888   2.380   4.424   0.589
 5663SOL    HW217889   2.409   4.263   0.600
 5664SOL     OW17890   0.149   5.993   2.500
 5664SOL    HW117891   0.206   6.049   2.559
 5664SOL    HW217892   0.065   5.967   2.549
 5665SOL     OW17893   1.361   1.253   5.815
 5665SOL    HW117894   1.391   1.170   5.767
 5665SOL    HW217895   1.442   1.302   5.849
 5666SOL     OW17896   6.028   6.244   0.138
 5666SOL    HW117897   5.993   6.327   0.183
 5666SOL    HW217898   6.116   6.220   0.178
 5667SOL     OW17899   6.172   5.872   2.985
 5667SOL    HW117900   6.115   5.901   2.909
 5667SOL    HW217901   6.261   5.841   2.951
 5668SOL     OW17902   5.705   2.947   5.811
 5668SOL    HW117903   5.728   2.959   5.908
 5668SOL    HW217904   5.735   3.027   5.760
 5669SOL     OW17905   6.938   3.569   4.781
 5669SOL    HW117906   6.982   3.606   4.863
 5669SOL    HW217907   6.994   3.496   4.743
 5670SOL     OW17908   1.744   3.481   2.860
 5670SOL    HW117909   1.688   3.506   2.782
 5670SOL    HW217910   1.778   3.388   2.848
 5671SOL     OW17911   1.424   1.287   5.529
 5671SOL    HW117912   1.355   1.282   5.457
 5671SOL    HW217913   1.380   1.309   5.616
 5672SOL     OW17914   5.629   3.964   5.494
 5672SOL    HW117915   5.597   3.943   5.401
 5672SOL    HW217916   5.560   3.936   5.560
 5673SOL     OW17917   1.299   0.823   1.122
 5673SOL    HW117918   1.232   0.828   1.196
 5673SOL    HW217919   1.287   0.738   1.071
 5674SOL     OW17920   6.946   3.252   1.283
 5674SOL    HW117921   7.007   3.328   1.306
 5674SOL    HW217922   6.852   3.279   1.302
 5675SOL     OW17923   3.867   1.034   6.044
 5675SOL    HW117924   3.805   1.110   6.064
 5675SOL    HW217925   3.957   1.053   6.083
 5676SOL     OW17926   3.511   6.730   1.848
 5676SOL    HW117927   3.545   6.645   1.888
 5676SOL    HW217928   3.463   6.782   1.919
 5677SOL     OW17929   6.955   1.088   4.101
 5677SOL    HW117930   6.910   1.108   4.188
 5677SOL    HW217931   6.913   1.144   4.029
 5678SOL     OW17932   1.888   5.210   3.604
 5678SOL    HW117933   1.963   5.275   3.596
 5678SOL    HW217934   1.821   5.226   3.531
 5679SOL     OW17935   3.058   5.553   5.219
 5679SOL    HW117936   3.127   5.617   5.188
 5679SOL    HW217937   3.034   5.491   5.144
 5680SOL     OW17938   1.909   6.703   6.275
 5680SOL    HW117939   1.864   6.741   6.356
 5680SOL    HW217940   1.978   6.767   6.242
 5681SOL     OW17941   2.087   4.152   0.190
 5681SOL    HW117942   2.174   4.201   0.195
 5681SOL    HW217943   2.105   4.058   0.160
 5682SOL     OW17944   0.916   3.872   3.976
 5682SOL    HW117945   1.009   3.892   4.005
 5682SOL    HW217946   0.857   3.862   4.056
 5683SOL     OW17947   3.686   3.239   4.729
 5683SOL    HW117948   3.741   3.323   4.731
 5683SOL    HW217949   3.649   3.220   4.820
 5684SOL     OW17950   2.914   3.786   3.490
 5684SOL    HW117951   2.875   3.740   3.570
 5684SOL    HW217952   3.005   3.819   3.511
 5685SOL     OW17953   1.000   5.568   1.812
 5685SOL    HW117954   0.901   5.560   1.820
 5685SOL    HW217955   1.027   5.663   1.830
 5686SOL     OW17956   3.671   5.514   0.109
 5686SOL    HW117957   3.751   5.455   0.120
 5686SOL    HW217958   3.589   5.457   0.098
 5687SOL     OW17959   4.268   5.405   6.151
 5687SOL    HW117960   4.367   5.395   6.162
 5687SOL    HW217961   4.236   5.343   6.080
 5688SOL     OW17962   5.760   1.848   2.771
 5688SOL    HW117963   5.830   1.787   2.735
 5688SOL    HW217964   5.798   1.940   2.783
 5689SOL     OW17965   4.266   2.778   5.996
 5689SOL    HW117966   4.264   2.868   6.038
 5689SOL    HW217967   4.315   2.714   6.055
 5690SOL     OW17968   4.668   6.671   2.261
 5690SOL    HW117969   4.616   6.589   2.285
 5690SOL    HW217970   4.611   6.732   2.206
 5691SOL     OW17971   2.277   6.921   3.258
 5691SOL    HW117972   2.317   6.989   3.196
 5691SOL    HW217973   2.213   6.863   3.208
 5692SOL     OW17974   5.832   3.423   0.338
 5692SOL    HW117975   5.812   3.341   0.392
 5692SOL    HW217976   5.929   3.444   0.345
 5693SOL     OW17977   4.734   2.780   2.536
 5693SOL    HW117978   4.693   2.764   2.446
 5693SOL    HW217979   4.820   2.730   2.543
 5694SOL     OW17980   1.351   1.717   4.382
 5694SOL    HW117981   1.314   1.753   4.297
 5694SOL    HW217982   1.331   1.780   4.457
 5695SOL     OW17983   1.701   3.834   3.672
 5695SOL    HW117984   1.675   3.759   3.611
 5695SOL    HW217985   1.679   3.921   3.628
 5696SOL     OW17986   3.367   0.256   5.783
 5696SOL    HW117987   3.419   0.311   5.717
 5696SOL    HW217988   3.401   0.272   5.875
 5697SOL     OW17989   6.137   3.324   0.099
 5697SOL    HW117990   6.153   3.361   0.190
 5697SOL    HW217991   6.117   3.398   0.035
 5698SOL     OW17992   0.979   4.295   2.624
 5698SOL    HW117993   0.937   4.381   2.655
 5698SOL    HW217994   0.908   4.234   2.589
 5699SOL     OW17995   6.354   1.716   4.935
 5699SOL    HW117996   6.274   1.754   4.888
 5699SOL    HW217997   6.352   1.616   4.926
 5700SOL     OW17998   1.090   5.370   2.848
 5700SOL    HW117999   1.001   5.404   2.879
 5700SOL    HW218000   1.102   5.392   2.751
 5701SOL     OW18001   5.328   4.956   2.004
 5701SOL    HW118002   5.372   5.040   2.035
 5701SOL    HW218003   5.386   4.877   2.024
 5702SOL     OW18004   2.764   0.233   6.969
 5702SOL    HW118005   2.671   0.268   6.953
 5702SOL    HW218006   2.784   0.160   6.903
 5703SOL     OW18007   4.471   4.114   1.662
 5703SOL    HW118008   4.424   4.175   1.726
 5703SOL    HW218009   4.534   4.055   1.713
 5704SOL     OW18010   4.462   5.436   3.861
 5704SOL    HW118011   4.448   5.337   3.868
 5704SOL    HW218012   4.392   5.483   3.914
 5705SOL     OW18013   5.921   1.703   3.052
 5705SOL    HW118014   5.879   1.613   3.056
 5705SOL    HW218015   5.904   1.744   2.963
 5706SOL     OW18016   2.046   0.940   6.983
 5706SOL    HW118017   2.029   1.017   0.026
 5706SOL    HW218018   2.108   0.970   6.910
 5707SOL     OW18019   3.125   1.869   6.271
 5707SOL    HW118020   3.135   1.963   6.238
 5707SOL    HW218021   3.048   1.826   6.224
 5708SOL     OW18022   6.272   0.317   1.958
 5708SOL    HW118023   6.348   0.381   1.951
 5708SOL    HW218024   6.285   0.242   1.894
 5709SOL     OW18025   0.975   1.239   2.589
 5709SOL    HW118026   1.067   1.217   2.622
 5709SOL    HW218027   0.980   1.305   2.514
 5710SOL     OW18028   3.151   4.377   6.579
 5710SOL    HW118029   3.069   4.420   6.618
 5710SOL    HW218030   3.170   4.418   6.490
 5711SOL     OW18031   5.023   1.486   4.950
 5711SOL    HW118032   5.018   1.402   5.004
 5711SOL    HW218033   5.113   1.528   4.963
 5712SOL     OW18034   6.974   5.932   6.561
 5712SOL    HW118035   6.966   6.031   6.577
 5712SOL    HW218036   0.017   5.915   6.485
 5713SOL     OW18037   7.018   2.747   2.614
 5713SOL    HW118038   0.009   2.648   2.608
 5713SOL    HW218039   0.029   2.778   2.704
 5714SOL     OW18040   2.290   0.745   6.288
 5714SOL    HW118041   2.386   0.727   6.309
 5714SOL    HW218042   2.232   0.682   6.340
 5715SOL     OW18043   1.688   6.755   3.043
 5715SOL    HW118044   1.719   6.666   3.012
 5715SOL    HW218045   1.759   6.824   3.025
 5716SOL     OW18046   1.661   2.902   4.924
 5716SOL    HW118047   1.725   2.826   4.927
 5716SOL    HW218048   1.679   2.957   4.842
 5717SOL     OW18049   0.895   3.616   0.403
 5717SOL    HW118050   0.923   3.558   0.326
 5717SOL    HW218051   0.796   3.626   0.402
 5718SOL     OW18052   2.296   4.857   5.240
 5718SOL    HW118053   2.386   4.848   5.284
 5718SOL    HW218054   2.290   4.794   5.163
 5719SOL     OW18055   2.893   0.133   0.164
 5719SOL    HW118056   2.939   0.190   0.231
 5719SOL    HW218057   2.857   0.190   0.090
 5720SOL     OW18058   2.090   5.433   4.058
 5720SOL    HW118059   2.154   5.498   4.016
 5720SOL    HW218060   2.060   5.469   4.147
 5721SOL     OW18061   6.895   4.380   0.746
 5721SOL    HW118062   6.986   4.370   0.705
 5721SOL    HW218063   6.904   4.402   0.843
 5722SOL     OW18064   5.426   1.246   4.353
 5722SOL    HW118065   5.386   1.159   4.380
 5722SOL    HW218066   5.487   1.279   4.425
 5723SOL     OW18067   1.375   4.652   0.724
 5723SOL    HW118068   1.424   4.578   0.677
 5723SOL    HW218069   1.287   4.618   0.758
 5724SOL     OW18070   4.830   2.031   6.449
 5724SOL    HW118071   4.836   2.091   6.369
 5724SOL    HW218072   4.833   1.936   6.420
 5725SOL     OW18073   5.361   5.452   5.954
 5725SOL    HW118074   5.322   5.447   5.862
 5725SOL    HW218075   5.289   5.437   6.022
 5726SOL     OW18076   4.392   3.372   5.758
 5726SOL    HW118077   4.446   3.287   5.752
 5726SOL    HW218078   4.448   3.449   5.728
 5727SOL     OW18079   6.046   2.078   4.048
 5727SOL    HW118080   6.071   2.097   3.953
 5727SOL    HW218081   6.114   2.018   4.090
 5728SOL     OW18082   5.373   0.741   6.403
 5728SOL    HW118083   5.274   0.738   6.384
 5728SOL    HW218084   5.391   0.698   6.491
 5729SOL     OW18085   0.958   3.073   5.173
 5729SOL    HW118086   0.869   3.111   5.199
 5729SOL    HW218087   1.006   3.138   5.113
 5730SOL     OW18088   3.974   5.150   6.927
 5730SOL    HW118089   4.060   5.184   6.966
 5730SOL    HW218090   3.959   5.193   6.838
 5731SOL     OW18091   3.721   0.850   4.609
 5731SOL    HW118092   3.729   0.879   4.513
 5731SOL    HW218093   3.794   0.891   4.662
 5732SOL     OW18094   5.817   3.932   3.997
 5732SOL    HW118095   5.744   3.956   4.061
 5732SOL    HW218096   5.883   4.007   3.992
 5733SOL     OW18097   2.865   6.821   0.599
 5733SOL    HW118098   2.904   6.899   0.548
 5733SOL    HW218099   2.804   6.769   0.540
 5734SOL     OW18100   1.880   6.146   6.109
 5734SOL    HW118101   1.951   6.185   6.168
 5734SOL    HW218102   1.874   6.048   6.125
 5735SOL     OW18103   5.006   0.530   2.174
 5735SOL    HW118104   4.977   0.502   2.082
 5735SOL    HW218105   4.962   0.472   2.242
 5736SOL     OW18106   6.029   4.862   0.021
 5736SOL    HW118107   6.123   4.872   0.056
 5736SOL    HW218108   6.013   4.930   6.970
 5737SOL     OW18109   4.668   5.378   1.469
 5737SOL    HW118110   4.752   5.335   1.504
 5737SOL    HW218111   4.637   5.447   1.535
 5738SOL     OW18112   2.914   0.968   0.515
 5738SOL    HW118113   3.004   0.967   0.471
 5738SOL    HW218114   2.858   0.894   0.478
 5739SOL     OW18115   2.309   1.061   5.722
 5739SOL    HW118116   2.338   0.965   5.714
 5739SOL    HW218117   2.246   1.070   5.799
 5740SOL     OW18118   4.871   3.485   1.822
 5740SOL    HW118119   4.838   3.411   1.763
 5740SOL    HW218120   4.956   3.456   1.868
 5741SOL     OW18121   0.203   3.489   4.260
 5741SOL    HW118122   0.227   3.416   4.197
 5741SOL    HW218123   0.267   3.488   4.338
 5742SOL     OW18124   5.204   0.493   3.511
 5742SOL    HW118125   5.161   0.464   3.425
 5742SOL    HW218126   5.272   0.426   3.539
 5743SOL     OW18127   3.329   5.454   6.707
 5743SOL    HW118128   3.420   5.480   6.676
 5743SOL    HW218129   3.270   5.441   6.627
 5744SOL     OW18130   5.147   6.940   3.322
 5744SOL    HW118131   5.166   6.992   3.239
 5744SOL    HW218132   5.078   6.870   3.304
 5745SOL     OW18133   1.051   2.963   1.694
 5745SOL    HW118134   1.074   2.942   1.599
 5745SOL    HW218135   1.112   3.036   1.727
 5746SOL     OW18136   5.000   6.705   3.269
 5746SOL    HW118137   4.912   6.748   3.292
 5746SOL    HW218138   5.013   6.624   3.326
 5747SOL     OW18139   1.853   6.782   0.724
 5747SOL    HW118140   1.953   6.780   0.719
 5747SOL    HW218141   1.824   6.850   0.791
 5748SOL     OW18142   0.263   6.266   1.130
 5748SOL    HW118143   0.165   6.261   1.145
 5748SOL    HW218144   0.311   6.265   1.218
 5749SOL     OW18145   1.920   5.794   6.249
 5749SOL    HW118146   1.850   5.793   6.321
 5749SOL    HW218147   1.876   5.801   6.160
 5750SOL     OW18148   7.000   3.046   4.362
 5750SOL    HW118149   0.041   3.117   4.397
 5750SOL    HW218150   6.921   3.036   4.424
 5751SOL     OW18151   1.301   3.989   4.781
 5751SOL    HW118152   1.353   3.980   4.866
 5751SOL    HW218153   1.360   3.966   4.703
 5752SOL     OW18154   4.737   0.501   1.008
 5752SOL    HW118155   4.697   0.422   1.054
 5752SOL    HW218156   4.753   0.574   1.074
 5753SOL     OW18157   3.965   4.236   5.237
 5753SOL    HW118158   3.927   4.209   5.150
 5753SOL    HW218159   3.955   4.335   5.249
 5754SOL     OW18160   0.808   5.627   1.122
 5754SOL    HW118161   0.709   5.615   1.116
 5754SOL    HW218162   0.837   5.699   1.060
 5755SOL     OW18163   1.378   2.587   6.814
 5755SOL    HW118164   1.285   2.571   6.845
 5755SOL    HW218165   1.409   2.676   6.846
 5756SOL     OW18166   6.000   6.261   1.836
 5756SOL    HW118167   6.047   6.287   1.752
 5756SOL    HW218168   5.944   6.179   1.819
 5757SOL     OW18169   6.809   0.814   4.354
 5757SOL    HW118170   6.879   0.779   4.292
 5757SOL    HW218171   6.806   0.914   4.348
 5758SOL     OW18172   5.855   6.894   2.882
 5758SOL    HW118173   5.904   6.888   2.796
 5758SOL    HW218174   5.838   6.990   2.904
 5759SOL     OW18175   3.164   0.367   1.432
 5759SOL    HW118176   3.126   0.455   1.407
 5759SOL    HW218177   3.235   0.341   1.367
 5760SOL     OW18178   1.122   2.893   0.537
 5760SOL    HW118179   1.197   2.831   0.561
 5760SOL    HW218180   1.047   2.881   0.603
 5761SOL     OW18181   5.962   0.256   4.829
 5761SOL    HW118182   5.873   0.212   4.816
 5761SOL    HW218183   5.983   0.313   4.751
 5762SOL     OW18184   6.819   5.259   6.790
 5762SOL    HW118185   6.806   5.160   6.791
 5762SOL    HW218186   6.785   5.296   6.704
 5763SOL     OW18187   5.832   0.200   0.170
 5763SOL    HW118188   5.854   0.181   0.265
 5763SOL    HW218189   5.812   0.115   0.122
 5764SOL     OW18190   5.117   6.479   3.728
 5764SOL    HW118191   5.099   6.576   3.710
 5764SOL    HW218192   5.051   6.444   3.794
 5765SOL     OW18193   6.285   5.012   2.524
 5765SOL    HW118194   6.328   5.037   2.611
 5765SOL    HW218195   6.351   4.961   2.468
 5766SOL     OW18196   0.005   1.289   4.385
 5766SOL    HW118197   0.038   1.382   4.397
 5766SOL    HW218198   0.032   1.233   4.463
 5767SOL     OW18199   3.948   6.538   6.992
 5767SOL    HW118200   3.961   6.512   0.068
 5767SOL    HW218201   3.914   6.459   6.941
 5768SOL     OW18202   0.659   0.630   4.926
 5768SOL    HW118203   0.691   0.576   4.848
 5768SOL    HW218204   0.645   0.725   4.898
 5769SOL     OW18205   1.680   3.979   6.160
 5769SOL    HW118206   1.664   3.887   6.197
 5769SOL    HW218207   1.593   4.021   6.136
 5770SOL     OW18208   1.632   4.341   2.015
 5770SOL    HW118209   1.720   4.384   2.033
 5770SOL    HW218210   1.647   4.246   1.987
 5771SOL     OW18211   3.202   5.247   3.487
 5771SOL    HW118212   3.124   5.274   3.543
 5771SOL    HW218213   3.269   5.321   3.485
 5772SOL     OW18214   3.023   0.343   2.665
 5772SOL    HW118215   2.963   0.392   2.728
 5772SOL    HW218216   3.009   0.377   2.572
 5773SOL     OW18217   4.798   1.465   2.409
 5773SOL    HW118218   4.830   1.376   2.376
 5773SOL    HW218219   4.705   1.480   2.377
 5774SOL     OW18220   0.492   6.849   2.096
 5774SOL    HW118221   0.441   6.922   2.049
 5774SOL    HW218222   0.431   6.801   2.159
 5775SOL     OW18223   6.770   5.526   1.571
 5775SOL    HW118224   6.729   5.616   1.583
 5775SOL    HW218225   6.699   5.456   1.572
 5776SOL     OW18226   2.726   1.375   4.129
 5776SOL    HW118227   2.729   1.400   4.225
 5776SOL    HW218228   2.650   1.424   4.084
 5777SOL     OW18229   1.808   6.421   2.351
 5777SOL    HW118230   1.793   6.415   2.450
 5777SOL    HW218231   1.790   6.332   2.310
 5778SOL     OW18232   0.517   1.857   0.767
 5778SOL    HW118233   0.439   1.839   0.828
 5778SOL    HW218234   0.575   1.776   0.762
 5779SOL     OW18235   5.896   1.311   5.836
 5779SOL    HW118236   5.869   1.334   5.742
 5779SOL    HW218237   5.996   1.319   5.845
 5780SOL     OW18238   4.941   5.667   4.268
 5780SOL    HW118239   4.855   5.718   4.274
 5780SOL    HW218240   5.018   5.729   4.284
 5781SOL     OW18241   0.454   5.199   4.979
 5781SOL    HW118242   0.516   5.275   4.962
 5781SOL    HW218243   0.411   5.171   4.893
 5782SOL     OW18244   0.423   0.561   0.379
 5782SOL    HW118245   0.449   0.623   0.453
 5782SOL    HW218246   0.342   0.597   0.332
 5783SOL     OW18247   1.416   2.095   0.522
 5783SOL    HW118248   1.455   2.125   0.609
 5783SOL    HW218249   1.467   2.136   0.446
 5784SOL     OW18250   6.681   5.881   6.533
 5784SOL    HW118251   6.650   5.797   6.577
 5784SOL    HW218252   6.780   5.877   6.521
 5785SOL     OW18253   1.142   1.402   0.337
 5785SOL    HW118254   1.167   1.463   0.261
 5785SOL    HW218255   1.204   1.324   0.337
 5786SOL     OW18256   5.620   5.234   1.637
 5786SOL    HW118257   5.699   5.203   1.585
 5786SOL    HW218258   5.575   5.156   1.680
 5787SOL     OW18259   2.442   2.755   5.970
 5787SOL    HW118260   2.491   2.687   5.915
 5787SOL    HW218261   2.373   2.801   5.914
 5788SOL     OW18262   2.477   1.057   3.496
 5788SOL    HW118263   2.409   1.105   3.441
 5788SOL    HW218264   2.471   0.959   3.479
 5789SOL     OW18265   3.898   4.860   6.157
 5789SOL    HW118266   3.843   4.776   6.153
 5789SOL    HW218267   3.838   4.939   6.139
 5790SOL     OW18268   0.908   2.821   3.588
 5790SOL    HW118269   0.846   2.818   3.510
 5790SOL    HW218270   0.962   2.737   3.591
 5791SOL     OW18271   2.338   0.735   3.143
 5791SOL    HW118272   2.247   0.705   3.115
 5791SOL    HW218273   2.388   0.658   3.183
 5792SOL     OW18274   0.020   2.461   2.611
 5792SOL    HW118275   6.975   2.427   2.679
 5792SOL    HW218276   0.011   2.409   2.526
 5793SOL     OW18277   0.210   0.348   3.807
 5793SOL    HW118278   0.283   0.384   3.749
 5793SOL    HW218279   0.245   0.269   3.858
 5794SOL     OW18280   4.707   4.367   6.841
 5794SOL    HW118281   4.785   4.316   6.802
 5794SOL    HW218282   4.667   4.426   6.771
 5795SOL     OW18283   6.074   4.409   6.928
 5795SOL    HW118284   6.017   4.489   6.910
 5795SOL    HW218285   6.089   4.359   6.843
 5796SOL     OW18286   3.854   1.660   0.662
 5796SOL    HW118287   3.852   1.724   0.739
 5796SOL    HW218288   3.945   1.622   0.653
 5797SOL     OW18289   3.051   1.896   5.583
 5797SOL    HW118290   3.066   1.995   5.580
 5797SOL    HW218291   3.055   1.859   5.490
 5798SOL     OW18292   0.020   4.581   4.238
 5798SOL    HW118293   6.991   4.560   4.322
 5798SOL    HW218294   7.016   4.513   4.168
 5799SOL     OW18295   5.420   0.327   3.642
 5799SOL    HW118296   5.414   0.357   3.737
 5799SOL    HW218297   5.504   0.274   3.630
 5800SOL     OW18298   6.097   5.564   1.189
 5800SOL    HW118299   6.011   5.518   1.167
 5800SOL    HW218300   6.104   5.575   1.288
 5801SOL     OW18301   2.428   1.627   3.282
 5801SOL    HW118302   2.396   1.704   3.227
 5801SOL    HW218303   2.497   1.659   3.347
 5802SOL     OW18304   0.975   3.425   5.149
 5802SOL    HW118305   1.041   3.351   5.135
 5802SOL    HW218306   1.020   3.513   5.137
 5803SOL     OW18307   1.591   4.938   0.173
 5803SOL    HW118308   1.604   4.839   0.186
 5803SOL    HW218309   1.628   4.987   0.252
 5804SOL     OW18310   6.132   3.521   4.537
 5804SOL    HW118311   6.035   3.528   4.564
 5804SOL    HW218312   6.141   3.454   4.464
 5805SOL     OW18313   5.113   3.500   6.766
 5805SOL    HW118314   5.085   3.490   6.670
 5805SOL    HW218315   5.142   3.411   6.801
 5806SOL     OW18316   0.717   6.250   0.157
 5806SOL    HW118317   0.639   6.194   0.128
 5806SOL    HW218318   0.741   6.226   0.251
 5807SOL     OW18319   1.978   3.603   2.007
 5807SOL    HW118320   2.066   3.556   1.992
 5807SOL    HW218321   1.986   3.662   2.087
 5808SOL     OW18322   6.845   3.634   2.955
 5808SOL    HW118323   6.783   3.569   2.912
 5808SOL    HW218324   6.821   3.643   3.052
 5809SOL     OW18325   6.772   3.262   4.150
 5809SOL    HW118326   6.678   3.285   4.126
 5809SOL    HW218327   6.813   3.337   4.201
 5810SOL     OW18328   2.671   2.229   2.467
 5810SOL    HW118329   2.759   2.212   2.512
 5810SOL    HW218330   2.624   2.305   2.513
 5811SOL     OW18331   2.273   1.423   3.645
 5811SOL    HW118332   2.341   1.404   3.575
 5811SOL    HW218333   2.256   1.340   3.699
 5812SOL     OW18334   4.593   0.554   4.678
 5812SOL    HW118335   4.664   0.532   4.745
 5812SOL    HW218336   4.517   0.601   4.723
 5813SOL     OW18337   1.752   0.691   5.321
 5813SOL    HW118338   1.800   0.661   5.238
 5813SOL    HW218339   1.672   0.633   5.336
 5814SOL     OW18340   0.301   4.789   0.696
 5814SOL    HW118341   0.206   4.759   0.699
 5814SOL    HW218342   0.319   4.852   0.772
 5815SOL     OW18343   3.401   1.706   2.902
 5815SOL    HW118344   3.478   1.737   2.846
 5815SOL    HW218345   3.334   1.661   2.843
 5816SOL     OW18346   4.807   0.351   0.791
 5816SOL    HW118347   4.759   0.267   0.814
 5816SOL    HW218348   4.802   0.414   0.869
 5817SOL     OW18349   5.141   3.046   5.000
 5817SOL    HW118350   5.053   3.006   5.025
 5817SOL    HW218351   5.151   3.134   5.046
 5818SOL     OW18352   5.791   6.575   6.099
 5818SOL    HW118353   5.703   6.553   6.057
 5818SOL    HW218354   5.859   6.505   6.074
 5819SOL     OW18355   6.056   0.236   1.589
 5819SOL    HW118356   6.065   0.331   1.559
 5819SOL    HW218357   5.961   0.208   1.581
 5820SOL     OW18358   5.329   6.257   2.995
 5820SOL    HW118359   5.382   6.174   3.014
 5820SOL    HW218360   5.391   6.335   2.985
 5821SOL     OW18361   2.660   0.962   1.847
 5821SOL    HW118362   2.694   0.953   1.941
 5821SOL    HW218363   2.736   0.973   1.784
 5822SOL     OW18364   0.015   1.403   2.185
 5822SOL    HW118365   6.962   1.338   2.211
 5822SOL    HW218366   7.016   1.437   2.092
 5823SOL     OW18367   2.586   2.045   3.779
 5823SOL    HW118368   2.609   2.066   3.684
 5823SOL    HW218369   2.498   2.088   3.802
 5824SOL     OW18370   4.810   0.208   3.572
 5824SOL    HW118371   4.774   0.262   3.496
 5824SOL    HW218372   4.740   0.144   3.603
 5825SOL     OW18373   2.814   0.795   0.883
 5825SOL    HW118374   2.840   0.757   0.795
 5825SOL    HW218375   2.804   0.894   0.876
 5826SOL     OW18376   6.579   0.665   4.407
 5826SOL    HW118377   6.637   0.588   4.432
 5826SOL    HW218378   6.635   0.739   4.372
 5827SOL     OW18379   1.137   5.808   4.943
 5827SOL    HW118380   1.052   5.806   4.995
 5827SOL    HW218381   1.117   5.819   4.845
 5828SOL     OW18382   0.136   3.492   1.768
 5828SOL    HW118383   0.199   3.498   1.845
 5828SOL    HW218384   0.069   3.419   1.785
 5829SOL     OW18385   1.971   1.395   1.749
 5829SOL    HW118386   1.924   1.449   1.679
 5829SOL    HW218387   1.905   1.341   1.801
 5830SOL     OW18388   2.041   1.580   5.760
 5830SOL    HW118389   2.086   1.661   5.723
 5830SOL    HW218390   2.070   1.499   5.708
 5831SOL     OW18391   5.350   6.672   2.999
 5831SOL    HW118392   5.351   6.667   3.098
 5831SOL    HW218393   5.409   6.747   2.968
 5832SOL     OW18394   3.850   3.634   5.151
 5832SOL    HW118395   3.864   3.545   5.193
 5832SOL    HW218396   3.927   3.655   5.091
 5833SOL     OW18397   3.343   2.944   5.059
 5833SOL    HW118398   3.353   2.911   5.153
 5833SOL    HW218399   3.418   2.909   5.003
 5834SOL     OW18400   5.843   1.301   0.708
 5834SOL    HW118401   5.759   1.276   0.756
 5834SOL    HW218402   5.829   1.387   0.659
 5835SOL     OW18403   4.845   2.530   3.871
 5835SOL    HW118404   4.749   2.545   3.897
 5835SOL    HW218405   4.872   2.599   3.804
 5836SOL     OW18406   3.592   6.096   2.378
 5836SOL    HW118407   3.502   6.060   2.353
 5836SOL    HW218408   3.609   6.181   2.328
 5837SOL     OW18409   4.855   4.676   6.486
 5837SOL    HW118410   4.886   4.637   6.399
 5837SOL    HW218411   4.784   4.618   6.525
 5838SOL     OW18412   1.088   0.882   5.524
 5838SOL    HW118413   1.137   0.819   5.463
 5838SOL    HW218414   1.031   0.944   5.470
 5839SOL     OW18415   0.128   3.085   2.776
 5839SOL    HW118416   0.223   3.114   2.787
 5839SOL    HW218417   0.069   3.166   2.769
 5840SOL     OW18418   2.133   5.232   0.013
 5840SOL    HW118419   2.037   5.227   0.042
 5840SOL    HW218420   2.190   5.252   0.093
 5841SOL     OW18421   0.156   2.239   3.266
 5841SOL    HW118422   0.220   2.312   3.238
 5841SOL    HW218423   0.207   2.154   3.278
 5842SOL     OW18424   3.491   3.176   0.716
 5842SOL    HW118425   3.448   3.098   0.761
 5842SOL    HW218426   3.507   3.155   0.620
 5843SOL     OW18427   1.418   3.581   1.923
 5843SOL    HW118428   1.508   3.579   1.880
 5843SOL    HW218429   1.360   3.510   1.881
 5844SOL     OW18430   1.102   6.081   6.696
 5844SOL    HW118431   1.029   6.060   6.761
 5844SOL    HW218432   1.172   6.009   6.700
 5845SOL     OW18433   1.048   2.399   4.387
 5845SOL    HW118434   0.957   2.370   4.420
 5845SOL    HW218435   1.091   2.324   4.338
 5846SOL     OW18436   6.847   3.136   6.334
 5846SOL    HW118437   6.827   3.082   6.252
 5846SOL    HW218438   6.946   3.139   6.348
 5847SOL     OW18439   2.391   2.657   2.685
 5847SOL    HW118440   2.310   2.630   2.634
 5847SOL    HW218441   2.365   2.718   2.760
 5848SOL     OW18442   1.444   4.663   3.376
 5848SOL    HW118443   1.431   4.608   3.459
 5848SOL    HW218444   1.416   4.611   3.296
 5849SOL     OW18445   2.319   6.754   5.558
 5849SOL    HW118446   2.242   6.810   5.525
 5849SOL    HW218447   2.291   6.658   5.562
 5850SOL     OW18448   1.021   4.988   2.666
 5850SOL    HW118449   0.976   5.007   2.753
 5850SOL    HW218450   1.041   5.074   2.619
 5851SOL     OW18451   6.163   3.365   2.079
 5851SOL    HW118452   6.119   3.444   2.036
 5851SOL    HW218453   6.150   3.370   2.178
 5852SOL     OW18454   4.136   5.645   2.845
 5852SOL    HW118455   4.080   5.651   2.927
 5852SOL    HW218456   4.229   5.618   2.869
 5853SOL     OW18457   3.770   4.830   5.620
 5853SOL    HW118458   3.839   4.783   5.564
 5853SOL    HW218459   3.755   4.778   5.704
 5854SOL     OW18460   6.825   1.271   6.001
 5854SOL    HW118461   6.873   1.357   5.984
 5854SOL    HW218462   6.882   1.195   5.971
 5855SOL     OW18463   1.473   0.745   4.943
 5855SOL    HW118464   1.532   0.825   4.953
 5855SOL    HW218465   1.528   0.666   4.917
 5856SOL     OW18466   2.050   4.585   3.897
 5856SOL    HW118467   2.005   4.541   3.819
 5856SOL    HW218468   2.012   4.548   3.982
 5857SOL     OW18469   6.689   3.152   5.245
 5857SOL    HW118470   6.746   3.071   5.248
 5857SOL    HW218471   6.653   3.164   5.153
 5858SOL     OW18472   3.953   0.907   2.706
 5858SOL    HW118473   3.968   0.888   2.609
 5858SOL    HW218474   3.909   0.996   2.716
 5859SOL     OW18475   6.209   6.660   1.115
 5859SOL    HW118476   6.200   6.598   1.036
 5859SOL    HW218477   6.119   6.698   1.137
 5860SOL     OW18478   1.734   3.577   1.276
 5860SOL    HW118479   1.777   3.529   1.352
 5860SOL    HW218480   1.635   3.561   1.278
 5861SOL     OW18481   6.353   2.565   4.219
 5861SOL    HW118482   6.265   2.521   4.202
 5861SOL    HW218483   6.363   2.645   4.160
 5862SOL     OW18484   4.760   4.350   2.944
 5862SOL    HW118485   4.728   4.318   3.033
 5862SOL    HW218486   4.681   4.373   2.887
 5863SOL     OW18487   2.361   1.367   0.187
 5863SOL    HW118488   2.334   1.290   0.128
 5863SOL    HW218489   2.346   1.343   0.283
 5864SOL     OW18490   4.716   4.812   1.333
 5864SOL    HW118491   4.799   4.777   1.377
 5864SOL    HW218492   4.723   4.800   1.234
 5865SOL     OW18493   4.278   0.729   3.192
 5865SOL    HW118494   4.319   0.639   3.199
 5865SOL    HW218495   4.283   0.761   3.097
 5866SOL     OW18496   4.200   0.065   6.447
 5866SOL    HW118497   4.228   0.159   6.463
 5866SOL    HW218498   4.275   0.014   6.404
 5867SOL     OW18499   0.182   2.680   1.560
 5867SOL    HW118500   0.281   2.686   1.549
 5867SOL    HW218501   0.138   2.685   1.470
 5868SOL     OW18502   1.691   6.847   5.293
 5868SOL    HW118503   1.750   6.774   5.327
 5868SOL    HW218504   1.743   6.933   5.290
 5869SOL     OW18505   2.660   4.797   3.534
 5869SOL    HW118506   2.638   4.825   3.441
 5869SOL    HW218507   2.598   4.724   3.563
 5870SOL     OW18508   5.199   5.064   5.065
 5870SOL    HW118509   5.236   5.000   5.133
 5870SOL    HW218510   5.240   5.046   4.976
 5871SOL     OW18511   2.828   3.181   6.914
 5871SOL    HW118512   2.754   3.228   6.866
 5871SOL    HW218513   2.790   3.123   6.985
 5872SOL     OW18514   3.293   6.007   5.406
 5872SOL    HW118515   3.196   5.989   5.391
 5872SOL    HW218516   3.313   6.102   5.382
 5873SOL     OW18517   2.698   3.588   7.004
 5873SOL    HW118518   2.670   3.682   0.003
 5873SOL    HW218519   2.698   3.536   0.070
 5874SOL     OW18520   1.818   4.124   0.975
 5874SOL    HW118521   1.752   4.049   0.979
 5874SOL    HW218522   1.856   4.130   0.883
 5875SOL     OW18523   4.273   1.900   0.318
 5875SOL    HW118524   4.306   1.994   0.330
 5875SOL    HW218525   4.277   1.851   0.405
 5876SOL     OW18526   3.252   4.464   5.891
 5876SOL    HW118527   3.344   4.503   5.889
 5876SOL    HW218528   3.247   4.393   5.961
 5877SOL     OW18529   0.448   6.898   2.858
 5877SOL    HW118530   0.352   6.914   2.834
 5877SOL    HW218531   0.487   6.981   2.897
 5878SOL     OW18532   5.132   4.522   2.729
 5878SOL    HW118533   5.126   4.534   2.828
 5878SOL    HW218534   5.070   4.450   2.700
 5879SOL     OW18535   3.542   3.351   6.042
 5879SOL    HW118536   3.442   3.354   6.050
 5879SOL    HW218537   3.577   3.269   6.087
 5880SOL     OW18538   5.234   2.498   5.740
 5880SOL    HW118539   5.248   2.468   5.646
 5880SOL    HW218540   5.141   2.475   5.769
 5881SOL     OW18541   1.111   6.208   1.979
 5881SOL    HW118542   1.095   6.244   1.887
 5881SOL    HW218543   1.071   6.270   2.046
 5882SOL     OW18544   1.686   5.445   5.421
 5882SOL    HW118545   1.744   5.445   5.503
 5882SOL    HW218546   1.649   5.353   5.407
 5883SOL     OW18547   0.010   4.713   0.703
 5883SOL    HW118548   0.003   4.686   0.799
 5883SOL    HW218549   6.949   4.767   0.678
 5884SOL     OW18550   6.299   2.339   3.409
 5884SOL    HW118551   6.329   2.373   3.319
 5884SOL    HW218552   6.202   2.358   3.420
 5885SOL     OW18553   6.603   5.588   0.357
 5885SOL    HW118554   6.585   5.561   0.262
 5885SOL    HW218555   6.690   5.637   0.361
 5886SOL     OW18556   1.818   4.138   3.688
 5886SOL    HW118557   1.759   4.130   3.769
 5886SOL    HW218558   1.910   4.106   3.711
 5887SOL     OW18559   2.202   2.636   1.022
 5887SOL    HW118560   2.292   2.633   1.064
 5887SOL    HW218561   2.211   2.623   0.923
 5888SOL     OW18562   3.420   6.914   1.084
 5888SOL    HW118563   3.370   6.872   1.009
 5888SOL    HW218564   3.443   6.845   1.152
 5889SOL     OW18565   5.848   0.775   1.978
 5889SOL    HW118566   5.910   0.704   2.011
 5889SOL    HW218567   5.856   0.783   1.878
 5890SOL     OW18568   2.049   5.854   2.602
 5890SOL    HW118569   1.964   5.877   2.649
 5890SOL    HW218570   2.099   5.785   2.654
 5891SOL     OW18571   1.929   3.355   0.362
 5891SOL    HW118572   1.945   3.291   0.286
 5891SOL    HW218573   1.884   3.437   0.326
 5892SOL     OW18574   0.938   3.503   0.734
 5892SOL    HW118575   0.949   3.578   0.800
 5892SOL    HW218576   1.005   3.515   0.661
 5893SOL     OW18577   0.972   6.224   1.329
 5893SOL    HW118578   1.035   6.189   1.399
 5893SOL    HW218579   0.932   6.148   1.279
 5894SOL     OW18580   2.677   5.564   6.697
 5894SOL    HW118581   2.651   5.660   6.706
 5894SOL    HW218582   2.609   5.516   6.642
 5895SOL     OW18583   5.246   4.044   4.226
 5895SOL    HW118584   5.264   4.107   4.302
 5895SOL    HW218585   5.148   4.041   4.208
 5896SOL     OW18586   5.823   2.611   2.298
 5896SOL    HW118587   5.830   2.516   2.269
 5896SOL    HW218588   5.737   2.650   2.265
 5897SOL     OW18589   4.042   2.604   0.168
 5897SOL    HW118590   4.056   2.586   0.266
 5897SOL    HW218591   4.010   2.698   0.156
 5898SOL     OW18592   2.144   1.364   5.656
 5898SOL    HW118593   2.061   1.323   5.618
 5898SOL    HW218594   2.180   1.306   5.730
 5899SOL     OW18595   6.964   6.229   6.602
 5899SOL    HW118596   6.874   6.271   6.593
 5899SOL    HW218597   0.009   6.296   6.638
 5900SOL     OW18598   5.930   6.510   3.169
 5900SOL    HW118599   5.899   6.602   3.191
 5900SOL    HW218600   5.868   6.443   3.211
 5901SOL     OW18601   2.384   0.912   5.170
 5901SOL    HW118602   2.477   0.924   5.135
 5901SOL    HW218603   2.346   1.001   5.195
 5902SOL     OW18604   4.587   3.852   6.251
 5902SOL    HW118605   4.607   3.771   6.195
 5902SOL    HW218606   4.495   3.845   6.288
 5903SOL     OW18607   6.174   2.011   5.888
 5903SOL    HW118608   6.208   2.104   5.902
 5903SOL    HW218609   6.088   1.999   5.937
 5904SOL     OW18610   1.444   4.430   1.748
 5904SOL    HW118611   1.478   4.432   1.654
 5904SOL    HW218612   1.502   4.487   1.806
 5905SOL     OW18613   5.567   0.937   4.430
 5905SOL    HW118614   5.512   0.947   4.513
 5905SOL    HW218615   5.639   0.869   4.446
 5906SOL     OW18616   4.934   1.016   5.583
 5906SOL    HW118617   4.856   1.035   5.524
 5906SOL    HW218618   4.937   1.083   5.657
 5907SOL     OW18619   1.721   3.830   5.752
 5907SOL    HW118620   1.713   3.786   5.841
 5907SOL    HW218621   1.681   3.770   5.682
 5908SOL     OW18622   5.365   3.223   6.368
 5908SOL    HW118623   5.423   3.293   6.327
 5908SOL    HW218624   5.273   3.231   6.331
 5909SOL     OW18625   6.577   4.798   3.778
 5909SOL    HW118626   6.503   4.731   3.777
 5909SOL    HW218627   6.594   4.831   3.685
 5910SOL     OW18628   2.797   4.471   0.927
 5910SOL    HW118629   2.730   4.481   1.002
 5910SOL    HW218630   2.751   4.431   0.848
 5911SOL     OW18631   5.192   6.693   6.846
 5911SOL    HW118632   5.198   6.736   6.936
 5911SOL    HW218633   5.234   6.602   6.850
 5912SOL     OW18634   6.803   3.432   6.232
 5912SOL    HW118635   6.882   3.488   6.208
 5912SOL    HW218636   6.828   3.335   6.226
 5913SOL     OW18637   1.244   1.929   5.366
 5913SOL    HW118638   1.256   1.874   5.449
 5913SOL    HW218639   1.250   1.870   5.285
 5914SOL     OW18640   1.986   6.049   1.150
 5914SOL    HW118641   1.906   6.046   1.091
 5914SOL    HW218642   1.958   6.050   1.246
 5915SOL     OW18643   4.958   3.297   2.869
 5915SOL    HW118644   4.941   3.298   2.771
 5915SOL    HW218645   4.921   3.213   2.909
 5916SOL     OW18646   2.997   0.064   6.000
 5916SOL    HW118647   3.033   0.146   6.046
 5916SOL    HW218648   2.947   0.092   5.917
 5917SOL     OW18649   3.791   2.974   2.793
 5917SOL    HW118650   3.728   2.929   2.730
 5917SOL    HW218651   3.772   3.072   2.794
 5918SOL     OW18652   1.966   2.556   4.082
 5918SOL    HW118653   1.955   2.605   4.168
 5918SOL    HW218654   1.901   2.592   4.015
 5919SOL     OW18655   1.107   2.944   0.272
 5919SOL    HW118656   1.054   3.029   0.269
 5919SOL    HW218657   1.122   2.917   0.367
 5920SOL     OW18658   3.272   5.559   6.958
 5920SOL    HW118659   3.308   5.530   6.870
 5920SOL    HW218660   3.211   5.637   6.944
 5921SOL     OW18661   4.179   5.632   5.066
 5921SOL    HW118662   4.193   5.575   4.985
 5921SOL    HW218663   4.130   5.579   5.135
 5922SOL     OW18664   5.563   4.235   1.978
 5922SOL    HW118665   5.484   4.181   1.949
 5922SOL    HW218666   5.636   4.227   1.910
 5923SOL     OW18667   0.066   6.990   3.466
 5923SOL    HW118668   6.992   7.010   3.437
 5923SOL    HW218669   0.116   6.947   3.391
 5924SOL     OW18670   5.542   2.502   4.358
 5924SOL    HW118671   5.472   2.572   4.342
 5924SOL    HW218672   5.544   2.479   4.456
 5925SOL     OW18673   6.434   6.002   1.034
 5925SOL    HW118674   6.524   6.035   1.060
 5925SOL    HW218675   6.443   5.926   0.969
 5926SOL     OW18676   3.446   5.170   2.083
 5926SOL    HW118677   3.421   5.267   2.083
 5926SOL    HW218678   3.545   5.162   2.073
 5927SOL     OW18679   2.259   5.416   1.930
 5927SOL    HW118680   2.310   5.494   1.893
 5927SOL    HW218681   2.193   5.385   1.862
 5928SOL     OW18682   1.230   6.722   1.659
 5928SOL    HW118683   1.301   6.788   1.634
 5928SOL    HW218684   1.261   6.669   1.738
 5929SOL     OW18685   1.801   0.085   5.677
 5929SOL    HW118686   1.825   7.007   5.676
 5929SOL    HW218687   1.727   0.102   5.611
 5930SOL     OW18688   6.789   1.729   5.086
 5930SOL    HW118689   6.689   1.732   5.079
 5930SOL    HW218690   6.819   1.634   5.080
 5931SOL     OW18691   5.905   5.344   1.436
 5931SOL    HW118692   5.975   5.391   1.490
 5931SOL    HW218693   5.939   5.255   1.406
 5932SOL     OW18694   2.229   6.304   0.294
 5932SOL    HW118695   2.149   6.350   0.331
 5932SOL    HW218696   2.215   6.285   0.197
 5933SOL     OW18697   6.250   3.512   3.049
 5933SOL    HW118698   6.324   3.577   3.066
 5933SOL    HW218699   6.237   3.455   3.130
 5934SOL     OW18700   3.983   3.760   3.258
 5934SOL    HW118701   3.909   3.693   3.252
 5934SOL    HW218702   3.948   3.850   3.230
 5935SOL     OW18703   3.457   3.159   3.514
 5935SOL    HW118704   3.450   3.188   3.609
 5935SOL    HW218705   3.465   3.239   3.455
 5936SOL     OW18706   5.816   5.905   6.640
 5936SOL    HW118707   5.912   5.928   6.624
 5936SOL    HW218708   5.759   5.957   6.576
 5937SOL     OW18709   1.229   3.656   1.011
 5937SOL    HW118710   1.130   3.661   1.002
 5937SOL    HW218711   1.256   3.685   1.103
 5938SOL     OW18712   2.100   4.109   1.603
 5938SOL    HW118713   2.156   4.191   1.594
 5938SOL    HW218714   2.150   4.030   1.568
 5939SOL     OW18715   2.798   0.720   3.150
 5939SOL    HW118716   2.771   0.816   3.141
 5939SOL    HW218717   2.892   0.716   3.184
 5940SOL     OW18718   4.299   5.698   3.699
 5940SOL    HW118719   4.240   5.758   3.645
 5940SOL    HW218720   4.367   5.753   3.748
 5941SOL     OW18721   6.596   4.485   2.595
 5941SOL    HW118722   6.649   4.417   2.546
 5941SOL    HW218723   6.594   4.463   2.693
 5942SOL     OW18724   5.869   1.900   5.665
 5942SOL    HW118725   5.826   1.924   5.752
 5942SOL    HW218726   5.850   1.805   5.643
 5943SOL     OW18727   1.389   5.743   6.938
 5943SOL    HW118728   1.383   5.777   0.012
 5943SOL    HW218729   1.478   5.701   6.923
 5944SOL     OW18730   4.393   2.146   2.628
 5944SOL    HW118731   4.343   2.060   2.618
 5944SOL    HW218732   4.468   2.149   2.562
 5945SOL     OW18733   6.996   4.907   5.463
 5945SOL    HW118734   0.052   4.943   5.407
 5945SOL    HW218735   0.009   4.828   5.515
 5946SOL     OW18736   3.798   2.985   5.620
 5946SOL    HW118737   3.764   2.902   5.577
 5946SOL    HW218738   3.727   3.024   5.679
 5947SOL     OW18739   4.151   3.559   1.574
 5947SOL    HW118740   4.165   3.607   1.660
 5947SOL    HW218741   4.124   3.465   1.592
 5948SOL     OW18742   3.868   4.839   2.595
 5948SOL    HW118743   3.878   4.830   2.495
 5948SOL    HW218744   3.782   4.885   2.616
 5949SOL     OW18745   4.531   4.789   2.015
 5949SOL    HW118746   4.440   4.772   1.979
 5949SOL    HW218747   4.579   4.702   2.027
 5950SOL     OW18748   6.273   2.525   3.812
 5950SOL    HW118749   6.295   2.596   3.879
 5950SOL    HW218750   6.323   2.543   3.727
 5951SOL     OW18751   2.079   5.847   3.610
 5951SOL    HW118752   2.001   5.835   3.673
 5951SOL    HW218753   2.161   5.806   3.651
 5952SOL     OW18754   6.825   6.883   4.885
 5952SOL    HW118755   6.863   6.793   4.863
 5952SOL    HW218756   6.746   6.871   4.945
 5953SOL     OW18757   0.471   3.088   6.227
 5953SOL    HW118758   0.552   3.035   6.200
 5953SOL    HW218759   0.478   3.111   6.324
 5954SOL     OW18760   0.636   5.327   6.838
 5954SOL    HW118761   0.724   5.375   6.841
 5954SOL    HW218762   0.652   5.231   6.817
 5955SOL     OW18763   5.405   5.857   2.336
 5955SOL    HW118764   5.488   5.868   2.280
 5955SOL    HW218765   5.409   5.770   2.384
 5956SOL     OW18766   6.506   2.295   0.178
 5956SOL    HW118767   6.432   2.320   0.116
 5956SOL    HW218768   6.495   2.200   0.205
 5957SOL     OW18769   5.272   6.911   6.019
 5957SOL    HW118770   5.275   7.010   6.007
 5957SOL    HW218771   5.364   6.878   6.040
 5958SOL     OW18772   0.605   5.458   2.145
 5958SOL    HW118773   0.672   5.386   2.127
 5958SOL    HW218774   0.607   5.482   2.242
 5959SOL     OW18775   2.195   1.629   5.984
 5959SOL    HW118776   2.144   1.588   5.909
 5959SOL    HW218777   2.293   1.621   5.966
 5960SOL     OW18778   3.508   0.412   4.395
 5960SOL    HW118779   3.524   0.321   4.433
 5960SOL    HW218780   3.530   0.411   4.297
 5961SOL     OW18781   3.077   0.840   5.941
 5961SOL    HW118782   3.036   0.914   5.995
 5961SOL    HW218783   3.154   0.876   5.888
 5962SOL     OW18784   5.724   5.252   2.474
 5962SOL    HW118785   5.772   5.182   2.527
 5962SOL    HW218786   5.771   5.267   2.387
 5963SOL     OW18787   4.122   3.713   2.108
 5963SOL    HW118788   4.190   3.710   2.181
 5963SOL    HW218789   4.053   3.782   2.129
 5964SOL     OW18790   1.686   4.743   5.572
 5964SOL    HW118791   1.639   4.689   5.502
 5964SOL    HW218792   1.741   4.683   5.630
 5965SOL     OW18793   2.672   1.775   4.711
 5965SOL    HW118794   2.765   1.803   4.733
 5965SOL    HW218795   2.640   1.709   4.779
 5966SOL     OW18796   1.642   6.647   3.768
 5966SOL    HW118797   1.672   6.570   3.711
 5966SOL    HW218798   1.721   6.706   3.787
 5967SOL     OW18799   4.947   0.011   2.249
 5967SOL    HW118800   4.994   7.017   2.336
 5967SOL    HW218801   4.976   0.098   2.208
 5968SOL     OW18802   0.547   2.295   4.304
 5968SOL    HW118803   0.534   2.211   4.250
 5968SOL    HW218804   0.495   2.369   4.262
 5969SOL     OW18805   5.748   3.003   2.490
 5969SOL    HW118806   5.830   2.947   2.501
 5969SOL    HW218807   5.742   3.034   2.395
 5970SOL     OW18808   1.754   2.482   3.472
 5970SOL    HW118809   1.822   2.554   3.483
 5970SOL    HW218810   1.685   2.490   3.544
 5971SOL     OW18811   2.399   0.224   2.387
 5971SOL    HW118812   2.359   0.315   2.397
 5971SOL    HW218813   2.458   0.222   2.307
 5972SOL     OW18814   4.607   6.267   1.187
 5972SOL    HW118815   4.546   6.346   1.193
 5972SOL    HW218816   4.663   6.262   1.270
 5973SOL     OW18817   1.064   4.732   3.390
 5973SOL    HW118818   1.091   4.717   3.485
 5973SOL    HW218819   0.992   4.801   3.386
 5974SOL     OW18820   0.994   3.546   6.204
 5974SOL    HW118821   0.905   3.501   6.216
 5974SOL    HW218822   0.984   3.644   6.224
 5975SOL     OW18823   2.006   2.593   0.175
 5975SOL    HW118824   1.930   2.558   0.231
 5975SOL    HW218825   2.035   2.682   0.210
 5976SOL     OW18826   3.546   3.793   5.478
 5976SOL    HW118827   3.462   3.745   5.451
 5976SOL    HW218828   3.594   3.826   5.396
 5977SOL     OW18829   1.019   3.310   2.895
 5977SOL    HW118830   1.029   3.369   2.975
 5977SOL    HW218831   0.990   3.365   2.817
 5978SOL     OW18832   5.454   5.432   2.732
 5978SOL    HW118833   5.459   5.525   2.695
 5978SOL    HW218834   5.517   5.424   2.809
 5979SOL     OW18835   6.747   0.625   3.209
 5979SOL    HW118836   6.812   0.701   3.211
 5979SOL    HW218837   6.654   0.661   3.201
 5980SOL     OW18838   6.267   3.867   6.565
 5980SOL    HW118839   6.259   3.909   6.475
 5980SOL    HW218840   6.258   3.938   6.636
 5981SOL     OW18841   3.986   0.903   1.707
 5981SOL    HW118842   4.043   0.960   1.649
 5981SOL    HW218843   3.940   0.833   1.652
 5982SOL     OW18844   6.322   2.132   6.735
 5982SOL    HW118845   6.275   2.186   6.665
 5982SOL    HW218846   6.261   2.119   6.813
 5983SOL     OW18847   0.899   1.014   4.608
 5983SOL    HW118848   0.899   1.093   4.670
 5983SOL    HW218849   0.993   0.984   4.592
 5984SOL     OW18850   6.962   0.147   5.660
 5984SOL    HW118851   6.968   0.053   5.626
 5984SOL    HW218852   0.016   0.202   5.620
 5985SOL     OW18853   4.460   2.482   4.147
 5985SOL    HW118854   4.372   2.446   4.115
 5985SOL    HW218855   4.451   2.509   4.243
 5986SOL     OW18856   3.164   3.039   2.428
 5986SOL    HW118857   3.195   2.955   2.384
 5986SOL    HW218858   3.180   3.117   2.367
 5987SOL     OW18859   3.926   0.001   5.589
 5987SOL    HW118860   4.025   0.010   5.576
 5987SOL    HW218861   3.903   0.025   5.684
 5988SOL     OW18862   4.073   1.153   4.106
 5988SOL    HW118863   4.014   1.087   4.153
 5988SOL    HW218864   4.169   1.132   4.127
 5989SOL     OW18865   2.774   0.778   6.220
 5989SOL    HW118866   2.850   0.828   6.262
 5989SOL    HW218867   2.723   0.839   6.160
 5990SOL     OW18868   2.973   4.771   1.770
 5990SOL    HW118869   2.932   4.734   1.853
 5990SOL    HW218870   2.983   4.697   1.703
 5991SOL     OW18871   2.708   5.244   3.746
 5991SOL    HW118872   2.666   5.155   3.733
 5991SOL    HW218873   2.710   5.293   3.659
 5992SOL     OW18874   4.461   0.559   4.110
 5992SOL    HW118875   4.393   0.486   4.116
 5992SOL    HW218876   4.417   0.647   4.127
 5993SOL     OW18877   3.521   5.543   4.661
 5993SOL    HW118878   3.615   5.510   4.661
 5993SOL    HW218879   3.487   5.547   4.755
 5994SOL     OW18880   0.055   2.436   2.038
 5994SOL    HW118881   0.101   2.503   1.981
 5994SOL    HW218882   0.105   2.350   2.036
 5995SOL     OW18883   0.234   4.132   1.426
 5995SOL    HW118884   0.166   4.202   1.410
 5995SOL    HW218885   0.248   4.079   1.342
 5996SOL     OW18886   0.689   5.335   6.162
 5996SOL    HW118887   0.709   5.301   6.070
 5996SOL    HW218888   0.592   5.324   6.181
 5997SOL     OW18889   0.830   6.666   2.266
 5997SOL    HW118890   0.735   6.663   2.235
 5997SOL    HW218891   0.832   6.674   2.365
 5998SOL     OW18892   4.841   2.159   3.281
 5998SOL    HW118893   4.830   2.149   3.182
 5998SOL    HW218894   4.761   2.121   3.327
 5999SOL     OW18895   1.603   1.500   2.537
 5999SOL    HW118896   1.641   1.459   2.620
 5999SOL    HW218897   1.559   1.587   2.560
 6000SOL     OW18898   4.578   6.410   2.328
 6000SOL    HW118899   4.637   6.392   2.406
 6000SOL    HW218900   4.482   6.416   2.358
 6001SOL     OW18901   6.196   2.043   0.106
 6001SOL    HW118902   6.112   2.042   0.160
 6001SOL    HW218903   6.186   2.106   0.029
 6002SOL     OW18904   1.731   0.449   1.871
 6002SOL    HW118905   1.812   0.454   1.930
 6002SOL    HW218906   1.759   0.455   1.775
 6003SOL     OW18907   4.537   4.447   4.191
 6003SOL    HW118908   4.547   4.350   4.170
 6003SOL    HW218909   4.472   4.489   4.128
 6004SOL     OW18910   6.947   3.645   2.241
 6004SOL    HW118911   6.971   3.732   2.282
 6004SOL    HW218912   6.849   3.628   2.254
 6005SOL     OW18913   2.988   6.225   2.660
 6005SOL    HW118914   2.962   6.215   2.756
 6005SOL    HW218915   2.989   6.136   2.616
 6006SOL     OW18916   2.459   6.173   6.820
 6006SOL    HW118917   2.556   6.147   6.816
 6006SOL    HW218918   2.436   6.199   6.914
 6007SOL     OW18919   5.615   2.528   3.822
 6007SOL    HW118920   5.669   2.604   3.786
 6007SOL    HW218921   5.676   2.451   3.842
 6008SOL     OW18922   3.527   4.469   6.806
 6008SOL    HW118923   3.500   4.541   6.870
 6008SOL    HW218924   3.462   4.394   6.811
 6009SOL     OW18925   3.211   2.020   4.571
 6009SOL    HW118926   3.203   1.921   4.554
 6009SOL    HW218927   3.136   2.068   4.526
 6010SOL     OW18928   1.597   2.680   3.280
 6010SOL    HW118929   1.627   2.741   3.354
 6010SOL    HW218930   1.536   2.610   3.317
 6011SOL     OW18931   6.505   3.196   3.309
 6011SOL    HW118932   6.475   3.107   3.273
 6011SOL    HW218933   6.433   3.263   3.292
 6012SOL     OW18934   6.826   3.516   0.705
 6012SOL    HW118935   6.776   3.592   0.745
 6012SOL    HW218936   6.881   3.548   0.628
 6013SOL     OW18937   5.849   1.463   2.534
 6013SOL    HW118938   5.831   1.520   2.455
 6013SOL    HW218939   5.926   1.402   2.514
 6014SOL     OW18940   5.648   0.264   1.048
 6014SOL    HW118941   5.661   0.324   0.968
 6014SOL    HW218942   5.552   0.265   1.074
 6015SOL     OW18943   5.000   1.863   4.677
 6015SOL    HW118944   4.947   1.839   4.758
 6015SOL    HW218945   5.019   1.961   4.677
 6016SOL     OW18946   2.111   6.871   5.204
 6016SOL    HW118947   2.030   6.926   5.186
 6016SOL    HW218948   2.097   6.778   5.170
 6017SOL     OW18949   6.907   4.699   2.454
 6017SOL    HW118950   6.939   4.681   2.547
 6017SOL    HW218951   6.924   4.619   2.397
 6018SOL     OW18952   2.697   4.789   0.936
 6018SOL    HW118953   2.703   4.694   0.968
 6018SOL    HW218954   2.686   4.789   0.836
 6019SOL     OW18955   4.283   6.742   4.195
 6019SOL    HW118956   4.274   6.818   4.260
 6019SOL    HW218957   4.334   6.773   4.115
 6020SOL     OW18958   3.446   0.620   2.908
 6020SOL    HW118959   3.493   0.684   2.847
 6020SOL    HW218960   3.373   0.574   2.858
 6021SOL     OW18961   4.300   1.121   2.750
 6021SOL    HW118962   4.214   1.150   2.792
 6021SOL    HW218963   4.315   1.170   2.665
 6022SOL     OW18964   4.357   1.966   5.213
 6022SOL    HW118965   4.378   2.053   5.169
 6022SOL    HW218966   4.317   1.903   5.146
 6023SOL     OW18967   6.614   1.784   2.643
 6023SOL    HW118968   6.707   1.754   2.624
 6023SOL    HW218969   6.551   1.707   2.628
 6024SOL     OW18970   0.910   4.772   2.495
 6024SOL    HW118971   0.964   4.840   2.545
 6024SOL    HW218972   0.835   4.817   2.448
 6025SOL     OW18973   4.323   1.858   1.593
 6025SOL    HW118974   4.294   1.930   1.529
 6025SOL    HW218975   4.244   1.802   1.618
 6026SOL     OW18976   0.581   4.680   5.365
 6026SOL    HW118977   0.649   4.689   5.438
 6026SOL    HW218978   0.531   4.766   5.355
 6027SOL     OW18979   2.858   3.332   0.678
 6027SOL    HW118980   2.938   3.387   0.698
 6027SOL    HW218981   2.802   3.378   0.609
 6028SOL     OW18982   1.734   4.063   0.163
 6028SOL    HW118983   1.779   4.081   0.076
 6028SOL    HW218984   1.640   4.035   0.146
 6029SOL     OW18985   1.568   5.038   1.233
 6029SOL    HW118986   1.581   4.986   1.148
 6029SOL    HW218987   1.655   5.044   1.282
 6030SOL     OW18988   1.962   0.438   0.694
 6030SOL    HW118989   1.971   0.404   0.788
 6030SOL    HW218990   2.047   0.483   0.667
 6031SOL     OW18991   5.325   6.860   5.095
 6031SOL    HW118992   5.324   6.914   5.180
 6031SOL    HW218993   5.235   6.820   5.080
 6032SOL     OW18994   0.354   3.216   2.640
 6032SOL    HW118995   0.388   3.257   2.724
 6032SOL    HW218996   0.431   3.188   2.582
 6033SOL     OW18997   1.562   0.278   4.520
 6033SOL    HW118998   1.516   0.269   4.431
 6033SOL    HW218999   1.548   0.194   4.573
 6034SOL     OW19000   2.112   4.181   5.290
 6034SOL    HW119001   2.152   4.092   5.310
 6034SOL    HW219002   2.172   4.232   5.229
 6035SOL     OW19003   6.204   0.841   4.255
 6035SOL    HW119004   6.131   0.801   4.200
 6035SOL    HW219005   6.262   0.899   4.198
 6036SOL     OW19006   0.251   0.910   4.385
 6036SOL    HW119007   0.309   0.988   4.408
 6036SOL    HW219008   0.208   0.875   4.468
 6037SOL     OW19009   6.702   4.852   4.885
 6037SOL    HW119010   6.639   4.868   4.809
 6037SOL    HW219011   6.665   4.780   4.945
 6038SOL     OW19012   4.795   3.896   6.422
 6038SOL    HW119013   4.718   3.891   6.359
 6038SOL    HW219014   4.793   3.984   6.471
 6039SOL     OW19015   3.594   4.084   3.096
 6039SOL    HW119016   3.494   4.087   3.105
 6039SOL    HW219017   3.634   4.051   3.181
 6040SOL     OW19018   0.529   1.809   7.016
 6040SOL    HW119019   0.625   1.801   0.026
 6040SOL    HW219020   0.507   1.905   6.999
 6041SOL     OW19021   0.582   2.459   0.423
 6041SOL    HW119022   0.549   2.544   0.381
 6041SOL    HW219023   0.652   2.480   0.492
 6042SOL     OW19024   5.452   5.166   3.913
 6042SOL    HW119025   5.477   5.152   3.818
 6042SOL    HW219026   5.405   5.085   3.948
 6043SOL     OW19027   0.452   4.817   3.876
 6043SOL    HW119028   0.396   4.782   3.952
 6043SOL    HW219029   0.448   4.917   3.876
 6044SOL     OW19030   1.114   0.404   1.669
 6044SOL    HW119031   1.114   0.494   1.711
 6044SOL    HW219032   1.094   0.335   1.738
 6045SOL     OW19033   0.589   4.095   1.292
 6045SOL    HW119034   0.582   4.028   1.366
 6045SOL    HW219035   0.543   4.179   1.319
 6046SOL     OW19036   2.536   2.909   0.370
 6046SOL    HW119037   2.623   2.953   0.391
 6046SOL    HW219038   2.513   2.845   0.443
 6047SOL     OW19039   0.235   6.417   4.916
 6047SOL    HW119040   0.245   6.320   4.938
 6047SOL    HW219041   0.216   6.468   4.999
 6048SOL     OW19042   4.769   6.668   4.953
 6048SOL    HW119043   4.817   6.665   4.865
 6048SOL    HW219044   4.678   6.708   4.940
 6049SOL     OW19045   6.313   5.291   1.352
 6049SOL    HW119046   6.405   5.328   1.339
 6049SOL    HW219047   6.293   5.224   1.281
 6050SOL     OW19048   4.912   4.325   5.374
 6050SOL    HW119049   4.904   4.393   5.300
 6050SOL    HW219050   4.877   4.364   5.459
 6051SOL     OW19051   1.616   1.924   3.067
 6051SOL    HW119052   1.662   1.936   2.979
 6051SOL    HW219053   1.546   1.995   3.078
 6052SOL     OW19054   6.758   1.246   0.316
 6052SOL    HW119055   6.709   1.190   0.250
 6052SOL    HW219056   6.833   1.295   0.270
 6053SOL     OW19057   2.357   0.098   6.722
 6053SOL    HW119058   2.395   0.144   6.802
 6053SOL    HW219059   2.397   0.137   6.639
 6054SOL     OW19060   2.671   5.235   0.250
 6054SOL    HW119061   2.769   5.254   0.250
 6054SOL    HW219062   2.623   5.310   0.297
 6055SOL     OW19063   5.098   0.234   4.403
 6055SOL    HW119064   5.020   0.296   4.414
 6055SOL    HW219065   5.070   0.141   4.424
 6056SOL     OW19066   4.721   2.866   6.146
 6056SOL    HW119067   4.645   2.844   6.207
 6056SOL    HW219068   4.691   2.857   6.051
 6057SOL     OW19069   3.712   0.792   6.137
 6057SOL    HW119070   3.776   0.721   6.167
 6057SOL    HW219071   3.763   0.873   6.109
 6058SOL     OW19072   5.506   1.781   4.397
 6058SOL    HW119073   5.486   1.684   4.385
 6058SOL    HW219074   5.555   1.815   4.317
 6059SOL     OW19075   7.014   5.274   6.053
 6059SOL    HW119076   0.045   5.360   6.057
 6059SOL    HW219077   0.047   5.202   6.099
 6060SOL     OW19078   3.919   6.631   6.010
 6060SOL    HW119079   4.011   6.636   5.969
 6060SOL    HW219080   3.913   6.550   6.068
 6061SOL     OW19081   2.370   1.922   6.096
 6061SOL    HW119082   2.344   1.904   6.191
 6061SOL    HW219083   2.288   1.927   6.039
 6062SOL     OW19084   2.325   0.633   4.320
 6062SOL    HW119085   2.283   0.626   4.411
 6062SOL    HW219086   2.394   0.705   4.321
 6063SOL     OW19087   4.192   0.150   0.178
 6063SOL    HW119088   4.094   0.154   0.197
 6063SOL    HW219089   4.238   0.093   0.246
 6064SOL     OW19090   1.058   6.218   3.352
 6064SOL    HW119091   1.136   6.231   3.291
 6064SOL    HW219092   1.085   6.237   3.446
 6065SOL     OW19093   7.004   0.607   0.827
 6065SOL    HW119094   6.908   0.581   0.825
 6065SOL    HW219095   0.040   0.529   0.854
 6066SOL     OW19096   4.526   2.602   6.905
 6066SOL    HW119097   4.444   2.578   6.958
 6066SOL    HW219098   4.516   2.569   6.812
 6067SOL     OW19099   5.863   2.522   6.866
 6067SOL    HW119100   5.895   2.473   6.947
 6067SOL    HW219101   5.863   2.620   6.884
 6068SOL     OW19102   4.657   2.726   4.990
 6068SOL    HW119103   4.590   2.655   5.013
 6068SOL    HW219104   4.740   2.683   4.955
 6069SOL     OW19105   6.157   3.908   4.107
 6069SOL    HW119106   6.110   3.935   4.191
 6069SOL    HW219107   6.104   3.940   4.028
 6070SOL     OW19108   3.578   2.046   6.407
 6070SOL    HW119109   3.661   2.100   6.419
 6070SOL    HW219110   3.593   1.954   6.442
 6071SOL     OW19111   4.600   6.162   5.124
 6071SOL    HW119112   4.553   6.145   5.037
 6071SOL    HW219113   4.647   6.250   5.120
 6072SOL     OW19114   0.096   1.981   0.698
 6072SOL    HW119115   0.027   2.044   0.733
 6072SOL    HW219116   0.053   1.911   0.642
 6073SOL     OW19117   6.714   2.616   1.415
 6073SOL    HW119118   6.769   2.542   1.377
 6073SOL    HW219119   6.664   2.582   1.495
 6074SOL     OW19120   0.483   7.009   4.475
 6074SOL    HW119121   0.429   0.005   4.392
 6074SOL    HW219122   0.453   0.054   4.546
 6075SOL     OW19123   5.393   4.216   6.723
 6075SOL    HW119124   5.478   4.212   6.774
 6075SOL    HW219125   5.398   4.154   6.644
 6076SOL     OW19126   2.376   6.318   3.341
 6076SOL    HW119127   2.393   6.405   3.388
 6076SOL    HW219128   2.414   6.322   3.248
 6077SOL     OW19129   6.021   5.764   2.096
 6077SOL    HW119130   5.988   5.828   2.165
 6077SOL    HW219131   6.116   5.787   2.072
 6078SOL     OW19132   2.430   4.631   3.387
 6078SOL    HW119133   2.481   4.612   3.304
 6078SOL    HW219134   2.427   4.549   3.444
 6079SOL     OW19135   2.282   1.311   0.438
 6079SOL    HW119136   2.268   1.345   0.531
 6079SOL    HW219137   2.219   1.235   0.421
 6080SOL     OW19138   6.095   2.299   2.367
 6080SOL    HW119139   6.035   2.224   2.335
 6080SOL    HW219140   6.054   2.341   2.448
 6081SOL     OW19141   0.351   4.236   3.327
 6081SOL    HW119142   0.411   4.186   3.390
 6081SOL    HW219143   0.361   4.199   3.235
 6082SOL     OW19144   3.891   1.446   4.204
 6082SOL    HW119145   3.840   1.525   4.170
 6082SOL    HW219146   3.870   1.432   4.301
 6083SOL     OW19147   1.973   6.688   0.223
 6083SOL    HW119148   1.911   6.612   0.247
 6083SOL    HW219149   1.920   6.762   0.182
 6084SOL     OW19150   0.898   5.162   5.759
 6084SOL    HW119151   0.808   5.190   5.793
 6084SOL    HW219152   0.968   5.219   5.800
 6085SOL     OW19153   4.629   3.978   1.444
 6085SOL    HW119154   4.674   3.918   1.510
 6085SOL    HW219155   4.571   4.044   1.493
 6086SOL     OW19156   2.676   1.670   3.461
 6086SOL    HW119157   2.750   1.702   3.401
 6086SOL    HW219158   2.705   1.587   3.509
 6087SOL     OW19159   4.744   6.580   0.016
 6087SOL    HW119160   4.739   6.631   6.949
 6087SOL    HW219161   4.667   6.605   0.074
 6088SOL     OW19162   0.088   0.040   4.811
 6088SOL    HW119163   0.005   0.002   4.771
 6088SOL    HW219164   0.127   0.108   4.749
 6089SOL     OW19165   0.417   3.009   0.279
 6089SOL    HW119166   0.321   3.035   0.267
 6089SOL    HW219167   0.464   3.080   0.331
 6090SOL     OW19168   0.124   5.954   4.400
 6090SOL    HW119169   0.190   5.955   4.325
 6090SOL    HW219170   0.147   5.881   4.464
 6091SOL     OW19171   5.851   2.183   1.466
 6091SOL    HW119172   5.843   2.257   1.399
 6091SOL    HW219173   5.761   2.146   1.486
 6092SOL     OW19174   1.976   2.533   1.394
 6092SOL    HW119175   1.957   2.601   1.324
 6092SOL    HW219176   1.943   2.566   1.483
 6093SOL     OW19177   1.223   3.083   1.459
 6093SOL    HW119178   1.271   3.169   1.476
 6093SOL    HW219179   1.288   3.007   1.465
 6094SOL     OW19180   1.075   0.922   0.827
 6094SOL    HW119181   1.149   0.879   0.775
 6094SOL    HW219182   1.115   0.970   0.905
 6095SOL     OW19183   7.006   3.884   5.747
 6095SOL    HW119184   0.060   3.889   5.814
 6095SOL    HW219185   6.918   3.878   5.795
 6096SOL     OW19186   4.164   1.958   2.982
 6096SOL    HW119187   4.077   1.922   2.947
 6096SOL    HW219188   4.173   2.054   2.954
 6097SOL     OW19189   2.909   1.958   1.751
 6097SOL    HW119190   2.897   1.927   1.845
 6097SOL    HW219191   2.945   2.051   1.751
 6098SOL     OW19192   1.796   1.589   5.394
 6098SOL    HW119193   1.711   1.637   5.370
 6098SOL    HW219194   1.784   1.545   5.483
 6099SOL     OW19195   5.957   5.220   4.880
 6099SOL    HW119196   5.922   5.305   4.920
 6099SOL    HW219197   5.881   5.161   4.853
 6100SOL     OW19198   6.349   3.051   0.307
 6100SOL    HW119199   6.411   3.040   0.229
 6100SOL    HW219200   6.273   2.986   0.297
 6101SOL     OW19201   5.868   1.702   4.745
 6101SOL    HW119202   5.907   1.650   4.668
 6101SOL    HW219203   5.791   1.756   4.712
 6102SOL     OW19204   3.106   0.551   5.323
 6102SOL    HW119205   3.183   0.490   5.344
 6102SOL    HW219206   3.107   0.571   5.225
 6103SOL     OW19207   6.295   0.518   5.935
 6103SOL    HW119208   6.385   0.518   5.892
 6103SOL    HW219209   6.227   0.555   5.871
 6104SOL     OW19210   1.429   2.701   0.348
 6104SOL    HW119211   1.469   2.773   0.292
 6104SOL    HW219212   1.404   2.738   0.437
 6105SOL     OW19213   3.437   5.666   4.277
 6105SOL    HW119214   3.408   5.690   4.370
 6105SOL    HW219215   3.528   5.624   4.281
 6106SOL     OW19216   3.140   5.641   4.943
 6106SOL    HW119217   3.222   5.692   4.919
 6106SOL    HW219218   3.062   5.703   4.948
 6107SOL     OW19219   2.162   4.564   5.226
 6107SOL    HW119220   2.212   4.606   5.150
 6107SOL    HW219221   2.225   4.541   5.300
 6108SOL     OW19222   0.033   1.925   4.487
 6108SOL    HW119223   0.066   2.019   4.477
 6108SOL    HW219224   0.014   1.887   4.396
 6109SOL     OW19225   6.386   4.448   1.533
 6109SOL    HW119226   6.414   4.534   1.575
 6109SOL    HW219227   6.465   4.387   1.526
 6110SOL     OW19228   3.451   2.107   4.365
 6110SOL    HW119229   3.445   2.111   4.465
 6110SOL    HW219230   3.540   2.142   4.337
 6111SOL     OW19231   0.888   5.024   2.909
 6111SOL    HW119232   0.856   4.939   2.952
 6111SOL    HW219233   0.822   5.097   2.928
 6112SOL     OW19234   0.246   1.837   2.583
 6112SOL    HW119235   0.213   1.754   2.628
 6112SOL    HW219236   0.330   1.868   2.629
 6113SOL     OW19237   1.407   5.669   5.219
 6113SOL    HW119238   1.446   5.702   5.305
 6113SOL    HW219239   1.331   5.728   5.193
 6114SOL     OW19240   5.246   5.349   0.703
 6114SOL    HW119241   5.303   5.268   0.712
 6114SOL    HW219242   5.245   5.399   0.790
 6115SOL     OW19243   5.935   4.793   2.813
 6115SOL    HW119244   5.869   4.765   2.883
 6115SOL    HW219245   5.968   4.712   2.764
 6116SOL     OW19246   4.176   1.058   1.587
 6116SOL    HW119247   4.141   1.136   1.534
 6116SOL    HW219248   4.222   1.091   1.669
 6117SOL     OW19249   5.493   0.102   4.315
 6117SOL    HW119250   5.410   0.054   4.342
 6117SOL    HW219251   5.563   0.035   4.290
 6118SOL     OW19252   5.883   0.453   2.981
 6118SOL    HW119253   5.875   0.508   3.064
 6118SOL    HW219254   5.803   0.395   2.972
 6119SOL     OW19255   6.799   5.047   3.863
 6119SOL    HW119256   6.854   5.051   3.780
 6119SOL    HW219257   6.771   4.953   3.881
 6120SOL     OW19258   2.847   1.089   2.849
 6120SOL    HW119259   2.830   1.167   2.790
 6120SOL    HW219260   2.803   1.008   2.811
 6121SOL     OW19261   6.754   2.272   4.623
 6121SOL    HW119262   6.819   2.300   4.694
 6121SOL    HW219263   6.733   2.175   4.634
 6122SOL     OW19264   4.782   5.485   3.038
 6122SOL    HW119265   4.708   5.551   3.030
 6122SOL    HW219266   4.812   5.456   2.947
 6123SOL     OW19267   6.401   1.333   2.506
 6123SOL    HW119268   6.428   1.250   2.456
 6123SOL    HW219269   6.360   1.308   2.593
 6124SOL     OW19270   3.116   0.372   5.795
 6124SOL    HW119271   3.124   0.454   5.738
 6124SOL    HW219272   3.203   0.323   5.795
 6125SOL     OW19273   1.828   5.242   1.909
 6125SOL    HW119274   1.892   5.169   1.928
 6125SOL    HW219275   1.759   5.246   1.981
 6126SOL     OW19276   5.374   5.508   2.230
 6126SOL    HW119277   5.351   5.412   2.213
 6126SOL    HW219278   5.309   5.546   2.296
 6127SOL     OW19279   2.198   4.509   1.449
 6127SOL    HW119280   2.179   4.491   1.352
 6127SOL    HW219281   2.271   4.577   1.456
 6128SOL     OW19282   5.123   2.666   0.969
 6128SOL    HW119283   5.119   2.762   0.941
 6128SOL    HW219284   5.030   2.628   0.970
 6129SOL     OW19285   5.993   4.556   4.047
 6129SOL    HW119286   5.920   4.615   4.012
 6129SOL    HW219287   6.025   4.591   4.134
 6130SOL     OW19288   5.187   3.741   2.222
 6130SOL    HW119289   5.207   3.762   2.126
 6130SOL    HW219290   5.135   3.817   2.262
 6131SOL     OW19291   6.648   0.859   5.109
 6131SOL    HW119292   6.582   0.785   5.094
 6131SOL    HW219293   6.723   0.850   5.043
 6132SOL     OW19294   6.465   2.698   0.303
 6132SOL    HW119295   6.475   2.720   0.205
 6132SOL    HW219296   6.380   2.739   0.337
 6133SOL     OW19297   1.404   4.126   0.543
 6133SOL    HW119298   1.436   4.153   0.452
 6133SOL    HW219299   1.366   4.205   0.590
 6134SOL     OW19300   4.692   3.009   6.799
 6134SOL    HW119301   4.648   3.076   6.738
 6134SOL    HW219302   4.776   3.048   6.836
 6135SOL     OW19303   5.453   0.313   1.480
 6135SOL    HW119304   5.512   0.393   1.470
 6135SOL    HW219305   5.371   0.324   1.424
 6136SOL     OW19306   7.004   1.525   1.566
 6136SOL    HW119307   0.021   1.478   1.646
 6136SOL    HW219308   6.985   1.458   1.494
 6137SOL     OW19309   2.692   6.923   5.832
 6137SOL    HW119310   2.682   6.863   5.752
 6137SOL    HW219311   2.602   6.946   5.868
 6138SOL     OW19312   4.705   0.138   2.914
 6138SOL    HW119313   4.706   0.210   2.845
 6138SOL    HW219314   4.747   0.055   2.876
 6139SOL     OW19315   1.610   4.526   4.223
 6139SOL    HW119316   1.639   4.433   4.199
 6139SOL    HW219317   1.675   4.566   4.287
 6140SOL     OW19318   2.096   6.726   0.934
 6140SOL    HW119319   2.145   6.721   1.021
 6140SOL    HW219320   2.077   6.821   0.912
 6141SOL     OW19321   6.247   6.546   5.800
 6141SOL    HW119322   6.197   6.633   5.802
 6141SOL    HW219323   6.187   6.474   5.767
 6142SOL     OW19324   0.876   4.805   3.085
 6142SOL    HW119325   0.946   4.794   3.155
 6142SOL    HW219326   0.848   4.715   3.051
 6143SOL     OW19327   6.631   4.603   6.459
 6143SOL    HW119328   6.724   4.610   6.493
 6143SOL    HW219329   6.579   4.539   6.516
 6144SOL     OW19330   6.793   5.448   3.701
 6144SOL    HW119331   6.761   5.508   3.774
 6144SOL    HW219332   6.881   5.409   3.725
 6145SOL     OW19333   5.132   5.998   3.073
 6145SOL    HW119334   5.222   6.006   3.029
 6145SOL    HW219335   5.090   6.089   3.078
 6146SOL     OW19336   5.427   1.104   3.195
 6146SOL    HW119337   5.501   1.139   3.252
 6146SOL    HW219338   5.428   1.004   3.197
 6147SOL     OW19339   1.754   3.542   3.134
 6147SOL    HW119340   1.676   3.604   3.126
 6147SOL    HW219341   1.765   3.491   3.048
 6148SOL     OW19342   6.281   6.244   3.891
 6148SOL    HW119343   6.212   6.172   3.889
 6148SOL    HW219344   6.241   6.329   3.854
 6149SOL     OW19345   1.895   6.299   3.541
 6149SOL    HW119346   1.899   6.234   3.617
 6149SOL    HW219347   1.929   6.255   3.458
 6150SOL     OW19348   4.403   5.103   6.118
 6150SOL    HW119349   4.309   5.139   6.117
 6150SOL    HW219350   4.467   5.180   6.121
 6151SOL     OW19351   4.513   1.710   5.842
 6151SOL    HW119352   4.486   1.775   5.771
 6151SOL    HW219353   4.432   1.662   5.875
 6152SOL     OW19354   6.903   4.614   6.514
 6152SOL    HW119355   6.902   4.648   6.608
 6152SOL    HW219356   6.996   4.589   6.489
 6153SOL     OW19357   4.928   3.453   0.539
 6153SOL    HW119358   4.952   3.501   0.623
 6153SOL    HW219359   4.985   3.372   0.529
 6154SOL     OW19360   5.322   3.113   2.524
 6154SOL    HW119361   5.223   3.102   2.522
 6154SOL    HW219362   5.364   3.046   2.462
 6155SOL     OW19363   1.408   3.670   4.055
 6155SOL    HW119364   1.350   3.641   4.131
 6155SOL    HW219365   1.365   3.646   3.968
 6156SOL     OW19366   6.575   0.375   3.570
 6156SOL    HW119367   6.650   0.371   3.503
 6156SOL    HW219368   6.607   0.419   3.653
 6157SOL     OW19369   1.684   1.616   3.336
 6157SOL    HW119370   1.718   1.698   3.383
 6157SOL    HW219371   1.729   1.607   3.247
 6158SOL     OW19372   4.406   0.686   0.356
 6158SOL    HW119373   4.388   0.771   0.404
 6158SOL    HW219374   4.430   0.615   0.422
 6159SOL     OW19375   5.213   3.287   6.975
 6159SOL    HW119376   5.286   3.309   6.910
 6159SOL    HW219377   5.226   3.195   7.010
 6160SOL     OW19378   6.569   5.168   2.222
 6160SOL    HW119379   6.518   5.082   2.224
 6160SOL    HW219380   6.583   5.200   2.316
 6161SOL     OW19381   5.617   0.446   6.654
 6161SOL    HW119382   5.557   0.522   6.681
 6161SOL    HW219383   5.638   0.453   6.557
 6162SOL     OW19384   5.972   5.445   3.752
 6162SOL    HW119385   5.960   5.506   3.674
 6162SOL    HW219386   5.884   5.405   3.777
 6163SOL     OW19387   6.957   4.017   2.067
 6163SOL    HW119388   7.007   4.085   2.013
 6163SOL    HW219389   6.993   3.926   2.048
 6164SOL     OW19390   4.129   2.587   0.437
 6164SOL    HW119391   4.086   2.664   0.484
 6164SOL    HW219392   4.123   2.506   0.495
 6165SOL     OW19393   4.514   6.583   0.716
 6165SOL    HW119394   4.518   6.516   0.790
 6165SOL    HW219395   4.594   6.573   0.657
 6166SOL     OW19396   3.398   1.761   6.800
 6166SOL    HW119397   3.359   1.837   6.749
 6166SOL    HW219398   3.497   1.774   6.809
 6167SOL     OW19399   6.702   4.848   3.526
 6167SOL    HW119400   6.616   4.872   3.479
 6167SOL    HW219401   6.706   4.749   3.538
 6168SOL     OW19402   1.098   2.466   1.801
 6168SOL    HW119403   1.101   2.541   1.867
 6168SOL    HW219404   1.026   2.402   1.827
 6169SOL     OW19405   1.976   4.011   2.354
 6169SOL    HW119406   1.997   4.080   2.423
 6169SOL    HW219407   2.061   3.979   2.312
 6170SOL     OW19408   0.179   2.486   4.148
 6170SOL    HW119409   0.269   2.494   4.191
 6170SOL    HW219410   0.127   2.570   4.166
 6171SOL     OW19411   6.935   0.715   6.273
 6171SOL    HW119412   6.859   0.772   6.243
 6171SOL    HW219413   7.003   0.709   6.200
 6172SOL     OW19414   1.124   4.224   3.863
 6172SOL    HW119415   1.060   4.275   3.805
 6172SOL    HW219416   1.137   4.273   3.949
 6173SOL     OW19417   5.594   6.098   3.237
 6173SOL    HW119418   5.646   6.086   3.152
 6173SOL    HW219419   5.634   6.041   3.308
 6174SOL     OW19420   6.293   3.287   1.841
 6174SOL    HW119421   6.389   3.315   1.831
 6174SOL    HW219422   6.255   3.329   1.923
 6175SOL     OW19423   3.129   2.277   5.880
 6175SOL    HW119424   3.079   2.315   5.803
 6175SOL    HW219425   3.072   2.211   5.928
 6176SOL     OW19426   4.131   4.557   6.334
 6176SOL    HW119427   4.032   4.555   6.317
 6176SOL    HW219428   4.148   4.569   6.431
 6177SOL     OW19429   5.839   0.344   1.267
 6177SOL    HW119430   5.781   0.316   1.191
 6177SOL    HW219431   5.934   0.322   1.246
 6178SOL     OW19432   4.054   4.731   1.813
 6178SOL    HW119433   4.037   4.659   1.746
 6178SOL    HW219434   3.968   4.780   1.832
 6179SOL     OW19435   5.913   4.864   4.646
 6179SOL    HW119436   5.994   4.921   4.636
 6179SOL    HW219437   5.891   4.821   4.558
 6180SOL     OW19438   2.871   4.385   0.028
 6180SOL    HW119439   2.884   4.292   0.064
 6180SOL    HW219440   2.936   4.401   6.973
 6181SOL     OW19441   6.437   6.306   6.979
 6181SOL    HW119442   6.516   6.276   6.924
 6181SOL    HW219443   6.359   6.322   6.919
 6182SOL     OW19444   3.406   2.247   0.868
 6182SOL    HW119445   3.430   2.344   0.874
 6182SOL    HW219446   3.395   2.221   0.773
 6183SOL     OW19447   0.468   6.920   0.398
 6183SOL    HW119448   0.465   6.821   0.390
 6183SOL    HW219449   0.428   6.961   0.316
 6184SOL     OW19450   2.598   6.828   5.588
 6184SOL    HW119451   2.508   6.792   5.565
 6184SOL    HW219452   2.648   6.850   5.505
 6185SOL     OW19453   3.680   3.150   5.009
 6185SOL    HW119454   3.632   3.111   5.089
 6185SOL    HW219455   3.736   3.079   4.967
 6186SOL     OW19456   0.316   1.355   1.785
 6186SOL    HW119457   0.305   1.353   1.885
 6186SOL    HW219458   0.320   1.450   1.754
 6187SOL     OW19459   3.887   1.054   5.771
 6187SOL    HW119460   3.908   1.049   5.869
 6187SOL    HW219461   3.788   1.058   5.758
 6188SOL     OW19462   1.118   1.282   4.987
 6188SOL    HW119463   1.173   1.356   4.947
 6188SOL    HW219464   1.164   1.195   4.973
 6189SOL     OW19465   6.677   6.046   1.160
 6189SOL    HW119466   6.701   6.138   1.191
 6189SOL    HW219467   6.665   5.986   1.240
 6190SOL     OW19468   0.797   3.421   4.716
 6190SOL    HW119469   0.778   3.382   4.806
 6190SOL    HW219470   0.866   3.366   4.669
 6191SOL     OW19471   3.374   3.636   0.300
 6191SOL    HW119472   3.411   3.617   0.391
 6191SOL    HW219473   3.292   3.580   0.285
 6192SOL     OW19474   2.967   1.399   0.832
 6192SOL    HW119475   2.877   1.440   0.818
 6192SOL    HW219476   2.959   1.300   0.828
 6193SOL     OW19477   4.459   5.745   6.971
 6193SOL    HW119478   4.400   5.702   0.020
 6193SOL    HW219479   4.402   5.784   6.898
 6194SOL     OW19480   5.730   6.975   0.046
 6194SOL    HW119481   5.804   6.933   7.013
 6194SOL    HW219482   5.668   0.004   7.003
 6195SOL     OW19483   5.669   6.367   6.305
 6195SOL    HW119484   5.641   6.380   6.210
 6195SOL    HW219485   5.647   6.273   6.333
 6196SOL     OW19486   5.626   3.539   2.735
 6196SOL    HW119487   5.671   3.454   2.762
 6196SOL    HW219488   5.588   3.529   2.643
 6197SOL     OW19489   1.584   5.229   1.585
 6197SOL    HW119490   1.610   5.324   1.569
 6197SOL    HW219491   1.515   5.201   1.519
 6198SOL     OW19492   5.875   1.299   6.737
 6198SOL    HW119493   5.836   1.219   6.783
 6198SOL    HW219494   5.946   1.269   6.673
 6199SOL     OW19495   1.831   0.119   6.182
 6199SOL    HW119496   1.819   0.163   6.093
 6199SOL    HW219497   1.748   0.130   6.236
 6200SOL     OW19498   1.388   0.713   2.171
 6200SOL    HW119499   1.388   0.798   2.119
 6200SOL    HW219500   1.311   0.712   2.234
 6201SOL     OW19501   0.468   4.838   2.990
 6201SOL    HW119502   0.526   4.838   2.909
 6201SOL    HW219503   0.523   4.861   3.070
 6202SOL     OW19504   5.800   1.448   3.047
 6202SOL    HW119505   5.767   1.389   2.974
 6202SOL    HW219506   5.731   1.453   3.119
 6203SOL     OW19507   6.457   0.524   1.947
 6203SOL    HW119508   6.432   0.517   1.850
 6203SOL    HW219509   6.557   0.517   1.956
 6204SOL     OW19510   1.854   6.294   4.992
 6204SOL    HW119511   1.772   6.236   4.998
 6204SOL    HW219512   1.859   6.353   5.073
 6205SOL     OW19513   5.353   4.336   3.692
 6205SOL    HW119514   5.334   4.253   3.640
 6205SOL    HW219515   5.326   4.322   3.788
 6206SOL     OW19516   5.845   1.826   3.943
 6206SOL    HW119517   5.866   1.867   3.854
 6206SOL    HW219518   5.793   1.742   3.929
 6207SOL     OW19519   1.445   5.218   4.251
 6207SOL    HW119520   1.473   5.129   4.286
 6207SOL    HW219521   1.346   5.222   4.243
 6208SOL     OW19522   4.167   4.398   5.887
 6208SOL    HW119523   4.137   4.489   5.915
 6208SOL    HW219524   4.259   4.404   5.848
 6209SOL     OW19525   3.233   2.485   1.648
 6209SOL    HW119526   3.251   2.498   1.745
 6209SOL    HW219527   3.311   2.518   1.595
 6210SOL     OW19528   5.102   2.140   4.677
 6210SOL    HW119529   5.195   2.127   4.712
 6210SOL    HW219530   5.049   2.192   4.743
 6211SOL     OW19531   5.703   4.099   4.993
 6211SOL    HW119532   5.629   4.159   5.023
 6211SOL    HW219533   5.757   4.146   4.922
 6212SOL     OW19534   4.386   5.297   5.269
 6212SOL    HW119535   4.410   5.375   5.212
 6212SOL    HW219536   4.366   5.218   5.211
 6213SOL     OW19537   4.434   5.786   0.475
 6213SOL    HW119538   4.361   5.717   0.475
 6213SOL    HW219539   4.483   5.784   0.388
 6214SOL     OW19540   6.077   6.728   6.451
 6214SOL    HW119541   5.985   6.710   6.417
 6214SOL    HW219542   6.105   6.821   6.424
 6215SOL     OW19543   5.301   2.423   5.489
 6215SOL    HW119544   5.394   2.428   5.451
 6215SOL    HW219545   5.234   2.426   5.415
 6216SOL     OW19546   4.113   1.850   4.325
 6216SOL    HW119547   4.071   1.840   4.234
 6216SOL    HW219548   4.069   1.787   4.389
 6217SOL     OW19549   0.172   4.778   3.110
 6217SOL    HW119550   0.241   4.718   3.071
 6217SOL    HW219551   0.147   4.848   3.044
 6218SOL     OW19552   4.620   6.267   0.311
 6218SOL    HW119553   4.600   6.185   0.258
 6218SOL    HW219554   4.692   6.247   0.377
 6219SOL     OW19555   2.175   1.407   6.240
 6219SOL    HW119556   2.156   1.309   6.241
 6219SOL    HW219557   2.231   1.429   6.160
 6220SOL     OW19558   3.576   6.493   0.515
 6220SOL    HW119559   3.545   6.514   0.423
 6220SOL    HW219560   3.558   6.397   0.536
 6221SOL     OW19561   5.568   6.180   6.718
 6221SOL    HW119562   5.625   6.219   6.790
 6221SOL    HW219563   5.581   6.081   6.715
 6222SOL     OW19564   6.415   1.296   2.120
 6222SOL    HW119565   6.487   1.292   2.050
 6222SOL    HW219566   6.427   1.378   2.176
 6223SOL     OW19567   0.040   5.028   4.225
 6223SOL    HW119568   0.024   5.077   4.311
 6223SOL    HW219569   0.036   5.091   4.149
 6224SOL     OW19570   3.800   0.031   6.882
 6224SOL    HW119571   3.846   0.069   6.802
 6224SOL    HW219572   3.838   6.961   6.903
 6225SOL     OW19573   4.613   5.649   6.763
 6225SOL    HW119574   4.564   5.735   6.754
 6225SOL    HW219575   4.605   5.615   6.857
 6226SOL     OW19576   0.992   0.668   4.485
 6226SOL    HW119577   0.896   0.667   4.512
 6226SOL    HW219578   1.049   0.661   4.567
 6227SOL     OW19579   2.815   4.900   5.367
 6227SOL    HW119580   2.851   4.911   5.274
 6227SOL    HW219581   2.800   4.804   5.386
 6228SOL     OW19582   0.885   3.132   3.600
 6228SOL    HW119583   0.908   3.052   3.544
 6228SOL    HW219584   0.826   3.193   3.548
 6229SOL     OW19585   0.744   2.582   3.826
 6229SOL    HW119586   0.789   2.604   3.912
 6229SOL    HW219587   0.659   2.634   3.819
 6230SOL     OW19588   6.760   0.885   1.592
 6230SOL    HW119589   6.775   0.892   1.691
 6230SOL    HW219590   6.667   0.852   1.575
 6231SOL     OW19591   2.002   4.941   6.480
 6231SOL    HW119592   1.960   4.986   6.559
 6231SOL    HW219593   2.046   4.857   6.510
 6232SOL     OW19594   4.431   0.175   6.123
 6232SOL    HW119595   4.416   0.120   6.205
 6232SOL    HW219596   4.348   0.226   6.101
 6233SOL     OW19597   0.177   3.651   1.254
 6233SOL    HW119598   0.087   3.648   1.298
 6233SOL    HW219599   0.241   3.701   1.313
 6234SOL     OW19600   4.527   5.180   4.434
 6234SOL    HW119601   4.500   5.173   4.531
 6234SOL    HW219602   4.473   5.252   4.390
 6235SOL     OW19603   0.510   0.543   2.702
 6235SOL    HW119604   0.520   0.455   2.749
 6235SOL    HW219605   0.413   0.562   2.688
 6236SOL     OW19606   6.971   5.471   1.261
 6236SOL    HW119607   6.909   5.398   1.289
 6236SOL    HW219608   6.928   5.525   1.189
 6237SOL     OW19609   3.315   1.205   1.986
 6237SOL    HW119610   3.372   1.202   2.068
 6237SOL    HW219611   3.221   1.230   2.012
 6238SOL     OW19612   2.346   0.314   4.050
 6238SOL    HW119613   2.426   0.320   3.990
 6238SOL    HW219614   2.377   0.301   4.145
 6239SOL     OW19615   4.877   1.075   4.479
 6239SOL    HW119616   4.930   1.144   4.430
 6239SOL    HW219617   4.923   0.987   4.472
 6240SOL     OW19618   3.997   3.106   4.079
 6240SOL    HW119619   4.045   3.044   4.017
 6240SOL    HW219620   4.034   3.198   4.069
 6241SOL     OW19621   3.352   0.077   3.910
 6241SOL    HW119622   3.375   7.015   3.856
 6241SOL    HW219623   3.318   0.050   4.000
 6242SOL     OW19624   2.559   2.094   3.257
 6242SOL    HW119625   2.485   2.108   3.191
 6242SOL    HW219626   2.639   2.057   3.210
 6243SOL     OW19627   4.238   1.663   6.374
 6243SOL    HW119628   4.293   1.710   6.305
 6243SOL    HW219629   4.289   1.584   6.408
 6244SOL     OW19630   5.054   2.801   1.970
 6244SOL    HW119631   5.133   2.795   2.032
 6244SOL    HW219632   4.978   2.747   2.006
 6245SOL     OW19633   0.112   5.062   1.867
 6245SOL    HW119634   0.124   5.159   1.890
 6245SOL    HW219635   0.191   5.030   1.815
 6246SOL     OW19636   6.558   6.596   3.918
 6246SOL    HW119637   6.470   6.609   3.963
 6246SOL    HW219638   6.583   6.499   3.921
 6247SOL     OW19639   5.942   6.197   3.968
 6247SOL    HW119640   5.847   6.166   3.963
 6247SOL    HW219641   5.957   6.269   3.901
 6248SOL     OW19642   4.037   3.127   5.616
 6248SOL    HW119643   4.051   3.213   5.667
 6248SOL    HW219644   3.948   3.089   5.639
 6249SOL     OW19645   5.940   3.174   2.129
 6249SOL    HW119646   5.975   3.207   2.216
 6249SOL    HW219647   6.013   3.129   2.078
 6250SOL     OW19648   5.949   0.051   6.598
 6250SOL    HW119649   5.907   0.121   6.656
 6250SOL    HW219650   5.926   0.068   6.502
 6251SOL     OW19651   2.369   0.251   4.318
 6251SOL    HW119652   2.412   0.161   4.326
 6251SOL    HW219653   2.439   0.322   4.314
 6252SOL     OW19654   3.116   5.414   6.538
 6252SOL    HW119655   3.131   5.513   6.543
 6252SOL    HW219656   3.053   5.394   6.463
 6253SOL     OW19657   3.847   5.581   3.905
 6253SOL    HW119658   3.914   5.643   3.946
 6253SOL    HW219659   3.776   5.635   3.860
 6254SOL     OW19660   0.254   0.261   1.083
 6254SOL    HW119661   0.270   0.306   1.172
 6254SOL    HW219662   0.335   0.209   1.057
 6255SOL     OW19663   0.970   1.641   0.709
 6255SOL    HW119664   1.051   1.693   0.683
 6255SOL    HW219665   0.964   1.637   0.809
 6256SOL     OW19666   5.671   5.940   2.258
 6256SOL    HW119667   5.707   6.008   2.195
 6256SOL    HW219668   5.683   5.972   2.352
 6257SOL     OW19669   3.294   4.384   0.921
 6257SOL    HW119670   3.390   4.403   0.902
 6257SOL    HW219671   3.262   4.443   0.995
 6258SOL     OW19672   4.474   5.526   5.092
 6258SOL    HW119673   4.443   5.619   5.070
 6258SOL    HW219674   4.563   5.531   5.136
 6259SOL     OW19675   3.916   0.896   4.808
 6259SOL    HW119676   4.011   0.917   4.830
 6259SOL    HW219677   3.895   0.803   4.837
 6260SOL     OW19678   1.677   1.348   6.566
 6260SOL    HW119679   1.733   1.283   6.514
 6260SOL    HW219680   1.728   1.380   6.645
 6261SOL     OW19681   3.621   0.386   0.538
 6261SOL    HW119682   3.679   0.308   0.562
 6261SOL    HW219683   3.614   0.393   0.439
 6262SOL     OW19684   6.130   1.134   2.625
 6262SOL    HW119685   6.106   1.044   2.587
 6262SOL    HW219686   6.084   1.206   2.572
 6263SOL     OW19687   5.840   6.048   5.561
 6263SOL    HW119688   5.875   6.134   5.523
 6263SOL    HW219689   5.896   6.022   5.639
 6264SOL     OW19690   2.561   6.541   6.688
 6264SOL    HW119691   2.473   6.509   6.722
 6264SOL    HW219692   2.635   6.494   6.735
 6265SOL     OW19693   4.794   6.566   6.661
 6265SOL    HW119694   4.708   6.514   6.661
 6265SOL    HW219695   4.870   6.505   6.640
 6266SOL     OW19696   2.935   5.120   2.837
 6266SOL    HW119697   3.001   5.178   2.885
 6266SOL    HW219698   2.928   5.149   2.742
 6267SOL     OW19699   1.735   6.411   4.782
 6267SOL    HW119700   1.781   6.361   4.856
 6267SOL    HW219701   1.652   6.362   4.755
 6268SOL     OW19702   3.161   1.655   0.701
 6268SOL    HW119703   3.084   1.670   0.639
 6268SOL    HW219704   3.156   1.562   0.738
 6269SOL     OW19705   6.625   5.240   0.016
 6269SOL    HW119706   6.654   5.246   6.940
 6269SOL    HW219707   6.683   5.175   0.064
 6270SOL     OW19708   2.138   6.300   1.039
 6270SOL    HW119709   2.118   6.237   1.113
 6270SOL    HW219710   2.228   6.342   1.053
 6271SOL     OW19711   6.776   3.089   5.699
 6271SOL    HW119712   6.747   2.993   5.693
 6271SOL    HW219713   6.828   3.113   5.618
 6272SOL     OW19714   6.746   0.110   0.098
 6272SOL    HW119715   6.712   0.044   0.031
 6272SOL    HW219716   6.675   0.127   0.167
 6273SOL     OW19717   0.984   6.452   2.092
 6273SOL    HW119718   1.016   6.534   2.138
 6273SOL    HW219719   0.928   6.397   2.154
 6274SOL     OW19720   2.968   5.676   3.736
 6274SOL    HW119721   2.898   5.645   3.800
 6274SOL    HW219722   2.979   5.775   3.743
 6275SOL     OW19723   3.154   5.825   6.951
 6275SOL    HW119724   3.213   5.816   6.871
 6275SOL    HW219725   3.132   5.921   6.966
 6276SOL     OW19726   1.319   5.583   2.383
 6276SOL    HW119727   1.364   5.518   2.445
 6276SOL    HW219728   1.385   5.617   2.316
 6277SOL     OW19729   5.403   2.997   1.263
 6277SOL    HW119730   5.411   2.958   1.355
 6277SOL    HW219731   5.427   2.928   1.195
 6278SOL     OW19732   3.914   2.323   0.360
 6278SOL    HW119733   3.990   2.359   0.308
 6278SOL    HW219734   3.828   2.344   0.314
 6279SOL     OW19735   3.716   6.804   1.551
 6279SOL    HW119736   3.743   6.839   1.641
 6279SOL    HW219737   3.637   6.744   1.560
 6280SOL     OW19738   5.251   2.654   6.506
 6280SOL    HW119739   5.251   2.751   6.484
 6280SOL    HW219740   5.201   2.638   6.591
 6281SOL     OW19741   4.986   4.008   6.204
 6281SOL    HW119742   5.009   4.027   6.108
 6281SOL    HW219743   4.905   3.951   6.208
 6282SOL     OW19744   0.344   3.432   6.086
 6282SOL    HW119745   0.388   3.470   6.005
 6282SOL    HW219746   0.413   3.412   6.155
 6283SOL     OW19747   2.080   6.274   4.609
 6283SOL    HW119748   2.054   6.265   4.513
 6283SOL    HW219749   2.059   6.189   4.657
 6284SOL     OW19750   1.081   3.722   5.144
 6284SOL    HW119751   1.012   3.764   5.204
 6284SOL    HW219752   1.130   3.794   5.095
 6285SOL     OW19753   1.477   3.651   3.073
 6285SOL    HW119754   1.498   3.707   2.993
 6285SOL    HW219755   1.451   3.559   3.043
 6286SOL     OW19756   0.851   2.617   6.724
 6286SOL    HW119757   0.771   2.676   6.736
 6286SOL    HW219758   0.822   2.521   6.730
 6287SOL     OW19759   4.690   4.850   5.234
 6287SOL    HW119760   4.787   4.873   5.239
 6287SOL    HW219761   4.660   4.813   5.322
 6288SOL     OW19762   2.679   3.893   6.296
 6288SOL    HW119763   2.681   3.832   6.375
 6288SOL    HW219764   2.761   3.950   6.296
 6289SOL     OW19765   2.100   4.558   5.591
 6289SOL    HW119766   2.188   4.539   5.547
 6289SOL    HW219767   2.039   4.480   5.581
 6290SOL     OW19768   5.993   6.589   4.337
 6290SOL    HW119769   6.032   6.638   4.259
 6290SOL    HW219770   5.974   6.495   4.310
 6291SOL     OW19771   3.864   3.528   2.639
 6291SOL    HW119772   3.790   3.561   2.581
 6291SOL    HW219773   3.942   3.590   2.632
 6292SOL     OW19774   1.399   4.381   4.040
 6292SOL    HW119775   1.435   4.402   4.131
 6292SOL    HW219776   1.318   4.437   4.022
 6293SOL     OW19777   2.819   1.586   6.270
 6293SOL    HW119778   2.728   1.572   6.308
 6293SOL    HW219779   2.875   1.638   6.333
 6294SOL     OW19780   1.785   1.127   2.600
 6294SOL    HW119781   1.847   1.050   2.594
 6294SOL    HW219782   1.731   1.121   2.684
 6295SOL     OW19783   4.258   3.033   6.110
 6295SOL    HW119784   4.341   3.087   6.096
 6295SOL    HW219785   4.180   3.081   6.070
 6296SOL     OW19786   0.785   3.210   0.488
 6296SOL    HW119787   0.809   3.206   0.585
 6296SOL    HW219788   0.687   3.224   0.479
 6297SOL     OW19789   6.388   1.537   4.195
 6297SOL    HW119790   6.452   1.603   4.155
 6297SOL    HW219791   6.359   1.473   4.125
 6298SOL     OW19792   0.377   6.008   0.704
 6298SOL    HW119793   0.423   5.920   0.694
 6298SOL    HW219794   0.307   6.001   0.775
 6299SOL     OW19795   3.881   1.925   3.492
 6299SOL    HW119796   3.819   1.880   3.428
 6299SOL    HW219797   3.896   2.019   3.463
 6300SOL     OW19798   2.608   1.466   6.722
 6300SOL    HW119799   2.592   1.419   6.636
 6300SOL    HW219800   2.706   1.469   6.741
 6301SOL     OW19801   4.296   6.098   0.069
 6301SOL    HW119802   4.223   6.063   0.128
 6301SOL    HW219803   4.385   6.071   0.106
 6302SOL     OW19804   2.391   2.615   6.211
 6302SOL    HW119805   2.334   2.539   6.183
 6302SOL    HW219806   2.395   2.682   6.136
 6303SOL     OW19807   0.557   5.854   4.374
 6303SOL    HW119808   0.644   5.890   4.342
 6303SOL    HW219809   0.530   5.902   4.457
 6304SOL     OW19810   3.467   0.489   4.636
 6304SOL    HW119811   3.472   0.482   4.536
 6304SOL    HW219812   3.490   0.402   4.677
 6305SOL     OW19813   1.135   5.732   5.664
 6305SOL    HW119814   1.226   5.767   5.644
 6305SOL    HW219815   1.142   5.661   5.735
 6306SOL     OW19816   0.439   4.827   4.966
 6306SOL    HW119817   0.437   4.909   4.908
 6306SOL    HW219818   0.365   4.766   4.940
 6307SOL     OW19819   3.461   2.897   2.102
 6307SOL    HW119820   3.375   2.911   2.151
 6307SOL    HW219821   3.537   2.932   2.157
 6308SOL     OW19822   0.331   2.102   0.173
 6308SOL    HW119823   0.399   2.101   0.100
 6308SOL    HW219824   0.374   2.134   0.258
 6309SOL     OW19825   2.443   6.503   4.921
 6309SOL    HW119826   2.497   6.432   4.966
 6309SOL    HW219827   2.347   6.477   4.921
 6310SOL     OW19828   1.306   0.061   2.935
 6310SOL    HW119829   1.387   0.013   2.968
 6310SOL    HW219830   1.334   0.147   2.892
 6311SOL     OW19831   6.390   0.887   6.760
 6311SOL    HW119832   6.481   0.930   6.761
 6311SOL    HW219833   6.320   0.958   6.757
 6312SOL     OW19834   3.357   5.619   0.194
 6312SOL    HW119835   3.331   5.597   0.100
 6312SOL    HW219836   3.280   5.662   0.241
 6313SOL     OW19837   6.286   4.771   4.215
 6313SOL    HW119838   6.345   4.814   4.147
 6313SOL    HW219839   6.325   4.683   4.242
 6314SOL     OW19840   2.069   6.510   2.343
 6314SOL    HW119841   2.112   6.462   2.420
 6314SOL    HW219842   1.974   6.480   2.334
 6315SOL     OW19843   1.968   1.543   3.644
 6315SOL    HW119844   1.952   1.623   3.703
 6315SOL    HW219845   2.040   1.563   3.578
 6316SOL     OW19846   4.410   0.977   4.820
 6316SOL    HW119847   4.412   0.881   4.846
 6316SOL    HW219848   4.503   1.013   4.817
 6317SOL     OW19849   5.529   4.735   2.503
 6317SOL    HW119850   5.481   4.648   2.504
 6317SOL    HW219851   5.471   4.806   2.544
 6318SOL     OW19852   6.714   6.763   0.311
 6318SOL    HW119853   6.691   6.666   0.319
 6318SOL    HW219854   6.690   6.796   0.220
 6319SOL     OW19855   5.238   2.052   4.171
 6319SOL    HW119856   5.178   2.099   4.236
 6319SOL    HW219857   5.183   2.010   4.099
 6320SOL     OW19858   6.160   1.709   5.557
 6320SOL    HW119859   6.108   1.720   5.642
 6320SOL    HW219860   6.209   1.622   5.559
 6321SOL     OW19861   0.338   2.554   7.017
 6321SOL    HW119862   0.286   2.593   0.074
 6321SOL    HW219863   0.290   2.473   6.982
 6322SOL     OW19864   1.178   1.091   2.768
 6322SOL    HW119865   1.220   1.124   2.684
 6322SOL    HW219866   1.189   1.159   2.841
 6323SOL     OW19867   2.131   5.106   0.893
 6323SOL    HW119868   2.184   5.124   0.809
 6323SOL    HW219869   2.193   5.096   0.970
 6324SOL     OW19870   4.611   3.507   1.147
 6324SOL    HW119871   4.578   3.508   1.053
 6324SOL    HW219872   4.545   3.458   1.204
 6325SOL     OW19873   1.211   2.895   3.830
 6325SOL    HW119874   1.193   2.958   3.755
 6325SOL    HW219875   1.208   2.945   3.917
 6326SOL     OW19876   5.271   5.412   5.691
 6326SOL    HW119877   5.200   5.415   5.620
 6326SOL    HW219878   5.345   5.475   5.667
 6327SOL     OW19879   0.450   1.385   3.506
 6327SOL    HW119880   0.361   1.396   3.462
 6327SOL    HW219881   0.448   1.426   3.597
 6328SOL     OW19882   4.534   3.829   5.308
 6328SOL    HW119883   4.587   3.755   5.266
 6328SOL    HW219884   4.450   3.842   5.256
 6329SOL     OW19885   0.398   2.218   5.840
 6329SOL    HW119886   0.456   2.291   5.804
 6329SOL    HW219887   0.356   2.167   5.764
 6330SOL     OW19888   4.798   1.443   3.917
 6330SOL    HW119889   4.779   1.523   3.974
 6330SOL    HW219890   4.886   1.454   3.872
 6331SOL     OW19891   0.989   3.202   3.925
 6331SOL    HW119892   1.069   3.180   3.982
 6331SOL    HW219893   1.007   3.174   3.831
 6332SOL     OW19894   3.285   1.522   6.794
 6332SOL    HW119895   3.365   1.461   6.790
 6332SOL    HW219896   3.315   1.616   6.779
 6333SOL     OW19897   6.115   1.085   1.218
 6333SOL    HW119898   6.198   1.072   1.273
 6333SOL    HW219899   6.039   1.037   1.261
 6334SOL     OW19900   1.444   1.022   1.572
 6334SOL    HW119901   1.482   1.044   1.483
 6334SOL    HW219902   1.369   0.957   1.562
 6335SOL     OW19903   6.384   3.326   6.411
 6335SOL    HW119904   6.381   3.394   6.338
 6335SOL    HW219905   6.295   3.322   6.456
 6336SOL     OW19906   0.563   4.022   5.109
 6336SOL    HW119907   0.611   4.096   5.062
 6336SOL    HW219908   0.624   3.980   5.176
 6337SOL     OW19909   5.065   6.592   5.320
 6337SOL    HW119910   5.091   6.565   5.413
 6337SOL    HW219911   5.067   6.692   5.313
 6338SOL     OW19912   0.958   0.978   3.447
 6338SOL    HW119913   0.876   0.972   3.503
 6338SOL    HW219914   0.935   0.957   3.352
 6339SOL     OW19915   0.558   4.448   3.654
 6339SOL    HW119916   0.604   4.436   3.566
 6339SOL    HW219917   0.625   4.465   3.725
 6340SOL     OW19918   2.742   4.180   0.439
 6340SOL    HW119919   2.716   4.139   0.526
 6340SOL    HW219920   2.661   4.217   0.394
 6341SOL     OW19921   0.568   5.769   1.949
 6341SOL    HW119922   0.530   5.705   1.883
 6341SOL    HW219923   0.646   5.817   1.908
 6342SOL     OW19924   1.777   1.321   1.044
 6342SOL    HW119925   1.795   1.395   0.980
 6342SOL    HW219926   1.679   1.309   1.055
 6343SOL     OW19927   1.339   5.696   0.616
 6343SOL    HW119928   1.263   5.756   0.592
 6343SOL    HW219929   1.315   5.643   0.697
 6344SOL     OW19930   0.644   1.075   3.955
 6344SOL    HW119931   0.635   1.118   4.045
 6344SOL    HW219932   0.557   1.031   3.930
 6345SOL     OW19933   6.093   2.619   2.687
 6345SOL    HW119934   6.035   2.595   2.609
 6345SOL    HW219935   6.045   2.685   2.745
 6346SOL     OW19936   0.036   4.024   5.510
 6346SOL    HW119937   0.012   3.976   5.594
 6346SOL    HW219938   7.019   3.974   5.431
 6347SOL     OW19939   2.090   2.419   3.547
 6347SOL    HW119940   2.047   2.487   3.607
 6347SOL    HW219941   2.060   2.327   3.574
 6348SOL     OW19942   1.222   2.256   6.024
 6348SOL    HW119943   1.221   2.244   5.925
 6348SOL    HW219944   1.153   2.196   6.066
 6349SOL     OW19945   6.590   1.013   0.898
 6349SOL    HW119946   6.627   1.094   0.943
 6349SOL    HW219947   6.567   0.944   0.967
 6350SOL     OW19948   1.168   6.504   1.202
 6350SOL    HW119949   1.218   6.439   1.144
 6350SOL    HW219950   1.175   6.475   1.298
 6351SOL     OW19951   5.756   4.329   1.784
 6351SOL    HW119952   5.774   4.288   1.695
 6351SOL    HW219953   5.839   4.372   1.818
 6352SOL     OW19954   3.535   1.241   4.892
 6352SOL    HW119955   3.602   1.308   4.924
 6352SOL    HW219956   3.469   1.287   4.832
 6353SOL     OW19957   3.745   6.475   5.772
 6353SOL    HW119958   3.771   6.515   5.860
 6353SOL    HW219959   3.811   6.503   5.702
 6354SOL     OW19960   4.704   5.376   2.208
 6354SOL    HW119961   4.661   5.435   2.139
 6354SOL    HW219962   4.778   5.324   2.166
 6355SOL     OW19963   3.765   5.605   0.639
 6355SOL    HW119964   3.690   5.570   0.582
 6355SOL    HW219965   3.813   5.529   0.682
 6356SOL     OW19966   0.259   5.931   5.954
 6356SOL    HW119967   0.230   5.891   5.867
 6356SOL    HW219968   0.325   6.004   5.937
 6357SOL     OW19969   5.423   0.824   2.263
 6357SOL    HW119970   5.427   0.922   2.283
 6357SOL    HW219971   5.352   0.807   2.193
 6358SOL     OW19972   1.234   2.038   4.956
 6358SOL    HW119973   1.169   2.026   4.881
 6358SOL    HW219974   1.210   2.121   5.008
 6359SOL     OW19975   5.525   5.844   1.269
 6359SOL    HW119976   5.622   5.821   1.283
 6359SOL    HW219977   5.491   5.798   1.187
 6360SOL     OW19978   1.147   1.401   1.192
 6360SOL    HW119979   1.167   1.396   1.094
 6360SOL    HW219980   1.209   1.340   1.241
 6361SOL     OW19981   0.445   1.283   0.398
 6361SOL    HW119982   0.351   1.258   0.374
 6361SOL    HW219983   0.493   1.202   0.431
 6362SOL     OW19984   1.530   5.856   0.761
 6362SOL    HW119985   1.473   5.787   0.717
 6362SOL    HW219986   1.475   5.910   0.825
 6363SOL     OW19987   2.204   3.948   2.239
 6363SOL    HW119988   2.218   3.850   2.233
 6363SOL    HW219989   2.213   3.988   2.148
 6364SOL     OW19990   2.601   2.444   4.312
 6364SOL    HW119991   2.534   2.371   4.306
 6364SOL    HW219992   2.554   2.532   4.318
 6365SOL     OW19993   5.673   0.108   3.149
 6365SOL    HW119994   5.754   0.053   3.168
 6365SOL    HW219995   5.598   0.078   3.207
 6366SOL     OW19996   6.105   1.040   5.353
 6366SOL    HW119997   6.189   0.990   5.333
 6366SOL    HW219998   6.127   1.134   5.378
 6367SOL     OW19999   1.139   2.382   3.028
 6367SOL    HW120000   1.146   2.355   2.932
 6367SOL    HW220001   1.047   2.418   3.045
 6368SOL     OW20002   4.792   3.944   4.666
 6368SOL    HW120003   4.836   4.014   4.723
 6368SOL    HW220004   4.703   3.920   4.705
 6369SOL     OW20005   4.721   5.152   0.434
 6369SOL    HW120006   4.735   5.095   0.514
 6369SOL    HW220007   4.726   5.096   0.351
 6370SOL     OW20008   5.725   3.842   4.393
 6370SOL    HW120009   5.676   3.852   4.480
 6370SOL    HW220010   5.673   3.888   4.321
 6371SOL     OW20011   5.448   4.778   1.305
 6371SOL    HW120012   5.540   4.751   1.278
 6371SOL    HW220013   5.404   4.703   1.355
 6372SOL     OW20014   6.364   1.815   1.829
 6372SOL    HW120015   6.380   1.751   1.755
 6372SOL    HW220016   6.276   1.796   1.872
 6373SOL     OW20017   4.864   3.715   1.484
 6373SOL    HW120018   4.832   3.627   1.448
 6373SOL    HW220019   4.903   3.769   1.410
 6374SOL     OW20020   4.637   3.630   6.923
 6374SOL    HW120021   4.713   3.601   6.864
 6374SOL    HW220022   4.556   3.577   6.900
 6375SOL     OW20023   4.562   1.226   2.160
 6375SOL    HW120024   4.515   1.242   2.073
 6375SOL    HW220025   4.648   1.180   2.143
 6376SOL     OW20026   2.993   0.207   0.561
 6376SOL    HW120027   2.948   0.150   0.492
 6376SOL    HW220028   3.084   0.171   0.580
 6377SOL     OW20029   0.482   0.563   0.003
 6377SOL    HW120030   0.571   0.525   6.996
 6377SOL    HW220031   0.413   0.491   7.015
 6378SOL     OW20032   5.548   4.402   2.368
 6378SOL    HW120033   5.460   4.427   2.409
 6378SOL    HW220034   5.615   4.387   2.441
 6379SOL     OW20035   1.999   5.072   6.241
 6379SOL    HW120036   2.009   5.021   6.327
 6379SOL    HW220037   1.916   5.041   6.194
 6380SOL     OW20038   0.599   3.969   5.453
 6380SOL    HW120039   0.641   3.881   5.433
 6380SOL    HW220040   0.667   4.042   5.444
 6381SOL     OW20041   4.193   3.419   0.584
 6381SOL    HW120042   4.263   3.348   0.588
 6381SOL    HW220043   4.130   3.399   0.508
 6382SOL     OW20044   1.555   1.318   0.406
 6382SOL    HW120045   1.531   1.400   0.354
 6382SOL    HW220046   1.567   1.342   0.503
 6383SOL     OW20047   2.381   2.338   2.360
 6383SOL    HW120048   2.448   2.378   2.424
 6383SOL    HW220049   2.418   2.253   2.322
 6384SOL     OW20050   6.324   2.352   1.879
 6384SOL    HW120051   6.243   2.365   1.936
 6384SOL    HW220052   6.339   2.434   1.823
 6385SOL     OW20053   0.030   3.995   6.972
 6385SOL    HW120054   6.954   3.971   6.957
 6385SOL    HW220055   0.089   3.929   6.925
 6386SOL     OW20056   2.714   2.669   0.708
 6386SOL    HW120057   2.673   2.578   0.696
 6386SOL    HW220058   2.812   2.664   0.688
 6387SOL     OW20059   0.458   6.901   6.965
 6387SOL    HW120060   0.361   6.899   6.941
 6387SOL    HW220061   0.510   6.850   6.897
 6388SOL     OW20062   5.574   5.583   2.044
 6388SOL    HW120063   5.503   5.590   2.114
 6388SOL    HW220064   5.607   5.488   2.040
 6389SOL     OW20065   6.632   6.476   0.758
 6389SOL    HW120066   6.687   6.439   0.683
 6389SOL    HW220067   6.579   6.402   0.800
 6390SOL     OW20068   5.253   0.839   0.176
 6390SOL    HW120069   5.205   0.782   0.243
 6390SOL    HW220070   5.313   0.903   0.224
 6391SOL     OW20071   1.234   1.759   5.159
 6391SOL    HW120072   1.278   1.804   5.082
 6391SOL    HW220073   1.189   1.675   5.128
 6392SOL     OW20074   4.055   6.982   3.784
 6392SOL    HW120075   4.038   0.061   3.790
 6392SOL    HW220076   4.122   6.956   3.853
 6393SOL     OW20077   1.507   5.533   0.073
 6393SOL    HW120078   1.437   5.478   0.119
 6393SOL    HW220079   1.579   5.556   0.138
 6394SOL     OW20080   1.647   4.926   1.877
 6394SOL    HW120081   1.706   4.970   1.944
 6394SOL    HW220082   1.573   4.988   1.851
 6395SOL     OW20083   2.159   3.800   3.940
 6395SOL    HW120084   2.163   3.865   4.016
 6395SOL    HW220085   2.066   3.797   3.903
 6396SOL     OW20086   1.612   3.220   5.342
 6396SOL    HW120087   1.535   3.232   5.405
 6396SOL    HW220088   1.646   3.126   5.349
 6397SOL     OW20089   5.724   3.721   4.868
 6397SOL    HW120090   5.817   3.684   4.875
 6397SOL    HW220091   5.664   3.652   4.828
 6398SOL     OW20092   2.573   0.086   2.551
 6398SOL    HW120093   2.613   7.014   2.546
 6398SOL    HW220094   2.504   0.096   2.479
 6399SOL     OW20095   3.321   6.874   0.097
 6399SOL    HW120096   3.292   6.920   0.181
 6399SOL    HW220097   3.262   6.903   0.022
 6400SOL     OW20098   0.450   6.300   3.094
 6400SOL    HW120099   0.487   6.222   3.144
 6400SOL    HW220100   0.353   6.313   3.119
 6401SOL     OW20101   4.197   5.198   2.752
 6401SOL    HW120102   4.138   5.279   2.754
 6401SOL    HW220103   4.255   5.201   2.671
 6402SOL     OW20104   2.766   4.348   5.887
 6402SOL    HW120105   2.824   4.428   5.870
 6402SOL    HW220106   2.692   4.345   5.820
 6403SOL     OW20107   5.110   5.167   5.325
 6403SOL    HW120108   5.097   5.124   5.236
 6403SOL    HW220109   5.160   5.253   5.314
 6404SOL     OW20110   4.782   6.566   1.355
 6404SOL    HW120111   4.799   6.585   1.259
 6404SOL    HW220112   4.696   6.609   1.383
 6405SOL     OW20113   5.004   1.324   2.891
 6405SOL    HW120114   5.053   1.258   2.947
 6405SOL    HW220115   5.047   1.414   2.899
 6406SOL     OW20116   0.610   3.413   3.084
 6406SOL    HW120117   0.557   3.481   3.033
 6406SOL    HW220118   0.668   3.461   3.151
 6407SOL     OW20119   0.466   6.881   2.542
 6407SOL    HW120120   0.460   6.885   2.642
 6407SOL    HW220121   0.380   6.913   2.503
 6408SOL     OW20122   6.921   0.962   1.846
 6408SOL    HW120123   0.000   0.947   1.846
 6408SOL    HW220124   6.879   0.910   1.920
 6409SOL     OW20125   5.023   4.594   3.681
 6409SOL    HW120126   5.090   4.652   3.728
 6409SOL    HW220127   4.972   4.650   3.616
 6410SOL     OW20128   1.998   1.140   0.120
 6410SOL    HW120129   1.912   1.188   0.134
 6410SOL    HW220130   2.073   1.207   0.120
 6411SOL     OW20131   0.560   2.939   2.231
 6411SOL    HW120132   0.659   2.954   2.242
 6411SOL    HW220133   0.544   2.843   2.207
 6412SOL     OW20134   3.716   1.185   6.945
 6412SOL    HW120135   3.629   1.178   6.897
 6412SOL    HW220136   3.780   1.238   6.891
 6413SOL     OW20137   4.704   6.161   3.428
 6413SOL    HW120138   4.658   6.104   3.497
 6413SOL    HW220139   4.708   6.111   3.341
 6414SOL     OW20140   2.812   0.404   0.658
 6414SOL    HW120141   2.887   0.355   0.615
 6414SOL    HW220142   2.796   0.368   0.750
 6415SOL     OW20143   0.813   2.259   4.137
 6415SOL    HW120144   0.764   2.294   4.217
 6415SOL    HW220145   0.856   2.171   4.159
 6416SOL     OW20146   2.849   5.115   0.001
 6416SOL    HW120147   2.870   5.184   0.070
 6416SOL    HW220148   2.932   5.091   6.971
 6417SOL     OW20149   4.303   2.921   0.058
 6417SOL    HW120150   4.377   2.907   7.012
 6417SOL    HW220151   4.307   3.014   0.094
 6418SOL     OW20152   5.132   4.489   0.476
 6418SOL    HW120153   5.048   4.518   0.429
 6418SOL    HW220154   5.154   4.395   0.449
 6419SOL     OW20155   1.097   6.731   6.326
 6419SOL    HW120156   1.119   6.806   6.263
 6419SOL    HW220157   1.180   6.683   6.352
 6420SOL     OW20158   2.678   4.695   4.226
 6420SOL    HW120159   2.632   4.624   4.280
 6420SOL    HW220160   2.683   4.665   4.131
 6421SOL     OW20161   3.978   0.783   2.416
 6421SOL    HW120162   4.052   0.797   2.351
 6421SOL    HW220163   3.929   0.699   2.393
 6422SOL     OW20164   6.637   2.604   4.640
 6422SOL    HW120165   6.554   2.616   4.586
 6422SOL    HW220166   6.666   2.508   4.635
 6423SOL     OW20167   1.228   5.025   4.472
 6423SOL    HW120168   1.296   4.955   4.450
 6423SOL    HW220169   1.235   5.048   4.569
 6424SOL     OW20170   6.739   4.626   5.590
 6424SOL    HW120171   6.644   4.652   5.609
 6424SOL    HW220172   6.789   4.616   5.676
 6425SOL     OW20173   6.661   6.059   4.280
 6425SOL    HW120174   6.611   6.144   4.296
 6425SOL    HW220175   6.749   6.063   4.328
 6426SOL     OW20176   4.376   4.888   4.582
 6426SOL    HW120177   4.459   4.845   4.546
 6426SOL    HW220178   4.353   4.846   4.669
 6427SOL     OW20179   3.845   2.962   3.551
 6427SOL    HW120180   3.925   3.013   3.519
 6427SOL    HW220181   3.776   2.960   3.478
 6428SOL     OW20182   5.798   2.861   0.648
 6428SOL    HW120183   5.756   2.890   0.563
 6428SOL    HW220184   5.745   2.785   0.687
 6429SOL     OW20185   2.274   1.168   5.213
 6429SOL    HW120186   2.228   1.167   5.301
 6429SOL    HW220187   2.211   1.139   5.141
 6430SOL     OW20188   6.067   0.866   5.570
 6430SOL    HW120189   6.021   0.779   5.558
 6430SOL    HW220190   6.046   0.927   5.493
 6431SOL     OW20191   3.362   4.893   2.157
 6431SOL    HW120192   3.389   4.976   2.109
 6431SOL    HW220193   3.350   4.819   2.091
 6432SOL     OW20194   5.259   3.510   6.228
 6432SOL    HW120195   5.266   3.561   6.314
 6432SOL    HW220196   5.346   3.514   6.179
 6433SOL     OW20197   3.322   4.393   5.379
 6433SOL    HW120198   3.401   4.410   5.438
 6433SOL    HW220199   3.324   4.298   5.348
 6434SOL     OW20200   5.118   5.193   5.771
 6434SOL    HW120201   5.134   5.118   5.706
 6434SOL    HW220202   5.188   5.263   5.757
 6435SOL     OW20203   4.516   1.734   1.249
 6435SOL    HW120204   4.519   1.655   1.187
 6435SOL    HW220205   4.442   1.795   1.222
 6436SOL     OW20206   6.916   3.381   3.326
 6436SOL    HW120207   6.937   3.329   3.243
 6436SOL    HW220208   6.817   3.379   3.343
 6437SOL     OW20209   1.213   2.149   5.712
 6437SOL    HW120210   1.214   2.054   5.681
 6437SOL    HW220211   1.129   2.193   5.679
 6438SOL     OW20212   0.365   4.901   0.046
 6438SOL    HW120213   0.295   4.928   0.112
 6438SOL    HW220214   0.351   4.805   0.021
 6439SOL     OW20215   5.075   6.702   2.983
 6439SOL    HW120216   5.167   6.662   2.984
 6439SOL    HW220217   5.034   6.692   3.074
 6440SOL     OW20218   3.325   1.183   6.138
 6440SOL    HW120219   3.281   1.272   6.127
 6440SOL    HW220220   3.328   1.160   6.236
 6441SOL     OW20221   6.980   1.808   2.228
 6441SOL    HW120222   0.008   1.895   2.216
 6441SOL    HW220223   6.895   1.823   2.279
 6442SOL     OW20224   2.627   2.124   4.758
 6442SOL    HW120225   2.565   2.134   4.680
 6442SOL    HW220226   2.641   2.027   4.777
 6443SOL     OW20227   3.804   3.126   6.689
 6443SOL    HW120228   3.897   3.092   6.704
 6443SOL    HW220229   3.805   3.189   6.611
 6444SOL     OW20230   6.809   4.466   5.029
 6444SOL    HW120231   6.886   4.402   5.021
 6444SOL    HW220232   6.740   4.443   4.961
 6445SOL     OW20233   2.901   3.489   3.322
 6445SOL    HW120234   2.930   3.542   3.242
 6445SOL    HW220235   2.894   3.393   3.297
 6446SOL     OW20236   1.186   1.615   6.674
 6446SOL    HW120237   1.204   1.516   6.680
 6446SOL    HW220238   1.216   1.649   6.585
 6447SOL     OW20239   5.915   3.544   2.212
 6447SOL    HW120240   5.968   3.550   2.128
 6447SOL    HW220241   5.835   3.486   2.197
 6448SOL     OW20242   3.872   4.644   1.030
 6448SOL    HW120243   3.889   4.558   1.078
 6448SOL    HW220244   3.773   4.663   1.030
 6449SOL     OW20245   3.554   5.271   0.551
 6449SOL    HW120246   3.480   5.258   0.486
 6449SOL    HW220247   3.640   5.243   0.510
 6450SOL     OW20248   6.687   4.500   6.868
 6450SOL    HW120249   6.619   4.469   6.802
 6450SOL    HW220250   6.740   4.575   6.828
 6451SOL     OW20251   3.976   3.042   1.472
 6451SOL    HW120252   4.008   3.008   1.383
 6451SOL    HW220253   4.048   3.031   1.540
 6452SOL     OW20254   3.835   2.146   4.549
 6452SOL    HW120255   3.750   2.117   4.593
 6452SOL    HW220256   3.816   2.169   4.454
 6453SOL     OW20257   2.108   0.639   2.972
 6453SOL    HW120258   2.025   0.593   2.943
 6453SOL    HW220259   2.167   0.654   2.892
 6454SOL     OW20260   5.203   2.813   3.491
 6454SOL    HW120261   5.284   2.811   3.550
 6454SOL    HW220262   5.190   2.906   3.456
 6455SOL     OW20263   0.041   2.740   4.158
 6455SOL    HW120264   0.099   2.821   4.148
 6455SOL    HW220265   7.007   2.748   4.242
 6456SOL     OW20266   5.638   1.411   2.271
 6456SOL    HW120267   5.619   1.359   2.355
 6456SOL    HW220268   5.708   1.480   2.290
 6457SOL     OW20269   3.518   6.694   2.794
 6457SOL    HW120270   3.432   6.655   2.759
 6457SOL    HW220271   3.523   6.791   2.769
 6458SOL     OW20272   6.838   6.621   4.094
 6458SOL    HW120273   6.884   6.625   4.006
 6458SOL    HW220274   6.739   6.628   4.080
 6459SOL     OW20275   0.701   3.164   3.110
 6459SOL    HW120276   0.791   3.140   3.075
 6459SOL    HW220277   0.687   3.263   3.103
 6460SOL     OW20278   0.464   5.455   6.633
 6460SOL    HW120279   0.499   5.385   6.694
 6460SOL    HW220280   0.392   5.416   6.575
 6461SOL     OW20281   1.569   6.665   0.823
 6461SOL    HW120282   1.621   6.596   0.773
 6461SOL    HW220283   1.491   6.695   0.767
 6462SOL     OW20284   1.527   3.488   5.068
 6462SOL    HW120285   1.561   3.490   4.974
 6462SOL    HW220286   1.596   3.447   5.128
 6463SOL     OW20287   4.266   2.776   0.976
 6463SOL    HW120288   4.305   2.719   1.049
 6463SOL    HW220289   4.168   2.787   0.992
 6464SOL     OW20290   0.908   4.278   3.694
 6464SOL    HW120291   0.846   4.344   3.738
 6464SOL    HW220292   0.896   4.189   3.737
 6465SOL     OW20293   3.684   0.720   3.755
 6465SOL    HW120294   3.599   0.669   3.771
 6465SOL    HW220295   3.694   0.790   3.826
 6466SOL     OW20296   6.728   4.762   0.166
 6466SOL    HW120297   6.653   4.780   0.230
 6466SOL    HW220298   6.809   4.730   0.217
 6467SOL     OW20299   1.834   2.408   6.563
 6467SOL    HW120300   1.746   2.390   6.519
 6467SOL    HW220301   1.904   2.349   6.522
 6468SOL     OW20302   2.320   0.410   1.159
 6468SOL    HW120303   2.301   0.469   1.237
 6468SOL    HW220304   2.314   0.314   1.186
 6469SOL     OW20305   2.050   1.179   1.605
 6469SOL    HW120306   2.009   1.253   1.658
 6469SOL    HW220307   2.149   1.179   1.618
 6470SOL     OW20308   6.974   2.024   6.876
 6470SOL    HW120309   6.968   1.934   6.921
 6470SOL    HW220310   6.892   2.038   6.820
 6471SOL     OW20311   0.446   6.347   5.861
 6471SOL    HW120312   0.451   6.435   5.907
 6471SOL    HW220313   0.433   6.361   5.763
 6472SOL     OW20314   6.906   6.780   2.966
 6472SOL    HW120315   6.948   6.741   2.883
 6472SOL    HW220316   6.807   6.770   2.961
 6473SOL     OW20317   2.346   1.420   3.064
 6473SOL    HW120318   2.433   1.392   3.104
 6473SOL    HW220319   2.330   1.517   3.082
 6474SOL     OW20320   3.794   6.266   4.673
 6474SOL    HW120321   3.835   6.259   4.582
 6474SOL    HW220322   3.740   6.349   4.679
 6475SOL     OW20323   5.991   5.557   2.270
 6475SOL    HW120324   5.975   5.617   2.349
 6475SOL    HW220325   6.003   5.613   2.188
 6476SOL     OW20326   3.748   2.752   6.633
 6476SOL    HW120327   3.791   2.702   6.708
 6476SOL    HW220328   3.745   2.694   6.551
 6477SOL     OW20329   0.274   6.244   1.841
 6477SOL    HW120330   0.339   6.215   1.911
 6477SOL    HW220331   0.312   6.225   1.750
 6478SOL     OW20332   2.695   6.253   0.901
 6478SOL    HW120333   2.614   6.287   0.852
 6478SOL    HW220334   2.681   6.264   0.999
 6479SOL     OW20335   4.380   5.957   3.470
 6479SOL    HW120336   4.287   5.925   3.491
 6479SOL    HW220337   4.379   6.006   3.383
 6480SOL     OW20338   4.175   1.286   6.300
 6480SOL    HW120339   4.141   1.196   6.327
 6480SOL    HW220340   4.243   1.318   6.366
 6481SOL     OW20341   3.699   3.012   2.204
 6481SOL    HW120342   3.755   2.961   2.139
 6481SOL    HW220343   3.723   3.109   2.200
 6482SOL     OW20344   4.930   4.127   5.945
 6482SOL    HW120345   4.937   4.058   5.872
 6482SOL    HW220346   4.839   4.169   5.941
 6483SOL     OW20347   2.362   5.959   5.055
 6483SOL    HW120348   2.309   5.957   4.970
 6483SOL    HW220349   2.410   6.046   5.062
 6484SOL     OW20350   2.973   1.309   2.987
 6484SOL    HW120351   2.895   1.249   2.966
 6484SOL    HW220352   2.944   1.382   3.048
 6485SOL     OW20353   2.763   6.128   5.003
 6485SOL    HW120354   2.765   6.113   4.904
 6485SOL    HW220355   2.836   6.192   5.029
 6486SOL     OW20356   0.446   5.125   2.728
 6486SOL    HW120357   0.442   5.141   2.827
 6486SOL    HW220358   0.497   5.041   2.709
 6487SOL     OW20359   6.840   4.759   3.844
 6487SOL    HW120360   6.749   4.739   3.809
 6487SOL    HW220361   6.908   4.706   3.792
 6488SOL     OW20362   3.690   5.532   4.127
 6488SOL    HW120363   3.635   5.459   4.086
 6488SOL    HW220364   3.770   5.550   4.070
 6489SOL     OW20365   5.407   2.706   5.029
 6489SOL    HW120366   5.373   2.711   5.122
 6489SOL    HW220367   5.415   2.798   4.991
 6490SOL     OW20368   2.209   1.973   0.450
 6490SOL    HW120369   2.299   2.006   0.421
 6490SOL    HW220370   2.141   2.045   0.435
 6491SOL     OW20371   1.883   0.085   1.723
 6491SOL    HW120372   1.842   0.138   1.649
 6491SOL    HW220373   1.891   0.142   1.805
 6492SOL     OW20374   4.119   3.359   4.351
 6492SOL    HW120375   4.177   3.411   4.289
 6492SOL    HW220376   4.035   3.410   4.369
 6493SOL     OW20377   1.271   4.646   4.127
 6493SOL    HW120378   1.218   4.731   4.125
 6493SOL    HW220379   1.363   4.664   4.162
 6494SOL     OW20380   6.527   1.045   1.826
 6494SOL    HW120381   6.567   1.116   1.884
 6494SOL    HW220382   6.567   0.956   1.850
 6495SOL     OW20383   6.497   0.169   2.963
 6495SOL    HW120384   6.523   0.261   2.933
 6495SOL    HW220385   6.440   0.176   3.046
 6496SOL     OW20386   3.294   2.148   1.829
 6496SOL    HW120387   3.344   2.093   1.896
 6496SOL    HW220388   3.357   2.214   1.788
 6497SOL     OW20389   0.195   1.187   0.460
 6497SOL    HW120390   0.115   1.247   0.470
 6497SOL    HW220391   0.230   1.163   0.550
 6498SOL     OW20392   2.212   4.204   4.155
 6498SOL    HW120393   2.164   4.155   4.228
 6498SOL    HW220394   2.298   4.241   4.191
 6499SOL     OW20395   4.971   2.756   3.240
 6499SOL    HW120396   4.915   2.674   3.247
 6499SOL    HW220397   4.959   2.812   3.322
 6500SOL     OW20398   1.486   3.771   3.309
 6500SOL    HW120399   1.396   3.761   3.351
 6500SOL    HW220400   1.480   3.746   3.212
 6501SOL     OW20401   5.711   2.305   2.669
 6501SOL    HW120402   5.655   2.241   2.617
 6501SOL    HW220403   5.655   2.349   2.739
 6502SOL     OW20404   0.027   3.769   1.991
 6502SOL    HW120405   6.992   3.755   1.909
 6502SOL    HW220406   0.013   3.693   2.054
 6503SOL     OW20407   0.123   3.470   5.856
 6503SOL    HW120408   0.198   3.408   5.875
 6503SOL    HW220409   0.152   3.540   5.792
 6504SOL     OW20410   3.757   6.502   6.276
 6504SOL    HW120411   3.727   6.441   6.350
 6504SOL    HW220412   3.822   6.454   6.218
 6505SOL     OW20413   0.041   5.879   0.727
 6505SOL    HW120414   0.038   5.808   0.797
 6505SOL    HW220415   0.079   5.963   0.767
 6506SOL     OW20416   0.706   3.860   2.175
 6506SOL    HW120417   0.611   3.880   2.200
 6506SOL    HW220418   0.748   3.805   2.248
 6507SOL     OW20419   4.414   5.458   0.356
 6507SOL    HW120420   4.365   5.403   0.423
 6507SOL    HW220421   4.510   5.462   0.380
 6508SOL     OW20422   0.293   0.172   3.535
 6508SOL    HW120423   0.197   0.196   3.552
 6508SOL    HW220424   0.298   0.080   3.497
 6509SOL     OW20425   2.397   1.632   6.739
 6509SOL    HW120426   2.363   1.612   6.831
 6509SOL    HW220427   2.494   1.608   6.733
 6510SOL     OW20428   3.278   6.156   5.009
 6510SOL    HW120429   3.248   6.061   5.013
 6510SOL    HW220430   3.218   6.207   4.948
 6511SOL     OW20431   3.033   2.723   0.404
 6511SOL    HW120432   3.122   2.682   0.424
 6511SOL    HW220433   2.975   2.719   0.485
 6512SOL     OW20434   4.654   1.454   0.564
 6512SOL    HW120435   4.572   1.490   0.518
 6512SOL    HW220436   4.735   1.498   0.526
 6513SOL     OW20437   2.519   4.475   2.882
 6513SOL    HW120438   2.463   4.392   2.875
 6513SOL    HW220439   2.501   4.534   2.804
 6514SOL     OW20440   5.310   6.816   5.594
 6514SOL    HW120441   5.262   6.800   5.681
 6514SOL    HW220442   5.326   6.914   5.584
 6515SOL     OW20443   1.143   5.113   2.953
 6515SOL    HW120444   1.059   5.059   2.953
 6515SOL    HW220445   1.122   5.207   2.926
 6516SOL     OW20446   6.791   2.958   2.094
 6516SOL    HW120447   6.782   2.868   2.051
 6516SOL    HW220448   6.722   2.967   2.166
 6517SOL     OW20449   6.661   3.399   0.506
 6517SOL    HW120450   6.612   3.473   0.461
 6517SOL    HW220451   6.751   3.432   0.536
 6518SOL     OW20452   0.561   1.129   2.127
 6518SOL    HW120453   0.535   1.198   2.195
 6518SOL    HW220454   0.580   1.043   2.174
 6519SOL     OW20455   1.155   0.828   3.552
 6519SOL    HW120456   1.139   0.820   3.650
 6519SOL    HW220457   1.090   0.892   3.512
 6520SOL     OW20458   0.265   5.527   0.390
 6520SOL    HW120459   0.283   5.575   0.476
 6520SOL    HW220460   0.351   5.513   0.341
 6521SOL     OW20461   2.016   4.398   4.124
 6521SOL    HW120462   1.941   4.351   4.077
 6521SOL    HW220463   2.091   4.334   4.140
 6522SOL     OW20464   2.525   2.700   5.190
 6522SOL    HW120465   2.502   2.797   5.183
 6522SOL    HW220466   2.465   2.655   5.257
 6523SOL     OW20467   6.117   6.598   0.592
 6523SOL    HW120468   6.124   6.505   0.555
 6523SOL    HW220469   6.209   6.631   0.615
 6524SOL     OW20470   2.965   3.076   1.103
 6524SOL    HW120471   2.966   3.085   1.202
 6524SOL    HW220472   2.905   3.000   1.076
 6525SOL     OW20473   0.965   5.012   3.441
 6525SOL    HW120474   1.033   5.040   3.508
 6525SOL    HW220475   0.966   5.075   3.364
 6526SOL     OW20476   0.844   5.710   0.698
 6526SOL    HW120477   0.916   5.727   0.631
 6526SOL    HW220478   0.881   5.724   0.790
 6527SOL     OW20479   6.124   1.593   0.573
 6527SOL    HW120480   6.203   1.655   0.577
 6527SOL    HW220481   6.143   1.518   0.510
 6528SOL     OW20482   4.288   6.673   6.989
 6528SOL    HW120483   4.373   6.645   0.013
 6528SOL    HW220484   4.252   6.598   6.933
 6529SOL     OW20485   5.247   0.003   2.182
 6529SOL    HW120486   5.171   0.068   2.184
 6529SOL    HW220487   5.324   0.041   2.234
 6530SOL     OW20488   0.422   2.805   3.187
 6530SOL    HW120489   0.342   2.830   3.134
 6530SOL    HW220490   0.464   2.887   3.225
 6531SOL     OW20491   3.981   3.945   4.793
 6531SOL    HW120492   3.944   3.855   4.814
 6531SOL    HW220493   4.081   3.941   4.794
 6532SOL     OW20494   1.611   6.823   0.253
 6532SOL    HW120495   1.620   6.799   0.350
 6532SOL    HW220496   1.522   6.792   0.220
 6533SOL     OW20497   4.872   4.458   1.950
 6533SOL    HW120498   4.877   4.365   1.987
 6533SOL    HW220499   4.957   4.480   1.903
 6534SOL     OW20500   0.091   4.440   3.053
 6534SOL    HW120501   0.001   4.484   3.053
 6534SOL    HW220502   0.080   4.342   3.034
 6535SOL     OW20503   5.097   3.946   5.302
 6535SOL    HW120504   5.101   3.999   5.217
 6535SOL    HW220505   5.115   3.850   5.282
 6536SOL     OW20506   0.822   4.610   5.212
 6536SOL    HW120507   0.732   4.643   5.240
 6536SOL    HW220508   0.881   4.688   5.191
 6537SOL     OW20509   6.322   5.230   3.540
 6537SOL    HW120510   6.226   5.206   3.529
 6537SOL    HW220511   6.356   5.193   3.627
 6538SOL     OW20512   1.226   2.394   4.684
 6538SOL    HW120513   1.324   2.406   4.695
 6538SOL    HW220514   1.183   2.481   4.662
 6539SOL     OW20515   4.656   6.538   6.383
 6539SOL    HW120516   4.600   6.586   6.315
 6539SOL    HW220517   4.697   6.604   6.446
 6540SOL     OW20518   6.847   2.924   5.286
 6540SOL    HW120519   6.781   2.852   5.265
 6540SOL    HW220520   6.896   2.900   5.370
 6541SOL     OW20521   5.206   1.888   5.885
 6541SOL    HW120522   5.251   1.838   5.958
 6541SOL    HW220523   5.273   1.943   5.835
 6542SOL     OW20524   1.233   3.662   2.683
 6542SOL    HW120525   1.306   3.706   2.631
 6542SOL    HW220526   1.182   3.731   2.734
 6543SOL     OW20527   3.737   1.758   4.896
 6543SOL    HW120528   3.794   1.803   4.827
 6543SOL    HW220529   3.750   1.802   4.985
 6544SOL     OW20530   0.784   0.011   0.542
 6544SOL    HW120531   0.814   6.943   0.581
 6544SOL    HW220532   0.699   0.040   0.586
 6545SOL     OW20533   4.704   6.888   1.346
 6545SOL    HW120534   4.765   6.952   1.392
 6545SOL    HW220535   4.749   6.852   1.264
 6546SOL     OW20536   5.074   4.398   6.527
 6546SOL    HW120537   5.063   4.414   6.625
 6546SOL    HW220538   5.037   4.476   6.476
 6547SOL     OW20539   0.485   6.400   5.574
 6547SOL    HW120540   0.401   6.366   5.532
 6547SOL    HW220541   0.559   6.399   5.506
 6548SOL     OW20542   0.178   1.166   5.932
 6548SOL    HW120543   0.092   1.135   5.890
 6548SOL    HW220544   0.235   1.088   5.955
 6549SOL     OW20545   4.131   1.494   2.785
 6549SOL    HW120546   4.202   1.563   2.795
 6549SOL    HW220547   4.156   1.411   2.835
 6550SOL     OW20548   5.844   6.301   2.872
 6550SOL    HW120549   5.833   6.381   2.932
 6550SOL    HW220550   5.763   6.292   2.814
 6551SOL     OW20551   2.742   4.061   0.680
 6551SOL    HW120552   2.701   4.012   0.756
 6551SOL    HW220553   2.841   4.048   0.681
 6552SOL     OW20554   2.050   5.084   0.256
 6552SOL    HW120555   2.028   5.130   0.343
 6552SOL    HW220556   1.987   5.115   0.185
 6553SOL     OW20557   0.591   1.776   3.264
 6553SOL    HW120558   0.687   1.749   3.275
 6553SOL    HW220559   0.587   1.871   3.233
 6554SOL     OW20560   1.601   2.055   4.373
 6554SOL    HW120561   1.538   2.012   4.437
 6554SOL    HW220562   1.596   2.155   4.383
 6555SOL     OW20563   0.166   4.096   3.680
 6555SOL    HW120564   0.184   4.194   3.669
 6555SOL    HW220565   0.138   4.078   3.773
 6556SOL     OW20566   4.835   3.013   2.626
 6556SOL    HW120567   4.834   2.994   2.724
 6556SOL    HW220568   4.796   2.935   2.577
 6557SOL     OW20569   1.920   0.504   2.330
 6557SOL    HW120570   1.926   0.603   2.317
 6557SOL    HW220571   1.981   0.458   2.265
 6558SOL     OW20572   5.526   6.477   6.997
 6558SOL    HW120573   5.593   6.512   6.931
 6558SOL    HW220574   5.571   6.413   0.040
 6559SOL     OW20575   6.547   3.156   6.290
 6559SOL    HW120576   6.641   3.140   6.323
 6559SOL    HW220577   6.513   3.242   6.328
 6560SOL     OW20578   6.430   5.034   0.135
 6560SOL    HW120579   6.464   4.978   0.210
 6560SOL    HW220580   6.505   5.090   0.099
 6561SOL     OW20581   3.147   4.373   0.319
 6561SOL    HW120582   3.080   4.323   0.264
 6561SOL    HW220583   3.125   4.471   0.316
 6562SOL     OW20584   5.454   2.747   1.642
 6562SOL    HW120585   5.447   2.847   1.652
 6562SOL    HW220586   5.447   2.723   1.545
 6563SOL     OW20587   6.149   4.979   5.223
 6563SOL    HW120588   6.235   4.931   5.240
 6563SOL    HW220589   6.097   4.932   5.152
 6564SOL     OW20590   5.829   3.200   2.732
 6564SOL    HW120591   5.759   3.159   2.674
 6564SOL    HW220592   5.909   3.140   2.736
 6565SOL     OW20593   5.492   6.885   2.923
 6565SOL    HW120594   5.437   6.960   2.887
 6565SOL    HW220595   5.555   6.852   2.853
 6566SOL     OW20596   4.943   5.531   3.714
 6566SOL    HW120597   4.986   5.617   3.741
 6566SOL    HW220598   5.012   5.469   3.677
 6567SOL     OW20599   3.850   0.537   2.374
 6567SOL    HW120600   3.758   0.518   2.406
 6567SOL    HW220601   3.912   0.464   2.402
 6568SOL     OW20602   4.536   1.509   1.113
 6568SOL    HW120603   4.575   1.508   1.021
 6568SOL    HW220604   4.535   1.416   1.150
 6569SOL     OW20605   0.856   4.774   4.318
 6569SOL    HW120606   0.913   4.802   4.241
 6569SOL    HW220607   0.908   4.710   4.376
 6570SOL     OW20608   4.353   6.854   2.307
 6570SOL    HW120609   4.274   6.915   2.311
 6570SOL    HW220610   4.425   6.888   2.367
 6571SOL     OW20611   3.021   6.008   3.277
 6571SOL    HW120612   2.996   5.923   3.230
 6571SOL    HW220613   3.016   6.084   3.212
 6572SOL     OW20614   1.807   5.902   3.779
 6572SOL    HW120615   1.731   5.908   3.844
 6572SOL    HW220616   1.780   5.842   3.703
 6573SOL     OW20617   0.859   2.422   3.081
 6573SOL    HW120618   0.796   2.500   3.088
 6573SOL    HW220619   0.886   2.392   3.172
 6574SOL     OW20620   1.577   4.705   2.181
 6574SOL    HW120621   1.593   4.646   2.102
 6574SOL    HW220622   1.665   4.734   2.219
 6575SOL     OW20623   0.209   1.420   3.353
 6575SOL    HW120624   0.211   1.338   3.296
 6575SOL    HW220625   0.233   1.500   3.297
 6576SOL     OW20626   4.503   6.702   1.297
 6576SOL    HW120627   4.561   6.770   1.342
 6576SOL    HW220628   4.421   6.687   1.352
 6577SOL     OW20629   3.257   1.297   3.757
 6577SOL    HW120630   3.271   1.202   3.732
 6577SOL    HW220631   3.242   1.352   3.674
 6578SOL     OW20632   0.857   4.866   0.475
 6578SOL    HW120633   0.882   4.893   0.568
 6578SOL    HW220634   0.760   4.883   0.459
 6579SOL     OW20635   0.135   0.902   4.140
 6579SOL    HW120636   0.060   0.967   4.150
 6579SOL    HW220637   0.194   0.907   4.222
 6580SOL     OW20638   2.271   1.829   0.687
 6580SOL    HW120639   2.238   1.893   0.617
 6580SOL    HW220640   2.364   1.855   0.714
 6581SOL     OW20641   0.493   2.264   0.653
 6581SOL    HW120642   0.424   2.335   0.666
 6581SOL    HW220643   0.513   2.254   0.556
 6582SOL     OW20644   6.020   1.329   3.074
 6582SOL    HW120645   5.938   1.387   3.071
 6582SOL    HW220646   6.033   1.287   2.984
 6583SOL     OW20647   3.616   4.634   0.518
 6583SOL    HW120648   3.650   4.631   0.424
 6583SOL    HW220649   3.646   4.552   0.567
 6584SOL     OW20650   4.350   2.141   6.746
 6584SOL    HW120651   4.339   2.241   6.745
 6584SOL    HW220652   4.260   2.098   6.751
 6585SOL     OW20653   5.926   0.269   2.313
 6585SOL    HW120654   6.008   0.258   2.368
 6585SOL    HW220655   5.951   0.285   2.217
 6586SOL     OW20656   6.863   1.319   6.675
 6586SOL    HW120657   6.950   1.304   6.629
 6586SOL    HW220658   6.856   1.416   6.702
 6587SOL     OW20659   2.298   4.689   5.028
 6587SOL    HW120660   2.395   4.670   5.012
 6587SOL    HW220661   2.243   4.633   4.966
 6588SOL     OW20662   0.485   2.131   0.393
 6588SOL    HW120663   0.411   2.076   0.431
 6588SOL    HW220664   0.571   2.081   0.398
 6589SOL     OW20665   0.109   6.660   2.418
 6589SOL    HW120666   0.143   6.581   2.469
 6589SOL    HW220667   0.032   6.631   2.361
 6590SOL     OW20668   0.892   6.219   4.130
 6590SOL    HW120669   0.966   6.205   4.064
 6590SOL    HW220670   0.928   6.264   4.211
 6591SOL     OW20671   6.231   4.090   3.744
 6591SOL    HW120672   6.259   3.995   3.729
 6591SOL    HW220673   6.202   4.130   3.657
 6592SOL     OW20674   6.261   6.621   3.932
 6592SOL    HW120675   6.164   6.640   3.944
 6592SOL    HW220676   6.286   6.539   3.983
 6593SOL     OW20677   1.368   0.961   2.052
 6593SOL    HW120678   1.441   1.017   2.013
 6593SOL    HW220679   1.325   1.011   2.128
 6594SOL     OW20680   4.994   6.883   6.839
 6594SOL    HW120681   5.059   6.807   6.829
 6594SOL    HW220682   4.901   6.847   6.840
 6595SOL     OW20683   0.919   1.867   5.235
 6595SOL    HW120684   1.017   1.856   5.255
 6595SOL    HW220685   0.883   1.944   5.287
 6596SOL     OW20686   5.189   0.821   2.437
 6596SOL    HW120687   5.223   0.791   2.348
 6596SOL    HW220688   5.090   0.829   2.435
 6597SOL     OW20689   0.570   4.390   1.179
 6597SOL    HW120690   0.575   4.354   1.273
 6597SOL    HW220691   0.494   4.346   1.131
 6598SOL     OW20692   2.031   4.862   3.853
 6598SOL    HW120693   2.064   4.768   3.856
 6598SOL    HW220694   1.934   4.864   3.875
 6599SOL     OW20695   0.030   5.562   6.155
 6599SOL    HW120696   0.119   5.563   6.110
 6599SOL    HW220697   0.036   5.511   6.240
 6600SOL     OW20698   4.538   0.082   5.667
 6600SOL    HW120699   4.582   0.077   5.578
 6600SOL    HW220700   4.603   0.114   5.736
 6601SOL     OW20701   1.516   2.220   1.819
 6601SOL    HW120702   1.421   2.216   1.853
 6601SOL    HW220703   1.561   2.133   1.836
 6602SOL     OW20704   0.484   5.597   1.737
 6602SOL    HW120705   0.418   5.524   1.724
 6602SOL    HW220706   0.494   5.649   1.652
 6603SOL     OW20707   0.049   3.903   2.583
 6603SOL    HW120708   6.981   3.856   2.569
 6603SOL    HW220709   0.121   3.853   2.535
 6604SOL     OW20710   1.699   5.689   3.008
 6604SOL    HW120711   1.651   5.620   3.061
 6604SOL    HW220712   1.783   5.650   2.970
 6605SOL     OW20713   0.076   5.961   1.205
 6605SOL    HW120714   0.156   5.915   1.243
 6605SOL    HW220715   0.032   6.017   1.276
 6606SOL     OW20716   1.686   3.162   3.099
 6606SOL    HW120717   1.708   3.096   3.027
 6606SOL    HW220718   1.737   3.138   3.182
 6607SOL     OW20719   6.049   3.133   3.708
 6607SOL    HW120720   5.959   3.149   3.749
 6607SOL    HW220721   6.057   3.184   3.623
 6608SOL     OW20722   1.368   6.626   5.937
 6608SOL    HW120723   1.292   6.573   5.899
 6608SOL    HW220724   1.448   6.568   5.948
 6609SOL     OW20725   4.169   1.684   6.863
 6609SOL    HW120726   4.134   1.629   6.787
 6609SOL    HW220727   4.258   1.648   6.890
 6610SOL     OW20728   2.707   5.576   1.026
 6610SOL    HW120729   2.748   5.530   1.104
 6610SOL    HW220730   2.648   5.651   1.058
 6611SOL     OW20731   3.164   1.835   4.888
 6611SOL    HW120732   3.085   1.784   4.921
 6611SOL    HW220733   3.168   1.830   4.788
 6612SOL     OW20734   0.258   0.315   6.632
 6612SOL    HW120735   0.183   0.361   6.679
 6612SOL    HW220736   0.246   0.325   6.533
 6613SOL     OW20737   4.225   0.195   0.711
 6613SOL    HW120738   4.141   0.143   0.727
 6613SOL    HW220739   4.221   0.238   0.621
 6614SOL     OW20740   4.367   5.211   0.570
 6614SOL    HW120741   4.268   5.227   0.579
 6614SOL    HW220742   4.389   5.119   0.601
 6615SOL     OW20743   4.013   5.565   5.810
 6615SOL    HW120744   4.038   5.609   5.724
 6615SOL    HW220745   4.002   5.466   5.795
 6616SOL     OW20746   3.881   1.580   6.937
 6616SOL    HW120747   3.816   1.656   6.949
 6616SOL    HW220748   3.899   1.567   6.840
 6617SOL     OW20749   3.870   0.819   4.120
 6617SOL    HW120750   3.792   0.772   4.160
 6617SOL    HW220751   3.843   0.865   4.036
 6618SOL     OW20752   6.116   2.426   4.142
 6618SOL    HW120753   6.138   2.361   4.068
 6618SOL    HW220754   6.031   2.474   4.121
 6619SOL     OW20755   4.768   5.414   3.891
 6619SOL    HW120756   4.821   5.449   3.814
 6619SOL    HW220757   4.674   5.448   3.884
 6620SOL     OW20758   1.178   2.801   3.355
 6620SOL    HW120759   1.196   2.737   3.431
 6620SOL    HW220760   1.231   2.773   3.275
 6621SOL     OW20761   3.312   3.661   4.500
 6621SOL    HW120762   3.248   3.590   4.472
 6621SOL    HW220763   3.342   3.713   4.420
 6622SOL     OW20764   0.466   5.278   0.944
 6622SOL    HW120765   0.402   5.352   0.962
 6622SOL    HW220766   0.557   5.316   0.926
 6623SOL     OW20767   2.961   3.892   4.739
 6623SOL    HW120768   2.887   3.957   4.726
 6623SOL    HW220769   2.923   3.803   4.765
 6624SOL     OW20770   2.595   2.163   2.794
 6624SOL    HW120771   2.663   2.204   2.855
 6624SOL    HW220772   2.633   2.080   2.753
 6625SOL     OW20773   6.189   3.942   5.636
 6625SOL    HW120774   6.156   3.864   5.689
 6625SOL    HW220775   6.288   3.953   5.649
 6626SOL     OW20776   3.029   5.852   5.321
 6626SOL    HW120777   2.932   5.875   5.312
 6626SOL    HW220778   3.039   5.758   5.355
 6627SOL     OW20779   1.976   6.164   4.363
 6627SOL    HW120780   1.990   6.072   4.326
 6627SOL    HW220781   1.900   6.208   4.315
 6628SOL     OW20782   3.509   5.985   3.861
 6628SOL    HW120783   3.469   5.930   3.787
 6628SOL    HW220784   3.556   5.924   3.925
 6629SOL     OW20785   5.191   5.794   6.199
 6629SOL    HW120786   5.114   5.828   6.144
 6629SOL    HW220787   5.208   5.857   6.274
 6630SOL     OW20788   1.583   0.980   0.160
 6630SOL    HW120789   1.502   1.005   0.108
 6630SOL    HW220790   1.655   1.048   0.145
 6631SOL     OW20791   2.081   3.410   6.104
 6631SOL    HW120792   2.162   3.465   6.122
 6631SOL    HW220793   2.000   3.459   6.135
 6632SOL     OW20794   1.485   0.054   0.371
 6632SOL    HW120795   1.529   0.144   0.376
 6632SOL    HW220796   1.537   7.015   0.308
 6633SOL     OW20797   3.824   5.401   6.417
 6633SOL    HW120798   3.771   5.454   6.351
 6633SOL    HW220799   3.920   5.398   6.388
 6634SOL     OW20800   3.836   2.149   3.943
 6634SOL    HW120801   3.740   2.177   3.956
 6634SOL    HW220802   3.839   2.055   3.908
 6635SOL     OW20803   4.923   5.078   4.873
 6635SOL    HW120804   4.924   5.119   4.781
 6635SOL    HW220805   4.901   5.149   4.940
 6636SOL     OW20806   4.636   0.792   0.235
 6636SOL    HW120807   4.553   0.744   0.262
 6636SOL    HW220808   4.686   0.820   0.317
 6637SOL     OW20809   0.316   1.949   0.537
 6637SOL    HW120810   0.223   1.969   0.568
 6637SOL    HW220811   0.376   1.936   0.616
 6638SOL     OW20812   3.151   4.038   4.066
 6638SOL    HW120813   3.107   3.999   3.985
 6638SOL    HW220814   3.103   4.009   4.148
 6639SOL     OW20815   4.931   2.921   0.720
 6639SOL    HW120816   5.026   2.890   0.711
 6639SOL    HW220817   4.915   2.998   0.658
 6640SOL     OW20818   1.428   4.328   4.999
 6640SOL    HW120819   1.360   4.296   4.933
 6640SOL    HW220820   1.511   4.273   4.991
 6641SOL     OW20821   5.706   2.162   1.078
 6641SOL    HW120822   5.737   2.090   1.140
 6641SOL    HW220823   5.773   2.174   1.004
 6642SOL     OW20824   1.884   5.963   0.161
 6642SOL    HW120825   1.898   6.003   0.252
 6642SOL    HW220826   1.887   6.036   0.093
 6643SOL     OW20827   3.401   5.955   6.123
 6643SOL    HW120828   3.439   5.959   6.030
 6643SOL    HW220829   3.452   5.888   6.177
 6644SOL     OW20830   1.875   6.402   3.945
 6644SOL    HW120831   1.946   6.332   3.954
 6644SOL    HW220832   1.893   6.459   3.865
 6645SOL     OW20833   5.864   3.103   6.694
 6645SOL    HW120834   5.879   3.198   6.721
 6645SOL    HW220835   5.827   3.100   6.601
 6646SOL     OW20836   4.202   6.689   5.683
 6646SOL    HW120837   4.297   6.674   5.711
 6646SOL    HW220838   4.151   6.732   5.758
 6647SOL     OW20839   4.352   5.162   1.084
 6647SOL    HW120840   4.417   5.180   1.010
 6647SOL    HW220841   4.281   5.100   1.052
 6648SOL     OW20842   3.182   6.301   5.221
 6648SOL    HW120843   3.241   6.312   5.300
 6648SOL    HW220844   3.231   6.252   5.149
 6649SOL     OW20845   4.901   2.664   6.508
 6649SOL    HW120846   4.913   2.676   6.409
 6649SOL    HW220847   4.952   2.585   6.539
 6650SOL     OW20848   1.711   1.397   4.907
 6650SOL    HW120849   1.646   1.446   4.966
 6650SOL    HW220850   1.688   1.413   4.811
 6651SOL     OW20851   6.726   2.020   5.890
 6651SOL    HW120852   6.651   2.083   5.872
 6651SOL    HW220853   6.755   2.030   5.985
 6652SOL     OW20854   6.673   4.418   0.138
 6652SOL    HW120855   6.667   4.473   0.055
 6652SOL    HW220856   6.671   4.321   0.114
 6653SOL     OW20857   5.588   4.639   0.159
 6653SOL    HW120858   5.560   4.610   0.251
 6653SOL    HW220859   5.651   4.571   0.121
 6654SOL     OW20860   6.240   3.836   3.624
 6654SOL    HW120861   6.188   3.821   3.540
 6654SOL    HW220862   6.260   3.747   3.666
 6655SOL     OW20863   0.144   5.612   1.923
 6655SOL    HW120864   0.231   5.602   1.972
 6655SOL    HW220865   0.138   5.704   1.885
 6656SOL     OW20866   4.252   1.565   3.705
 6656SOL    HW120867   4.342   1.542   3.670
 6656SOL    HW220868   4.255   1.572   3.804
 6657SOL     OW20869   5.590   2.142   3.853
 6657SOL    HW120870   5.516   2.114   3.791
 6657SOL    HW220871   5.557   2.143   3.947
 6658SOL     OW20872   6.828   5.686   5.361
 6658SOL    HW120873   6.804   5.589   5.366
 6658SOL    HW220874   6.762   5.733   5.302
 6659SOL     OW20875   0.954   4.943   1.536
 6659SOL    HW120876   0.885   4.903   1.597
 6659SOL    HW220877   0.992   5.025   1.578
 6660SOL     OW20878   6.785   6.724   4.524
 6660SOL    HW120879   6.793   6.677   4.612
 6660SOL    HW220880   6.758   6.819   4.540
 6661SOL     OW20881   4.018   5.787   4.004
 6661SOL    HW120882   4.075   5.827   3.931
 6661SOL    HW220883   3.987   5.860   4.065
 6662SOL     OW20884   3.962   6.664   2.421
 6662SOL    HW120885   3.983   6.589   2.358
 6662SOL    HW220886   3.892   6.634   2.486
 6663SOL     OW20887   0.821   4.219   5.749
 6663SOL    HW120888   0.736   4.266   5.726
 6663SOL    HW220889   0.888   4.232   5.676
 6664SOL     OW20890   2.813   0.317   0.903
 6664SOL    HW120891   2.899   0.268   0.912
 6664SOL    HW220892   2.742   0.270   0.956
 6665SOL     OW20893   2.669   0.629   6.612
 6665SOL    HW120894   2.759   0.591   6.631
 6665SOL    HW220895   2.636   0.680   6.691
 6666SOL     OW20896   3.762   6.363   5.137
 6666SOL    HW120897   3.828   6.328   5.204
 6666SOL    HW220898   3.715   6.285   5.094
 6667SOL     OW20899   1.076   5.791   6.532
 6667SOL    HW120900   1.067   5.797   6.433
 6667SOL    HW220901   1.171   5.772   6.557
 6668SOL     OW20902   0.096   4.285   0.446
 6668SOL    HW120903   0.091   4.382   0.466
 6668SOL    HW220904   0.016   4.257   0.393
 6669SOL     OW20905   1.279   2.007   2.883
 6669SOL    HW120906   1.305   2.073   2.953
 6669SOL    HW220907   1.346   1.933   2.881
 6670SOL     OW20908   3.527   2.750   0.283
 6670SOL    HW120909   3.614   2.724   0.326
 6670SOL    HW220910   3.543   2.768   0.186
 6671SOL     OW20911   4.300   4.968   6.933
 6671SOL    HW120912   4.317   4.978   0.012
 6671SOL    HW220913   4.266   4.876   6.914
 6672SOL     OW20914   1.221   2.302   1.616
 6672SOL    HW120915   1.313   2.267   1.633
 6672SOL    HW220916   1.196   2.367   1.689
 6673SOL     OW20917   6.361   2.734   3.981
 6673SOL    HW120918   6.454   2.766   3.964
 6673SOL    HW220919   6.296   2.804   3.951
 6674SOL     OW20920   0.645   1.431   0.278
 6674SOL    HW120921   0.739   1.409   0.305
 6674SOL    HW220922   0.583   1.360   0.311
 6675SOL     OW20923   4.714   0.572   6.555
 6675SOL    HW120924   4.655   0.606   6.629
 6675SOL    HW220925   4.701   0.474   6.544
 6676SOL     OW20926   0.771   3.882   4.212
 6676SOL    HW120927   0.826   3.955   4.253
 6676SOL    HW220928   0.684   3.875   4.260
 6677SOL     OW20929   0.637   1.692   6.188
 6677SOL    HW120930   0.628   1.683   6.089
 6677SOL    HW220931   0.589   1.617   6.233
 6678SOL     OW20932   2.581   4.148   6.243
 6678SOL    HW120933   2.644   4.193   6.179
 6678SOL    HW220934   2.604   4.051   6.250
 6679SOL     OW20935   1.644   0.768   3.814
 6679SOL    HW120936   1.573   0.835   3.833
 6679SOL    HW220937   1.603   0.680   3.792
 6680SOL     OW20938   6.766   6.324   1.238
 6680SOL    HW120939   6.722   6.302   1.325
 6680SOL    HW220940   6.696   6.347   1.170
 6681SOL     OW20941   3.115   6.087   1.780
 6681SOL    HW120942   3.082   6.167   1.730
 6681SOL    HW220943   3.201   6.056   1.740
 6682SOL     OW20944   3.143   5.728   5.844
 6682SOL    HW120945   3.143   5.827   5.859
 6682SOL    HW220946   3.203   5.706   5.767
 6683SOL     OW20947   0.121   4.550   6.135
 6683SOL    HW120948   0.053   4.613   6.099
 6683SOL    HW220949   0.139   4.571   6.231
 6684SOL     OW20950   3.394   6.160   0.214
 6684SOL    HW120951   3.331   6.095   0.255
 6684SOL    HW220952   3.481   6.115   0.193
 6685SOL     OW20953   5.265   2.797   0.231
 6685SOL    HW120954   5.263   2.775   0.133
 6685SOL    HW220955   5.205   2.735   0.281
 6686SOL     OW20956   5.099   5.318   5.037
 6686SOL    HW120957   5.125   5.227   5.067
 6686SOL    HW220958   5.158   5.347   4.962
 6687SOL     OW20959   6.787   1.719   1.597
 6687SOL    HW120960   6.806   1.800   1.653
 6687SOL    HW220961   6.873   1.670   1.580
 6688SOL     OW20962   4.719   5.089   1.328
 6688SOL    HW120963   4.706   4.992   1.347
 6688SOL    HW220964   4.698   5.143   1.410
 6689SOL     OW20965   2.538   4.741   5.664
 6689SOL    HW120966   2.548   4.747   5.763
 6689SOL    HW220967   2.500   4.826   5.629
 6690SOL     OW20968   0.552   0.167   6.212
 6690SOL    HW120969   0.487   0.097   6.183
 6690SOL    HW220970   0.520   0.210   6.296
 6691SOL     OW20971   3.098   2.161   2.458
 6691SOL    HW120972   3.044   2.179   2.540
 6691SOL    HW220973   3.040   2.172   2.377
 6692SOL     OW20974   4.046   5.362   2.469
 6692SOL    HW120975   4.143   5.351   2.491
 6692SOL    HW220976   3.994   5.374   2.553
 6693SOL     OW20977   3.364   1.481   5.162
 6693SOL    HW120978   3.398   1.436   5.080
 6693SOL    HW220979   3.389   1.577   5.161
 6694SOL     OW20980   3.382   4.010   1.677
 6694SOL    HW120981   3.305   3.998   1.614
 6694SOL    HW220982   3.357   3.977   1.768
 6695SOL     OW20983   2.659   2.040   0.549
 6695SOL    HW120984   2.625   2.056   0.642
 6695SOL    HW220985   2.586   2.061   0.483
 6696SOL     OW20986   3.989   3.132   4.408
 6696SOL    HW120987   4.057   3.206   4.404
 6696SOL    HW220988   3.960   3.109   4.315
 6697SOL     OW20989   4.322   2.269   2.109
 6697SOL    HW120990   4.372   2.187   2.082
 6697SOL    HW220991   4.314   2.330   2.030
 6698SOL     OW20992   3.254   4.259   1.633
 6698SOL    HW120993   3.283   4.224   1.544
 6698SOL    HW220994   3.289   4.352   1.646
 6699SOL     OW20995   1.343   3.997   5.403
 6699SOL    HW120996   1.267   3.967   5.460
 6699SOL    HW220997   1.425   3.943   5.425
 6700SOL     OW20998   5.500   0.319   0.424
 6700SOL    HW120999   5.575   0.378   0.392
 6700SOL    HW221000   5.465   0.265   0.348
 6701SOL     OW21001   6.325   0.235   1.562
 6701SOL    HW121002   6.362   0.211   1.473
 6701SOL    HW221003   6.226   0.220   1.563
 6702SOL     OW21004   3.637   2.998   1.050
 6702SOL    HW121005   3.579   2.978   0.972
 6702SOL    HW221006   3.582   3.035   1.125
 6703SOL     OW21007   7.006   1.354   0.520
 6703SOL    HW121008   6.976   1.440   0.478
 6703SOL    HW221009   6.937   1.283   0.503
 6704SOL     OW21010   3.158   6.651   5.857
 6704SOL    HW121011   3.129   6.620   5.766
 6704SOL    HW221012   3.116   6.739   5.878
 6705SOL     OW21013   0.150   4.547   2.530
 6705SOL    HW121014   0.141   4.480   2.603
 6705SOL    HW221015   0.244   4.580   2.526
 6706SOL     OW21016   0.097   6.433   1.401
 6706SOL    HW121017   0.008   6.418   1.444
 6706SOL    HW221018   0.083   6.474   1.311
 6707SOL     OW21019   5.014   1.263   2.310
 6707SOL    HW121020   5.046   1.332   2.375
 6707SOL    HW221021   5.087   1.242   2.245
 6708SOL     OW21022   1.045   4.096   0.572
 6708SOL    HW121023   0.987   4.040   0.631
 6708SOL    HW221024   1.127   4.123   0.621
 6709SOL     OW21025   2.351   4.303   2.357
 6709SOL    HW121026   2.342   4.244   2.277
 6709SOL    HW221027   2.398   4.387   2.331
 6710SOL     OW21028   4.800   1.510   0.940
 6710SOL    HW121029   4.879   1.468   0.897
 6710SOL    HW221030   4.781   1.599   0.896
 6711SOL     OW21031   3.105   6.005   6.530
 6711SOL    HW121032   3.038   5.991   6.603
 6711SOL    HW221033   3.084   5.944   6.454
 6712SOL     OW21034   5.499   4.208   1.658
 6712SOL    HW121035   5.449   4.171   1.736
 6712SOL    HW221036   5.453   4.182   1.573
 6713SOL     OW21037   1.652   5.029   4.332
 6713SOL    HW121038   1.705   5.000   4.412
 6713SOL    HW221039   1.680   4.976   4.252
 6714SOL     OW21040   5.127   1.290   1.434
 6714SOL    HW121041   5.201   1.331   1.380
 6714SOL    HW221042   5.071   1.363   1.474
 6715SOL     OW21043   1.785   0.540   6.676
 6715SOL    HW121044   1.853   0.613   6.672
 6715SOL    HW221045   1.813   0.465   6.616
 6716SOL     OW21046   6.861   6.073   2.460
 6716SOL    HW121047   6.876   6.081   2.559
 6716SOL    HW221048   6.938   6.113   2.411
 6717SOL     OW21049   5.797   1.889   5.937
 6717SOL    HW121050   5.850   1.967   5.973
 6717SOL    HW221051   5.702   1.898   5.965
 6718SOL     OW21052   4.512   1.504   0.801
 6718SOL    HW121053   4.563   1.478   0.719
 6718SOL    HW221054   4.414   1.487   0.787
 6719SOL     OW21055   1.844   1.246   6.813
 6719SOL    HW121056   1.919   1.225   6.750
 6719SOL    HW221057   1.791   1.163   6.830
 6720SOL     OW21058   1.611   0.875   6.214
 6720SOL    HW121059   1.524   0.826   6.205
 6720SOL    HW221060   1.597   0.959   6.266
 6721SOL     OW21061   5.979   0.629   0.906
 6721SOL    HW121062   5.994   0.641   0.807
 6721SOL    HW221063   5.996   0.534   0.930
 6722SOL     OW21064   5.613   3.777   0.147
 6722SOL    HW121065   5.620   3.731   0.059
 6722SOL    HW221066   5.517   3.799   0.166
 6723SOL     OW21067   1.236   2.527   5.661
 6723SOL    HW121068   1.139   2.553   5.661
 6723SOL    HW221069   1.287   2.591   5.719
 6724SOL     OW21070   2.156   3.555   4.243
 6724SOL    HW121071   2.174   3.652   4.256
 6724SOL    HW221072   2.128   3.539   4.149
 6725SOL     OW21073   5.242   2.652   3.147
 6725SOL    HW121074   5.187   2.700   3.215
 6725SOL    HW221075   5.235   2.699   3.059
 6726SOL     OW21076   0.512   0.352   5.502
 6726SOL    HW121077   0.491   0.255   5.495
 6726SOL    HW221078   0.606   0.364   5.534
 6727SOL     OW21079   1.471   5.109   5.659
 6727SOL    HW121080   1.531   5.178   5.699
 6727SOL    HW221081   1.488   5.020   5.702
 6728SOL     OW21082   3.689   1.555   2.839
 6728SOL    HW121083   3.631   1.481   2.805
 6728SOL    HW221084   3.657   1.642   2.803
 6729SOL     OW21085   4.170   1.268   2.289
 6729SOL    HW121086   4.219   1.242   2.206
 6729SOL    HW221087   4.231   1.259   2.368
 6730SOL     OW21088   0.099   1.396   0.889
 6730SOL    HW121089   0.170   1.379   0.956
 6730SOL    HW221090   0.131   1.464   0.823
 6731SOL     OW21091   3.572   0.015   6.286
 6731SOL    HW121092   3.667   0.028   6.259
 6731SOL    HW221093   3.568   6.997   6.379
 6732SOL     OW21094   6.583   5.203   5.394
 6732SOL    HW121095   6.558   5.191   5.490
 6732SOL    HW221096   6.500   5.221   5.340
 6733SOL     OW21097   4.898   4.450   6.010
 6733SOL    HW121098   4.809   4.404   6.006
 6733SOL    HW221099   4.903   4.517   5.937
 6734SOL     OW21100   6.260   1.909   4.134
 6734SOL    HW121101   6.286   1.864   4.219
 6734SOL    HW221102   6.320   1.988   4.118
 6735SOL     OW21103   6.375   2.445   3.172
 6735SOL    HW121104   6.277   2.456   3.161
 6735SOL    HW221105   6.418   2.435   3.082
 6736SOL     OW21106   3.420   3.601   0.599
 6736SOL    HW121107   3.483   3.670   0.635
 6736SOL    HW221108   3.471   3.534   0.545
 6737SOL     OW21109   6.822   3.650   0.131
 6737SOL    HW121110   6.820   3.735   0.184
 6737SOL    HW221111   6.771   3.662   0.046
 6738SOL     OW21112   1.049   6.245   3.668
 6738SOL    HW121113   1.148   6.252   3.671
 6738SOL    HW221114   1.017   6.183   3.739
 6739SOL     OW21115   6.817   0.124   5.005
 6739SOL    HW121116   6.876   0.067   4.948
 6739SOL    HW221117   6.826   0.220   4.977
 6740SOL     OW21118   0.365   6.781   3.101
 6740SOL    HW121119   0.433   6.717   3.136
 6740SOL    HW221120   0.399   6.824   3.017
 6741SOL     OW21121   3.922   1.859   6.864
 6741SOL    HW121122   3.909   1.787   6.795
 6741SOL    HW221123   4.011   1.847   6.908
 6742SOL     OW21124   5.593   4.601   3.797
 6742SOL    HW121125   5.580   4.674   3.730
 6742SOL    HW221126   5.514   4.597   3.858
 6743SOL     OW21127   4.069   3.850   0.692
 6743SOL    HW121128   4.087   3.874   0.787
 6743SOL    HW221129   4.156   3.840   0.643
 6744SOL     OW21130   6.227   6.710   6.047
 6744SOL    HW121131   6.191   6.637   6.106
 6744SOL    HW221132   6.151   6.755   6.000
 6745SOL     OW21133   0.332   4.528   5.445
 6745SOL    HW121134   0.243   4.539   5.401
 6745SOL    HW221135   0.397   4.491   5.380
 6746SOL     OW21136   0.711   1.864   2.452
 6746SOL    HW121137   0.709   1.937   2.521
 6746SOL    HW221138   0.764   1.787   2.486
 6747SOL     OW21139   1.720   6.278   5.659
 6747SOL    HW121140   1.724   6.249   5.754
 6747SOL    HW221141   1.811   6.302   5.627
 6748SOL     OW21142   2.248   1.105   4.476
 6748SOL    HW121143   2.210   1.157   4.551
 6748SOL    HW221144   2.179   1.093   4.405
 6749SOL     OW21145   3.918   5.081   1.972
 6749SOL    HW121146   3.893   5.086   1.876
 6749SOL    HW221147   3.858   5.140   2.026
 6750SOL     OW21148   3.850   1.366   5.394
 6750SOL    HW121149   3.813   1.279   5.426
 6750SOL    HW221150   3.775   1.425   5.364
 6751SOL     OW21151   4.718   6.960   4.009
 6751SOL    HW121152   4.710   0.032   3.969
 6751SOL    HW221153   4.803   6.917   3.977
 6752SOL     OW21154   2.025   4.713   2.111
 6752SOL    HW121155   2.006   4.615   2.116
 6752SOL    HW221156   2.056   4.737   2.019
 6753SOL     OW21157   3.730   3.353   5.738
 6753SOL    HW121158   3.825   3.380   5.749
 6753SOL    HW221159   3.671   3.422   5.779
 6754SOL     OW21160   6.310   1.484   0.821
 6754SOL    HW121161   6.408   1.466   0.829
 6754SOL    HW221162   6.289   1.575   0.858
 6755SOL     OW21163   2.702   5.708   6.408
 6755SOL    HW121164   2.614   5.664   6.424
 6755SOL    HW221165   2.735   5.685   6.317
 6756SOL     OW21166   2.812   1.966   5.722
 6756SOL    HW121167   2.894   1.949   5.668
 6756SOL    HW221168   2.736   1.988   5.662
 6757SOL     OW21169   3.981   6.893   0.685
 6757SOL    HW121170   3.952   6.964   0.749
 6757SOL    HW221171   4.047   6.931   0.620
 6758SOL     OW21172   5.308   1.938   3.177
 6758SOL    HW121173   5.315   2.034   3.204
 6758SOL    HW221174   5.281   1.883   3.257
 6759SOL     OW21175   0.248   2.357   2.765
 6759SOL    HW121176   0.246   2.381   2.668
 6759SOL    HW221177   0.294   2.269   2.776
 6760SOL     OW21178   5.057   2.701   4.306
 6760SOL    HW121179   5.047   2.650   4.392
 6760SOL    HW221180   4.994   2.664   4.238
 6761SOL     OW21181   4.232   1.636   4.751
 6761SOL    HW121182   4.247   1.650   4.654
 6761SOL    HW221183   4.299   1.571   4.787
 6762SOL     OW21184   6.508   5.687   3.946
 6762SOL    HW121185   6.523   5.686   3.847
 6762SOL    HW221186   6.432   5.749   3.967
 6763SOL     OW21187   5.345   5.576   5.200
 6763SOL    HW121188   5.299   5.598   5.114
 6763SOL    HW221189   5.338   5.477   5.216
 6764SOL     OW21190   1.416   5.227   0.581
 6764SOL    HW121191   1.443   5.252   0.674
 6764SOL    HW221192   1.494   5.186   0.533
 6765SOL     OW21193   0.214   4.922   2.878
 6765SOL    HW121194   0.200   5.014   2.842
 6765SOL    HW221195   0.303   4.917   2.923
 6766SOL     OW21196   5.943   0.867   1.298
 6766SOL    HW121197   5.962   0.905   1.388
 6766SOL    HW221198   6.029   0.848   1.251
 6767SOL     OW21199   3.178   0.751   0.669
 6767SOL    HW121200   3.191   0.790   0.578
 6767SOL    HW221201   3.092   0.701   0.671
 6768SOL     OW21202   2.155   0.850   0.791
 6768SOL    HW121203   2.163   0.839   0.692
 6768SOL    HW221204   2.076   0.797   0.824
 6769SOL     OW21205   4.162   3.045   1.646
 6769SOL    HW121206   4.260   3.030   1.634
 6769SOL    HW221207   4.144   3.141   1.667
 6770SOL     OW21208   0.463   0.302   1.545
 6770SOL    HW121209   0.429   0.263   1.631
 6770SOL    HW221210   0.513   0.386   1.564
 6771SOL     OW21211   4.184   2.257   3.187
 6771SOL    HW121212   4.167   2.217   3.277
 6771SOL    HW221213   4.102   2.246   3.130
 6772SOL     OW21214   3.423   1.612   3.172
 6772SOL    HW121215   3.345   1.551   3.184
 6772SOL    HW221216   3.432   1.637   3.076
 6773SOL     OW21217   0.387   4.099   1.887
 6773SOL    HW121218   0.388   4.134   1.794
 6773SOL    HW221219   0.479   4.068   1.912
 6774SOL     OW21220   0.514   1.661   6.604
 6774SOL    HW121221   0.504   1.631   6.699
 6774SOL    HW221222   0.431   1.641   6.553
 6775SOL     OW21223   2.585   4.863   0.143
 6775SOL    HW121224   2.642   4.783   0.126
 6775SOL    HW221225   2.490   4.841   0.124
 6776SOL     OW21226   5.943   5.819   0.005
 6776SOL    HW121227   5.994   5.776   0.080
 6776SOL    HW221228   5.863   5.762   7.002
 6777SOL     OW21229   4.950   4.905   6.616
 6777SOL    HW121230   4.933   4.982   6.555
 6777SOL    HW221231   4.934   4.819   6.567
 6778SOL     OW21232   0.486   6.078   2.789
 6778SOL    HW121233   0.542   6.021   2.848
 6778SOL    HW221234   0.502   6.175   2.810
 6779SOL     OW21235   0.551   4.175   0.336
 6779SOL    HW121236   0.588   4.098   0.387
 6779SOL    HW221237   0.597   4.259   0.365
 6780SOL     OW21238   0.417   2.895   1.978
 6780SOL    HW121239   0.346   2.930   2.039
 6780SOL    HW221240   0.432   2.961   1.904
 6781SOL     OW21241   5.909   5.031   5.955
 6781SOL    HW121242   5.811   5.017   5.971
 6781SOL    HW221243   5.940   4.966   5.885
 6782SOL     OW21244   6.364   1.452   3.119
 6782SOL    HW121245   6.281   1.466   3.065
 6782SOL    HW221246   6.437   1.416   3.061
 6783SOL     OW21247   0.446   6.234   6.581
 6783SOL    HW121248   0.537   6.207   6.548
 6783SOL    HW221249   0.428   6.191   6.669
 6784SOL     OW21250   3.275   2.897   0.241
 6784SOL    HW121251   3.358   2.843   0.257
 6784SOL    HW221252   3.251   2.946   0.325
 6785SOL     OW21253   5.828   6.276   2.456
 6785SOL    HW121254   5.775   6.280   2.371
 6785SOL    HW221255   5.809   6.357   2.511
 6786SOL     OW21256   2.261   3.093   6.058
 6786SOL    HW121257   2.215   3.180   6.077
 6786SOL    HW221258   2.332   3.108   5.989
 6787SOL     OW21259   1.207   3.804   2.204
 6787SOL    HW121260   1.250   3.714   2.202
 6787SOL    HW221261   1.114   3.796   2.240
 6788SOL     OW21262   2.750   3.649   0.798
 6788SOL    HW121263   2.839   3.694   0.803
 6788SOL    HW221264   2.733   3.600   0.884
 6789SOL     OW21265   0.426   6.565   2.594
 6789SOL    HW121266   0.404   6.638   2.530
 6789SOL    HW221267   0.460   6.605   2.680
 6790SOL     OW21268   1.753   2.971   0.089
 6790SOL    HW121269   1.780   2.933   0.177
 6790SOL    HW221270   1.720   2.898   0.029
 6791SOL     OW21271   4.568   3.539   6.211
 6791SOL    HW121272   4.629   3.525   6.290
 6791SOL    HW221273   4.600   3.484   6.135
 6792SOL     OW21274   0.028   5.673   0.932
 6792SOL    HW121275   0.024   5.582   0.891
 6792SOL    HW221276   6.977   5.682   1.002
 6793SOL     OW21277   6.614   2.177   1.675
 6793SOL    HW121278   6.528   2.200   1.631
 6793SOL    HW221279   6.683   2.245   1.652
 6794SOL     OW21280   4.677   1.173   5.495
 6794SOL    HW121281   4.613   1.229   5.547
 6794SOL    HW221282   4.706   1.223   5.413
 6795SOL     OW21283   3.347   5.795   6.764
 6795SOL    HW121284   3.389   5.782   6.675
 6795SOL    HW221285   3.408   5.848   6.823
 6796SOL     OW21286   4.656   2.007   2.975
 6796SOL    HW121287   4.714   1.926   2.969
 6796SOL    HW221288   4.560   1.980   2.975
 6797SOL     OW21289   6.265   3.434   2.524
 6797SOL    HW121290   6.179   3.481   2.505
 6797SOL    HW221291   6.338   3.473   2.469
 6798SOL     OW21292   6.105   6.277   2.436
 6798SOL    HW121293   6.103   6.354   2.499
 6798SOL    HW221294   6.013   6.239   2.426
 6799SOL     OW21295   5.294   6.147   0.770
 6799SOL    HW121296   5.240   6.217   0.818
 6799SOL    HW221297   5.299   6.170   0.673
 6800SOL     OW21298   2.523   4.697   6.885
 6800SOL    HW121299   2.471   4.750   6.819
 6800SOL    HW221300   2.461   4.659   6.954
 6801SOL     OW21301   1.675   1.984   2.409
 6801SOL    HW121302   1.600   1.918   2.418
 6801SOL    HW221303   1.637   2.075   2.394
 6802SOL     OW21304   2.372   5.868   2.247
 6802SOL    HW121305   2.385   5.928   2.168
 6802SOL    HW221306   2.429   5.899   2.323
 6803SOL     OW21307   5.410   2.077   0.143
 6803SOL    HW121308   5.405   1.982   0.174
 6803SOL    HW221309   5.455   2.132   0.213
 6804SOL     OW21310   1.609   6.409   3.599
 6804SOL    HW121311   1.636   6.314   3.619
 6804SOL    HW221312   1.683   6.454   3.548
 6805SOL     OW21313   5.763   0.332   4.587
 6805SOL    HW121314   5.860   0.355   4.587
 6805SOL    HW221315   5.751   0.233   4.582
 6806SOL     OW21316   4.522   0.976   5.696
 6806SOL    HW121317   4.551   0.881   5.697
 6806SOL    HW221318   4.480   0.998   5.608
 6807SOL     OW21319   2.873   3.099   0.828
 6807SOL    HW121320   2.869   3.142   0.918
 6807SOL    HW221321   2.880   3.170   0.758
 6808SOL     OW21322   1.302   3.131   5.256
 6808SOL    HW121323   1.317   3.162   5.350
 6808SOL    HW221324   1.289   3.211   5.197
 6809SOL     OW21325   2.080   3.379   6.555
 6809SOL    HW121326   2.118   3.291   6.524
 6809SOL    HW221327   2.113   3.399   6.647
 6810SOL     OW21328   6.122   1.557   2.440
 6810SOL    HW121329   6.077   1.626   2.382
 6810SOL    HW221330   6.167   1.603   2.516
 6811SOL     OW21331   5.647   5.328   1.935
 6811SOL    HW121332   5.733   5.287   1.965
 6811SOL    HW221333   5.658   5.364   1.843
 6812SOL     OW21334   3.534   3.532   3.187
 6812SOL    HW121335   3.568   3.449   3.143
 6812SOL    HW221336   3.456   3.508   3.246
 6813SOL     OW21337   4.225   3.553   0.822
 6813SOL    HW121338   4.138   3.506   0.838
 6813SOL    HW221339   4.268   3.515   0.740
 6814SOL     OW21340   1.850   3.531   0.683
 6814SOL    HW121341   1.946   3.502   0.678
 6814SOL    HW221342   1.820   3.560   0.592
 6815SOL     OW21343   1.968   0.451   1.997
 6815SOL    HW121344   1.923   0.523   2.050
 6815SOL    HW221345   2.066   0.468   1.994
 6816SOL     OW21346   6.468   4.496   1.185
 6816SOL    HW121347   6.380   4.450   1.200
 6816SOL    HW221348   6.496   4.483   1.090
 6817SOL     OW21349   0.148   1.439   6.027
 6817SOL    HW121350   0.194   1.469   6.111
 6817SOL    HW221351   0.179   1.347   6.002
 6818SOL     OW21352   3.622   6.285   2.753
 6818SOL    HW121353   3.630   6.347   2.831
 6818SOL    HW221354   3.712   6.267   2.715
 6819SOL     OW21355   3.083   1.447   3.918
 6819SOL    HW121356   3.053   1.496   3.836
 6819SOL    HW221357   3.085   1.349   3.898
 6820SOL     OW21358   0.831   4.551   3.449
 6820SOL    HW121359   0.809   4.646   3.473
 6820SOL    HW221360   0.754   4.512   3.398
 6821SOL     OW21361   2.764   2.019   4.344
 6821SOL    HW121362   2.692   2.080   4.376
 6821SOL    HW221363   2.813   2.062   4.268
 6822SOL     OW21364   5.432   2.072   5.804
 6822SOL    HW121365   5.431   2.072   5.704
 6822SOL    HW221366   5.444   2.165   5.837
 6823SOL     OW21367   3.273   3.586   3.038
 6823SOL    HW121368   3.176   3.600   3.058
 6823SOL    HW221369   3.285   3.574   2.939
 6824SOL     OW21370   1.184   3.828   6.637
 6824SOL    HW121371   1.256   3.797   6.574
 6824SOL    HW221372   1.101   3.774   6.621
 6825SOL     OW21373   5.019   0.446   2.844
 6825SOL    HW121374   5.036   0.532   2.797
 6825SOL    HW221375   4.972   0.382   2.782
 6826SOL     OW21376   1.657   2.954   2.831
 6826SOL    HW121377   1.617   2.997   2.750
 6826SOL    HW221378   1.613   2.865   2.846
 6827SOL     OW21379   5.623   5.551   5.136
 6827SOL    HW121380   5.524   5.555   5.148
 6827SOL    HW221381   5.665   5.628   5.185
 6828SOL     OW21382   1.674   2.746   1.203
 6828SOL    HW121383   1.660   2.803   1.122
 6828SOL    HW221384   1.724   2.663   1.178
 6829SOL     OW21385   4.675   5.718   3.930
 6829SOL    HW121386   4.640   5.700   4.022
 6829SOL    HW221387   4.767   5.756   3.936
 6830SOL     OW21388   5.677   2.327   4.173
 6830SOL    HW121389   5.619   2.390   4.225
 6830SOL    HW221390   5.619   2.262   4.123
 6831SOL     OW21391   0.359   0.934   5.964
 6831SOL    HW121392   0.449   0.978   5.955
 6831SOL    HW221393   0.370   0.847   6.013
 6832SOL     OW21394   2.857   5.170   2.226
 6832SOL    HW121395   2.878   5.098   2.159
 6832SOL    HW221396   2.816   5.248   2.179
 6833SOL     OW21397   3.957   4.938   0.228
 6833SOL    HW121398   3.873   4.991   0.219
 6833SOL    HW221399   3.935   4.840   0.231
 6834SOL     OW21400   3.668   5.422   2.358
 6834SOL    HW121401   3.726   5.496   2.323
 6834SOL    HW221402   3.619   5.454   2.439
 6835SOL     OW21403   3.897   6.944   4.721
 6835SOL    HW121404   3.848   7.016   4.672
 6835SOL    HW221405   3.841   6.909   4.796
 6836SOL     OW21406   3.650   6.454   0.036
 6836SOL    HW121407   3.703   6.405   0.106
 6836SOL    HW221408   3.645   6.397   6.973
 6837SOL     OW21409   1.655   3.157   2.096
 6837SOL    HW121410   1.693   3.126   2.183
 6837SOL    HW221411   1.729   3.180   2.033
 6838SOL     OW21412   2.261   1.427   6.619
 6838SOL    HW121413   2.318   1.390   6.546
 6838SOL    HW221414   2.317   1.483   6.680
 6839SOL     OW21415   4.459   1.161   1.120
 6839SOL    HW121416   4.539   1.216   1.097
 6839SOL    HW221417   4.376   1.206   1.086
 6840SOL     OW21418   0.964   1.812   6.429
 6840SOL    HW121419   1.062   1.799   6.441
 6840SOL    HW221420   0.922   1.834   6.517
 6841SOL     OW21421   6.610   3.821   6.332
 6841SOL    HW121422   6.531   3.859   6.378
 6841SOL    HW221423   6.676   3.787   6.399
 6842SOL     OW21424   2.073   4.467   2.998
 6842SOL    HW121425   2.146   4.405   2.970
 6842SOL    HW221426   2.041   4.441   3.090
 6843SOL     OW21427   4.615   6.363   6.962
 6843SOL    HW121428   4.653   6.437   7.019
 6843SOL    HW221429   4.679   6.343   6.888
 6844SOL     OW21430   5.359   0.738   5.703
 6844SOL    HW121431   5.308   0.766   5.784
 6844SOL    HW221432   5.449   0.782   5.703
 6845SOL     OW21433   5.093   1.655   2.320
 6845SOL    HW121434   5.049   1.609   2.397
 6845SOL    HW221435   5.033   1.654   2.241
 6846SOL     OW21436   2.380   3.890   0.298
 6846SOL    HW121437   2.289   3.869   0.333
 6846SOL    HW221438   2.440   3.810   0.308
 6847SOL     OW21439   6.529   3.349   4.070
 6847SOL    HW121440   6.524   3.401   3.984
 6847SOL    HW221441   6.462   3.387   4.135
 6848SOL     OW21442   6.024   4.509   3.499
 6848SOL    HW121443   5.966   4.428   3.509
 6848SOL    HW221444   6.049   4.522   3.403
 6849SOL     OW21445   3.277   4.029   6.741
 6849SOL    HW121446   3.223   3.950   6.711
 6849SOL    HW221447   3.331   4.004   6.821
 6850SOL     OW21448   4.013   1.866   4.051
 6850SOL    HW121449   3.978   1.875   3.957
 6850SOL    HW221450   4.083   1.936   4.067
 6851SOL     OW21451   1.961   3.145   3.780
 6851SOL    HW121452   2.025   3.190   3.843
 6851SOL    HW221453   1.896   3.090   3.832
 6852SOL     OW21454   2.768   4.923   0.344
 6852SOL    HW121455   2.699   4.931   0.272
 6852SOL    HW221456   2.755   4.996   0.410
 6853SOL     OW21457   4.787   3.352   6.821
 6853SOL    HW121458   4.766   3.354   6.723
 6853SOL    HW221459   4.822   3.441   6.849
 6854SOL     OW21460   5.615   5.810   6.387
 6854SOL    HW121461   5.695   5.756   6.413
 6854SOL    HW221462   5.537   5.784   6.443
 6855SOL     OW21463   4.142   5.279   3.570
 6855SOL    HW121464   4.043   5.292   3.565
 6855SOL    HW221465   4.189   5.363   3.543
 6856SOL     OW21466   0.787   1.572   6.892
 6856SOL    HW121467   0.835   1.581   6.805
 6856SOL    HW221468   0.688   1.576   6.876
 6857SOL     OW21469   0.839   3.950   4.970
 6857SOL    HW121470   0.840   3.858   4.931
 6857SOL    HW221471   0.870   4.016   4.901
 6858SOL     OW21472   2.424   3.746   1.711
 6858SOL    HW121473   2.417   3.666   1.770
 6858SOL    HW221474   2.519   3.776   1.706
 6859SOL     OW21475   1.035   1.321   2.260
 6859SOL    HW121476   0.978   1.357   2.333
 6859SOL    HW221477   1.087   1.395   2.218
 6860SOL     OW21478   0.887   6.408   1.848
 6860SOL    HW121479   0.928   6.427   1.937
 6860SOL    HW221480   0.845   6.492   1.813
 6861SOL     OW21481   5.822   2.872   5.248
 6861SOL    HW121482   5.826   2.792   5.308
 6861SOL    HW221483   5.777   2.847   5.163
 6862SOL     OW21484   0.824   4.349   5.148
 6862SOL    HW121485   0.750   4.329   5.084
 6862SOL    HW221486   0.828   4.447   5.166
 6863SOL     OW21487   5.932   0.642   5.531
 6863SOL    HW121488   5.977   0.611   5.448
 6863SOL    HW221489   5.835   0.616   5.528
 6864SOL     OW21490   1.521   3.390   5.922
 6864SOL    HW121491   1.606   3.354   5.962
 6864SOL    HW221492   1.444   3.368   5.981
 6865SOL     OW21493   2.242   6.726   3.736
 6865SOL    HW121494   2.226   6.740   3.834
 6865SOL    HW221495   2.262   6.814   3.693
 6866SOL     OW21496   1.169   4.535   0.867
 6866SOL    HW121497   1.069   4.528   0.867
 6866SOL    HW221498   1.199   4.568   0.957
 6867SOL     OW21499   2.129   3.797   6.649
 6867SOL    HW121500   2.113   3.835   6.558
 6867SOL    HW221501   2.088   3.856   6.718
 6868SOL     OW21502   2.493   5.028   4.086
 6868SOL    HW121503   2.431   5.069   4.153
 6868SOL    HW221504   2.472   4.931   4.077
 6869SOL     OW21505   3.194   0.804   6.260
 6869SOL    HW121506   3.118   0.868   6.249
 6869SOL    HW221507   3.280   0.850   6.237
 6870SOL     OW21508   6.250   2.472   0.665
 6870SOL    HW121509   6.343   2.495   0.634
 6870SOL    HW221510   6.254   2.394   0.727
 6871SOL     OW21511   0.471   3.969   2.247
 6871SOL    HW121512   0.478   4.064   2.217
 6871SOL    HW221513   0.386   3.929   2.212
 6872SOL     OW21514   1.614   3.872   0.688
 6872SOL    HW121515   1.559   3.804   0.641
 6872SOL    HW221516   1.710   3.843   0.687
 6873SOL     OW21517   0.751   4.750   3.820
 6873SOL    HW121518   0.660   4.759   3.860
 6873SOL    HW221519   0.779   4.836   3.779
 6874SOL     OW21520   5.309   6.325   3.304
 6874SOL    HW121521   5.340   6.413   3.270
 6874SOL    HW221522   5.225   6.298   3.255
 6875SOL     OW21523   2.307   1.792   0.102
 6875SOL    HW121524   2.230   1.851   0.081
 6875SOL    HW221525   2.302   1.709   0.046
 6876SOL     OW21526   5.085   5.124   3.760
 6876SOL    HW121527   4.990   5.115   3.730
 6876SOL    HW221528   5.088   5.153   3.855
 6877SOL     OW21529   1.429   3.800   2.564
 6877SOL    HW121530   1.524   3.769   2.553
 6877SOL    HW221531   1.398   3.844   2.479
 6878SOL     OW21532   2.196   0.710   4.568
 6878SOL    HW121533   2.200   0.710   4.668
 6878SOL    HW221534   2.111   0.753   4.538
 6879SOL     OW21535   2.277   1.551   0.620
 6879SOL    HW121536   2.319   1.574   0.708
 6879SOL    HW221537   2.306   1.617   0.551
 6880SOL     OW21538   1.548   5.228   6.510
 6880SOL    HW121539   1.608   5.152   6.488
 6880SOL    HW221540   1.480   5.238   6.438
 6881SOL     OW21541   0.886   2.715   0.477
 6881SOL    HW121542   0.821   2.646   0.508
 6881SOL    HW221543   0.920   2.690   0.386
 6882SOL     OW21544   2.599   6.538   6.412
 6882SOL    HW121545   2.592   6.505   6.506
 6882SOL    HW221546   2.687   6.583   6.398
 6883SOL     OW21547   4.909   0.519   0.284
 6883SOL    HW121548   4.847   0.472   0.348
 6883SOL    HW221549   4.967   0.451   0.238
 6884SOL     OW21550   2.217   4.013   2.930
 6884SOL    HW121551   2.241   3.938   2.869
 6884SOL    HW221552   2.151   4.073   2.883
 6885SOL     OW21553   5.631   5.566   4.853
 6885SOL    HW121554   5.636   5.623   4.935
 6885SOL    HW221555   5.720   5.564   4.808
 6886SOL     OW21556   4.971   1.673   6.888
 6886SOL    HW121557   4.958   1.702   6.793
 6886SOL    HW221558   5.052   1.615   6.894
 6887SOL     OW21559   5.685   5.783   5.909
 6887SOL    HW121560   5.645   5.716   5.971
 6887SOL    HW221561   5.782   5.794   5.930
 6888SOL     OW21562   6.371   4.974   6.403
 6888SOL    HW121563   6.321   5.031   6.337
 6888SOL    HW221564   6.306   4.921   6.457
 6889SOL     OW21565   6.909   2.322   6.550
 6889SOL    HW121566   6.887   2.256   6.479
 6889SOL    HW221567   6.922   2.412   6.509
 6890SOL     OW21568   4.408   4.578   3.070
 6890SOL    HW121569   4.373   4.533   3.153
 6890SOL    HW221570   4.505   4.599   3.082
 6891SOL     OW21571   1.666   1.285   0.692
 6891SOL    HW121572   1.744   1.224   0.676
 6891SOL    HW221573   1.584   1.230   0.708
 6892SOL     OW21574   2.885   0.838   4.918
 6892SOL    HW121575   2.884   0.829   4.818
 6892SOL    HW221576   2.932   0.923   4.943
 6893SOL     OW21577   5.693   3.168   0.727
 6893SOL    HW121578   5.710   3.168   0.628
 6893SOL    HW221579   5.595   3.177   0.744
 6894SOL     OW21580   5.798   5.489   0.272
 6894SOL    HW121581   5.800   5.550   0.193
 6894SOL    HW221582   5.868   5.418   0.260
 6895SOL     OW21583   0.466   6.561   1.664
 6895SOL    HW121584   0.391   6.594   1.607
 6895SOL    HW221585   0.483   6.627   1.737
 6896SOL     OW21586   4.676   1.267   4.543
 6896SOL    HW121587   4.723   1.190   4.500
 6896SOL    HW221588   4.589   1.283   4.496
 6897SOL     OW21589   4.906   3.390   5.223
 6897SOL    HW121590   4.822   3.407   5.275
 6897SOL    HW221591   4.923   3.467   5.162
 6898SOL     OW21592   1.780   0.046   1.365
 6898SOL    HW121593   1.748   0.106   1.438
 6898SOL    HW221594   1.705   0.030   1.300
 6899SOL     OW21595   6.566   6.170   2.090
 6899SOL    HW121596   6.636   6.099   2.078
 6899SOL    HW221597   6.582   6.218   2.176
 6900SOL     OW21598   6.077   3.662   5.279
 6900SOL    HW121599   5.993   3.637   5.231
 6900SOL    HW221600   6.109   3.585   5.333
 6901SOL     OW21601   4.996   4.512   6.874
 6901SOL    HW121602   4.958   4.603   6.855
 6901SOL    HW221603   5.084   4.503   6.827
 6902SOL     OW21604   1.184   6.002   5.799
 6902SOL    HW121605   1.222   5.957   5.718
 6902SOL    HW221606   1.116   5.942   5.841
 6903SOL     OW21607   1.573   5.856   4.556
 6903SOL    HW121608   1.588   5.861   4.654
 6903SOL    HW221609   1.510   5.781   4.536
 6904SOL     OW21610   6.716   6.746   5.252
 6904SOL    HW121611   6.799   6.765   5.304
 6904SOL    HW221612   6.655   6.825   5.256
 6905SOL     OW21613   4.852   6.185   5.978
 6905SOL    HW121614   4.946   6.182   5.942
 6905SOL    HW221615   4.806   6.100   5.954
 6906SOL     OW21616   3.365   1.736   3.583
 6906SOL    HW121617   3.355   1.835   3.584
 6906SOL    HW221618   3.315   1.697   3.661
 6907SOL     OW21619   5.979   2.544   0.621
 6907SOL    HW121620   6.077   2.528   0.635
 6907SOL    HW221621   5.934   2.551   0.709
 6908SOL     OW21622   3.031   4.531   0.743
 6908SOL    HW121623   2.987   4.482   0.668
 6908SOL    HW221624   2.976   4.522   0.826
 6909SOL     OW21625   6.565   5.517   2.338
 6909SOL    HW121626   6.629   5.579   2.292
 6909SOL    HW221627   6.480   5.513   2.287
 6910SOL     OW21628   1.573   2.700   2.815
 6910SOL    HW121629   1.524   2.632   2.869
 6910SOL    HW221630   1.550   2.689   2.718
 6911SOL     OW21631   2.008   6.844   5.451
 6911SOL    HW121632   2.036   6.885   5.365
 6911SOL    HW221633   1.951   6.764   5.432
 6912SOL     OW21634   2.371   3.777   6.895
 6912SOL    HW121635   2.292   3.752   6.839
 6912SOL    HW221636   2.448   3.799   6.836
 6913SOL     OW21637   5.098   6.101   6.246
 6913SOL    HW121638   5.058   6.072   6.159
 6913SOL    HW221639   5.092   6.200   6.254
 6914SOL     OW21640   6.088   2.905   2.847
 6914SOL    HW121641   6.000   2.870   2.817
 6914SOL    HW221642   6.086   3.005   2.847
 6915SOL     OW21643   6.829   3.518   3.753
 6915SOL    HW121644   6.850   3.420   3.749
 6915SOL    HW221645   6.860   3.562   3.669
 6916SOL     OW21646   5.138   5.963   6.843
 6916SOL    HW121647   5.098   6.046   6.881
 6916SOL    HW221648   5.209   5.928   6.904
 6917SOL     OW21649   5.248   6.182   1.533
 6917SOL    HW121650   5.179   6.253   1.542
 6917SOL    HW221651   5.280   6.178   1.439
 6918SOL     OW21652   2.286   3.016   1.094
 6918SOL    HW121653   2.316   2.938   1.149
 6918SOL    HW221654   2.341   3.019   1.010
 6919SOL     OW21655   5.684   5.930   3.453
 6919SOL    HW121656   5.750   5.857   3.469
 6919SOL    HW221657   5.594   5.890   3.433
 6920SOL     OW21658   5.848   1.228   6.211
 6920SOL    HW121659   5.934   1.249   6.163
 6920SOL    HW221660   5.776   1.213   6.143
 6921SOL     OW21661   4.265   0.349   4.262
 6921SOL    HW121662   4.187   0.356   4.200
 6921SOL    HW221663   4.239   0.296   4.343
 6922SOL     OW21664   1.592   4.321   5.998
 6922SOL    HW121665   1.601   4.372   6.083
 6922SOL    HW221666   1.677   4.271   5.980
 6923SOL     OW21667   5.978   0.461   2.576
 6923SOL    HW121668   5.943   0.376   2.616
 6923SOL    HW221669   6.009   0.521   2.649
 6924SOL     OW21670   2.903   6.143   1.532
 6924SOL    HW121671   2.815   6.099   1.517
 6924SOL    HW221672   2.975   6.091   1.486
 6925SOL     OW21673   5.777   6.354   5.721
 6925SOL    HW121674   5.690   6.306   5.724
 6925SOL    HW221675   5.809   6.359   5.627
 6926SOL     OW21676   3.190   2.451   0.289
 6926SOL    HW121677   3.216   2.460   0.193
 6926SOL    HW221678   3.113   2.387   0.296
 6927SOL     OW21679   5.055   0.997   0.595
 6927SOL    HW121680   4.962   1.032   0.594
 6927SOL    HW221681   5.086   0.985   0.690
 6928SOL     OW21682   4.823   5.048   1.091
 6928SOL    HW121683   4.845   5.115   1.020
 6928SOL    HW221684   4.765   5.089   1.160
 6929SOL     OW21685   6.209   5.183   1.613
 6929SOL    HW121686   6.214   5.215   1.518
 6929SOL    HW221687   6.299   5.194   1.656
 6930SOL     OW21688   0.795   0.251   0.730
 6930SOL    HW121689   0.770   0.241   0.827
 6930SOL    HW221690   0.713   0.274   0.678
 6931SOL     OW21691   2.719   3.663   1.215
 6931SOL    HW121692   2.650   3.691   1.148
 6931SOL    HW221693   2.712   3.565   1.231
 6932SOL     OW21694   4.135   6.130   6.886
 6932SOL    HW121695   4.212   6.114   6.947
 6932SOL    HW221696   4.064   6.060   6.903
 6933SOL     OW21697   3.571   5.799   6.270
 6933SOL    HW121698   3.633   5.878   6.270
 6933SOL    HW221699   3.625   5.715   6.264
 6934SOL     OW21700   5.166   4.096   6.881
 6934SOL    HW121701   5.231   4.111   6.806
 6934SOL    HW221702   5.195   4.149   6.960
 6935SOL     OW21703   4.264   5.807   2.098
 6935SOL    HW121704   4.200   5.877   2.127
 6935SOL    HW221705   4.291   5.750   2.176
 6936SOL     OW21706   0.314   1.909   5.205
 6936SOL    HW121707   0.400   1.917   5.155
 6936SOL    HW221708   0.253   1.847   5.156
 6937SOL     OW21709   5.328   5.490   0.156
 6937SOL    HW121710   5.425   5.483   0.177
 6937SOL    HW221711   5.280   5.534   0.231
 6938SOL     OW21712   1.893   0.772   4.937
 6938SOL    HW121713   1.808   0.816   4.966
 6938SOL    HW221714   1.911   0.795   4.841
 6939SOL     OW21715   5.984   3.466   3.518
 6939SOL    HW121716   6.024   3.374   3.525
 6939SOL    HW221717   5.893   3.459   3.478
 6940SOL     OW21718   3.048   5.930   0.614
 6940SOL    HW121719   2.970   5.992   0.608
 6940SOL    HW221720   3.108   5.946   0.536
 6941SOL     OW21721   3.512   3.768   3.037
 6941SOL    HW121722   3.600   3.810   3.060
 6941SOL    HW221723   3.506   3.678   3.080
 6942SOL     OW21724   6.414   6.272   1.684
 6942SOL    HW121725   6.384   6.367   1.685
 6942SOL    HW221726   6.489   6.259   1.748
 6943SOL     OW21727   3.946   4.538   6.686
 6943SOL    HW121728   3.899   4.563   6.771
 6943SOL    HW221729   3.922   4.444   6.662
 6944SOL     OW21730   1.219   4.402   5.198
 6944SOL    HW121731   1.286   4.358   5.139
 6944SOL    HW221732   1.209   4.498   5.173
 6945SOL     OW21733   5.372   2.104   0.762
 6945SOL    HW121734   5.354   2.083   0.858
 6945SOL    HW221735   5.317   2.183   0.735
 6946SOL     OW21736   4.831   5.210   3.218
 6946SOL    HW121737   4.802   5.291   3.168
 6946SOL    HW221738   4.861   5.140   3.154
 6947SOL     OW21739   5.785   4.432   5.236
 6947SOL    HW121740   5.717   4.385   5.293
 6947SOL    HW221741   5.874   4.387   5.246
 6948SOL     OW21742   0.176   4.697   6.766
 6948SOL    HW121743   0.226   4.658   6.689
 6948SOL    HW221744   0.114   4.629   6.804
 6949SOL     OW21745   2.485   1.800   4.251
 6949SOL    HW121746   2.482   1.801   4.351
 6949SOL    HW221747   2.580   1.809   4.221
 6950SOL     OW21748   0.150   0.399   4.346
 6950SOL    HW121749   0.123   0.333   4.276
 6950SOL    HW221750   0.068   0.435   4.391
 6951SOL     OW21751   0.924   4.256   6.587
 6951SOL    HW121752   0.938   4.215   6.677
 6951SOL    HW221753   1.006   4.307   6.562
 6952SOL     OW21754   4.618   5.638   3.672
 6952SOL    HW121755   4.539   5.587   3.704
 6952SOL    HW221756   4.659   5.688   3.749
 6953SOL     OW21757   5.990   1.834   1.116
 6953SOL    HW121758   6.027   1.749   1.154
 6953SOL    HW221759   5.936   1.813   1.034
 6954SOL     OW21760   5.988   4.441   0.207
 6954SOL    HW121761   6.046   4.519   0.181
 6954SOL    HW221762   6.043   4.373   0.254
 6955SOL     OW21763   4.396   6.598   3.156
 6955SOL    HW121764   4.489   6.563   3.142
 6955SOL    HW221765   4.395   6.697   3.141
 6956SOL     OW21766   6.240   5.254   2.404
 6956SOL    HW121767   6.277   5.329   2.459
 6956SOL    HW221768   6.256   5.168   2.452
 6957SOL     OW21769   5.977   5.582   5.655
 6957SOL    HW121770   5.884   5.550   5.637
 6957SOL    HW221771   6.019   5.611   5.569
 6958SOL     OW21772   3.186   3.878   3.534
 6958SOL    HW121773   3.231   3.960   3.497
 6958SOL    HW221774   3.232   3.850   3.618
 6959SOL     OW21775   1.238   4.380   2.712
 6959SOL    HW121776   1.154   4.340   2.674
 6959SOL    HW221777   1.317   4.345   2.663
 6960SOL     OW21778   3.271   4.023   0.790
 6960SOL    HW121779   3.264   3.947   0.726
 6960SOL    HW221780   3.345   4.005   0.855
 6961SOL     OW21781   4.504   2.517   5.068
 6961SOL    HW121782   4.523   2.449   5.139
 6961SOL    HW221783   4.414   2.500   5.029
 6962SOL     OW21784   2.276   6.695   6.546
 6962SOL    HW121785   2.290   6.599   6.522
 6962SOL    HW221786   2.337   6.752   6.492
 6963SOL     OW21787   6.166   5.991   0.590
 6963SOL    HW121788   6.200   5.900   0.566
 6963SOL    HW221789   6.066   5.992   0.582
 6964SOL     OW21790   1.744   1.359   5.191
 6964SOL    HW121791   1.731   1.423   5.267
 6964SOL    HW221792   1.816   1.392   5.131
 6965SOL     OW21793   0.464   1.606   6.852
 6965SOL    HW121794   0.462   1.694   6.899
 6965SOL    HW221795   0.482   1.534   6.919
 6966SOL     OW21796   1.728   6.566   1.054
 6966SOL    HW121797   1.676   6.601   0.976
 6966SOL    HW221798   1.812   6.522   1.021
 6967SOL     OW21799   4.334   1.395   6.483
 6967SOL    HW121800   4.430   1.409   6.505
 6967SOL    HW221801   4.286   1.358   6.562
 6968SOL     OW21802   3.663   6.613   3.204
 6968SOL    HW121803   3.643   6.542   3.136
 6968SOL    HW221804   3.754   6.650   3.188
 6969SOL     OW21805   2.025   1.755   2.344
 6969SOL    HW121806   2.096   1.813   2.304
 6969SOL    HW221807   2.061   1.662   2.355
 6970SOL     OW21808   3.854   5.915   5.420
 6970SOL    HW121809   3.755   5.916   5.429
 6970SOL    HW221810   3.880   5.900   5.325
 6971SOL     OW21811   6.504   4.152   0.431
 6971SOL    HW121812   6.588   4.112   0.467
 6971SOL    HW221813   6.426   4.117   0.482
 6972SOL     OW21814   5.163   3.794   1.232
 6972SOL    HW121815   5.246   3.801   1.287
 6972SOL    HW221816   5.100   3.867   1.256
 6973SOL     OW21817   1.969   2.350   3.298
 6973SOL    HW121818   1.917   2.431   3.270
 6973SOL    HW221819   2.013   2.368   3.386
 6974SOL     OW21820   3.693   3.476   3.489
 6974SOL    HW121821   3.594   3.477   3.477
 6974SOL    HW221822   3.738   3.497   3.402
 6975SOL     OW21823   2.852   5.294   4.651
 6975SOL    HW121824   2.937   5.241   4.653
 6975SOL    HW221825   2.792   5.257   4.580
 6976SOL     OW21826   4.772   4.384   6.411
 6976SOL    HW121827   4.842   4.347   6.351
 6976SOL    HW221828   4.722   4.309   6.454
 6977SOL     OW21829   4.549   5.013   1.613
 6977SOL    HW121830   4.489   5.024   1.534
 6977SOL    HW221831   4.496   5.024   1.697
 6978SOL     OW21832   6.972   3.745   1.413
 6978SOL    HW121833   6.913   3.713   1.486
 6978SOL    HW221834   7.004   3.838   1.433
 6979SOL     OW21835   1.778   2.851   2.056
 6979SOL    HW121836   1.753   2.913   2.131
 6979SOL    HW221837   1.860   2.884   2.010
 6980SOL     OW21838   1.825   5.673   1.986
 6980SOL    HW121839   1.902   5.682   1.923
 6980SOL    HW221840   1.826   5.748   2.052
 6981SOL     OW21841   4.088   2.840   6.912
 6981SOL    HW121842   4.167   2.881   6.957
 6981SOL    HW221843   4.110   2.822   6.816
 6982SOL     OW21844   1.649   0.445   2.642
 6982SOL    HW121845   1.601   0.466   2.556
 6982SOL    HW221846   1.662   0.346   2.650
 6983SOL     OW21847   5.719   0.644   4.339
 6983SOL    HW121848   5.808   0.598   4.349
 6983SOL    HW221849   5.652   0.597   4.396
 6984SOL     OW21850   0.983   2.648   3.224
 6984SOL    HW121851   0.886   2.666   3.235
 6984SOL    HW221852   1.036   2.721   3.268
 6985SOL     OW21853   5.594   3.648   6.918
 6985SOL    HW121854   5.646   3.639   6.833
 6985SOL    HW221855   5.504   3.687   6.899
 6986SOL     OW21856   4.968   4.679   5.419
 6986SOL    HW121857   4.873   4.651   5.406
 6986SOL    HW221858   5.003   4.640   5.504
 6987SOL     OW21859   6.898   0.932   6.670
 6987SOL    HW121860   6.888   0.843   6.626
 6987SOL    HW221861   6.918   0.919   6.767
 6988SOL     OW21862   2.957   1.682   6.493
 6988SOL    HW121863   3.044   1.714   6.531
 6988SOL    HW221864   2.914   1.617   6.557
 6989SOL     OW21865   0.546   5.138   2.283
 6989SOL    HW121866   0.517   5.185   2.367
 6989SOL    HW221867   0.471   5.082   2.248
 6990SOL     OW21868   3.882   3.365   0.569
 6990SOL    HW121869   3.915   3.395   0.658
 6990SOL    HW221870   3.935   3.286   0.539
 6991SOL     OW21871   6.373   3.188   2.612
 6991SOL    HW121872   6.376   3.105   2.556
 6991SOL    HW221873   6.340   3.265   2.557
 6992SOL     OW21874   1.255   6.072   0.234
 6992SOL    HW121875   1.296   6.103   0.319
 6992SOL    HW221876   1.156   6.076   0.240
 6993SOL     OW21877   4.968   1.783   1.365
 6993SOL    HW121878   4.873   1.816   1.361
 6993SOL    HW221879   4.977   1.704   1.304
 6994SOL     OW21880   2.592   0.736   3.835
 6994SOL    HW121881   2.675   0.754   3.782
 6994SOL    HW221882   2.512   0.751   3.777
 6995SOL     OW21883   0.340   4.032   1.193
 6995SOL    HW121884   0.426   4.047   1.241
 6995SOL    HW221885   0.355   3.972   1.114
 6996SOL     OW21886   1.217   1.346   6.681
 6996SOL    HW121887   1.202   1.322   6.586
 6996SOL    HW221888   1.303   1.306   6.713
 6997SOL     OW21889   5.837   5.303   6.004
 6997SOL    HW121890   5.889   5.223   5.974
 6997SOL    HW221891   5.742   5.277   6.020
 6998SOL     OW21892   6.945   1.373   0.141
 6998SOL    HW121893   6.970   1.409   0.051
 6998SOL    HW221894   6.917   1.449   0.200
 6999SOL     OW21895   0.142   3.244   0.059
 6999SOL    HW121896   0.147   3.322   7.017
 6999SOL    HW221897   0.049   3.208   0.060
 7000SOL     OW21898   6.703   5.800   3.251
 7000SOL    HW121899   6.657   5.863   3.188
 7000SOL    HW221900   6.777   5.848   3.298
 7001SOL     OW21901   0.094   2.216   3.706
 7001SOL    HW121902   0.131   2.279   3.774
 7001SOL    HW221903   0.167   2.189   3.643
 7002SOL     OW21904   0.747   5.752   2.975
 7002SOL    HW121905   0.803   5.728   3.054
 7002SOL    HW221906   0.753   5.851   2.958
 7003SOL     OW21907   6.813   4.133   0.582
 7003SOL    HW121908   6.796   4.205   0.650
 7003SOL    HW221909   6.858   4.056   0.626
 7004SOL     OW21910   1.761   6.491   0.721
 7004SOL    HW121911   1.783   6.570   0.664
 7004SOL    HW221912   1.828   6.483   0.795
 7005SOL     OW21913   1.266   6.338   0.997
 7005SOL    HW121914   1.300   6.253   0.957
 7005SOL    HW221915   1.285   6.414   0.936
 7006SOL     OW21916   1.237   6.869   4.027
 7006SOL    HW121917   1.304   6.915   3.969
 7006SOL    HW221918   1.226   6.775   3.996
 7007SOL     OW21919   2.570   0.595   5.956
 7007SOL    HW121920   2.624   0.513   5.974
 7007SOL    HW221921   2.474   0.579   5.981
 7008SOL     OW21922   5.249   3.724   2.743
 7008SOL    HW121923   5.154   3.700   2.762
 7008SOL    HW221924   5.268   3.713   2.646
 7009SOL     OW21925   4.534   5.721   2.295
 7009SOL    HW121926   4.564   5.810   2.258
 7009SOL    HW221927   4.593   5.649   2.259
 7010SOL     OW21928   5.355   3.546   1.585
 7010SOL    HW121929   5.425   3.554   1.656
 7010SOL    HW221930   5.283   3.485   1.617
 7011SOL     OW21931   3.402   6.486   6.868
 7011SOL    HW121932   3.477   6.546   6.842
 7011SOL    HW221933   3.423   6.392   6.842
 7012SOL     OW21934   6.741   2.671   0.405
 7012SOL    HW121935   6.648   2.695   0.377
 7012SOL    HW221936   6.745   2.663   0.505
 7013SOL     OW21937   2.987   1.923   0.311
 7013SOL    HW121938   2.969   1.975   0.395
 7013SOL    HW221939   2.906   1.926   0.252
 7014SOL     OW21940   5.843   3.405   0.787
 7014SOL    HW121941   5.940   3.382   0.780
 7014SOL    HW221942   5.789   3.320   0.787
 7015SOL     OW21943   5.316   6.226   1.259
 7015SOL    HW121944   5.275   6.157   1.198
 7015SOL    HW221945   5.248   6.296   1.280
 7016SOL     OW21946   3.313   5.280   0.889
 7016SOL    HW121947   3.368   5.203   0.921
 7016SOL    HW221948   3.228   5.246   0.849
 7017SOL     OW21949   6.041   4.925   4.979
 7017SOL    HW121950   6.005   5.015   4.956
 7017SOL    HW221951   6.014   4.859   4.909
 7018SOL     OW21952   5.364   3.591   4.588
 7018SOL    HW121953   5.269   3.564   4.604
 7018SOL    HW221954   5.395   3.554   4.500
 7019SOL     OW21955   4.073   5.682   2.455
 7019SOL    HW121956   4.136   5.703   2.531
 7019SOL    HW221957   4.120   5.625   2.388
 7020SOL     OW21958   0.565   2.508   6.691
 7020SOL    HW121959   0.543   2.496   6.787
 7020SOL    HW221960   0.591   2.603   6.673
 7021SOL     OW21961   0.795   2.130   4.783
 7021SOL    HW121962   0.841   2.218   4.787
 7021SOL    HW221963   0.712   2.132   4.840
 7022SOL     OW21964   3.501   1.741   0.941
 7022SOL    HW121965   3.556   1.661   0.918
 7022SOL    HW221966   3.440   1.718   1.018
 7023SOL     OW21967   0.300   1.846   0.298
 7023SOL    HW121968   0.299   1.889   0.388
 7023SOL    HW221969   0.337   1.910   0.231
 7024SOL     OW21970   4.035   3.257   4.931
 7024SOL    HW121971   4.016   3.168   4.891
 7024SOL    HW221972   3.949   3.305   4.949
 7025SOL     OW21973   3.149   0.448   0.980
 7025SOL    HW121974   3.100   0.459   1.066
 7025SOL    HW221975   3.241   0.487   0.988
 7026SOL     OW21976   3.587   2.742   1.169
 7026SOL    HW121977   3.598   2.728   1.267
 7026SOL    HW221978   3.613   2.836   1.145
 7027SOL     OW21979   2.409   5.035   2.752
 7027SOL    HW121980   2.508   5.036   2.737
 7027SOL    HW221981   2.370   5.121   2.721
 7028SOL     OW21982   2.819   0.464   3.752
 7028SOL    HW121983   2.845   0.378   3.708
 7028SOL    HW221984   2.882   0.484   3.826
 7029SOL     OW21985   3.256   3.770   3.764
 7029SOL    HW121986   3.324   3.819   3.819
 7029SOL    HW221987   3.177   3.748   3.822
 7030SOL     OW21988   6.562   1.066   4.906
 7030SOL    HW121989   6.604   0.998   4.965
 7030SOL    HW221990   6.570   1.156   4.947
 7031SOL     OW21991   4.413   6.820   0.624
 7031SOL    HW121992   4.415   6.836   0.525
 7031SOL    HW221993   4.451   6.729   0.643
 7032SOL     OW21994   4.685   5.738   4.524
 7032SOL    HW121995   4.744   5.765   4.599
 7032SOL    HW221996   4.695   5.639   4.507
 7033SOL     OW21997   2.008   1.965   4.791
 7033SOL    HW121998   1.985   1.942   4.886
 7033SOL    HW221999   1.972   2.055   4.769
 7034SOL     OW22000   6.454   0.612   3.454
 7034SOL    HW122001   6.524   0.646   3.518
 7034SOL    HW222002   6.429   0.519   3.480
 7035SOL     OW22003   1.639   0.283   0.310
 7035SOL    HW122004   1.682   0.340   0.380
 7035SOL    HW222005   1.709   0.247   0.248
 7036SOL     OW22006   6.412   1.764   2.891
 7036SOL    HW122007   6.469   1.750   2.972
 7036SOL    HW222008   6.442   1.846   2.844
 7037SOL     OW22009   1.402   0.394   5.709
 7037SOL    HW122010   1.424   0.344   5.793
 7037SOL    HW222011   1.303   0.410   5.706
 7038SOL     OW22012   1.246   4.359   0.004
 7038SOL    HW122013   1.198   4.410   0.075
 7038SOL    HW222014   1.345   4.364   0.021
 7039SOL     OW22015   0.363   6.468   2.165
 7039SOL    HW122016   0.338   6.562   2.185
 7039SOL    HW222017   0.311   6.406   2.225
 7040SOL     OW22018   5.114   3.475   4.679
 7040SOL    HW122019   5.116   3.377   4.698
 7040SOL    HW222020   5.036   3.517   4.726
 7041SOL     OW22021   1.699   6.744   4.177
 7041SOL    HW122022   1.785   6.705   4.147
 7041SOL    HW222023   1.716   6.826   4.232
 7042SOL     OW22024   5.176   6.125   5.616
 7042SOL    HW122025   5.193   6.222   5.600
 7042SOL    HW222026   5.263   6.077   5.629
 7043SOL     OW22027   2.324   5.115   1.097
 7043SOL    HW122028   2.418   5.081   1.098
 7043SOL    HW222029   2.294   5.132   1.191
 7044SOL     OW22030   4.986   6.799   5.039
 7044SOL    HW122031   4.975   6.838   5.131
 7044SOL    HW222032   4.902   6.752   5.012
 7045SOL     OW22033   6.620   6.242   1.854
 7045SOL    HW122034   6.708   6.288   1.864
 7045SOL    HW222035   6.585   6.216   1.944
 7046SOL     OW22036   2.786   1.717   4.383
 7046SOL    HW122037   2.788   1.787   4.312
 7046SOL    HW222038   2.774   1.761   4.472
 7047SOL     OW22039   1.394   6.752   0.636
 7047SOL    HW122040   1.311   6.726   0.586
 7047SOL    HW222041   1.383   6.844   0.673
 7048SOL     OW22042   0.004   6.302   4.542
 7048SOL    HW122043   7.017   6.340   4.450
 7048SOL    HW222044   0.042   6.371   4.604
 7049SOL     OW22045   3.713   1.385   3.476
 7049SOL    HW122046   3.770   1.362   3.555
 7049SOL    HW222047   3.638   1.444   3.505
 7050SOL     OW22048   4.071   4.026   1.197
 7050SOL    HW122049   4.088   4.113   1.151
 7050SOL    HW222050   4.104   4.031   1.291
 7051SOL     OW22051   0.473   0.875   1.814
 7051SOL    HW122052   0.474   0.973   1.832
 7051SOL    HW222053   0.452   0.826   1.899
 7052SOL     OW22054   4.915   0.724   2.795
 7052SOL    HW122055   4.965   0.798   2.748
 7052SOL    HW222056   4.930   0.730   2.893
 7053SOL     OW22057   2.108   3.418   3.413
 7053SOL    HW122058   2.057   3.478   3.474
 7053SOL    HW222059   2.142   3.340   3.464
 7054SOL     OW22060   6.359   0.993   0.230
 7054SOL    HW122061   6.448   0.984   0.186
 7054SOL    HW222062   6.360   0.943   0.317
 7055SOL     OW22063   2.608   1.224   0.078
 7055SOL    HW122064   2.579   1.229   0.173
 7055SOL    HW222065   2.705   1.246   0.071
 7056SOL     OW22066   0.236   5.418   0.996
 7056SOL    HW122067   0.204   5.496   1.050
 7056SOL    HW222068   0.167   5.395   0.926
 7057SOL     OW22069   2.446   5.497   4.527
 7057SOL    HW122070   2.398   5.437   4.462
 7057SOL    HW222071   2.449   5.453   4.617
 7058SOL     OW22072   5.309   2.953   6.371
 7058SOL    HW122073   5.321   3.049   6.346
 7058SOL    HW222074   5.220   2.920   6.340
 7059SOL     OW22075   2.041   0.424   5.225
 7059SOL    HW122076   2.130   0.408   5.267
 7059SOL    HW222077   2.033   0.520   5.198
 7060SOL     OW22078   3.486   1.247   1.166
 7060SOL    HW122079   3.421   1.213   1.234
 7060SOL    HW222080   3.559   1.179   1.153
 7061SOL     OW22081   0.622   1.670   1.770
 7061SOL    HW122082   0.662   1.744   1.716
 7061SOL    HW222083   0.574   1.606   1.710
 7062SOL     OW22084   3.458   0.568   3.844
 7062SOL    HW122085   3.396   0.625   3.790
 7062SOL    HW222086   3.452   0.473   3.812
 7063SOL     OW22087   0.460   0.670   1.347
 7063SOL    HW122088   0.543   0.721   1.324
 7063SOL    HW222089   0.390   0.685   1.277
 7064SOL     OW22090   4.004   1.818   5.337
 7064SOL    HW122091   3.909   1.789   5.322
 7064SOL    HW222092   4.008   1.881   5.414
 7065SOL     OW22093   4.275   5.530   5.439
 7065SOL    HW122094   4.304   5.487   5.353
 7065SOL    HW222095   4.352   5.580   5.479
 7066SOL     OW22096   3.626   0.319   0.234
 7066SOL    HW122097   3.603   0.364   0.148
 7066SOL    HW222098   3.589   0.226   0.235
 7067SOL     OW22099   1.752   3.157   6.696
 7067SOL    HW122100   1.697   3.223   6.748
 7067SOL    HW222101   1.835   3.135   6.747
 7068SOL     OW22102   5.350   3.763   4.159
 7068SOL    HW122103   5.305   3.839   4.205
 7068SOL    HW222104   5.447   3.759   4.186
 7069SOL     OW22105   5.745   0.715   6.768
 7069SOL    HW122106   5.741   0.626   6.813
 7069SOL    HW222107   5.840   0.742   6.757
 7070SOL     OW22108   0.174   0.242   5.332
 7070SOL    HW122109   0.174   0.231   5.233
 7070SOL    HW222110   0.219   0.163   5.375
 7071SOL     OW22111   4.867   5.613   6.693
 7071SOL    HW122112   4.864   5.564   6.605
 7071SOL    HW222113   4.778   5.608   6.738
 7072SOL     OW22114   0.982   3.607   5.919
 7072SOL    HW122115   0.989   3.668   5.997
 7072SOL    HW222116   1.021   3.518   5.943
 7073SOL     OW22117   4.465   1.734   4.000
 7073SOL    HW122118   4.463   1.810   4.064
 7073SOL    HW222119   4.542   1.744   3.937
 7074SOL     OW22120   5.379   4.499   3.479
 7074SOL    HW122121   5.335   4.582   3.513
 7074SOL    HW222122   5.384   4.431   3.552
 7075SOL     OW22123   2.768   5.028   3.048
 7075SOL    HW122124   2.854   5.066   3.016
 7075SOL    HW222125   2.782   4.934   3.078
 7076SOL     OW22126   5.586   2.220   1.552
 7076SOL    HW122127   5.590   2.273   1.637
 7076SOL    HW222128   5.519   2.260   1.490
 7077SOL     OW22129   3.882   5.424   1.775
 7077SOL    HW122130   3.877   5.443   1.874
 7077SOL    HW222131   3.803   5.466   1.730
 7078SOL     OW22132   6.039   0.624   0.055
 7078SOL    HW122133   5.975   0.686   0.010
 7078SOL    HW222134   6.132   0.644   0.024
 7079SOL     OW22135   1.512   6.293   4.718
 7079SOL    HW122136   1.474   6.203   4.737
 7079SOL    HW222137   1.447   6.347   4.665
 7080SOL     OW22138   4.113   2.344   5.641
 7080SOL    HW122139   4.071   2.428   5.674
 7080SOL    HW222140   4.059   2.266   5.672
 7081SOL     OW22141   1.822   0.154   0.160
 7081SOL    HW122142   1.916   0.127   0.183
 7081SOL    HW222143   1.807   0.140   0.062
 7082SOL     OW22144   0.089   4.165   2.982
 7082SOL    HW122145   0.114   4.092   2.919
 7082SOL    HW222146   0.082   4.128   3.075
 7083SOL     OW22147   5.453   2.585   2.700
 7083SOL    HW122148   5.448   2.494   2.742
 7083SOL    HW222149   5.533   2.590   2.641
 7084SOL     OW22150   1.285   5.422   6.855
 7084SOL    HW122151   1.207   5.441   6.915
 7084SOL    HW222152   1.369   5.454   6.899
 7085SOL     OW22153   0.498   3.645   1.975
 7085SOL    HW122154   0.489   3.682   1.882
 7085SOL    HW222155   0.584   3.595   1.982
 7086SOL     OW22156   5.332   1.234   4.041
 7086SOL    HW122157   5.234   1.223   4.027
 7086SOL    HW222158   5.350   1.250   4.138
 7087SOL     OW22159   4.912   3.820   2.570
 7087SOL    HW122160   4.916   3.743   2.506
 7087SOL    HW222161   4.868   3.898   2.524
 7088SOL     OW22162   5.769   2.191   5.262
 7088SOL    HW122163   5.826   2.198   5.344
 7088SOL    HW222164   5.797   2.261   5.197
 7089SOL     OW22165   2.870   5.838   1.601
 7089SOL    HW122166   2.854   5.920   1.657
 7089SOL    HW222167   2.919   5.864   1.518
 7090SOL     OW22168   4.721   2.797   1.302
 7090SOL    HW122169   4.688   2.758   1.216
 7090SOL    HW222170   4.652   2.785   1.373
 7091SOL     OW22171   0.705   6.128   0.563
 7091SOL    HW122172   0.646   6.205   0.587
 7091SOL    HW222173   0.765   6.154   0.487
 7092SOL     OW22174   4.358   0.672   6.184
 7092SOL    HW122175   4.318   0.584   6.159
 7092SOL    HW222176   4.286   0.735   6.212
 7093SOL     OW22177   3.500   3.037   1.277
 7093SOL    HW122178   3.480   3.093   1.357
 7093SOL    HW222179   3.491   2.940   1.301
 7094SOL     OW22180   3.358   0.335   6.252
 7094SOL    HW122181   3.291   0.261   6.259
 7094SOL    HW222182   3.311   0.423   6.252
 7095SOL     OW22183   2.432   4.746   4.523
 7095SOL    HW122184   2.466   4.814   4.458
 7095SOL    HW222185   2.422   4.788   4.613
 7096SOL     OW22186   6.784   0.374   1.015
 7096SOL    HW122187   6.775   0.470   0.987
 7096SOL    HW222188   6.802   0.317   0.935
 7097SOL     OW22189   4.725   1.607   1.985
 7097SOL    HW122190   4.740   1.702   2.013
 7097SOL    HW222191   4.805   1.552   2.006
 7098SOL     OW22192   1.018   0.097   3.771
 7098SOL    HW122193   0.998   0.051   3.858
 7098SOL    HW222194   0.975   0.047   3.696
 7099SOL     OW22195   2.994   1.961   4.172
 7099SOL    HW122196   3.031   2.050   4.196
 7099SOL    HW222197   3.049   1.889   4.217
 7100SOL     OW22198   6.584   3.918   1.812
 7100SOL    HW122199   6.669   3.929   1.761
 7100SOL    HW222200   6.512   3.972   1.769
 7101SOL     OW22201   2.519   6.200   5.085
 7101SOL    HW122202   2.516   6.237   5.178
 7101SOL    HW222203   2.610   6.164   5.067
 7102SOL     OW22204   5.752   1.147   2.310
 7102SOL    HW122205   5.790   1.058   2.284
 7102SOL    HW222206   5.799   1.220   2.259
 7103SOL     OW22207   4.967   3.733   3.068
 7103SOL    HW122208   4.989   3.640   3.097
 7103SOL    HW222209   4.937   3.731   2.972
 7104SOL     OW22210   5.152   2.794   3.828
 7104SOL    HW122211   5.246   2.807   3.797
 7104SOL    HW222212   5.090   2.799   3.750
 7105SOL     OW22213   3.664   3.948   3.447
 7105SOL    HW122214   3.584   3.972   3.502
 7105SOL    HW222215   3.701   3.860   3.477
 7106SOL     OW22216   3.270   2.062   1.575
 7106SOL    HW122217   3.177   2.057   1.537
 7106SOL    HW222218   3.269   2.118   1.658
 7107SOL     OW22219   4.043   0.344   6.238
 7107SOL    HW122220   4.041   0.371   6.334
 7107SOL    HW222221   3.964   0.286   6.218
 7108SOL     OW22222   4.831   0.832   2.138
 7108SOL    HW122223   4.909   0.816   2.078
 7108SOL    HW222224   4.770   0.752   2.135
 7109SOL     OW22225   2.516   5.539   6.956
 7109SOL    HW122226   2.590   5.582   6.905
 7109SOL    HW222227   2.517   5.440   6.940
 7110SOL     OW22228   3.806   6.821   4.221
 7110SOL    HW122229   3.813   6.823   4.121
 7110SOL    HW222230   3.889   6.781   4.260
 7111SOL     OW22231   0.075   0.688   4.990
 7111SOL    HW122232   0.066   0.591   5.011
 7111SOL    HW222233   0.146   0.701   4.920
 7112SOL     OW22234   0.907   5.284   5.033
 7112SOL    HW122235   0.883   5.215   4.964
 7112SOL    HW222236   0.885   5.249   5.124
 7113SOL     OW22237   3.522   6.597   5.148
 7113SOL    HW122238   3.466   6.628   5.224
 7113SOL    HW222239   3.563   6.509   5.170
 7114SOL     OW22240   5.617   4.317   0.927
 7114SOL    HW122241   5.664   4.258   0.861
 7114SOL    HW222242   5.523   4.285   0.940
 7115SOL     OW22243   5.987   4.004   6.029
 7115SOL    HW122244   6.015   4.089   5.984
 7115SOL    HW222245   5.945   4.025   6.117
 7116SOL     OW22246   6.381   3.842   4.307
 7116SOL    HW122247   6.404   3.939   4.312
 7116SOL    HW222248   6.434   3.798   4.234
 7117SOL     OW22249   5.292   0.181   3.465
 7117SOL    HW122250   5.356   0.218   3.532
 7117SOL    HW222251   5.313   0.218   3.374
 7118SOL     OW22252   3.773   4.498   5.617
 7118SOL    HW122253   3.728   4.425   5.669
 7118SOL    HW222254   3.774   4.582   5.670
 7119SOL     OW22255   3.407   6.896   4.817
 7119SOL    HW122256   3.316   6.857   4.814
 7119SOL    HW222257   3.416   6.955   4.898
 7120SOL     OW22258   4.488   0.507   0.549
 7120SOL    HW122259   4.515   0.561   0.628
 7120SOL    HW222260   4.570   0.468   0.506
 7121SOL     OW22261   1.346   6.099   1.696
 7121SOL    HW122262   1.320   6.193   1.718
 7121SOL    HW222263   1.287   6.065   1.623
 7122SOL     OW22264   3.429   1.819   0.107
 7122SOL    HW122265   3.435   1.753   0.182
 7122SOL    HW222266   3.500   1.800   0.039
 7123SOL     OW22267   5.559   5.267   5.963
 7123SOL    HW122268   5.502   5.195   5.925
 7123SOL    HW222269   5.504   5.349   5.980
 7124SOL     OW22270   1.096   1.865   1.046
 7124SOL    HW122271   1.079   1.819   0.959
 7124SOL    HW222272   1.075   1.803   1.121
 7125SOL     OW22273   0.616   6.416   2.091
 7125SOL    HW122274   0.646   6.323   2.112
 7125SOL    HW222275   0.523   6.429   2.124
 7126SOL     OW22276   3.496   5.436   0.762
 7126SOL    HW122277   3.546   5.368   0.708
 7126SOL    HW222278   3.431   5.390   0.822
 7127SOL     OW22279   2.228   6.249   6.063
 7127SOL    HW122280   2.245   6.168   6.007
 7127SOL    HW222281   2.308   6.309   6.060
 7128SOL     OW22282   3.746   4.298   6.882
 7128SOL    HW122283   3.810   4.329   6.953
 7128SOL    HW222284   3.684   4.373   6.859
 7129SOL     OW22285   0.801   7.015   0.269
 7129SOL    HW122286   0.838   0.082   0.236
 7129SOL    HW222287   0.780   0.003   0.367
 7130SOL     OW22288   3.550   6.677   3.741
 7130SOL    HW122289   3.560   6.630   3.828
 7130SOL    HW222290   3.456   6.666   3.708
 7131SOL     OW22291   2.268   1.619   1.740
 7131SOL    HW122292   2.179   1.572   1.731
 7131SOL    HW222293   2.255   1.717   1.727
 7132SOL     OW22294   5.388   4.473   0.810
 7132SOL    HW122295   5.340   4.537   0.870
 7132SOL    HW222296   5.454   4.421   0.864
 7133SOL     OW22297   5.061   5.971   2.510
 7133SOL    HW122298   5.093   5.890   2.560
 7133SOL    HW222299   5.051   5.948   2.413
 7134SOL     OW22300   4.721   5.434   0.082
 7134SOL    HW122301   4.789   5.462   0.014
 7134SOL    HW222302   4.756   5.454   0.174
 7135SOL     OW22303   1.461   3.311   1.527
 7135SOL    HW122304   1.551   3.270   1.513
 7135SOL    HW222305   1.444   3.379   1.455
 7136SOL     OW22306   1.508   2.005   2.045
 7136SOL    HW122307   1.581   1.983   1.980
 7136SOL    HW222308   1.543   2.067   2.115
 7137SOL     OW22309   2.869   1.573   1.446
 7137SOL    HW122310   2.873   1.639   1.521
 7137SOL    HW222311   2.798   1.505   1.466
 7138SOL     OW22312   0.911   2.199   0.256
 7138SOL    HW122313   0.983   2.232   0.317
 7138SOL    HW222314   0.870   2.116   0.295
 7139SOL     OW22315   5.966   6.352   0.763
 7139SOL    HW122316   6.004   6.377   0.674
 7139SOL    HW222317   5.985   6.255   0.781
 7140SOL     OW22318   6.125   4.152   0.326
 7140SOL    HW122319   6.165   4.160   0.234
 7140SOL    HW222320   6.026   4.140   0.318
 7141SOL     OW22321   2.988   0.549   1.174
 7141SOL    HW122322   3.023   0.621   1.233
 7141SOL    HW222323   2.904   0.581   1.129
 7142SOL     OW22324   3.818   0.374   4.890
 7142SOL    HW122325   3.860   0.464   4.881
 7142SOL    HW222326   3.883   0.304   4.862
 7143SOL     OW22327   2.672   3.394   6.769
 7143SOL    HW122328   2.634   3.427   6.683
 7143SOL    HW222329   2.694   3.472   6.827
 7144SOL     OW22330   6.478   1.062   6.093
 7144SOL    HW122331   6.449   0.977   6.050
 7144SOL    HW222332   6.400   1.104   6.140
 7145SOL     OW22333   5.241   1.885   6.222
 7145SOL    HW122334   5.307   1.920   6.289
 7145SOL    HW222335   5.251   1.786   6.214
 7146SOL     OW22336   1.273   1.859   6.060
 7146SOL    HW122337   1.331   1.936   6.033
 7146SOL    HW222338   1.182   1.892   6.085
 7147SOL     OW22339   6.428   6.579   1.729
 7147SOL    HW122340   6.439   6.612   1.635
 7147SOL    HW222341   6.472   6.643   1.792
 7148SOL     OW22342   5.827   7.001   1.269
 7148SOL    HW122343   5.795   7.012   1.175
 7148SOL    HW222344   5.819   6.905   1.296
 7149SOL     OW22345   5.796   4.337   5.724
 7149SOL    HW122346   5.699   4.317   5.739
 7149SOL    HW222347   5.834   4.271   5.658
 7150SOL     OW22348   3.273   3.237   6.682
 7150SOL    HW122349   3.324   3.151   6.683
 7150SOL    HW222350   3.196   3.231   6.745
 7151SOL     OW22351   4.607   1.086   0.441
 7151SOL    HW122352   4.630   1.127   0.353
 7151SOL    HW222353   4.654   0.998   0.451
 7152SOL     OW22354   6.373   0.952   6.447
 7152SOL    HW122355   6.292   0.936   6.504
 7152SOL    HW222356   6.403   1.047   6.456
 7153SOL     OW22357   3.680   5.786   0.084
 7153SOL    HW122358   3.775   5.796   0.113
 7153SOL    HW222359   3.656   5.689   0.084
 7154SOL     OW22360   3.852   1.688   1.845
 7154SOL    HW122361   3.785   1.674   1.772
 7154SOL    HW222362   3.815   1.751   1.913
 7155SOL     OW22363   0.920   1.261   1.749
 7155SOL    HW122364   0.830   1.303   1.758
 7155SOL    HW222365   0.971   1.273   1.834
 7156SOL     OW22366   6.424   2.780   5.482
 7156SOL    HW122367   6.469   2.697   5.515
 7156SOL    HW222368   6.387   2.831   5.559
 7157SOL     OW22369   0.318   4.205   6.325
 7157SOL    HW122370   0.273   4.247   6.246
 7157SOL    HW222371   0.294   4.254   6.408
 7158SOL     OW22372   4.412   6.852   4.002
 7158SOL    HW122373   4.509   6.877   4.004
 7158SOL    HW222374   4.357   6.934   3.982
 7159SOL     OW22375   0.157   6.152   3.630
 7159SOL    HW122376   0.091   6.093   3.677
 7159SOL    HW222377   0.240   6.157   3.685
 7160SOL     OW22378   6.235   0.213   3.894
 7160SOL    HW122379   6.268   0.203   3.800
 7160SOL    HW222380   6.229   0.311   3.917
 7161SOL     OW22381   3.851   3.563   2.942
 7161SOL    HW122382   3.905   3.646   2.957
 7161SOL    HW222383   3.868   3.529   2.850
 7162SOL     OW22384   0.364   5.922   1.651
 7162SOL    HW122385   0.431   5.990   1.680
 7162SOL    HW222386   0.408   5.857   1.588
 7163SOL     OW22387   6.765   0.910   0.730
 7163SOL    HW122388   6.676   0.931   0.770
 7163SOL    HW222389   6.822   0.992   0.730
 7164SOL     OW22390   1.782   0.992   6.932
 7164SOL    HW122391   1.722   0.914   6.946
 7164SOL    HW222392   1.877   0.966   6.948
 7165SOL     OW22393   6.227   2.090   0.529
 7165SOL    HW122394   6.286   2.117   0.605
 7165SOL    HW222395   6.157   2.160   0.515
 7166SOL     OW22396   6.881   5.992   5.942
 7166SOL    HW122397   6.869   6.028   5.850
 7166SOL    HW222398   6.829   5.908   5.953
 7167SOL     OW22399   6.520   2.651   4.897
 7167SOL    HW122400   6.587   2.589   4.937
 7167SOL    HW222401   6.548   2.675   4.804
 7168SOL     OW22402   2.022   1.103   1.892
 7168SOL    HW122403   2.083   1.150   1.955
 7168SOL    HW222404   2.066   1.093   1.803
 7169SOL     OW22405   2.211   4.024   6.161
 7169SOL    HW122406   2.294   3.997   6.112
 7169SOL    HW222407   2.131   3.987   6.114
 7170SOL     OW22408   3.923   1.758   1.188
 7170SOL    HW122409   3.830   1.721   1.184
 7170SOL    HW222410   3.985   1.697   1.139
 7171SOL     OW22411   6.998   3.991   0.754
 7171SOL    HW122412   7.001   3.949   0.663
 7171SOL    HW222413   0.070   4.023   0.779
 7172SOL     OW22414   1.087   2.464   4.069
 7172SOL    HW122415   1.006   2.522   4.069
 7172SOL    HW222416   1.103   2.428   4.161
 7173SOL     OW22417   4.827   5.038   6.017
 7173SOL    HW122418   4.785   4.953   6.048
 7173SOL    HW222419   4.786   5.065   5.930
 7174SOL     OW22420   6.577   4.519   2.002
 7174SOL    HW122421   6.526   4.534   2.086
 7174SOL    HW222422   6.545   4.434   1.958
 7175SOL     OW22423   6.730   3.913   5.825
 7175SOL    HW122424   6.672   3.856   5.767
 7175SOL    HW222425   6.742   3.870   5.914
 7176SOL     OW22426   0.259   0.317   5.994
 7176SOL    HW122427   0.208   0.243   5.951
 7176SOL    HW222428   0.305   0.283   6.076
 7177SOL     OW22429   1.359   5.969   3.764
 7177SOL    HW122430   1.397   5.878   3.780
 7177SOL    HW222431   1.281   5.983   3.825
 7178SOL     OW22432   2.139   6.413   4.884
 7178SOL    HW122433   2.162   6.364   4.801
 7178SOL    HW222434   2.044   6.394   4.909
 7179SOL     OW22435   3.710   5.167   6.295
 7179SOL    HW122436   3.752   5.137   6.209
 7179SOL    HW222437   3.744   5.258   6.318
 7180SOL     OW22438   1.815   3.005   1.730
 7180SOL    HW122439   1.881   2.973   1.662
 7180SOL    HW222440   1.762   2.927   1.764
 7181SOL     OW22441   2.569   1.586   6.368
 7181SOL    HW122442   2.518   1.666   6.401
 7181SOL    HW222443   2.513   1.504   6.377
 7182SOL     OW22444   1.744   1.285   4.187
 7182SOL    HW122445   1.762   1.258   4.092
 7182SOL    HW222446   1.719   1.204   4.240
 7183SOL     OW22447   1.462   6.831   2.000
 7183SOL    HW122448   1.443   6.911   1.943
 7183SOL    HW222449   1.558   6.804   1.990
 7184SOL     OW22450   6.676   0.661   3.669
 7184SOL    HW122451   6.691   0.759   3.684
 7184SOL    HW222452   6.659   0.616   3.757
 7185SOL     OW22453   4.364   0.694   4.719
 7185SOL    HW122454   4.296   0.653   4.780
 7185SOL    HW222455   4.323   0.709   4.629
 7186SOL     OW22456   6.433   0.625   6.681
 7186SOL    HW122457   6.416   0.613   6.583
 7186SOL    HW222458   6.391   0.710   6.712
 7187SOL     OW22459   3.172   3.364   4.026
 7187SOL    HW122460   3.118   3.282   4.043
 7187SOL    HW222461   3.263   3.353   4.067
 7188SOL     OW22462   4.331   4.409   7.000
 7188SOL    HW122463   4.326   4.418   6.900
 7188SOL    HW222464   4.257   4.463   0.021
 7189SOL     OW22465   6.260   2.794   5.726
 7189SOL    HW122466   6.253   2.700   5.693
 7189SOL    HW222467   6.208   2.805   5.810
 7190SOL     OW22468   6.085   4.932   0.472
 7190SOL    HW122469   6.107   4.842   0.434
 7190SOL    HW222470   6.130   5.003   0.417
 7191SOL     OW22471   6.281   4.936   3.134
 7191SOL    HW122472   6.332   4.999   3.076
 7191SOL    HW222473   6.342   4.866   3.171
 7192SOL     OW22474   2.645   4.247   6.507
 7192SOL    HW122475   2.705   4.327   6.511
 7192SOL    HW222476   2.594   4.248   6.421
 7193SOL     OW22477   3.412   2.134   2.799
 7193SOL    HW122478   3.511   2.131   2.816
 7193SOL    HW222479   3.395   2.151   2.702
 7194SOL     OW22480   2.891   2.941   5.881
 7194SOL    HW122481   2.947   2.979   5.954
 7194SOL    HW222482   2.804   2.908   5.919
 7195SOL     OW22483   0.873   4.915   5.010
 7195SOL    HW122484   0.916   4.868   5.087
 7195SOL    HW222485   0.912   5.007   5.001
 7196SOL     OW22486   3.361   4.095   2.106
 7196SOL    HW122487   3.354   4.094   2.205
 7196SOL    HW222488   3.432   4.160   2.078
 7197SOL     OW22489   2.968   4.762   6.354
 7197SOL    HW122490   2.925   4.680   6.315
 7197SOL    HW222491   2.928   4.782   6.443
 7198SOL     OW22492   0.705   0.543   2.096
 7198SOL    HW122493   0.682   0.451   2.065
 7198SOL    HW222494   0.632   0.607   2.070
 7199SOL     OW22495   6.232   1.643   2.698
 7199SOL    HW122496   6.290   1.642   2.780
 7199SOL    HW222497   6.204   1.737   2.679
 7200SOL     OW22498   1.287   2.344   0.895
 7200SOL    HW122499   1.268   2.334   0.993
 7200SOL    HW222500   1.350   2.272   0.866
 7201SOL     OW22501   5.687   5.127   4.032
 7201SOL    HW122502   5.600   5.102   3.990
 7201SOL    HW222503   5.689   5.094   4.127
 7202SOL     OW22504   4.986   0.291   6.149
 7202SOL    HW122505   4.997   0.281   6.248
 7202SOL    HW222506   4.903   0.342   6.130
 7203SOL     OW22507   0.280   1.411   1.260
 7203SOL    HW122508   0.299   1.371   1.170
 7203SOL    HW222509   0.347   1.482   1.280
 7204SOL     OW22510   6.748   0.475   2.232
 7204SOL    HW122511   6.802   0.487   2.315
 7204SOL    HW222512   6.710   0.383   2.230
 7205SOL     OW22513   3.037   1.817   3.914
 7205SOL    HW122514   3.026   1.866   4.000
 7205SOL    HW222515   2.947   1.795   3.876
 7206SOL     OW22516   1.937   3.465   7.019
 7206SOL    HW122517   1.844   3.495   0.023
 7206SOL    HW222518   1.940   3.365   7.018
 7207SOL     OW22519   1.880   0.634   3.532
 7207SOL    HW122520   1.787   0.670   3.520
 7207SOL    HW222521   1.943   0.710   3.545
 7208SOL     OW22522   2.819   0.481   4.519
 7208SOL    HW122523   2.867   0.536   4.451
 7208SOL    HW222524   2.881   0.411   4.555
 7209SOL     OW22525   3.917   1.175   2.053
 7209SOL    HW122526   3.879   1.099   2.000
 7209SOL    HW222527   3.947   1.142   2.142
 7210SOL     OW22528   2.621   1.345   3.155
 7210SOL    HW122529   2.673   1.340   3.240
 7210SOL    HW222530   2.609   1.253   3.118
 7211SOL     OW22531   4.583   6.086   5.395
 7211SOL    HW122532   4.566   6.093   5.297
 7211SOL    HW222533   4.602   6.177   5.432
 7212SOL     OW22534   0.361   4.632   6.033
 7212SOL    HW122535   0.396   4.561   5.972
 7212SOL    HW222536   0.284   4.596   6.086
 7213SOL     OW22537   4.027   2.333   6.888
 7213SOL    HW122538   3.960   2.383   6.942
 7213SOL    HW222539   4.106   2.391   6.870
 7214SOL     OW22540   6.444   0.787   5.993
 7214SOL    HW122541   6.393   0.707   6.027
 7214SOL    HW222542   6.502   0.759   5.917
 7215SOL     OW22543   5.951   2.397   2.579
 7215SOL    HW122544   6.012   2.391   2.658
 7215SOL    HW222545   5.862   2.358   2.602
 7216SOL     OW22546   3.728   6.480   3.452
 7216SOL    HW122547   3.742   6.518   3.361
 7216SOL    HW222548   3.648   6.420   3.451
 7217SOL     OW22549   1.171   3.072   2.760
 7217SOL    HW122550   1.256   3.093   2.712
 7217SOL    HW222551   1.161   3.134   2.838
 7218SOL     OW22552   6.687   3.017   4.670
 7218SOL    HW122553   6.727   3.099   4.630
 7218SOL    HW222554   6.589   3.016   4.654
 7219SOL     OW22555   3.448   6.457   2.596
 7219SOL    HW122556   3.406   6.399   2.526
 7219SOL    HW222557   3.512   6.403   2.650
 7220SOL     OW22558   6.424   4.929   4.016
 7220SOL    HW122559   6.448   4.909   3.921
 7220SOL    HW222560   6.341   4.985   4.019
 7221SOL     OW22561   3.650   5.725   3.731
 7221SOL    HW122562   3.710   5.805   3.733
 7221SOL    HW222563   3.562   5.749   3.771
 7222SOL     OW22564   6.640   5.941   4.716
 7222SOL    HW122565   6.731   5.950   4.756
 7222SOL    HW222566   6.639   5.863   4.654
 7223SOL     OW22567   0.106   4.190   1.913
 7223SOL    HW122568   0.122   4.276   1.961
 7223SOL    HW222569   0.193   4.143   1.899
 7224SOL     OW22570   4.165   1.883   2.500
 7224SOL    HW122571   4.089   1.864   2.563
 7224SOL    HW222572   4.134   1.948   2.430
 7225SOL     OW22573   1.632   5.760   0.998
 7225SOL    HW122574   1.593   5.786   0.910
 7225SOL    HW222575   1.712   5.817   1.018
 7226SOL     OW22576   6.417   6.441   0.543
 7226SOL    HW122577   6.449   6.499   0.618
 7226SOL    HW222578   6.406   6.347   0.577
 7227SOL     OW22579   1.966   0.922   2.641
 7227SOL    HW122580   1.964   0.824   2.659
 7227SOL    HW222581   1.983   0.972   2.726
 7228SOL     OW22582   0.253   3.177   2.119
 7228SOL    HW122583   0.295   3.148   2.205
 7228SOL    HW222584   0.159   3.143   2.116
 7229SOL     OW22585   6.600   0.971   5.385
 7229SOL    HW122586   6.596   0.934   5.292
 7229SOL    HW222587   6.595   0.895   5.451
 7230SOL     OW22588   2.046   5.240   4.308
 7230SOL    HW122589   1.963   5.295   4.294
 7230SOL    HW222590   2.020   5.146   4.329
 7231SOL     OW22591   4.265   2.348   6.340
 7231SOL    HW122592   4.330   2.310   6.407
 7231SOL    HW222593   4.172   2.328   6.369
 7232SOL     OW22594   5.084   6.711   3.628
 7232SOL    HW122595   5.154   6.768   3.670
 7232SOL    HW222596   5.023   6.769   3.573
 7233SOL     OW22597   0.047   1.294   4.955
 7233SOL    HW122598   0.006   1.230   5.021
 7233SOL    HW222599   0.114   1.245   4.899
 7234SOL     OW22600   5.071   4.347   3.570
 7234SOL    HW122601   5.058   4.436   3.615
 7234SOL    HW222602   5.088   4.361   3.473
 7235SOL     OW22603   0.293   5.325   1.433
 7235SOL    HW122604   0.251   5.329   1.524
 7235SOL    HW222605   0.369   5.260   1.434
 7236SOL     OW22606   0.629   3.364   2.693
 7236SOL    HW122607   0.699   3.330   2.755
 7236SOL    HW222608   0.637   3.318   2.605
 7237SOL     OW22609   5.728   1.185   0.475
 7237SOL    HW122610   5.809   1.211   0.528
 7237SOL    HW222611   5.646   1.211   0.525
 7238SOL     OW22612   4.078   3.286   6.991
 7238SOL    HW122613   4.145   3.261   0.041
 7238SOL    HW222614   4.022   3.362   0.006
 7239SOL     OW22615   6.799   2.397   2.104
 7239SOL    HW122616   6.737   2.418   2.028
 7239SOL    HW222617   6.890   2.434   2.084
 7240SOL     OW22618   6.513   2.061   6.925
 7240SOL    HW122619   6.454   2.079   6.847
 7240SOL    HW222620   6.491   1.972   6.964
 7241SOL     OW22621   2.411   1.212   1.491
 7241SOL    HW122622   2.404   1.295   1.436
 7241SOL    HW222623   2.452   1.233   1.579
 7242SOL     OW22624   6.537   5.008   4.490
 7242SOL    HW122625   6.455   5.049   4.452
 7242SOL    HW222626   6.582   4.951   4.421
 7243SOL     OW22627   5.957   4.321   6.307
 7243SOL    HW122628   5.924   4.369   6.225
 7243SOL    HW222629   5.994   4.388   6.371
 7244SOL     OW22630   0.471   5.956   6.809
 7244SOL    HW122631   0.379   5.990   6.790
 7244SOL    HW222632   0.471   5.856   6.808
 7245SOL     OW22633   0.768   2.855   0.178
 7245SOL    HW122634   0.809   2.770   0.210
 7245SOL    HW222635   0.833   2.905   0.122
 7246SOL     OW22636   3.823   6.447   3.879
 7246SOL    HW122637   3.898   6.446   3.945
 7246SOL    HW222638   3.844   6.510   3.804
 7247SOL     OW22639   3.034   4.242   5.494
 7247SOL    HW122640   3.009   4.150   5.525
 7247SOL    HW222641   3.125   4.239   5.452
 7248SOL     OW22642   3.431   1.235   5.304
 7248SOL    HW122643   3.403   1.326   5.275
 7248SOL    HW222644   3.388   1.166   5.245
 7249SOL     OW22645   3.733   5.111   2.395
 7249SOL    HW122646   3.637   5.113   2.420
 7249SOL    HW222647   3.774   5.201   2.413
 7250SOL     OW22648   5.398   5.175   5.624
 7250SOL    HW122649   5.462   5.166   5.548
 7250SOL    HW222650   5.388   5.271   5.648
 7251SOL     OW22651   0.002   5.755   5.541
 7251SOL    HW122652   6.980   5.702   5.614
 7251SOL    HW222653   6.953   5.778   5.472
 7252SOL     OW22654   3.795   4.040   2.379
 7252SOL    HW122655   3.696   4.032   2.372
 7252SOL    HW222656   3.821   4.137   2.378
 7253SOL     OW22657   1.870   5.947   4.985
 7253SOL    HW122658   1.948   5.954   5.047
 7253SOL    HW222659   1.811   5.872   5.014
 7254SOL     OW22660   5.524   3.350   4.013
 7254SOL    HW122661   5.479   3.422   3.960
 7254SOL    HW222662   5.460   3.313   4.080
 7255SOL     OW22663   4.969   3.006   6.587
 7255SOL    HW122664   4.963   2.908   6.602
 7255SOL    HW222665   4.886   3.050   6.622
 7256SOL     OW22666   3.278   0.354   5.464
 7256SOL    HW122667   3.356   0.335   5.523
 7256SOL    HW222668   3.212   0.279   5.471
 7257SOL     OW22669   0.390   1.462   4.523
 7257SOL    HW122670   0.364   1.385   4.466
 7257SOL    HW222671   0.468   1.437   4.581
 7258SOL     OW22672   6.090   2.256   2.779
 7258SOL    HW122673   6.038   2.177   2.748
 7258SOL    HW222674   6.091   2.258   2.879
 7259SOL     OW22675   1.691   4.115   2.965
 7259SOL    HW122676   1.663   4.211   2.968
 7259SOL    HW222677   1.645   4.065   3.038
 7260SOL     OW22678   5.930   3.168   1.428
 7260SOL    HW122679   5.979   3.150   1.343
 7260SOL    HW222680   5.990   3.216   1.492
 7261SOL     OW22681   6.775   4.238   6.929
 7261SOL    HW122682   6.862   4.247   6.881
 7261SOL    HW222683   6.714   4.313   6.903
 7262SOL     OW22684   6.288   1.466   5.617
 7262SOL    HW122685   6.383   1.480   5.589
 7262SOL    HW222686   6.279   1.375   5.657
 7263SOL     OW22687   0.147   5.256   6.898
 7263SOL    HW122688   0.058   5.275   6.857
 7263SOL    HW222689   0.193   5.342   6.918
 7264SOL     OW22690   6.262   1.826   0.803
 7264SOL    HW122691   6.276   1.862   0.895
 7264SOL    HW222692   6.168   1.790   0.796
 7265SOL     OW22693   4.467   5.589   5.727
 7265SOL    HW122694   4.469   5.628   5.636
 7265SOL    HW222695   4.383   5.536   5.740
 7266SOL     OW22696   0.159   0.698   3.735
 7266SOL    HW122697   0.062   0.695   3.757
 7266SOL    HW222698   0.212   0.697   3.820
 7267SOL     OW22699   6.107   4.937   4.339
 7267SOL    HW122700   6.089   4.985   4.253
 7267SOL    HW222701   6.173   4.863   4.322
 7268SOL     OW22702   6.145   6.120   4.196
 7268SOL    HW122703   6.116   6.106   4.101
 7268SOL    HW222704   6.236   6.082   4.208
 7269SOL     OW22705   2.499   4.484   4.942
 7269SOL    HW122706   2.531   4.500   5.036
 7269SOL    HW222707   2.563   4.422   4.896
 7270SOL     OW22708   1.030   1.106   4.344
 7270SOL    HW122709   0.988   1.016   4.335
 7270SOL    HW222710   1.077   1.112   4.432
 7271SOL     OW22711   1.042   4.369   3.472
 7271SOL    HW122712   0.970   4.438   3.463
 7271SOL    HW222713   1.027   4.316   3.555
 7272SOL     OW22714   6.287   4.799   2.832
 7272SOL    HW122715   6.306   4.896   2.845
 7272SOL    HW222716   6.367   4.745   2.861
 7273SOL     OW22717   0.162   2.554   5.446
 7273SOL    HW122718   0.149   2.586   5.539
 7273SOL    HW222719   0.239   2.490   5.443
 7274SOL     OW22720   0.591   4.436   0.421
 7274SOL    HW122721   0.525   4.508   0.442
 7274SOL    HW222722   0.684   4.472   0.428
 7275SOL     OW22723   6.894   0.288   2.943
 7275SOL    HW122724   6.806   0.333   2.933
 7275SOL    HW222725   6.947   0.333   3.015
 7276SOL     OW22726   5.103   6.410   4.307
 7276SOL    HW122727   5.019   6.381   4.261
 7276SOL    HW222728   5.110   6.365   4.397
 7277SOL     OW22729   4.840   0.030   6.189
 7277SOL    HW122730   4.774   0.013   6.115
 7277SOL    HW222731   4.898   0.107   6.164
 7278SOL     OW22732   3.146   3.954   2.946
 7278SOL    HW122733   3.200   4.029   2.983
 7278SOL    HW222734   3.066   3.938   3.004
 7279SOL     OW22735   3.550   6.322   6.131
 7279SOL    HW122736   3.538   6.419   6.112
 7279SOL    HW222737   3.463   6.282   6.159
 7280SOL     OW22738   5.135   1.617   6.153
 7280SOL    HW122739   5.053   1.565   6.129
 7280SOL    HW222740   5.204   1.603   6.082
 7281SOL     OW22741   4.718   1.362   6.734
 7281SOL    HW122742   4.629   1.368   6.780
 7281SOL    HW222743   4.783   1.315   6.795
 7282SOL     OW22744   6.323   5.836   2.340
 7282SOL    HW122745   6.348   5.874   2.429
 7282SOL    HW222746   6.322   5.736   2.345
 7283SOL     OW22747   1.973   0.599   3.804
 7283SOL    HW122748   1.935   0.597   3.712
 7283SOL    HW222749   1.924   0.533   3.862
 7284SOL     OW22750   6.840   4.141   5.087
 7284SOL    HW122751   6.842   4.151   5.187
 7284SOL    HW222752   6.913   4.079   5.059
 7285SOL     OW22753   5.066   5.490   1.577
 7285SOL    HW122754   5.117   5.501   1.492
 7285SOL    HW222755   4.986   5.550   1.576
 7286SOL     OW22756   2.234   3.135   1.510
 7286SOL    HW122757   2.234   3.219   1.563
 7286SOL    HW222758   2.328   3.109   1.488
 7287SOL     OW22759   6.093   1.385   6.323
 7287SOL    HW122760   6.040   1.449   6.268
 7287SOL    HW222761   6.145   1.435   6.393
 7288SOL     OW22762   3.928   6.876   0.266
 7288SOL    HW122763   3.876   6.959   0.248
 7288SOL    HW222764   3.878   6.818   0.330
 7289SOL     OW22765   4.635   2.294   2.898
 7289SOL    HW122766   4.573   2.339   2.963
 7289SOL    HW222767   4.636   2.195   2.916
 7290SOL     OW22768   2.489   5.153   4.711
 7290SOL    HW122769   2.577   5.129   4.752
 7290SOL    HW222770   2.468   5.249   4.731
 7291SOL     OW22771   2.456   6.080   1.539
 7291SOL    HW122772   2.532   6.133   1.576
 7291SOL    HW222773   2.430   6.009   1.604
 7292SOL     OW22774   2.598   6.683   3.750
 7292SOL    HW122775   2.581   6.768   3.699
 7292SOL    HW222776   2.669   6.630   3.704
 7293SOL     OW22777   1.533   1.926   5.372
 7293SOL    HW122778   1.440   1.937   5.407
 7293SOL    HW222779   1.598   1.955   5.441
 7294SOL     OW22780   3.051   5.149   0.829
 7294SOL    HW122781   3.032   5.124   0.924
 7294SOL    HW222782   3.082   5.069   0.779
 7295SOL     OW22783   6.222   0.591   1.306
 7295SOL    HW122784   6.292   0.522   1.293
 7295SOL    HW222785   6.220   0.653   1.227
 7296SOL     OW22786   3.679   4.861   1.438
 7296SOL    HW122787   3.728   4.776   1.420
 7296SOL    HW222788   3.624   4.850   1.521
 7297SOL     OW22789   4.982   6.687   1.578
 7297SOL    HW122790   4.909   6.677   1.510
 7297SOL    HW222791   4.965   6.625   1.655
 7298SOL     OW22792   5.849   3.617   4.290
 7298SOL    HW122793   5.937   3.624   4.242
 7298SOL    HW222794   5.833   3.701   4.341
 7299SOL     OW22795   6.633   4.043   6.708
 7299SOL    HW122796   6.692   4.065   6.630
 7299SOL    HW222797   6.577   4.123   6.731
 7300SOL     OW22798   5.021   5.329   1.299
 7300SOL    HW122799   5.081   5.409   1.305
 7300SOL    HW222800   4.992   5.316   1.204
 7301SOL     OW22801   6.736   6.990   6.145
 7301SOL    HW122802   6.663   0.026   6.183
 7301SOL    HW222803   6.752   7.016   6.049
 7302SOL     OW22804   5.557   0.889   6.757
 7302SOL    HW122805   5.517   0.880   6.848
 7302SOL    HW222806   5.624   0.816   6.743
 7303SOL     OW22807   3.378   0.839   6.983
 7303SOL    HW122808   3.366   0.765   0.030
 7303SOL    HW222809   3.464   0.826   6.934
 7304SOL     OW22810   3.979   3.906   6.267
 7304SOL    HW122811   3.980   3.859   6.179
 7304SOL    HW222812   4.069   3.901   6.309
 7305SOL     OW22813   4.799   1.157   0.609
 7305SOL    HW122814   4.722   1.124   0.554
 7305SOL    HW222815   4.816   1.253   0.588
 7306SOL     OW22816   4.327   5.178   1.773
 7306SOL    HW122817   4.272   5.261   1.776
 7306SOL    HW222818   4.402   5.185   1.838
 7307SOL     OW22819   4.280   6.548   2.211
 7307SOL    HW122820   4.299   6.646   2.208
 7307SOL    HW222821   4.300   6.507   2.123
 7308SOL     OW22822   6.971   3.096   4.766
 7308SOL    HW122823   6.955   3.050   4.853
 7308SOL    HW222824   6.906   3.063   4.698
 7309SOL     OW22825   4.754   6.318   1.419
 7309SOL    HW122826   4.711   6.311   1.509
 7309SOL    HW222827   4.767   6.414   1.395
 7310SOL     OW22828   3.092   4.999   1.664
 7310SOL    HW122829   3.136   5.039   1.745
 7310SOL    HW222830   3.083   4.900   1.677
 7311SOL     OW22831   2.652   2.186   2.043
 7311SOL    HW122832   2.741   2.232   2.040
 7311SOL    HW222833   2.585   2.240   1.992
 7312SOL     OW22834   6.642   1.414   5.838
 7312SOL    HW122835   6.676   1.336   5.891
 7312SOL    HW222836   6.604   1.482   5.900
 7313SOL     OW22837   4.119   2.552   6.625
 7313SOL    HW122838   4.118   2.651   6.610
 7313SOL    HW222839   4.032   2.523   6.664
 7314SOL     OW22840   0.151   3.717   4.403
 7314SOL    HW122841   0.177   3.714   4.500
 7314SOL    HW222842   0.175   3.630   4.360
 7315SOL     OW22843   6.556   6.970   3.992
 7315SOL    HW122844   6.574   6.875   3.968
 7315SOL    HW222845   6.482   7.005   3.935
 7316SOL     OW22846   3.456   3.755   5.728
 7316SOL    HW122847   3.506   3.777   5.644
 7316SOL    HW222848   3.383   3.821   5.742
 7317SOL     OW22849   3.469   1.022   3.628
 7317SOL    HW122850   3.448   1.050   3.721
 7317SOL    HW222851   3.567   1.033   3.610
 7318SOL     OW22852   1.541   2.341   1.184
 7318SOL    HW122853   1.570   2.401   1.259
 7318SOL    HW222854   1.607   2.349   1.109
 7319SOL     OW22855   6.102   4.222   6.730
 7319SOL    HW122856   6.149   4.192   6.812
 7319SOL    HW222857   6.151   4.189   6.649
 7320SOL     OW22858   6.889   3.150   2.425
 7320SOL    HW122859   6.981   3.186   2.445
 7320SOL    HW222860   6.876   3.064   2.473
 7321SOL     OW22861   2.679   1.230   4.539
 7321SOL    HW122862   2.708   1.284   4.460
 7321SOL    HW222863   2.674   1.289   4.619
 7322SOL     OW22864   0.464   4.148   2.697
 7322SOL    HW122865   0.503   4.235   2.665
 7322SOL    HW222866   0.495   4.074   2.638
 7323SOL     OW22867   1.803   2.695   3.860
 7323SOL    HW122868   1.707   2.712   3.881
 7323SOL    HW222869   1.854   2.781   3.862
 7324SOL     OW22870   5.881   0.609   3.189
 7324SOL    HW122871   5.877   0.642   3.284
 7324SOL    HW222872   5.815   0.660   3.134
 7325SOL     OW22873   3.278   6.224   6.492
 7325SOL    HW122874   3.227   6.293   6.544
 7325SOL    HW222875   3.233   6.135   6.501
 7326SOL     OW22876   2.937   6.837   5.921
 7326SOL    HW122877   2.964   6.914   5.979
 7326SOL    HW222878   2.848   6.857   5.880
 7327SOL     OW22879   1.679   3.194   6.057
 7327SOL    HW122880   1.773   3.188   6.023
 7327SOL    HW222881   1.649   3.103   6.087
 7328SOL     OW22882   2.492   0.196   6.507
 7328SOL    HW122883   2.489   0.225   6.411
 7328SOL    HW222884   2.488   0.277   6.566
 7329SOL     OW22885   3.706   3.472   0.809
 7329SOL    HW122886   3.646   3.397   0.782
 7329SOL    HW222887   3.650   3.550   0.837
 7330SOL     OW22888   3.648   1.384   0.221
 7330SOL    HW122889   3.605   1.433   0.145
 7330SOL    HW222890   3.620   1.288   0.219
 7331SOL     OW22891   5.205   0.741   2.135
 7331SOL    HW122892   5.132   0.674   2.144
 7331SOL    HW222893   5.189   0.799   2.055
 7332SOL     OW22894   3.662   5.323   0.956
 7332SOL    HW122895   3.617   5.395   0.903
 7332SOL    HW222896   3.641   5.335   1.053
 7333SOL     OW22897   1.052   4.395   2.361
 7333SOL    HW122898   1.043   4.360   2.454
 7333SOL    HW222899   1.094   4.325   2.303
 7334SOL     OW22900   4.119   6.412   4.423
 7334SOL    HW122901   4.142   6.348   4.496
 7334SOL    HW222902   4.082   6.497   4.463
 7335SOL     OW22903   1.826   2.135   2.633
 7335SOL    HW122904   1.803   2.056   2.577
 7335SOL    HW222905   1.747   2.161   2.688
 7336SOL     OW22906   2.299   5.991   3.826
 7336SOL    HW122907   2.304   6.023   3.732
 7336SOL    HW222908   2.203   5.984   3.854
 7337SOL     OW22909   6.982   3.124   2.152
 7337SOL    HW122910   6.959   3.139   2.248
 7337SOL    HW222911   6.920   3.056   2.113
 7338SOL     OW22912   6.846   2.366   0.493
 7338SOL    HW122913   6.931   2.356   0.441
 7338SOL    HW222914   6.857   2.438   0.561
 7339SOL     OW22915   6.912   5.446   4.769
 7339SOL    HW122916   6.940   5.351   4.755
 7339SOL    HW222917   6.877   5.483   4.683
 7340SOL     OW22918   2.353   6.847   6.803
 7340SOL    HW122919   2.357   6.938   6.760
 7340SOL    HW222920   2.290   6.789   6.751
 7341SOL     OW22921   6.144   2.342   6.609
 7341SOL    HW122922   6.055   2.299   6.592
 7341SOL    HW222923   6.134   2.412   6.680
 7342SOL     OW22924   0.245   0.155   2.644
 7342SOL    HW122925   0.246   0.186   2.550
 7342SOL    HW222926   0.223   0.057   2.647
 7343SOL     OW22927   5.062   3.863   0.364
 7343SOL    HW122928   5.063   3.786   0.300
 7343SOL    HW222929   4.976   3.913   0.355
 7344SOL     OW22930   1.602   6.213   6.217
 7344SOL    HW122931   1.665   6.164   6.276
 7344SOL    HW222932   1.605   6.174   6.125
 7345SOL     OW22933   3.514   5.197   5.920
 7345SOL    HW122934   3.478   5.234   5.834
 7345SOL    HW222935   3.524   5.272   5.986
 7346SOL     OW22936   4.887   4.835   3.129
 7346SOL    HW122937   4.860   4.769   3.059
 7346SOL    HW222938   4.886   4.927   3.091
 7347SOL     OW22939   5.606   2.373   6.347
 7347SOL    HW122940   5.570   2.351   6.438
 7347SOL    HW222941   5.588   2.469   6.327
 7348SOL     OW22942   0.433   4.684   2.077
 7348SOL    HW122943   0.464   4.765   2.028
 7348SOL    HW222944   0.375   4.711   2.154
 7349SOL     OW22945   4.003   2.006   1.681
 7349SOL    HW122946   3.990   1.995   1.583
 7349SOL    HW222947   3.918   2.040   1.722
 7350SOL     OW22948   3.395   0.368   5.027
 7350SOL    HW122949   3.356   0.459   5.022
 7350SOL    HW222950   3.372   0.317   4.945
 7351SOL     OW22951   3.294   5.007   3.993
 7351SOL    HW122952   3.255   5.099   3.996
 7351SOL    HW222953   3.301   4.972   4.087
 7352SOL     OW22954   6.772   2.583   3.469
 7352SOL    HW122955   6.785   2.587   3.568
 7352SOL    HW222956   6.719   2.502   3.446
 7353SOL     OW22957   6.495   0.451   6.384
 7353SOL    HW122958   6.588   0.470   6.352
 7353SOL    HW222959   6.433   0.521   6.348
 7354SOL     OW22960   1.253   1.565   2.938
 7354SOL    HW122961   1.211   1.627   2.872
 7354SOL    HW222962   1.339   1.605   2.971
 7355SOL     OW22963   1.075   2.238   0.016
 7355SOL    HW122964   1.026   2.196   0.093
 7355SOL    HW222965   1.074   2.174   6.958
 7356SOL     OW22966   4.577   4.159   6.151
 7356SOL    HW122967   4.569   4.065   6.186
 7356SOL    HW222968   4.565   4.224   6.226
 7357SOL     OW22969   5.382   6.305   2.202
 7357SOL    HW122970   5.345   6.235   2.263
 7357SOL    HW222971   5.414   6.261   2.118
 7358SOL     OW22972   5.119   1.241   3.682
 7358SOL    HW122973   5.210   1.206   3.702
 7358SOL    HW222974   5.051   1.172   3.705
 7359SOL     OW22975   4.825   6.977   0.601
 7359SOL    HW122976   4.923   6.996   0.589
 7359SOL    HW222977   4.805   6.965   0.698
 7360SOL     OW22978   2.860   3.712   5.526
 7360SOL    HW122979   2.810   3.656   5.460
 7360SOL    HW222980   2.956   3.686   5.526
 7361SOL     OW22981   5.270   0.770   3.107
 7361SOL    HW122982   5.266   0.792   3.009
 7361SOL    HW222983   5.349   0.815   3.148
 7362SOL     OW22984   3.599   4.627   6.207
 7362SOL    HW122985   3.674   4.608   6.143
 7362SOL    HW222986   3.621   4.589   6.297
 7363SOL     OW22987   3.814   0.004   1.368
 7363SOL    HW122988   3.807   6.953   1.438
 7363SOL    HW222989   3.817   6.980   1.278
 7364SOL     OW22990   5.395   0.028   1.608
 7364SOL    HW122991   5.376   0.124   1.629
 7364SOL    HW222992   5.448   0.022   1.523
 7365SOL     OW22993   5.868   4.664   2.095
 7365SOL    HW122994   5.891   4.761   2.104
 7365SOL    HW222995   5.816   4.650   2.010
 7366SOL     OW22996   2.067   1.054   4.299
 7366SOL    HW122997   2.020   0.979   4.253
 7366SOL    HW222998   2.074   1.132   4.237
 7367SOL     OW22999   4.474   0.217   6.750
 7367SOL    HW123000   4.409   0.236   6.677
 7367SOL    HW223001   4.483   0.299   6.808
 7368SOL     OW23002   4.163   3.439   3.359
 7368SOL    HW123003   4.146   3.516   3.420
 7368SOL    HW223004   4.211   3.472   3.277
 7369SOL     OW23005   5.524   2.823   1.086
 7369SOL    HW123006   5.621   2.817   1.063
 7369SOL    HW223007   5.479   2.737   1.064
 7370SOL     OW23008   2.226   1.711   4.226
 7370SOL    HW123009   2.172   1.790   4.254
 7370SOL    HW223010   2.317   1.741   4.197
 7371SOL     OW23011   3.788   0.657   3.526
 7371SOL    HW123012   3.745   0.702   3.604
 7371SOL    HW223013   3.882   0.632   3.549
 7372SOL     OW23014   5.192   0.912   5.389
 7372SOL    HW123015   5.152   0.822   5.374
 7372SOL    HW223016   5.149   0.954   5.469
 7373SOL     OW23017   5.392   2.976   4.556
 7373SOL    HW123018   5.342   3.045   4.608
 7373SOL    HW223019   5.433   2.910   4.618
 7374SOL     OW23020   6.490   1.720   5.835
 7374SOL    HW123021   6.587   1.724   5.862
 7374SOL    HW223022   6.483   1.726   5.736
 7375SOL     OW23023   1.823   3.351   2.407
 7375SOL    HW123024   1.820   3.270   2.465
 7375SOL    HW223025   1.892   3.339   2.336
 7376SOL     OW23026   0.207   3.806   6.845
 7376SOL    HW123027   0.218   3.810   6.746
 7376SOL    HW223028   0.296   3.790   6.888
 7377SOL     OW23029   3.217   6.182   0.603
 7377SOL    HW123030   3.218   6.106   0.538
 7377SOL    HW223031   3.169   6.155   0.686
 7378SOL     OW23032   1.323   6.227   3.623
 7378SOL    HW123033   1.343   6.130   3.635
 7378SOL    HW223034   1.395   6.270   3.569
 7379SOL     OW23035   4.029   0.912   1.178
 7379SOL    HW123036   3.934   0.914   1.209
 7379SOL    HW223037   4.038   0.848   1.101
 7380SOL     OW23038   5.290   3.477   2.155
 7380SOL    HW123039   5.243   3.565   2.159
 7380SOL    HW223040   5.251   3.423   2.080
 7381SOL     OW23041   4.160   1.107   0.924
 7381SOL    HW123042   4.202   1.022   0.892
 7381SOL    HW223043   4.160   1.108   1.024
 7382SOL     OW23044   6.694   1.374   6.466
 7382SOL    HW123045   6.775   1.354   6.520
 7382SOL    HW223046   6.693   1.471   6.442
 7383SOL     OW23047   2.178   6.746   0.423
 7383SOL    HW123048   2.157   6.814   0.493
 7383SOL    HW223049   2.105   6.746   0.354
 7384SOL     OW23050   0.535   0.317   0.500
 7384SOL    HW123051   0.519   0.355   0.409
 7384SOL    HW223052   0.493   0.376   0.568
 7385SOL     OW23053   5.718   4.036   2.818
 7385SOL    HW123054   5.693   3.949   2.861
 7385SOL    HW223055   5.643   4.066   2.760
 7386SOL     OW23056   6.038   3.821   0.651
 7386SOL    HW123057   5.954   3.855   0.609
 7386SOL    HW223058   6.029   3.825   0.751
 7387SOL     OW23059   6.525   5.544   5.557
 7387SOL    HW123060   6.438   5.561   5.604
 7387SOL    HW223061   6.568   5.462   5.596
 7388SOL     OW23062   1.845   5.537   2.418
 7388SOL    HW123063   1.827   5.632   2.444
 7388SOL    HW223064   1.800   5.475   2.482
 7389SOL     OW23065   5.751   3.191   0.436
 7389SOL    HW123066   5.686   3.151   0.371
 7389SOL    HW223067   5.830   3.131   0.446
 7390SOL     OW23068   2.046   1.960   2.940
 7390SOL    HW123069   2.086   1.868   2.939
 7390SOL    HW223070   2.116   2.027   2.914
 7391SOL     OW23071   3.746   3.037   3.794
 7391SOL    HW123072   3.798   3.005   3.714
 7391SOL    HW223073   3.723   3.133   3.782
 7392SOL     OW23074   3.292   6.152   6.947
 7392SOL    HW123075   3.209   6.189   6.906
 7392SOL    HW223076   3.292   6.172   0.025
 7393SOL     OW23077   5.238   5.245   4.244
 7393SOL    HW123078   5.214   5.280   4.154
 7393SOL    HW223079   5.313   5.179   4.236
 7394SOL     OW23080   2.214   1.790   5.707
 7394SOL    HW123081   2.299   1.812   5.660
 7394SOL    HW223082   2.227   1.801   5.806
 7395SOL     OW23083   3.056   5.474   0.739
 7395SOL    HW123084   2.999   5.553   0.717
 7395SOL    HW223085   3.009   5.390   0.710
 7396SOL     OW23086   2.435   5.197   1.981
 7396SOL    HW123087   2.359   5.260   1.967
 7396SOL    HW223088   2.468   5.205   2.076
 7397SOL     OW23089   5.366   4.591   3.962
 7397SOL    HW123090   5.307   4.639   4.027
 7397SOL    HW223091   5.339   4.495   3.958
 7398SOL     OW23092   2.299   4.346   2.629
 7398SOL    HW123093   2.217   4.402   2.612
 7398SOL    HW223094   2.316   4.288   2.550
 7399SOL     OW23095   5.129   2.392   5.156
 7399SOL    HW123096   5.097   2.480   5.190
 7399SOL    HW223097   5.119   2.323   5.229
 7400SOL     OW23098   5.356   3.013   5.615
 7400SOL    HW123099   5.344   2.915   5.625
 7400SOL    HW223100   5.426   3.031   5.546
 7401SOL     OW23101   1.509   2.744   3.836
 7401SOL    HW123102   1.425   2.757   3.784
 7401SOL    HW223103   1.491   2.757   3.934
 7402SOL     OW23104   3.349   6.143   4.657
 7402SOL    HW123105   3.365   6.116   4.562
 7402SOL    HW223106   3.436   6.167   4.700
 7403SOL     OW23107   1.824   3.805   4.243
 7403SOL    HW123108   1.753   3.759   4.190
 7403SOL    HW223109   1.781   3.864   4.311
 7404SOL     OW23110   3.227   3.822   1.155
 7404SOL    HW123111   3.316   3.831   1.113
 7404SOL    HW223112   3.156   3.858   1.094
 7405SOL     OW23113   3.770   6.452   4.393
 7405SOL    HW123114   3.671   6.465   4.395
 7405SOL    HW223115   3.813   6.521   4.452
 7406SOL     OW23116   0.918   1.313   4.758
 7406SOL    HW123117   0.979   1.334   4.835
 7406SOL    HW223118   0.926   1.386   4.689
 7407SOL     OW23119   0.733   5.720   5.525
 7407SOL    HW123120   0.731   5.796   5.590
 7407SOL    HW223121   0.731   5.756   5.432
 7408SOL     OW23122   3.511   4.791   5.490
 7408SOL    HW123123   3.481   4.696   5.499
 7408SOL    HW223124   3.601   4.802   5.532
 7409SOL     OW23125   6.190   3.617   0.568
 7409SOL    HW123126   6.281   3.620   0.610
 7409SOL    HW223127   6.132   3.687   0.610
 7410SOL     OW23128   0.021   0.604   1.173
 7410SOL    HW123129   7.003   0.595   1.266
 7410SOL    HW223130   6.993   0.541   1.112
 7411SOL     OW23131   1.648   2.047   5.143
 7411SOL    HW123132   1.741   2.014   5.156
 7411SOL    HW223133   1.594   2.029   5.226
 7412SOL     OW23134   4.497   6.519   6.737
 7412SOL    HW123135   4.525   6.456   6.809
 7412SOL    HW223136   4.403   6.499   6.709
 7413SOL     OW23137   4.094   0.097   3.188
 7413SOL    HW123138   3.996   0.079   3.173
 7413SOL    HW223139   4.120   0.060   3.277
 7414SOL     OW23140   3.071   1.729   4.352
 7414SOL    HW123141   3.014   1.667   4.299
 7414SOL    HW223142   3.024   1.755   4.436
 7415SOL     OW23143   3.688   6.430   6.539
 7415SOL    HW123144   3.660   6.518   6.576
 7415SOL    HW223145   3.609   6.369   6.535
 7416SOL     OW23146   0.786   1.091   1.980
 7416SOL    HW123147   0.840   1.176   1.982
 7416SOL    HW223148   0.691   1.112   2.004
 7417SOL     OW23149   0.558   1.118   3.600
 7417SOL    HW123150   0.496   1.042   3.616
 7417SOL    HW223151   0.505   1.201   3.582
 7418SOL     OW23152   1.960   3.937   6.071
 7418SOL    HW123153   1.863   3.958   6.080
 7418SOL    HW223154   1.995   3.978   5.987
 7419SOL     OW23155   6.886   3.778   3.856
 7419SOL    HW123156   6.845   3.695   3.817
 7419SOL    HW223157   6.913   3.839   3.783
 7420SOL     OW23158   6.839   6.959   1.558
 7420SOL    HW123159   6.807   6.930   1.468
 7420SOL    HW223160   6.920   7.016   1.547
 7421SOL     OW23161   5.009   4.164   1.420
 7421SOL    HW123162   5.017   4.174   1.520
 7421SOL    HW223163   5.049   4.244   1.376
 7422SOL     OW23164   5.534   1.713   2.819
 7422SOL    HW123165   5.516   1.623   2.780
 7422SOL    HW223166   5.619   1.749   2.782
 7423SOL     OW23167   5.364   1.670   6.000
 7423SOL    HW123168   5.434   1.741   6.011
 7423SOL    HW223169   5.407   1.587   5.963
 7424SOL     OW23170   0.793   2.287   3.862
 7424SOL    HW123171   0.787   2.311   3.959
 7424SOL    HW223172   0.887   2.263   3.839
 7425SOL     OW23173   5.813   0.616   0.633
 7425SOL    HW123174   5.905   0.655   0.632
 7425SOL    HW223175   5.748   0.684   0.667
 7426SOL     OW23176   3.970   3.727   6.040
 7426SOL    HW123177   3.978   3.628   6.047
 7426SOL    HW223178   3.927   3.750   5.952
 7427SOL     OW23179   2.979   1.139   3.843
 7427SOL    HW123180   2.883   1.163   3.829
 7427SOL    HW223181   2.989   1.040   3.850
 7428SOL     OW23182   4.185   6.127   5.164
 7428SOL    HW123183   4.212   6.039   5.202
 7428SOL    HW223184   4.096   6.154   5.201
 7429SOL     OW23185   1.848   6.735   2.478
 7429SOL    HW123186   1.860   6.824   2.523
 7429SOL    HW223187   1.775   6.743   2.409
 7430SOL     OW23188   6.500   5.443   2.776
 7430SOL    HW123189   6.583   5.493   2.801
 7430SOL    HW223190   6.433   5.451   2.850
 7431SOL     OW23191   1.609   1.420   3.614
 7431SOL    HW123192   1.518   1.431   3.575
 7431SOL    HW223193   1.676   1.417   3.540
 7432SOL     OW23194   2.586   0.578   3.258
 7432SOL    HW123195   2.650   0.631   3.203
 7432SOL    HW223196   2.621   0.567   3.351
 7433SOL     OW23197   2.797   6.913   6.293
 7433SOL    HW123198   2.774   6.968   6.214
 7433SOL    HW223199   2.726   6.922   6.363
 7434SOL     OW23200   4.186   6.628   5.109
 7434SOL    HW123201   4.175   6.531   5.087
 7434SOL    HW223202   4.164   6.642   5.206
 7435SOL     OW23203   4.671   4.595   3.170
 7435SOL    HW123204   4.718   4.669   3.219
 7435SOL    HW223205   4.731   4.515   3.165
 7436SOL     OW23206   5.303   2.767   6.126
 7436SOL    HW123207   5.337   2.824   6.201
 7436SOL    HW223208   5.374   2.761   6.055
 7437SOL     OW23209   3.638   6.999   0.914
 7437SOL    HW123210   3.592   7.002   1.003
 7437SOL    HW223211   3.684   6.911   0.903
 7438SOL     OW23212   2.133   0.708   0.090
 7438SOL    HW123213   2.078   0.781   0.049
 7438SOL    HW223214   2.083   0.622   0.085
 7439SOL     OW23215   1.154   4.688   6.473
 7439SOL    HW123216   1.169   4.732   6.561
 7439SOL    HW223217   1.095   4.608   6.485
 7440SOL     OW23218   5.467   3.499   4.362
 7440SOL    HW123219   5.541   3.528   4.301
 7440SOL    HW223220   5.432   3.410   4.332
 7441SOL     OW23221   5.970   5.904   1.424
 7441SOL    HW123222   6.062   5.902   1.385
 7441SOL    HW223223   5.964   5.976   1.493
 7442SOL     OW23224   5.651   0.632   5.790
 7442SOL    HW123225   5.740   0.660   5.826
 7442SOL    HW223226   5.588   0.615   5.866
 7443SOL     OW23227   0.494   1.157   1.855
 7443SOL    HW123228   0.409   1.208   1.839
 7443SOL    HW223229   0.511   1.152   1.953
 7444SOL     OW23230   1.283   6.225   6.853
 7444SOL    HW123231   1.376   6.207   6.823
 7444SOL    HW223232   1.218   6.192   6.785
 7445SOL     OW23233   4.645   6.301   1.661
 7445SOL    HW123234   4.662   6.202   1.653
 7445SOL    HW223235   4.638   6.326   1.757
 7446SOL     OW23236   5.354   3.793   0.244
 7446SOL    HW123237   5.302   3.818   0.325
 7446SOL    HW223238   5.299   3.809   0.162
 7447SOL     OW23239   0.444   4.494   0.881
 7447SOL    HW123240   0.502   4.535   0.811
 7447SOL    HW223241   0.451   4.547   0.966
 7448SOL     OW23242   4.484   5.042   6.582
 7448SOL    HW123243   4.568   5.082   6.618
 7448SOL    HW223244   4.407   5.073   6.638
 7449SOL     OW23245   0.498   4.546   6.359
 7449SOL    HW123246   0.478   4.529   6.263
 7449SOL    HW223247   0.568   4.482   6.391
 7450SOL     OW23248   5.492   2.245   5.298
 7450SOL    HW123249   5.575   2.222   5.247
 7450SOL    HW223250   5.412   2.236   5.239
 7451SOL     OW23251   5.065   4.734   3.324
 7451SOL    HW123252   5.023   4.806   3.269
 7451SOL    HW223253   5.108   4.667   3.263
 7452SOL     OW23254   6.177   5.193   5.509
 7452SOL    HW123255   6.151   5.097   5.503
 7452SOL    HW223256   6.241   5.215   5.436
 7453SOL     OW23257   3.751   6.206   5.948
 7453SOL    HW123258   3.706   6.230   6.034
 7453SOL    HW223259   3.698   6.136   5.900
 7454SOL     OW23260   4.543   2.056   0.577
 7454SOL    HW123261   4.520   2.101   0.663
 7454SOL    HW223262   4.467   2.066   0.512
 7455SOL     OW23263   7.005   2.387   2.876
 7455SOL    HW123264   7.008   2.486   2.879
 7455SOL    HW223265   0.065   2.353   2.825
 7456SOL     OW23266   2.838   2.416   5.857
 7456SOL    HW123267   2.806   2.450   5.945
 7456SOL    HW223268   2.861   2.493   5.798
 7457SOL     OW23269   2.696   0.404   3.029
 7457SOL    HW123270   2.607   0.402   2.984
 7457SOL    HW223271   2.687   0.452   3.117
 7458SOL     OW23272   1.627   5.177   5.354
 7458SOL    HW123273   1.569   5.099   5.378
 7458SOL    HW223274   1.719   5.163   5.390
 7459SOL     OW23275   5.904   0.872   2.794
 7459SOL    HW123276   5.842   0.794   2.787
 7459SOL    HW223277   5.896   0.912   2.886
 7460SOL     OW23278   1.962   6.487   0.898
 7460SOL    HW123279   2.011   6.424   0.958
 7460SOL    HW223280   2.024   6.558   0.866
 7461SOL     OW23281   1.865   4.565   6.079
 7461SOL    HW123282   1.892   4.659   6.060
 7461SOL    HW223283   1.946   4.510   6.098
 7462SOL     OW23284   1.353   5.062   0.086
 7462SOL    HW123285   1.425   5.012   0.134
 7462SOL    HW223286   1.368   5.160   0.096
 7463SOL     OW23287   3.606   5.378   1.248
 7463SOL    HW123288   3.599   5.477   1.265
 7463SOL    HW223289   3.540   5.330   1.305
 7464SOL     OW23290   6.524   6.079   5.327
 7464SOL    HW123291   6.503   6.176   5.317
 7464SOL    HW223292   6.621   6.068   5.349
 7465SOL     OW23293   1.743   4.940   6.971
 7465SOL    HW123294   1.671   4.907   6.910
 7465SOL    HW223295   1.705   4.956   0.043
 7466SOL     OW23296   0.634   0.199   5.274
 7466SOL    HW123297   0.611   0.296   5.274
 7466SOL    HW223298   0.643   0.166   5.180
 7467SOL     OW23299   0.378   2.982   5.885
 7467SOL    HW123300   0.337   2.968   5.975
 7467SOL    HW223301   0.476   2.965   5.889
 7468SOL     OW23302   6.435   4.053   5.670
 7468SOL    HW123303   6.414   4.142   5.709
 7468SOL    HW223304   6.531   4.049   5.643
 7469SOL     OW23305   6.729   2.226   1.071
 7469SOL    HW123306   6.742   2.267   1.161
 7469SOL    HW223307   6.813   2.178   1.044
 7470SOL     OW23308   5.808   2.739   3.870
 7470SOL    HW123309   5.861   2.700   3.945
 7470SOL    HW223310   5.869   2.764   3.795
 7471SOL     OW23311   4.474   6.096   6.224
 7471SOL    HW123312   4.511   6.181   6.263
 7471SOL    HW223313   4.548   6.043   6.184
 7472SOL     OW23314   6.061   6.571   5.522
 7472SOL    HW123315   6.070   6.497   5.589
 7472SOL    HW223316   6.112   6.651   5.553
 7473SOL     OW23317   3.847   5.858   4.232
 7473SOL    HW123318   3.836   5.909   4.318
 7473SOL    HW223319   3.877   5.765   4.253
 7474SOL     OW23320   5.963   1.981   6.452
 7474SOL    HW123321   5.918   1.894   6.470
 7474SOL    HW223322   5.904   2.057   6.481
 7475SOL     OW23323   4.819   2.557   0.727
 7475SOL    HW123324   4.883   2.543   0.651
 7475SOL    HW223325   4.862   2.613   0.797
 7476SOL     OW23326   2.005   0.135   2.781
 7476SOL    HW123327   2.008   0.036   2.795
 7476SOL    HW223328   1.935   0.157   2.713
 7477SOL     OW23329   0.903   4.127   4.767
 7477SOL    HW123330   0.848   4.122   4.683
 7477SOL    HW223331   1.000   4.125   4.743
 7478SOL     OW23332   0.583   0.699   5.767
 7478SOL    HW123333   0.646   0.776   5.778
 7478SOL    HW223334   0.614   0.623   5.824
 7479SOL     OW23335   5.740   3.030   6.960
 7479SOL    HW123336   5.766   3.081   6.878
 7479SOL    HW223337   5.796   2.947   6.967
 7480SOL     OW23338   3.472   5.019   2.417
 7480SOL    HW123339   3.495   4.960   2.495
 7480SOL    HW223340   3.425   4.965   2.347
 7481SOL     OW23341   0.494   3.581   6.588
 7481SOL    HW123342   0.515   3.589   6.490
 7481SOL    HW223343   0.529   3.493   6.621
 7482SOL     OW23344   4.719   2.427   2.648
 7482SOL    HW123345   4.710   2.358   2.720
 7482SOL    HW223346   4.652   2.499   2.662
 7483SOL     OW23347   5.101   2.070   5.599
 7483SOL    HW123348   5.163   2.039   5.527
 7483SOL    HW223349   5.057   1.991   5.641
 7484SOL     OW23350   3.010   6.740   3.958
 7484SOL    HW123351   3.103   6.750   3.922
 7484SOL    HW223352   2.969   6.656   3.923
 7485SOL     OW23353   3.469   7.007   5.058
 7485SOL    HW123354   3.413   6.976   5.135
 7485SOL    HW223355   3.553   0.030   5.093
 7486SOL     OW23356   2.468   6.634   1.564
 7486SOL    HW123357   2.465   6.617   1.662
 7486SOL    HW223358   2.384   6.599   1.521
 7487SOL     OW23359   4.288   6.723   4.589
 7487SOL    HW123360   4.236   6.718   4.675
 7487SOL    HW223361   4.380   6.687   4.603
 7488SOL     OW23362   0.767   5.739   4.101
 7488SOL    HW123363   0.672   5.747   4.072
 7488SOL    HW223364   0.798   5.645   4.088
 7489SOL     OW23365   5.690   3.290   6.872
 7489SOL    HW123366   5.638   3.255   6.794
 7489SOL    HW223367   5.636   3.278   6.955
 7490SOL     OW23368   1.055   2.613   2.373
 7490SOL    HW123369   0.963   2.576   2.381
 7490SOL    HW223370   1.098   2.578   2.289
 7491SOL     OW23371   4.285   3.188   0.126
 7491SOL    HW123372   4.365   3.246   0.140
 7491SOL    HW223373   4.226   3.192   0.207
 7492SOL     OW23374   1.720   0.107   4.149
 7492SOL    HW123375   1.786   0.181   4.162
 7492SOL    HW223376   1.714   0.053   4.233
 7493SOL     OW23377   6.904   4.742   5.092
 7493SOL    HW123378   6.844   4.777   5.164
 7493SOL    HW223379   6.867   4.656   5.057
 7494SOL     OW23380   6.684   1.102   2.439
 7494SOL    HW123381   6.703   1.074   2.533
 7494SOL    HW223382   6.590   1.076   2.415
 7495SOL     OW23383   1.465   3.723   5.257
 7495SOL    HW123384   1.371   3.721   5.291
 7495SOL    HW223385   1.493   3.818   5.244
 7496SOL     OW23386   5.631   4.356   2.722
 7496SOL    HW123387   5.723   4.378   2.756
 7496SOL    HW223388   5.601   4.270   2.763
 7497SOL     OW23389   0.413   6.285   0.675
 7497SOL    HW123390   0.408   6.186   0.690
 7497SOL    HW223391   0.354   6.310   0.599
 7498SOL     OW23392   2.736   6.967   2.820
 7498SOL    HW123393   2.822   6.926   2.850
 7498SOL    HW223394   2.726   6.956   2.722
 7499SOL     OW23395   3.595   2.132   4.076
 7499SOL    HW123396   3.511   2.182   4.055
 7499SOL    HW223397   3.578   2.034   4.068
 7500SOL     OW23398   3.517   0.263   3.227
 7500SOL    HW123399   3.477   0.179   3.263
 7500SOL    HW223400   3.515   0.261   3.127
 7501SOL     OW23401   6.124   2.162   5.195
 7501SOL    HW123402   6.098   2.155   5.291
 7501SOL    HW223403   6.221   2.141   5.185
 7502SOL     OW23404   4.322   0.609   4.429
 7502SOL    HW123405   4.412   0.616   4.471
 7502SOL    HW223406   4.323   0.534   4.362
 7503SOL     OW23407   1.946   5.816   1.460
 7503SOL    HW123408   2.001   5.737   1.432
 7503SOL    HW223409   1.988   5.900   1.425
 7504SOL     OW23410   6.272   6.477   4.410
 7504SOL    HW123411   6.180   6.508   4.437
 7504SOL    HW223412   6.283   6.381   4.433
 7505SOL     OW23413   0.285   6.188   5.078
 7505SOL    HW123414   0.212   6.162   5.140
 7505SOL    HW223415   0.301   6.115   5.011
 7506SOL     OW23416   3.576   1.548   3.698
 7506SOL    HW123417   3.525   1.629   3.670
 7506SOL    HW223418   3.533   1.508   3.779
 7507SOL     OW23419   6.297   4.128   5.366
 7507SOL    HW123420   6.353   4.155   5.444
 7507SOL    HW223421   6.291   4.028   5.363
 7508SOL     OW23422   2.787   5.564   0.192
 7508SOL    HW123423   2.797   5.628   0.116
 7508SOL    HW223424   2.836   5.479   0.170
 7509SOL     OW23425   6.307   4.920   1.574
 7509SOL    HW123426   6.274   5.014   1.588
 7509SOL    HW223427   6.277   4.887   1.485
 7510SOL     OW23428   3.787   3.717   3.589
 7510SOL    HW123429   3.761   3.635   3.537
 7510SOL    HW223430   3.748   3.712   3.681
 7511SOL     OW23431   4.251   6.474   4.069
 7511SOL    HW123432   4.245   6.553   4.131
 7511SOL    HW223433   4.309   6.498   3.991
 7512SOL     OW23434   3.910   0.343   6.605
 7512SOL    HW123435   3.911   0.248   6.575
 7512SOL    HW223436   3.953   0.351   6.695
 7513SOL     OW23437   1.330   2.142   2.408
 7513SOL    HW123438   1.411   2.192   2.437
 7513SOL    HW223439   1.343   2.107   2.315
 7514SOL     OW23440   1.427   4.994   1.468
 7514SOL    HW123441   1.478   4.971   1.385
 7514SOL    HW223442   1.444   4.925   1.538
 7515SOL     OW23443   0.194   5.518   4.828
 7515SOL    HW123444   0.095   5.516   4.836
 7515SOL    HW223445   0.235   5.461   4.899
 7516SOL     OW23446   1.302   6.199   5.174
 7516SOL    HW123447   1.302   6.107   5.134
 7516SOL    HW223448   1.209   6.225   5.199
 7517SOL     OW23449   0.656   1.305   6.156
 7517SOL    HW123450   0.601   1.301   6.073
 7517SOL    HW223451   0.726   1.233   6.153
 7518SOL     OW23452   4.800   2.579   3.355
 7518SOL    HW123453   4.869   2.508   3.371
 7518SOL    HW223454   4.721   2.538   3.309
 7519SOL     OW23455   3.371   6.125   4.102
 7519SOL    HW123456   3.418   6.089   4.022
 7519SOL    HW223457   3.397   6.221   4.117
 7520SOL     OW23458   1.826   1.580   0.405
 7520SOL    HW123459   1.788   1.555   0.316
 7520SOL    HW223460   1.826   1.680   0.414
 7521SOL     OW23461   3.274   1.521   5.542
 7521SOL    HW123462   3.205   1.521   5.615
 7521SOL    HW223463   3.291   1.615   5.514
 7522SOL     OW23464   2.099   6.741   3.134
 7522SOL    HW123465   2.018   6.749   3.192
 7522SOL    HW223466   2.072   6.750   3.038
 7523SOL     OW23467   5.668   1.610   0.759
 7523SOL    HW123468   5.573   1.620   0.731
 7523SOL    HW223469   5.726   1.607   0.678
 7524SOL     OW23470   0.410   2.958   4.386
 7524SOL    HW123471   0.461   3.022   4.328
 7524SOL    HW223472   0.415   2.989   4.481
 7525SOL     OW23473   4.122   5.462   6.375
 7525SOL    HW123474   4.163   5.432   6.289
 7525SOL    HW223475   4.168   5.545   6.406
 7526SOL     OW23476   2.476   3.377   1.625
 7526SOL    HW123477   2.462   3.457   1.567
 7526SOL    HW223478   2.447   3.397   1.718
 7527SOL     OW23479   4.056   4.784   3.454
 7527SOL    HW123480   4.010   4.765   3.540
 7527SOL    HW223481   4.123   4.712   3.435
 7528SOL     OW23482   5.785   3.039   6.412
 7528SOL    HW123483   5.884   3.044   6.394
 7528SOL    HW223484   5.738   3.104   6.353
 7529SOL     OW23485   6.211   2.871   4.251
 7529SOL    HW123486   6.152   2.823   4.316
 7529SOL    HW223487   6.193   2.838   4.158
 7530SOL     OW23488   0.260   2.250   1.716
 7530SOL    HW123489   0.188   2.206   1.661
 7530SOL    HW223490   0.337   2.273   1.657
 7531SOL     OW23491   4.130   2.114   3.422
 7531SOL    HW123492   4.118   2.157   3.512
 7531SOL    HW223493   4.130   2.015   3.432
 7532SOL     OW23494   4.230   5.208   6.529
 7532SOL    HW123495   4.151   5.148   6.525
 7532SOL    HW223496   4.209   5.295   6.483
 7533SOL     OW23497   4.357   4.512   1.552
 7533SOL    HW123498   4.295   4.434   1.566
 7533SOL    HW223499   4.383   4.550   1.641
 7534SOL     OW23500   4.253   0.211   4.510
 7534SOL    HW123501   4.338   0.259   4.533
 7534SOL    HW223502   4.242   0.133   4.571
 7535SOL     OW23503   0.640   6.119   3.854
 7535SOL    HW123504   0.692   6.199   3.882
 7535SOL    HW223505   0.684   6.037   3.890
 7536SOL     OW23506   4.893   6.239   4.933
 7536SOL    HW123507   4.823   6.209   4.869
 7536SOL    HW223508   4.981   6.198   4.909
 7537SOL     OW23509   2.534   6.428   3.139
 7537SOL    HW123510   2.476   6.507   3.118
 7537SOL    HW223511   2.580   6.397   3.056
 7538SOL     OW23512   0.633   3.942   0.486
 7538SOL    HW123513   0.617   4.012   0.556
 7538SOL    HW223514   0.731   3.924   0.477
 7539SOL     OW23515   0.042   6.925   3.807
 7539SOL    HW123516   6.987   6.979   3.847
 7539SOL    HW223517   0.029   6.918   3.708
 7540SOL     OW23518   6.293   5.462   2.577
 7540SOL    HW123519   6.203   5.479   2.616
 7540SOL    HW223520   6.363   5.483   2.646
 7541SOL     OW23521   1.490   4.617   6.750
 7541SOL    HW123522   1.442   4.607   6.836
 7541SOL    HW223523   1.501   4.715   6.730
 7542SOL     OW23524   6.390   6.074   5.089
 7542SOL    HW123525   6.478   6.099   5.049
 7542SOL    HW223526   6.401   6.057   5.187
 7543SOL     OW23527   2.565   0.733   6.839
 7543SOL    HW123528   2.600   0.824   6.817
 7543SOL    HW223529   2.519   0.735   6.927
 7544SOL     OW23530   0.012   2.269   4.128
 7544SOL    HW123531   6.951   2.325   4.108
 7544SOL    HW223532   0.079   2.323   4.179
 7545SOL     OW23533   0.670   5.154   6.487
 7545SOL    HW123534   0.611   5.223   6.444
 7545SOL    HW223535   0.639   5.063   6.460
 7546SOL     OW23536   2.518   2.953   1.711
 7546SOL    HW123537   2.597   2.892   1.709
 7546SOL    HW223538   2.505   2.995   1.621
 7547SOL     OW23539   4.411   0.249   1.169
 7547SOL    HW123540   4.446   0.155   1.167
 7547SOL    HW223541   4.394   0.276   1.264
 7548SOL     OW23542   3.525   2.385   6.246
 7548SOL    HW123543   3.574   2.403   6.332
 7548SOL    HW223544   3.452   2.452   6.234
 7549SOL     OW23545   5.386   2.211   4.396
 7549SOL    HW123546   5.385   2.271   4.315
 7549SOL    HW223547   5.295   2.175   4.412
 7550SOL     OW23548   2.530   4.536   4.386
 7550SOL    HW123549   2.502   4.608   4.449
 7550SOL    HW223550   2.538   4.450   4.436
 7551SOL     OW23551   6.015   3.068   6.130
 7551SOL    HW123552   5.916   3.054   6.120
 7551SOL    HW223553   6.046   3.025   6.215
 7552SOL     OW23554   2.680   6.522   5.125
 7552SOL    HW123555   2.769   6.494   5.090
 7552SOL    HW223556   2.674   6.498   5.222
 7553SOL     OW23557   5.532   6.260   5.750
 7553SOL    HW123558   5.587   6.201   5.809
 7553SOL    HW223559   5.460   6.304   5.804
 7554SOL     OW23560   4.754   0.840   0.960
 7554SOL    HW123561   4.800   0.926   0.981
 7554SOL    HW223562   4.703   0.809   1.040
 7555SOL     OW23563   4.043   4.837   4.892
 7555SOL    HW123564   4.111   4.811   4.824
 7555SOL    HW223565   3.979   4.903   4.853
 7556SOL     OW23566   0.574   6.510   1.155
 7556SOL    HW123567   0.669   6.481   1.146
 7556SOL    HW223568   0.519   6.470   1.082
 7557SOL     OW23569   4.741   0.369   0.480
 7557SOL    HW123570   4.746   0.353   0.579
 7557SOL    HW223571   4.749   0.282   0.432
 7558SOL     OW23572   0.960   1.713   4.304
 7558SOL    HW123573   1.015   1.649   4.250
 7558SOL    HW223574   0.932   1.790   4.246
 7559SOL     OW23575   3.358   1.497   4.834
 7559SOL    HW123576   3.321   1.567   4.897
 7559SOL    HW223577   3.295   1.420   4.830
 7560SOL     OW23578   0.558   1.256   5.695
 7560SOL    HW123579   0.593   1.345   5.666
 7560SOL    HW223580   0.473   1.269   5.747
 7561SOL     OW23581   5.962   2.220   5.494
 7561SOL    HW123582   6.031   2.153   5.523
 7561SOL    HW223583   5.879   2.207   5.547
 7562SOL     OW23584   1.909   5.448   3.838
 7562SOL    HW123585   1.975   5.425   3.910
 7562SOL    HW223586   1.953   5.442   3.749
 7563SOL     OW23587   3.320   5.470   2.461
 7563SOL    HW123588   3.267   5.398   2.415
 7563SOL    HW223589   3.383   5.429   2.526
 7564SOL     OW23590   3.950   1.998   5.527
 7564SOL    HW123591   3.965   2.073   5.462
 7564SOL    HW223592   3.863   2.011   5.574
 7565SOL     OW23593   6.288   3.957   6.296
 7565SOL    HW123594   6.257   3.866   6.269
 7565SOL    HW223595   6.347   3.995   6.224
 7566SOL     OW23596   4.617   4.710   1.567
 7566SOL    HW123597   4.677   4.758   1.631
 7566SOL    HW223598   4.628   4.749   1.476
 7567SOL     OW23599   1.556   0.574   4.574
 7567SOL    HW123600   1.597   0.613   4.491
 7567SOL    HW223601   1.527   0.480   4.556
 7568SOL     OW23602   6.326   5.618   2.046
 7568SOL    HW123603   6.322   5.716   2.026
 7568SOL    HW223604   6.298   5.602   2.141
 7569SOL     OW23605   4.401   4.281   0.428
 7569SOL    HW123606   4.486   4.248   0.468
 7569SOL    HW223607   4.337   4.304   0.501
 7570SOL     OW23608   0.201   2.648   2.827
 7570SOL    HW123609   0.241   2.557   2.842
 7570SOL    HW223610   0.274   2.712   2.802
 7571SOL     OW23611   4.881   2.481   2.917
 7571SOL    HW123612   4.956   2.439   2.969
 7571SOL    HW223613   4.813   2.411   2.895
 7572SOL     OW23614   4.315   0.056   3.023
 7572SOL    HW123615   4.285   0.017   2.936
 7572SOL    HW223616   4.236   0.075   3.080
 7573SOL     OW23617   5.015   6.828   6.058
 7573SOL    HW123618   4.939   6.887   6.086
 7573SOL    HW223619   5.098   6.884   6.050
 7574SOL     OW23620   1.057   2.272   3.751
 7574SOL    HW123621   1.125   2.234   3.814
 7574SOL    HW223622   1.087   2.257   3.657
 7575SOL     OW23623   0.246   6.660   1.512
 7575SOL    HW123624   0.229   6.738   1.452
 7575SOL    HW223625   0.188   6.584   1.484
 7576SOL     OW23626   5.336   3.078   0.470
 7576SOL    HW123627   5.271   3.017   0.425
 7576SOL    HW223628   5.398   3.117   0.402
 7577SOL     OW23629   1.171   6.834   0.807
 7577SOL    HW123630   1.229   6.896   0.860
 7577SOL    HW223631   1.089   6.813   0.860
 7578SOL     OW23632   6.338   6.084   3.561
 7578SOL    HW123633   6.344   6.163   3.622
 7578SOL    HW223634   6.335   6.115   3.466
 7579SOL     OW23635   0.238   0.935   0.123
 7579SOL    HW123636   0.193   1.024   0.112
 7579SOL    HW223637   0.284   0.931   0.211
 7580SOL     OW23638   2.230   4.784   3.537
 7580SOL    HW123639   2.264   4.874   3.511
 7580SOL    HW223640   2.261   4.716   3.471
 7581SOL     OW23641   6.901   0.754   2.693
 7581SOL    HW123642   6.996   0.774   2.716
 7581SOL    HW223643   6.861   0.835   2.648
 7582SOL     OW23644   2.693   1.345   5.926
 7582SOL    HW123645   2.611   1.297   5.895
 7582SOL    HW223646   2.772   1.310   5.876
 7583SOL     OW23647   5.339   2.935   2.133
 7583SOL    HW123648   5.401   2.976   2.066
 7583SOL    HW223649   5.378   2.944   2.225
 7584SOL     OW23650   0.397   0.910   3.628
 7584SOL    HW123651   0.309   0.950   3.656
 7584SOL    HW223652   0.381   0.818   3.592
 7585SOL     OW23653   1.470   1.214   6.693
 7585SOL    HW123654   1.551   1.258   6.655
 7585SOL    HW223655   1.441   1.139   6.633
 7586SOL     OW23656   1.202   1.108   2.231
 7586SOL    HW123657   1.139   1.031   2.235
 7586SOL    HW223658   1.157   1.190   2.269
 7587SOL     OW23659   3.890   0.424   0.902
 7587SOL    HW123660   3.988   0.403   0.901
 7587SOL    HW223661   3.839   0.341   0.925
 7588SOL     OW23662   2.136   2.432   4.372
 7588SOL    HW123663   2.121   2.505   4.306
 7588SOL    HW223664   2.203   2.461   4.440
 7589SOL     OW23665   0.381   0.780   2.860
 7589SOL    HW123666   0.331   0.730   2.930
 7589SOL    HW223667   0.473   0.741   2.851
 7590SOL     OW23668   6.621   1.023   6.705
 7590SOL    HW123669   6.716   0.997   6.689
 7590SOL    HW223670   6.617   1.091   6.778
 7591SOL     OW23671   3.859   2.994   4.875
 7591SOL    HW123672   3.848   2.984   4.776
 7591SOL    HW223673   3.933   2.936   4.907
 7592SOL     OW23674   0.175   6.817   5.216
 7592SOL    HW123675   0.247   6.842   5.281
 7592SOL    HW223676   0.085   6.830   5.259
 7593SOL     OW23677   1.000   1.331   6.243
 7593SOL    HW123678   1.090   1.295   6.270
 7593SOL    HW223679   0.994   1.335   6.144
 7594SOL     OW23680   0.033   4.809   0.133
 7594SOL    HW123681   0.040   4.855   0.045
 7594SOL    HW223682   0.071   4.717   0.125
 7595SOL     OW23683   0.767   2.713   6.419
 7595SOL    HW123684   0.816   2.625   6.419
 7595SOL    HW223685   0.813   2.778   6.479
 7596SOL     OW23686   3.436   0.770   5.413
 7596SOL    HW123687   3.485   0.689   5.381
 7596SOL    HW223688   3.374   0.802   5.342
 7597SOL     OW23689   2.058   4.237   2.218
 7597SOL    HW123690   2.145   4.219   2.171
 7597SOL    HW223691   2.002   4.154   2.215
 7598SOL     OW23692   6.548   1.105   3.150
 7598SOL    HW123693   6.483   1.096   3.225
 7598SOL    HW223694   6.639   1.078   3.180
 7599SOL     OW23695   3.674   3.498   0.206
 7599SOL    HW123696   3.607   3.456   0.268
 7599SOL    HW223697   3.732   3.561   0.257
 7600SOL     OW23698   1.226   6.537   4.292
 7600SOL    HW123699   1.232   6.584   4.205
 7600SOL    HW223700   1.286   6.457   4.291
 7601SOL     OW23701   3.594   6.513   1.953
 7601SOL    HW123702   3.601   6.533   2.051
 7601SOL    HW223703   3.632   6.423   1.934
 7602SOL     OW23704   6.939   1.621   1.048
 7602SOL    HW123705   6.924   1.615   0.949
 7602SOL    HW223706   0.018   1.631   1.066
 7603SOL     OW23707   3.761   0.032   5.893
 7603SOL    HW123708   3.668   0.066   5.878
 7603SOL    HW223709   3.765   7.003   5.980
 7604SOL     OW23710   0.582   2.157   4.938
 7604SOL    HW123711   0.558   2.087   5.005
 7604SOL    HW223712   0.499   2.189   4.892
 7605SOL     OW23713   2.116   6.876   0.665
 7605SOL    HW123714   2.166   6.910   0.744
 7605SOL    HW223715   2.062   6.951   0.625
 7606SOL     OW23716   6.778   1.697   2.896
 7606SOL    HW123717   6.697   1.700   2.839
 7606SOL    HW223718   6.751   1.687   2.992
 7607SOL     OW23719   2.519   6.110   5.844
 7607SOL    HW123720   2.584   6.147   5.911
 7607SOL    HW223721   2.522   6.166   5.761
 7608SOL     OW23722   5.672   2.675   6.132
 7608SOL    HW123723   5.620   2.655   6.215
 7608SOL    HW223724   5.608   2.696   6.057
 7609SOL     OW23725   1.122   1.549   4.738
 7609SOL    HW123726   1.187   1.487   4.693
 7609SOL    HW223727   1.097   1.623   4.676
 7610SOL     OW23728   4.284   5.092   4.888
 7610SOL    HW123729   4.188   5.118   4.902
 7610SOL    HW223730   4.325   5.151   4.819
 7611SOL     OW23731   4.904   3.578   6.934
 7611SOL    HW123732   4.988   3.566   6.882
 7611SOL    HW223733   4.922   3.634   7.015
 7612SOL     OW23734   3.870   1.609   3.028
 7612SOL    HW123735   3.876   1.534   3.094
 7612SOL    HW223736   3.809   1.583   2.953
 7613SOL     OW23737   0.708   1.378   1.471
 7613SOL    HW123738   0.804   1.398   1.492
 7613SOL    HW223739   0.703   1.304   1.404
 7614SOL     OW23740   4.806   4.020   0.336
 7614SOL    HW123741   4.831   4.036   0.240
 7614SOL    HW223742   4.709   3.996   0.341
 7615SOL     OW23743   5.702   3.362   5.026
 7615SOL    HW123744   5.767   3.363   5.102
 7615SOL    HW223745   5.751   3.340   4.941
 7616SOL     OW23746   6.110   0.315   3.397
 7616SOL    HW123747   6.084   0.230   3.443
 7616SOL    HW223748   6.200   0.304   3.356
 7617SOL     OW23749   5.786   4.689   3.961
 7617SOL    HW123750   5.728   4.657   3.886
 7617SOL    HW223751   5.728   4.719   4.037
 7618SOL     OW23752   2.737   2.507   0.440
 7618SOL    HW123753   2.770   2.487   0.347
 7618SOL    HW223754   2.699   2.424   0.481
 7619SOL     OW23755   1.033   1.802   4.541
 7619SOL    HW123756   1.002   1.767   4.453
 7619SOL    HW223757   1.095   1.879   4.526
 7620SOL     OW23758   3.803   4.608   1.418
 7620SOL    HW123759   3.836   4.549   1.344
 7620SOL    HW223760   3.743   4.556   1.478
 7621SOL     OW23761   6.290   4.553   7.001
 7621SOL    HW123762   6.311   4.533   0.077
 7621SOL    HW223763   6.199   4.518   6.979
 7622SOL     OW23764   3.274   3.550   1.216
 7622SOL    HW123765   3.366   3.562   1.254
 7622SOL    HW223766   3.222   3.634   1.225
 7623SOL     OW23767   4.753   4.504   1.139
 7623SOL    HW123768   4.744   4.497   1.239
 7623SOL    HW223769   4.685   4.444   1.096
 7624SOL     OW23770   0.898   3.117   2.629
 7624SOL    HW123771   0.990   3.089   2.653
 7624SOL    HW223772   0.842   3.124   2.712
 7625SOL     OW23773   5.376   0.850   1.086
 7625SOL    HW123774   5.457   0.864   1.029
 7625SOL    HW223775   5.303   0.911   1.055
 7626SOL     OW23776   4.298   0.894   5.975
 7626SOL    HW123777   4.324   0.923   6.067
 7626SOL    HW223778   4.284   0.975   5.917
 7627SOL     OW23779   4.570   1.963   6.723
 7627SOL    HW123780   4.479   2.002   6.737
 7627SOL    HW223781   4.637   2.016   6.774
 7628SOL     OW23782   3.330   2.615   0.459
 7628SOL    HW123783   3.397   2.632   0.387
 7628SOL    HW223784   3.279   2.531   0.437
 7629SOL     OW23785   6.159   2.731   3.587
 7629SOL    HW123786   6.239   2.774   3.629
 7629SOL    HW223787   6.187   2.651   3.536
 7630SOL     OW23788   0.874   6.328   4.965
 7630SOL    HW123789   0.955   6.273   4.943
 7630SOL    HW223790   0.826   6.352   4.881
 7631SOL     OW23791   1.113   0.631   5.911
 7631SOL    HW123792   1.144   0.596   5.999
 7631SOL    HW223793   1.139   0.567   5.839
 7632SOL     OW23794   4.690   5.715   0.585
 7632SOL    HW123795   4.713   5.751   0.676
 7632SOL    HW223796   4.597   5.742   0.561
 7633SOL     OW23797   6.514   0.920   1.155
 7633SOL    HW123798   6.453   0.974   1.212
 7633SOL    HW223799   6.554   0.846   1.209
 7634SOL     OW23800   6.941   2.568   0.255
 7634SOL    HW123801   6.971   2.472   0.257
 7634SOL    HW223802   6.863   2.580   0.317
 7635SOL     OW23803   2.394   3.875   5.637
 7635SOL    HW123804   2.447   3.813   5.695
 7635SOL    HW223805   2.304   3.835   5.620
 7636SOL     OW23806   6.930   4.216   4.396
 7636SOL    HW123807   6.971   4.138   4.443
 7636SOL    HW223808   6.938   4.201   4.297
 7637SOL     OW23809   1.126   6.282   4.542
 7637SOL    HW123810   1.211   6.325   4.570
 7637SOL    HW223811   1.051   6.314   4.600
 7638SOL     OW23812   0.346   6.273   1.387
 7638SOL    HW123813   0.438   6.303   1.412
 7638SOL    HW223814   0.280   6.345   1.408
 7639SOL     OW23815   1.553   0.901   6.663
 7639SOL    HW123816   1.543   0.808   6.629
 7639SOL    HW223817   1.642   0.937   6.636
 7640SOL     OW23818   3.341   1.154   0.589
 7640SOL    HW123819   3.373   1.194   0.675
 7640SOL    HW223820   3.414   1.098   0.550
 7641SOL     OW23821   0.722   4.266   3.452
 7641SOL    HW123822   0.792   4.280   3.522
 7641SOL    HW223823   0.766   4.260   3.362
 7642SOL     OW23824   5.956   1.206   3.305
 7642SOL    HW123825   5.944   1.268   3.382
 7642SOL    HW223826   5.976   1.259   3.223
 7643SOL     OW23827   5.362   3.502   3.433
 7643SOL    HW123828   5.426   3.492   3.509
 7643SOL    HW223829   5.356   3.415   3.383
 7644SOL     OW23830   5.539   4.008   1.118
 7644SOL    HW123831   5.589   3.947   1.057
 7644SOL    HW223832   5.529   3.966   1.207
 7645SOL     OW23833   3.498   4.563   5.865
 7645SOL    HW123834   3.582   4.523   5.830
 7645SOL    HW223835   3.514   4.601   5.957
 7646SOL     OW23836   6.432   1.955   1.045
 7646SOL    HW123837   6.416   2.005   1.130
 7646SOL    HW223838   6.388   1.866   1.049
 7647SOL     OW23839   6.683   2.438   4.963
 7647SOL    HW123840   6.625   2.363   4.930
 7647SOL    HW223841   6.769   2.438   4.912
 7648SOL     OW23842   3.043   1.579   1.835
 7648SOL    HW123843   3.043   1.513   1.910
 7648SOL    HW223844   3.085   1.664   1.864
 7649SOL     OW23845   4.257   1.153   5.843
 7649SOL    HW123846   4.357   1.152   5.843
 7649SOL    HW223847   4.225   1.244   5.866
 7650SOL     OW23848   3.770   2.646   0.414
 7650SOL    HW123849   3.776   2.620   0.511
 7650SOL    HW223850   3.830   2.724   0.396
 7651SOL     OW23851   3.129   4.680   6.049
 7651SOL    HW123852   3.150   4.595   6.002
 7651SOL    HW223853   3.122   4.755   5.983
 7652SOL     OW23854   0.791   0.851   4.074
 7652SOL    HW123855   0.768   0.939   4.032
 7652SOL    HW223856   0.710   0.793   4.076
 7653SOL     OW23857   1.409   1.349   6.244
 7653SOL    HW123858   1.492   1.400   6.267
 7653SOL    HW223859   1.334   1.377   6.303
 7654SOL     OW23860   5.440   2.018   6.351
 7654SOL    HW123861   5.374   2.092   6.367
 7654SOL    HW223862   5.530   2.057   6.331
 7655SOL     OW23863   3.201   1.452   3.182
 7655SOL    HW123864   3.199   1.359   3.143
 7655SOL    HW223865   3.109   1.476   3.212
 7656SOL     OW23866   6.738   3.122   6.593
 7656SOL    HW123867   6.758   3.083   6.504
 7656SOL    HW223868   6.686   3.056   6.648
 7657SOL     OW23869   0.883   4.113   4.340
 7657SOL    HW123870   0.901   4.189   4.278
 7657SOL    HW223871   0.969   4.087   4.384
 7658SOL     OW23872   2.544   1.230   1.151
 7658SOL    HW123873   2.632   1.277   1.163
 7658SOL    HW223874   2.560   1.132   1.144
 7659SOL     OW23875   4.968   3.935   5.754
 7659SOL    HW123876   4.922   3.920   5.666
 7659SOL    HW223877   4.993   3.847   5.793
 7660SOL     OW23878   6.649   5.639   4.717
 7660SOL    HW123879   6.624   5.545   4.695
 7660SOL    HW223880   6.700   5.642   4.802
 7661SOL     OW23881   4.459   1.862   5.579
 7661SOL    HW123882   4.370   1.905   5.594
 7661SOL    HW223883   4.502   1.901   5.498
 7662SOL     OW23884   6.042   0.135   1.246
 7662SOL    HW123885   5.973   0.064   1.259
 7662SOL    HW223886   6.084   0.158   1.334
 7663SOL     OW23887   0.481   5.796   5.794
 7663SOL    HW123888   0.398   5.843   5.764
 7663SOL    HW223889   0.561   5.845   5.761
 7664SOL     OW23890   3.910   2.125   1.947
 7664SOL    HW123891   3.831   2.185   1.935
 7664SOL    HW223892   3.958   2.150   2.031
 7665SOL     OW23893   4.190   0.342   5.855
 7665SOL    HW123894   4.207   0.395   5.771
 7665SOL    HW223895   4.094   0.314   5.858
 7666SOL     OW23896   5.288   4.763   3.524
 7666SOL    HW123897   5.327   4.853   3.539
 7666SOL    HW223898   5.203   4.771   3.471
 7667SOL     OW23899   3.988   5.779   1.858
 7667SOL    HW123900   3.940   5.773   1.771
 7667SOL    HW223901   3.965   5.699   1.915
 7668SOL     OW23902   2.231   5.959   0.615
 7668SOL    HW123903   2.243   6.030   0.685
 7668SOL    HW223904   2.235   5.869   0.659
 7669SOL     OW23905   2.105   1.177   5.895
 7669SOL    HW123906   2.008   1.155   5.901
 7669SOL    HW223907   2.155   1.125   5.965
 7670SOL     OW23908   0.763   6.803   0.692
 7670SOL    HW123909   0.745   6.712   0.729
 7670SOL    HW223910   0.858   6.807   0.660
 7671SOL     OW23911   3.326   0.299   1.240
 7671SOL    HW123912   3.313   0.212   1.193
 7671SOL    HW223913   3.406   0.346   1.200
 7672SOL     OW23914   4.848   5.077   2.990
 7672SOL    HW123915   4.886   5.005   2.932
 7672SOL    HW223916   4.752   5.058   3.008
 7673SOL     OW23917   1.530   6.079   4.164
 7673SOL    HW123918   1.561   6.158   4.111
 7673SOL    HW223919   1.534   6.102   4.262
 7674SOL     OW23920   4.851   6.109   4.434
 7674SOL    HW123921   4.927   6.046   4.446
 7674SOL    HW223922   4.783   6.068   4.373
 7675SOL     OW23923   5.108   6.493   3.416
 7675SOL    HW123924   5.088   6.523   3.509
 7675SOL    HW223925   5.167   6.413   3.419
 7676SOL     OW23926   3.549   3.063   5.762
 7676SOL    HW123927   3.484   3.095   5.830
 7676SOL    HW223928   3.513   3.080   5.670
 7677SOL     OW23929   6.312   4.725   0.460
 7677SOL    HW123930   6.363   4.766   0.536
 7677SOL    HW223931   6.227   4.687   0.494
 7678SOL     OW23932   1.615   1.111   4.803
 7678SOL    HW123933   1.528   1.101   4.756
 7678SOL    HW223934   1.640   1.208   4.807
 7679SOL     OW23935   3.497   5.551   5.237
 7679SOL    HW123936   3.468   5.457   5.216
 7679SOL    HW223937   3.418   5.612   5.235
 7680SOL     OW23938   2.199   0.030   4.835
 7680SOL    HW123939   2.152   0.074   4.911
 7680SOL    HW223940   2.271   0.090   4.801
 7681SOL     OW23941   2.758   3.632   6.496
 7681SOL    HW123942   2.704   3.550   6.476
 7681SOL    HW223943   2.704   3.695   6.551
 7682SOL     OW23944   2.851   1.549   2.749
 7682SOL    HW123945   2.869   1.613   2.674
 7682SOL    HW223946   2.924   1.554   2.816
 7683SOL     OW23947   0.459   5.645   4.234
 7683SOL    HW123948   0.470   5.682   4.141
 7683SOL    HW223949   0.496   5.710   4.300
 7684SOL     OW23950   4.441   3.089   1.190
 7684SOL    HW123951   4.347   3.075   1.159
 7684SOL    HW223952   4.452   3.051   1.282
 7685SOL     OW23953   2.554   0.618   0.225
 7685SOL    HW123954   2.510   0.696   0.179
 7685SOL    HW223955   2.487   0.544   0.235
 7686SOL     OW23956   6.308   7.000   4.854
 7686SOL    HW123957   6.337   6.904   4.850
 7686SOL    HW223958   6.238   7.011   4.925
 7687SOL     OW23959   5.948   4.551   5.814
 7687SOL    HW123960   5.886   4.584   5.885
 7687SOL    HW223961   5.903   4.477   5.763
 7688SOL     OW23962   0.622   4.172   6.228
 7688SOL    HW123963   0.643   4.075   6.214
 7688SOL    HW223964   0.529   4.181   6.265
 7689SOL     OW23965   4.488   0.503   1.357
 7689SOL    HW123966   4.435   0.524   1.275
 7689SOL    HW223967   4.437   0.532   1.438
 7690SOL     OW23968   5.711   5.563   1.443
 7690SOL    HW123969   5.749   5.471   1.432
 7690SOL    HW223970   5.768   5.615   1.506
 7691SOL     OW23971   4.782   4.114   3.259
 7691SOL    HW123972   4.841   4.056   3.203
 7691SOL    HW223973   4.801   4.096   3.356
 7692SOL     OW23974   2.498   0.098   2.911
 7692SOL    HW123975   2.583   0.044   2.904
 7692SOL    HW223976   2.481   0.144   2.824
 7693SOL     OW23977   2.221   1.055   1.262
 7693SOL    HW123978   2.312   1.096   1.272
 7693SOL    HW223979   2.158   1.123   1.223
 7694SOL     OW23980   5.100   1.634   5.468
 7694SOL    HW123981   5.156   1.662   5.546
 7694SOL    HW223982   5.104   1.535   5.457
 7695SOL     OW23983   4.610   0.101   3.713
 7695SOL    HW123984   4.570   0.010   3.719
 7695SOL    HW223985   4.633   0.133   3.805
 7696SOL     OW23986   1.767   2.978   5.645
 7696SOL    HW123987   1.730   3.060   5.689
 7696SOL    HW223988   1.774   2.905   5.713
 7697SOL     OW23989   4.885   0.019   3.107
 7697SOL    HW123990   4.978   0.051   3.087
 7697SOL    HW223991   4.819   0.079   3.063
 7698SOL     OW23992   6.274   2.714   1.143
 7698SOL    HW123993   6.347   2.755   1.088
 7698SOL    HW223994   6.225   2.786   1.192
 7699SOL     OW23995   4.780   5.791   6.171
 7699SOL    HW123996   4.814   5.805   6.264
 7699SOL    HW223997   4.768   5.693   6.155
 7700SOL     OW23998   5.240   6.519   2.586
 7700SOL    HW123999   5.151   6.504   2.543
 7700SOL    HW224000   5.248   6.615   2.614
 7701SOL     OW24001   1.257   2.301   6.377
 7701SOL    HW124002   1.267   2.361   6.456
 7701SOL    HW224003   1.289   2.209   6.400
 7702SOL     OW24004   4.543   6.891   4.556
 7702SOL    HW124005   4.446   6.868   4.556
 7702SOL    HW224006   4.558   6.971   4.498
 7703SOL     OW24007   6.256   0.111   5.206
 7703SOL    HW124008   6.179   0.094   5.144
 7703SOL    HW224009   6.336   0.140   5.153
 7704SOL     OW24010   0.209   1.473   5.075
 7704SOL    HW124011   0.140   1.407   5.046
 7704SOL    HW224012   0.296   1.427   5.088
 7705SOL     OW24013   0.887   5.228   6.323
 7705SOL    HW124014   0.825   5.255   6.249
 7705SOL    HW224015   0.833   5.209   6.405
 7706SOL     OW24016   3.197   2.852   2.187
 7706SOL    HW124017   3.171   2.898   2.102
 7706SOL    HW224018   3.144   2.768   2.198
 7707SOL     OW24019   6.999   4.106   6.596
 7707SOL    HW124020   6.945   4.127   6.515
 7707SOL    HW224021   6.991   4.009   6.617
 7708SOL     OW24022   2.235   0.312   4.577
 7708SOL    HW124023   2.305   0.320   4.648
 7708SOL    HW224024   2.278   0.318   4.487
 7709SOL     OW24025   0.120   4.514   1.618
 7709SOL    HW124026   0.034   4.467   1.599
 7709SOL    HW224027   0.184   4.501   1.543
 7710SOL     OW24028   0.032   3.039   1.407
 7710SOL    HW124029   6.984   2.967   1.394
 7710SOL    HW224030   0.005   3.121   1.357
 7711SOL     OW24031   0.022   4.658   4.706
 7711SOL    HW124032   6.969   4.590   4.720
 7711SOL    HW224033   7.004   4.749   4.722
 7712SOL     OW24034   0.297   5.161   5.597
 7712SOL    HW124035   0.394   5.142   5.580
 7712SOL    HW224036   0.248   5.164   5.510
 7713SOL     OW24037   1.511   4.309   6.918
 7713SOL    HW124038   1.511   4.399   6.961
 7713SOL    HW224039   1.486   4.318   6.822
 7714SOL     OW24040   6.346   1.442   4.890
 7714SOL    HW124041   6.259   1.416   4.933
 7714SOL    HW224042   6.358   1.389   4.807
 7715SOL     OW24043   3.668   3.307   5.480
 7715SOL    HW124044   3.700   3.320   5.574
 7715SOL    HW224045   3.616   3.222   5.474
 7716SOL     OW24046   1.347   6.478   6.354
 7716SOL    HW124047   1.326   6.426   6.272
 7716SOL    HW224048   1.293   6.442   6.431
 7717SOL     OW24049   6.966   2.044   6.454
 7717SOL    HW124050   0.019   2.014   6.516
 7717SOL    HW224051   7.005   2.071   6.366
 7718SOL     OW24052   1.046   3.499   3.078
 7718SOL    HW124053   1.045   3.590   3.120
 7718SOL    HW224054   1.078   3.431   3.144
 7719SOL     OW24055   1.970   4.940   4.650
 7719SOL    HW124056   2.006   4.908   4.562
 7719SOL    HW224057   2.046   4.973   4.706
 7720SOL     OW24058   4.379   0.962   6.947
 7720SOL    HW124059   4.470   0.946   6.983
 7720SOL    HW224060   4.332   1.030   7.003
 7721SOL     OW24061   0.223   0.581   2.634
 7721SOL    HW124062   0.178   0.653   2.582
 7721SOL    HW224063   0.157   0.510   2.657
 7722SOL     OW24064   0.821   5.935   3.931
 7722SOL    HW124065   0.814   5.847   3.978
 7722SOL    HW224066   0.911   5.975   3.948
 7723SOL     OW24067   4.838   4.146   0.068
 7723SOL    HW124068   4.900   4.205   0.017
 7723SOL    HW224069   4.746   4.186   0.069
 7724SOL     OW24070   2.040   3.511   1.490
 7724SOL    HW124071   1.966   3.536   1.552
 7724SOL    HW224072   2.113   3.465   1.542
 7725SOL     OW24073   5.496   3.027   3.343
 7725SOL    HW124074   5.540   2.942   3.374
 7725SOL    HW224075   5.472   3.083   3.422
 7726SOL     OW24076   0.870   3.347   5.593
 7726SOL    HW124077   0.932   3.425   5.600
 7726SOL    HW224078   0.919   3.264   5.619
 7727SOL     OW24079   4.175   0.835   2.246
 7727SOL    HW124080   4.217   0.926   2.243
 7727SOL    HW224081   4.217   0.777   2.176
 7728SOL     OW24082   1.786   3.713   4.896
 7728SOL    HW124083   1.884   3.728   4.885
 7728SOL    HW224084   1.756   3.640   4.834
 7729SOL     OW24085   0.144   1.793   3.667
 7729SOL    HW124086   0.096   1.716   3.626
 7729SOL    HW224087   0.078   1.861   3.699
 7730SOL     OW24088   6.362   4.420   4.905
 7730SOL    HW124089   6.356   4.381   4.997
 7730SOL    HW224090   6.366   4.520   4.912
 7731SOL     OW24091   6.966   6.696   6.417
 7731SOL    HW124092   6.880   6.667   6.461
 7731SOL    HW224093   6.998   6.623   6.357
 7732SOL     OW24094   3.601   6.663   6.704
 7732SOL    HW124095   3.647   6.674   6.792
 7732SOL    HW224096   3.574   6.752   6.669
 7733SOL     OW24097   6.266   5.583   1.767
 7733SOL    HW124098   6.309   5.498   1.735
 7733SOL    HW224099   6.291   5.600   1.862
 7734SOL     OW24100   3.515   3.565   5.048
 7734SOL    HW124101   3.559   3.566   5.137
 7734SOL    HW224102   3.501   3.470   5.019
 7735SOL     OW24103   6.779   5.951   0.756
 7735SOL    HW124104   6.867   5.943   0.710
 7735SOL    HW224105   6.793   5.985   0.850
 7736SOL     OW24106   1.697   2.755   6.902
 7736SOL    HW124107   1.597   2.761   6.892
 7736SOL    HW224108   1.741   2.791   6.820
 7737SOL     OW24109   4.593   5.327   0.615
 7737SOL    HW124110   4.498   5.300   0.599
 7737SOL    HW224111   4.650   5.299   0.538
 7738SOL     OW24112   2.705   0.459   5.534
 7738SOL    HW124113   2.700   0.549   5.491
 7738SOL    HW224114   2.635   0.400   5.494
 7739SOL     OW24115   1.719   1.874   0.678
 7739SOL    HW124116   1.647   1.806   0.664
 7739SOL    HW224117   1.809   1.830   0.668
 7740SOL     OW24118   2.063   0.175   5.031
 7740SOL    HW124119   2.111   0.221   5.106
 7740SOL    HW224120   1.988   0.232   4.999
 7741SOL     OW24121   1.643   4.284   6.339
 7741SOL    HW124122   1.650   4.374   6.296
 7741SOL    HW224123   1.727   4.232   6.322
 7742SOL     OW24124   4.467   2.014   4.155
 7742SOL    HW124125   4.448   2.079   4.230
 7742SOL    HW224126   4.530   1.944   4.188
 7743SOL     OW24127   4.944   1.904   5.862
 7743SOL    HW124128   4.902   1.985   5.903
 7743SOL    HW224129   5.044   1.911   5.868
 7744SOL     OW24130   0.792   6.548   4.670
 7744SOL    HW124131   0.702   6.583   4.643
 7744SOL    HW224132   0.855   6.625   4.682
 7745SOL     OW24133   2.975   6.608   0.407
 7745SOL    HW124134   3.012   6.605   0.500
 7745SOL    HW224135   3.024   6.676   0.353
 7746SOL     OW24136   1.373   5.906   1.076
 7746SOL    HW124137   1.296   5.874   1.131
 7746SOL    HW224138   1.452   5.846   1.091
 7747SOL     OW24139   1.263   6.000   0.692
 7747SOL    HW124140   1.329   6.053   0.746
 7747SOL    HW224141   1.301   5.982   0.601
 7748SOL     OW24142   4.536   2.062   6.285
 7748SOL    HW124143   4.551   1.995   6.212
 7748SOL    HW224144   4.591   2.143   6.267
 7749SOL     OW24145   3.578   3.953   4.475
 7749SOL    HW124146   3.572   3.862   4.516
 7749SOL    HW224147   3.651   4.005   4.519
 7750SOL     OW24148   5.557   3.945   5.234
 7750SOL    HW124149   5.653   3.948   5.204
 7750SOL    HW224150   5.507   4.022   5.192
 7751SOL     OW24151   6.871   0.864   4.955
 7751SOL    HW124152   6.941   0.794   4.939
 7751SOL    HW224153   6.912   0.941   5.003
 7752SOL     OW24154   6.074   5.483   5.222
 7752SOL    HW124155   6.119   5.395   5.210
 7752SOL    HW224156   6.006   5.496   5.150
 7753SOL     OW24157   2.968   1.034   4.725
 7753SOL    HW124158   3.068   1.032   4.738
 7753SOL    HW224159   2.942   0.962   4.660
 7754SOL     OW24160   6.539   0.718   1.679
 7754SOL    HW124161   6.570   0.629   1.643
 7754SOL    HW224162   6.440   0.726   1.666
 7755SOL     OW24163   1.115   5.944   5.382
 7755SOL    HW124164   1.081   5.895   5.462
 7755SOL    HW224165   1.053   6.021   5.362
 7756SOL     OW24166   3.336   5.682   2.260
 7756SOL    HW124167   3.289   5.631   2.189
 7756SOL    HW224168   3.353   5.622   2.339
 7757SOL     OW24169   4.778   6.468   6.054
 7757SOL    HW124170   4.808   6.374   6.037
 7757SOL    HW224171   4.821   6.502   6.138
 7758SOL     OW24172   2.622   2.027   5.557
 7758SOL    HW124173   2.644   2.035   5.460
 7758SOL    HW224174   2.566   2.105   5.586
 7759SOL     OW24175   1.980   0.738   5.497
 7759SOL    HW124176   2.042   0.799   5.447
 7759SOL    HW224177   1.915   0.697   5.434
 7760SOL     OW24178   4.634   2.692   2.306
 7760SOL    HW124179   4.685   2.737   2.233
 7760SOL    HW224180   4.537   2.691   2.283
 7761SOL     OW24181   3.825   6.858   6.557
 7761SOL    HW124182   3.817   6.836   6.460
 7761SOL    HW224183   3.874   6.784   6.604
 7762SOL     OW24184   2.786   1.790   1.073
 7762SOL    HW124185   2.818   1.702   1.039
 7762SOL    HW224186   2.788   1.789   1.173
 7763SOL     OW24187   1.902   1.743   1.001
 7763SOL    HW124188   1.899   1.836   1.038
 7763SOL    HW224189   1.941   1.745   0.909
 7764SOL     OW24190   3.226   2.934   2.924
 7764SOL    HW124191   3.260   2.975   2.839
 7764SOL    HW224192   3.195   3.006   2.986
 7765SOL     OW24193   6.935   2.312   2.338
 7765SOL    HW124194   6.880   2.249   2.393
 7765SOL    HW224195   6.894   2.322   2.247
 7766SOL     OW24196   6.627   2.997   7.013
 7766SOL    HW124197   6.575   3.081   0.012
 7766SOL    HW224198   6.683   2.974   0.072
 7767SOL     OW24199   5.341   4.349   5.298
 7767SOL    HW124200   5.276   4.281   5.333
 7767SOL    HW224201   5.295   4.436   5.284
 7768SOL     OW24202   3.272   5.204   2.369
 7768SOL    HW124203   3.198   5.140   2.351
 7768SOL    HW224204   3.357   5.153   2.387
 7769SOL     OW24205   5.827   1.731   1.616
 7769SOL    HW124206   5.836   1.702   1.711
 7769SOL    HW224207   5.768   1.812   1.611
 7770SOL     OW24208   3.624   5.647   1.326
 7770SOL    HW124209   3.710   5.681   1.287
 7770SOL    HW224210   3.641   5.563   1.377
 7771SOL     OW24211   2.399   1.361   5.505
 7771SOL    HW124212   2.419   1.371   5.408
 7771SOL    HW224213   2.300   1.347   5.517
 7772SOL     OW24214   5.401   1.524   4.760
 7772SOL    HW124215   5.496   1.525   4.727
 7772SOL    HW224216   5.341   1.556   4.687
 7773SOL     OW24217   3.806   4.513   5.354
 7773SOL    HW124218   3.750   4.444   5.309
 7773SOL    HW224219   3.794   4.506   5.453
 7774SOL     OW24220   4.623   1.497   6.169
 7774SOL    HW124221   4.641   1.536   6.259
 7774SOL    HW224222   4.526   1.509   6.147
 7775SOL     OW24223   3.172   0.100   2.640
 7775SOL    HW124224   3.216   0.072   2.554
 7775SOL    HW224225   3.126   0.188   2.627
 7776SOL     OW24226   3.851   3.533   6.928
 7776SOL    HW124227   3.795   3.615   6.917
 7776SOL    HW224228   3.800   3.453   6.895
 7777SOL     OW24229   1.570   1.319   6.977
 7777SOL    HW124230   1.645   1.276   6.926
 7777SOL    HW224231   1.484   1.276   6.951
 7778SOL     OW24232   5.780   0.904   0.616
 7778SOL    HW124233   5.865   0.932   0.660
 7778SOL    HW224234   5.752   0.975   0.550
 7779SOL     OW24235   3.823   3.355   6.473
 7779SOL    HW124236   3.788   3.425   6.536
 7779SOL    HW224237   3.792   3.374   6.380
 7780SOL     OW24238   1.533   0.055   4.647
 7780SOL    HW124239   1.613   0.020   4.695
 7780SOL    HW224240   1.458   7.009   4.655
 7781SOL     OW24241   1.278   5.062   4.736
 7781SOL    HW124242   1.271   4.970   4.775
 7781SOL    HW224243   1.374   5.087   4.726
 7782SOL     OW24244   3.049   4.099   6.468
 7782SOL    HW124245   3.107   4.168   6.511
 7782SOL    HW224246   3.105   4.031   6.423
 7783SOL     OW24247   2.729   5.274   6.503
 7783SOL    HW124248   2.652   5.327   6.468
 7783SOL    HW224249   2.815   5.318   6.477
 7784SOL     OW24250   0.600   2.470   7.012
 7784SOL    HW124251   0.600   2.416   0.076
 7784SOL    HW224252   0.524   2.534   7.013
 7785SOL     OW24253   2.609   5.806   4.364
 7785SOL    HW124254   2.511   5.823   4.349
 7785SOL    HW224255   2.623   5.710   4.389
 7786SOL     OW24256   3.164   4.050   4.858
 7786SOL    HW124257   3.099   3.985   4.817
 7786SOL    HW224258   3.213   4.099   4.785
 7787SOL     OW24259   2.779   2.512   5.284
 7787SOL    HW124260   2.729   2.598   5.273
 7787SOL    HW224261   2.861   2.528   5.339
 7788SOL     OW24262   0.560   1.399   7.008
 7788SOL    HW124263   0.582   1.313   6.963
 7788SOL    HW224264   0.623   1.414   0.065
 7789SOL     OW24265   2.264   0.295   0.864
 7789SOL    HW124266   2.315   0.343   0.935
 7789SOL    HW224267   2.173   0.272   0.898
 7790SOL     OW24268   6.010   3.522   2.461
 7790SOL    HW124269   5.997   3.611   2.505
 7790SOL    HW224270   5.982   3.528   2.365
 7791SOL     OW24271   1.379   5.412   4.834
 7791SOL    HW124272   1.315   5.352   4.787
 7791SOL    HW224273   1.423   5.361   4.909
 7792SOL     OW24274   2.476   5.259   6.095
 7792SOL    HW124275   2.450   5.172   6.053
 7792SOL    HW224276   2.414   5.279   6.171
 7793SOL     OW24277   0.873   0.948   6.222
 7793SOL    HW124278   0.902   0.859   6.258
 7793SOL    HW224279   0.873   1.015   6.296
 7794SOL     OW24280   5.198   5.869   3.829
 7794SOL    HW124281   5.224   5.796   3.892
 7794SOL    HW224282   5.246   5.858   3.743
 7795SOL     OW24283   2.585   4.539   5.480
 7795SOL    HW124284   2.682   4.550   5.458
 7795SOL    HW224285   2.556   4.611   5.543
 7796SOL     OW24286   3.979   3.388   3.751
 7796SOL    HW124287   3.997   3.337   3.667
 7796SOL    HW224288   3.881   3.396   3.765
 7797SOL     OW24289   0.636   0.174   2.354
 7797SOL    HW124290   0.682   0.252   2.397
 7797SOL    HW224291   0.702   0.100   2.339
 7798SOL     OW24292   4.179   5.260   0.094
 7798SOL    HW124293   4.161   5.349   0.052
 7798SOL    HW224294   4.274   5.256   0.124
 7799SOL     OW24295   0.243   5.221   1.190
 7799SOL    HW124296   0.255   5.269   1.277
 7799SOL    HW224297   0.244   5.287   1.115
 7800SOL     OW24298   0.727   5.790   2.198
 7800SOL    HW124299   0.753   5.704   2.243
 7800SOL    HW224300   0.645   5.774   2.143
 7801SOL     OW24301   3.849   1.914   6.521
 7801SOL    HW124302   3.900   1.835   6.487
 7801SOL    HW224303   3.881   1.997   6.475
 7802SOL     OW24304   5.484   2.086   1.239
 7802SOL    HW124305   5.548   2.109   1.166
 7802SOL    HW224306   5.401   2.047   1.199
 7803SOL     OW24307   4.035   4.104   5.567
 7803SOL    HW124308   4.038   4.203   5.578
 7803SOL    HW224309   4.125   4.070   5.542
 7804SOL     OW24310   4.736   1.665   6.378
 7804SOL    HW124311   4.796   1.705   6.309
 7804SOL    HW224312   4.662   1.728   6.399
 7805SOL     OW24313   4.866   3.733   1.745
 7805SOL    HW124314   4.847   3.639   1.774
 7805SOL    HW224315   4.846   3.742   1.647
 7806SOL     OW24316   5.064   2.755   6.738
 7806SOL    HW124317   4.984   2.736   6.795
 7806SOL    HW224318   5.121   2.824   6.782
 7807SOL     OW24319   0.349   4.368   6.843
 7807SOL    HW124320   0.307   4.301   6.903
 7807SOL    HW224321   0.449   4.358   6.846
 7808SOL     OW24322   0.633   1.443   5.133
 7808SOL    HW124323   0.707   1.376   5.128
 7808SOL    HW224324   0.622   1.487   5.044
 7809SOL     OW24325   2.193   5.390   4.972
 7809SOL    HW124326   2.204   5.385   5.071
 7809SOL    HW224327   2.131   5.465   4.949
 7810SOL     OW24328   2.910   1.210   6.714
 7810SOL    HW124329   2.835   1.158   6.756
 7810SOL    HW224330   2.994   1.192   6.765
 7811SOL     OW24331   6.736   4.242   3.934
 7811SOL    HW124332   6.652   4.290   3.912
 7811SOL    HW224333   6.717   4.145   3.948
 7812SOL     OW24334   1.303   1.941   3.638
 7812SOL    HW124335   1.271   1.858   3.594
 7812SOL    HW224336   1.332   2.007   3.568
 7813SOL     OW24337   6.326   2.832   0.690
 7813SOL    HW124338   6.378   2.822   0.775
 7813SOL    HW224339   6.233   2.863   0.712
 7814SOL     OW24340   0.747   3.523   3.272
 7814SOL    HW124341   0.682   3.566   3.334
 7814SOL    HW224342   0.834   3.574   3.275
 7815SOL     OW24343   6.786   1.657   6.316
 7815SOL    HW124344   6.720   1.711   6.368
 7815SOL    HW224345   6.834   1.715   6.251
 7816SOL     OW24346   1.184   4.224   4.902
 7816SOL    HW124347   1.180   4.126   4.879
 7816SOL    HW224348   1.157   4.237   4.997
 7817SOL     OW24349   5.603   3.546   4.696
 7817SOL    HW124350   5.521   3.572   4.645
 7817SOL    HW224351   5.609   3.447   4.702
 7818SOL     OW24352   5.215   5.210   2.411
 7818SOL    HW124353   5.305   5.214   2.456
 7818SOL    HW224354   5.143   5.203   2.480
 7819SOL     OW24355   6.678   1.437   1.583
 7819SOL    HW124356   6.587   1.436   1.626
 7819SOL    HW224357   6.722   1.525   1.600
 7820SOL     OW24358   2.055   0.595   6.402
 7820SOL    HW124359   2.130   0.561   6.459
 7820SOL    HW224360   1.981   0.526   6.400
 7821SOL     OW24361   3.260   5.245   1.577
 7821SOL    HW124362   3.281   5.194   1.660
 7821SOL    HW224363   3.216   5.185   1.511
 7822SOL     OW24364   1.591   5.874   4.822
 7822SOL    HW124365   1.674   5.847   4.870
 7822SOL    HW224366   1.514   5.820   4.856
 7823SOL     OW24367   1.526   4.793   4.860
 7823SOL    HW124368   1.589   4.870   4.855
 7823SOL    HW224369   1.569   4.717   4.907
 7824SOL     OW24370   0.611   3.046   5.420
 7824SOL    HW124371   0.520   3.013   5.445
 7824SOL    HW224372   0.671   3.041   5.501
 7825SOL     OW24373   2.650   1.250   6.534
 7825SOL    HW124374   2.643   1.261   6.435
 7825SOL    HW224375   2.745   1.232   6.559
 7826SOL     OW24376   0.997   3.164   6.443
 7826SOL    HW124377   0.989   3.141   6.539
 7826SOL    HW224378   1.093   3.186   6.422
 7827SOL     OW24379   6.366   5.678   4.724
 7827SOL    HW124380   6.372   5.751   4.792
 7827SOL    HW224381   6.455   5.667   4.679
 7828SOL     OW24382   0.827   5.048   0.043
 7828SOL    HW124383   0.918   5.008   0.052
 7828SOL    HW224384   0.822   5.101   6.977
 7829SOL     OW24385   3.625   3.415   0.482
 7829SOL    HW124386   3.595   3.320   0.487
 7829SOL    HW224387   3.722   3.420   0.508
 7830SOL     OW24388   2.637   5.273   4.125
 7830SOL    HW124389   2.621   5.362   4.083
 7830SOL    HW224390   2.580   5.204   4.081
 7831SOL     OW24391   1.853   0.914   0.289
 7831SOL    HW124392   1.792   0.961   0.353
 7831SOL    HW224393   1.801   0.886   0.208
 7832SOL     OW24394   6.416   0.618   4.615
 7832SOL    HW124395   6.389   0.700   4.666
 7832SOL    HW224396   6.465   0.646   4.532
 7833SOL     OW24397   1.611   0.428   3.430
 7833SOL    HW124398   1.587   0.331   3.440
 7833SOL    HW224399   1.577   0.478   3.509
 7834SOL     OW24400   6.658   3.483   4.989
 7834SOL    HW124401   6.591   3.519   5.054
 7834SOL    HW224402   6.750   3.500   5.023
 7835SOL     OW24403   4.007   2.634   5.394
 7835SOL    HW124404   4.065   2.604   5.318
 7835SOL    HW224405   4.064   2.669   5.468
 7836SOL     OW24406   3.368   3.886   4.330
 7836SOL    HW124407   3.455   3.915   4.370
 7836SOL    HW224408   3.304   3.963   4.331
 7837SOL     OW24409   0.049   6.083   0.142
 7837SOL    HW124410   0.052   5.984   0.144
 7837SOL    HW224411   0.011   6.115   0.056
 7838SOL     OW24412   4.737   5.656   2.073
 7838SOL    HW124413   4.686   5.610   2.000
 7838SOL    HW224414   4.788   5.733   2.034
 7839SOL     OW24415   5.726   3.239   4.388
 7839SOL    HW124416   5.761   3.306   4.453
 7839SOL    HW224417   5.674   3.169   4.437
 7840SOL     OW24418   1.719   2.851   4.247
 7840SOL    HW124419   1.726   2.752   4.245
 7840SOL    HW224420   1.811   2.890   4.259
 7841SOL     OW24421   4.037   1.980   6.156
 7841SOL    HW124422   3.944   1.966   6.122
 7841SOL    HW224423   4.102   1.946   6.088
 7842SOL     OW24424   1.594   0.536   2.144
 7842SOL    HW124425   1.612   0.532   2.046
 7842SOL    HW224426   1.549   0.622   2.167
 7843SOL     OW24427   6.879   6.015   3.308
 7843SOL    HW124428   6.845   6.047   3.220
 7843SOL    HW224429   6.964   6.062   3.331
 7844SOL     OW24430   3.840   1.171   2.695
 7844SOL    HW124431   3.768   1.175   2.625
 7844SOL    HW224432   3.800   1.195   2.784
 7845SOL     OW24433   6.739   3.275   0.776
 7845SOL    HW124434   6.778   3.362   0.746
 7845SOL    HW224435   6.756   3.206   0.706
 7846SOL     OW24436   1.529   1.390   0.918
 7846SOL    HW124437   1.573   1.332   0.850
 7846SOL    HW224438   1.504   1.478   0.876
 7847SOL     OW24439   5.411   3.883   5.639
 7847SOL    HW124440   5.341   3.950   5.666
 7847SOL    HW224441   5.468   3.860   5.717
 7848SOL     OW24442   3.440   4.072   1.169
 7848SOL    HW124443   3.344   4.097   1.156
 7848SOL    HW224444   3.471   4.019   1.090
 7849SOL     OW24445   4.923   4.579   0.310
 7849SOL    HW124446   4.850   4.585   0.378
 7849SOL    HW224447   4.898   4.632   0.229
 7850SOL     OW24448   0.102   1.203   3.507
 7850SOL    HW124449   0.138   1.292   3.481
 7850SOL    HW224450   0.135   1.134   3.442
 7851SOL     OW24451   0.393   4.770   1.315
 7851SOL    HW124452   0.450   4.739   1.239
 7851SOL    HW224453   0.332   4.696   1.342
 7852SOL     OW24454   1.215   2.861   6.485
 7852SOL    HW124455   1.274   2.930   6.526
 7852SOL    HW224456   1.182   2.798   6.555
 7853SOL     OW24457   3.880   2.957   2.017
 7853SOL    HW124458   3.937   2.883   1.981
 7853SOL    HW224459   3.931   3.043   2.014
 7854SOL     OW24460   4.887   1.944   6.703
 7854SOL    HW124461   4.820   1.994   6.649
 7854SOL    HW224462   4.862   1.847   6.704
 7855SOL     OW24463   5.221   0.292   4.639
 7855SOL    HW124464   5.268   0.379   4.620
 7855SOL    HW224465   5.170   0.264   4.557
 7856SOL     OW24466   2.338   6.334   4.645
 7856SOL    HW124467   2.293   6.419   4.618
 7856SOL    HW224468   2.272   6.259   4.639
 7857SOL     OW24469   6.008   4.848   1.486
 7857SOL    HW124470   6.084   4.839   1.421
 7857SOL    HW224471   5.977   4.757   1.514
 7858SOL     OW24472   0.706   4.341   6.462
 7858SOL    HW124473   0.782   4.304   6.516
 7858SOL    HW224474   0.670   4.270   6.402
 7859SOL     OW24475   5.532   2.648   0.265
 7859SOL    HW124476   5.527   2.594   0.181
 7859SOL    HW224477   5.440   2.682   0.287
 7860SOL     OW24478   2.903   1.075   4.419
 7860SOL    HW124479   2.875   1.068   4.323
 7860SOL    HW224480   2.830   1.119   4.472
 7861SOL     OW24481   2.432   6.351   0.511
 7861SOL    HW124482   2.393   6.318   0.426
 7861SOL    HW224483   2.530   6.370   0.498
 7862SOL     OW24484   2.179   5.912   0.037
 7862SOL    HW124485   2.208   5.918   6.961
 7862SOL    HW224486   2.082   5.933   0.044
 7863SOL     OW24487   0.340   3.887   3.703
 7863SOL    HW124488   0.284   3.805   3.704
 7863SOL    HW224489   0.281   3.968   3.698
 7864SOL     OW24490   2.035   6.216   5.278
 7864SOL    HW124491   2.087   6.149   5.225
 7864SOL    HW224492   2.076   6.307   5.266
 7865SOL     OW24493   5.407   4.929   3.194
 7865SOL    HW124494   5.471   4.953   3.267
 7865SOL    HW224495   5.414   4.832   3.173
 7866SOL     OW24496   6.770   0.081   5.882
 7866SOL    HW124497   6.697   0.101   5.817
 7866SOL    HW224498   6.858   0.096   5.838
 7867SOL     OW24499   5.132   5.358   3.582
 7867SOL    HW124500   5.168   5.359   3.489
 7867SOL    HW224501   5.117   5.264   3.611
 7868SOL     OW24502   3.083   6.315   1.626
 7868SOL    HW124503   3.011   6.268   1.575
 7868SOL    HW224504   3.077   6.413   1.611
 7869SOL     OW24505   5.808   4.598   6.042
 7869SOL    HW124506   5.730   4.653   6.014
 7869SOL    HW224507   5.782   4.501   6.043
 7870SOL     OW24508   5.399   5.684   4.197
 7870SOL    HW124509   5.436   5.640   4.279
 7870SOL    HW224510   5.418   5.782   4.200
 7871SOL     OW24511   5.439   1.747   1.680
 7871SOL    HW124512   5.450   1.796   1.594
 7871SOL    HW224513   5.392   1.804   1.746
 7872SOL     OW24514   1.577   5.864   2.794
 7872SOL    HW124515   1.576   5.809   2.878
 7872SOL    HW224516   1.484   5.895   2.774
 7873SOL     OW24517   5.608   1.828   7.003
 7873SOL    HW124518   5.538   1.821   0.055
 7873SOL    HW224519   5.699   1.822   0.026
 7874SOL     OW24520   5.591   2.897   0.446
 7874SOL    HW124521   5.580   2.841   0.363
 7874SOL    HW224522   5.524   2.971   0.445
 7875SOL     OW24523   6.337   4.500   6.565
 7875SOL    HW124524   6.238   4.506   6.574
 7875SOL    HW224525   6.361   4.477   6.471
 7876SOL     OW24526   1.301   0.004   3.513
 7876SOL    HW124527   1.208   7.014   3.480
 7876SOL    HW224528   1.306   0.079   3.579
 7877SOL     OW24529   6.985   2.664   2.969
 7877SOL    HW124530   6.947   2.751   2.937
 7877SOL    HW224531   0.055   2.650   2.927
 7878SOL     OW24532   4.360   4.804   2.910
 7878SOL    HW124533   4.369   4.723   2.968
 7878SOL    HW224534   4.287   4.789   2.844
 7879SOL     OW24535   3.026   4.846   2.839
 7879SOL    HW124536   2.995   4.940   2.826
 7879SOL    HW224537   2.948   4.787   2.859
 7880SOL     OW24538   1.389   4.369   2.129
 7880SOL    HW124539   1.332   4.450   2.113
 7880SOL    HW224540   1.475   4.379   2.079
 7881SOL     OW24541   4.665   4.215   4.152
 7881SOL    HW124542   4.737   4.184   4.090
 7881SOL    HW224543   4.656   4.150   4.228
 7882SOL     OW24544   1.182   3.269   0.509
 7882SOL    HW124545   1.083   3.263   0.517
 7882SOL    HW224546   1.207   3.288   0.414
 7883SOL     OW24547   0.967   0.321   5.369
 7883SOL    HW124548   1.059   0.357   5.351
 7883SOL    HW224549   0.899   0.391   5.349
 7884SOL     OW24550   0.819   2.720   4.642
 7884SOL    HW124551   0.728   2.696   4.608
 7884SOL    HW224552   0.869   2.769   4.571
 7885SOL     OW24553   6.534   5.949   6.320
 7885SOL    HW124554   6.472   6.026   6.330
 7885SOL    HW224555   6.577   5.929   6.408
 7886SOL     OW24556   5.094   4.772   0.492
 7886SOL    HW124557   5.055   4.864   0.495
 7886SOL    HW224558   5.023   4.706   0.469
 7887SOL     OW24559   4.305   2.615   6.211
 7887SOL    HW124560   4.252   2.695   6.238
 7887SOL    HW224561   4.262   2.532   6.246
 7888SOL     OW24562   4.989   0.475   5.008
 7888SOL    HW124563   5.074   0.528   5.010
 7888SOL    HW224564   4.911   0.537   4.993
 7889SOL     OW24565   0.915   5.546   2.314
 7889SOL    HW124566   0.965   5.626   2.281
 7889SOL    HW224567   0.911   5.477   2.242
 7890SOL     OW24568   1.816   3.223   2.815
 7890SOL    HW124569   1.750   3.150   2.832
 7890SOL    HW224570   1.847   3.220   2.720
 7891SOL     OW24571   1.360   4.933   2.990
 7891SOL    HW124572   1.295   4.994   2.945
 7891SOL    HW224573   1.322   4.903   3.077
 7892SOL     OW24574   2.117   3.006   5.558
 7892SOL    HW124575   2.078   2.922   5.596
 7892SOL    HW224576   2.216   2.999   5.555
 7893SOL     OW24577   6.134   6.669   1.490
 7893SOL    HW124578   6.067   6.649   1.418
 7893SOL    HW224579   6.168   6.583   1.529
 7894SOL     OW24580   3.012   0.356   2.142
 7894SOL    HW124581   2.999   0.257   2.145
 7894SOL    HW224582   2.971   0.393   2.058
 7895SOL     OW24583   6.843   1.652   3.331
 7895SOL    HW124584   6.882   1.673   3.241
 7895SOL    HW224585   6.786   1.729   3.361
 7896SOL     OW24586   4.186   1.886   5.722
 7896SOL    HW124587   4.103   1.829   5.722
 7896SOL    HW224588   4.196   1.931   5.633
 7897SOL     OW24589   2.864   3.038   6.420
 7897SOL    HW124590   2.793   3.044   6.490
 7897SOL    HW224591   2.847   3.108   6.350
 7898SOL     OW24592   4.502   2.337   3.811
 7898SOL    HW124593   4.482   2.243   3.840
 7898SOL    HW224594   4.556   2.335   3.727
 7899SOL     OW24595   5.096   1.013   2.883
 7899SOL    HW124596   5.025   0.984   2.947
 7899SOL    HW224597   5.168   0.943   2.881
 7900SOL     OW24598   1.881   5.445   0.712
 7900SOL    HW124599   1.938   5.525   0.695
 7900SOL    HW224600   1.884   5.423   0.810
 7901SOL     OW24601   5.901   5.788   0.322
 7901SOL    HW124602   5.970   5.718   0.302
 7901SOL    HW224603   5.830   5.787   0.252
 7902SOL     OW24604   5.302   4.629   6.493
 7902SOL    HW124605   5.325   4.716   6.536
 7902SOL    HW224606   5.250   4.572   6.557
 7903SOL     OW24607   0.255   2.328   6.926
 7903SOL    HW124608   0.323   2.284   6.867
 7903SOL    HW224609   0.163   2.312   6.889
 7904SOL     OW24610   6.352   0.843   2.832
 7904SOL    HW124611   6.343   0.942   2.822
 7904SOL    HW224612   6.426   0.823   2.897
 7905SOL     OW24613   3.663   1.531   0.904
 7905SOL    HW124614   3.681   1.556   0.809
 7905SOL    HW224615   3.723   1.456   0.930
 7906SOL     OW24616   6.600   5.507   0.100
 7906SOL    HW124617   6.698   5.523   0.112
 7906SOL    HW224618   6.587   5.417   0.058
 7907SOL     OW24619   6.197   2.863   2.346
 7907SOL    HW124620   6.269   2.908   2.400
 7907SOL    HW224621   6.214   2.877   2.249
 7908SOL     OW24622   6.018   2.081   3.269
 7908SOL    HW124623   5.957   2.008   3.298
 7908SOL    HW224624   6.104   2.041   3.236
 7909SOL     OW24625   4.509   5.033   5.410
 7909SOL    HW124626   4.442   4.963   5.384
 7909SOL    HW224627   4.489   5.118   5.360
 7910SOL     OW24628   5.824   4.009   5.816
 7910SOL    HW124629   5.852   4.091   5.766
 7910SOL    HW224630   5.881   3.997   5.897
 7911SOL     OW24631   6.280   4.919   6.980
 7911SOL    HW124632   6.355   4.935   0.025
 7911SOL    HW224633   6.306   4.848   6.914
 7912SOL     OW24634   6.844   5.134   5.496
 7912SOL    HW124635   6.909   5.059   5.482
 7912SOL    HW224636   6.755   5.108   5.457
 7913SOL     OW24637   0.633   6.073   6.434
 7913SOL    HW124638   0.718   6.031   6.466
 7913SOL    HW224639   0.654   6.156   6.382
 7914SOL     OW24640   0.161   3.260   2.454
 7914SOL    HW124641   0.206   3.259   2.544
 7914SOL    HW224642   0.225   3.227   2.385
 7915SOL     OW24643   4.545   1.468   2.303
 7915SOL    HW124644   4.488   1.516   2.236
 7915SOL    HW224645   4.552   1.371   2.277
 7916SOL     OW24646   4.671   3.458   5.400
 7916SOL    HW124647   4.650   3.531   5.334
 7916SOL    HW224648   4.592   3.397   5.408
 7917SOL     OW24649   3.736   3.998   3.788
 7917SOL    HW124650   3.722   4.025   3.883
 7917SOL    HW224651   3.834   3.988   3.769
 7918SOL     OW24652   6.111   2.305   2.036
 7918SOL    HW124653   6.019   2.341   2.022
 7918SOL    HW224654   6.118   2.266   2.128
 7919SOL     OW24655   5.852   4.781   1.785
 7919SOL    HW124656   5.814   4.849   1.722
 7919SOL    HW224657   5.951   4.778   1.775
 7920SOL     OW24658   1.087   5.637   1.489
 7920SOL    HW124659   1.080   5.627   1.588
 7920SOL    HW224660   1.002   5.674   1.453
 7921SOL     OW24661   3.620   6.109   1.726
 7921SOL    HW124662   3.664   6.147   1.645
 7921SOL    HW224663   3.526   6.144   1.732
 7922SOL     OW24664   0.357   5.054   6.837
 7922SOL    HW124665   0.352   4.996   6.919
 7922SOL    HW224666   0.278   5.115   6.835
 7923SOL     OW24667   1.010   1.467   3.127
 7923SOL    HW124668   1.042   1.382   3.170
 7923SOL    HW224669   1.084   1.508   3.074
 7924SOL     OW24670   2.186   0.699   3.930
 7924SOL    HW124671   2.096   0.684   3.890
 7924SOL    HW224672   2.206   0.625   3.994
 7925SOL     OW24673   6.919   0.316   6.732
 7925SOL    HW124674   6.931   0.217   6.740
 7925SOL    HW224675   6.867   0.336   6.648
 7926SOL     OW24676   3.176   0.554   2.260
 7926SOL    HW124677   3.105   0.521   2.197
 7926SOL    HW224678   3.237   0.478   2.285
 7927SOL     OW24679   4.360   4.791   4.218
 7927SOL    HW124680   4.427   4.865   4.214
 7927SOL    HW224681   4.268   4.829   4.208
 7928SOL     OW24682   1.282   4.952   0.578
 7928SOL    HW124683   1.214   4.928   0.508
 7928SOL    HW224684   1.316   5.044   0.561
 7929SOL     OW24685   3.974   3.901   4.416
 7929SOL    HW124686   3.998   3.817   4.466
 7929SOL    HW224687   4.056   3.952   4.393
 7930SOL     OW24688   5.296   5.831   4.658
 7930SOL    HW124689   5.201   5.807   4.680
 7930SOL    HW224690   5.347   5.748   4.636
 7931SOL     OW24691   1.417   3.303   0.700
 7931SOL    HW124692   1.360   3.233   0.657
 7931SOL    HW224693   1.381   3.393   0.677
 7932SOL     OW24694   3.252   0.112   1.071
 7932SOL    HW124695   3.209   0.122   0.982
 7932SOL    HW224696   3.315   0.034   1.069
 7933SOL     OW24697   1.416   0.361   6.623
 7933SOL    HW124698   1.317   0.374   6.622
 7933SOL    HW224699   1.456   0.412   6.547
 7934SOL     OW24700   4.031   3.367   5.732
 7934SOL    HW124701   4.030   3.429   5.653
 7934SOL    HW224702   4.092   3.404   5.802
 7935SOL     OW24703   4.302   6.329   1.436
 7935SOL    HW124704   4.350   6.409   1.472
 7935SOL    HW224705   4.362   6.250   1.439
 7936SOL     OW24706   4.394   5.584   2.927
 7936SOL    HW124707   4.410   5.681   2.949
 7936SOL    HW224708   4.413   5.528   3.008
 7937SOL     OW24709   6.223   6.771   5.570
 7937SOL    HW124710   6.279   6.800   5.648
 7937SOL    HW224711   6.269   6.796   5.485
 7938SOL     OW24712   5.871   4.284   4.846
 7938SOL    HW124713   5.955   4.338   4.852
 7938SOL    HW224714   5.797   4.340   4.809
 7939SOL     OW24715   0.953   6.932   4.368
 7939SOL    HW124716   0.958   7.017   4.315
 7939SOL    HW224717   0.859   6.900   4.371
 7940SOL     OW24718   1.632   5.482   0.987
 7940SOL    HW124719   1.633   5.582   0.982
 7940SOL    HW224720   1.716   5.449   1.030
 7941SOL     OW24721   0.613   0.269   0.172
 7941SOL    HW124722   0.708   0.238   0.167
 7941SOL    HW224723   0.611   0.367   0.195
 7942SOL     OW24724   1.350   1.265   1.280
 7942SOL    HW124725   1.396   1.343   1.237
 7942SOL    HW224726   1.378   1.181   1.233
 7943SOL     OW24727   5.792   2.588   0.844
 7943SOL    HW124728   5.819   2.564   0.937
 7943SOL    HW224729   5.700   2.552   0.826
 7944SOL     OW24730   0.429   4.249   2.155
 7944SOL    HW124731   0.400   4.200   2.073
 7944SOL    HW224732   0.370   4.329   2.169
 7945SOL     OW24733   5.248   6.399   1.805
 7945SOL    HW124734   5.258   6.498   1.802
 7945SOL    HW224735   5.338   6.356   1.800
 7946SOL     OW24736   1.494   1.766   5.781
 7946SOL    HW124737   1.432   1.724   5.716
 7946SOL    HW224738   1.508   1.704   5.859
 7947SOL     OW24739   3.848   4.557   6.058
 7947SOL    HW124740   3.945   4.560   6.037
 7947SOL    HW224741   3.823   4.465   6.090
 7948SOL     OW24742   0.894   5.424   6.827
 7948SOL    HW124743   0.947   5.387   6.903
 7948SOL    HW224744   0.874   5.521   6.843
 7949SOL     OW24745   6.401   4.533   4.176
 7949SOL    HW124746   6.348   4.519   4.093
 7949SOL    HW224747   6.496   4.551   4.152
 7950SOL     OW24748   3.145   5.266   4.586
 7950SOL    HW124749   3.136   5.352   4.536
 7950SOL    HW224750   3.226   5.269   4.644
 7951SOL     OW24751   3.236   3.146   1.033
 7951SOL    HW124752   3.136   3.145   1.024
 7951SOL    HW224753   3.261   3.130   1.128
 7952SOL     OW24754   5.203   4.265   0.072
 7952SOL    HW124755   5.116   4.292   0.112
 7952SOL    HW224756   5.261   4.345   0.060
 7953SOL     OW24757   2.349   2.838   2.880
 7953SOL    HW124758   2.438   2.846   2.927
 7953SOL    HW224759   2.276   2.841   2.948
 7954SOL     OW24760   4.705   5.182   5.499
 7954SOL    HW124761   4.784   5.135   5.460
 7954SOL    HW224762   4.622   5.131   5.476
 7955SOL     OW24763   1.473   6.974   6.186
 7955SOL    HW124764   1.424   6.892   6.215
 7955SOL    HW224765   1.412   0.034   6.194
 7956SOL     OW24766   6.208   6.966   3.939
 7956SOL    HW124767   6.248   6.928   4.023
 7956SOL    HW224768   6.222   0.046   3.938
 7957SOL     OW24769   0.922   2.572   1.087
 7957SOL    HW124770   0.886   2.610   1.172
 7957SOL    HW224771   0.986   2.498   1.107
 7958SOL     OW24772   1.987   5.397   2.714
 7958SOL    HW124773   1.979   5.436   2.623
 7958SOL    HW224774   2.004   5.299   2.707
 7959SOL     OW24775   5.300   5.423   0.953
 7959SOL    HW124776   5.277   5.508   0.999
 7959SOL    HW224777   5.349   5.363   1.016
 7960SOL     OW24778   2.560   2.096   1.060
 7960SOL    HW124779   2.516   2.035   1.125
 7960SOL    HW224780   2.659   2.091   1.071
 7961SOL     OW24781   1.852   5.210   6.471
 7961SOL    HW124782   1.820   5.116   6.483
 7961SOL    HW224783   1.943   5.209   6.430
 7962SOL     OW24784   1.216   0.090   2.205
 7962SOL    HW124785   1.203   0.107   2.108
 7962SOL    HW224786   1.239   0.176   2.252
 7963SOL     OW24787   1.176   6.982   4.790
 7963SOL    HW124788   1.164   0.047   4.738
 7963SOL    HW224789   1.255   6.932   4.754
 7964SOL     OW24790   6.052   5.901   3.247
 7964SOL    HW124791   5.959   5.881   3.216
 7964SOL    HW224792   6.115   5.894   3.169
 7965SOL     OW24793   5.840   1.835   0.871
 7965SOL    HW124794   5.831   1.747   0.825
 7965SOL    HW224795   5.750   1.869   0.895
 7966SOL     OW24796   6.998   5.954   3.753
 7966SOL    HW124797   6.953   5.891   3.690
 7966SOL    HW224798   6.951   5.954   3.841
 7967SOL     OW24799   2.902   6.030   2.360
 7967SOL    HW124800   2.972   5.964   2.332
 7967SOL    HW224801   2.823   5.980   2.398
 7968SOL     OW24802   1.697   1.011   1.733
 7968SOL    HW124803   1.605   1.030   1.697
 7968SOL    HW224804   1.698   1.026   1.831
 7969SOL     OW24805   3.481   2.032   3.433
 7969SOL    HW124806   3.535   2.100   3.382
 7969SOL    HW224807   3.385   2.041   3.409
 7970SOL     OW24808   0.292   5.052   3.295
 7970SOL    HW124809   0.259   4.965   3.258
 7970SOL    HW224810   0.234   5.126   3.261
 7971SOL     OW24811   2.338   1.500   2.173
 7971SOL    HW124812   2.322   1.597   2.154
 7971SOL    HW224813   2.375   1.455   2.092
 7972SOL     OW24814   0.731   4.962   2.061
 7972SOL    HW124815   0.757   4.944   2.155
 7972SOL    HW224816   0.635   4.935   2.047
 7973SOL     OW24817   4.589   2.205   2.442
 7973SOL    HW124818   4.674   2.164   2.408
 7973SOL    HW224819   4.591   2.303   2.426
 7974SOL     OW24820   5.654   6.910   4.251
 7974SOL    HW124821   5.691   6.836   4.306
 7974SOL    HW224822   5.631   6.875   4.160
 7975SOL     OW24823   2.295   1.206   3.339
 7975SOL    HW124824   2.310   1.152   3.256
 7975SOL    HW224825   2.202   1.193   3.371
 7976SOL     OW24826   0.254   6.191   6.413
 7976SOL    HW124827   0.330   6.224   6.469
 7976SOL    HW224828   0.245   6.092   6.422
 7977SOL     OW24829   5.166   6.447   1.545
 7977SOL    HW124830   5.119   6.535   1.548
 7977SOL    HW224831   5.213   6.431   1.632
 7978SOL     OW24832   3.938   2.707   6.107
 7978SOL    HW124833   3.963   2.617   6.142
 7978SOL    HW224834   4.019   2.753   6.072
 7979SOL     OW24835   4.517   0.238   4.191
 7979SOL    HW124836   4.447   0.301   4.225
 7979SOL    HW224837   4.481   0.186   4.114
 7980SOL     OW24838   2.741   0.334   2.021
 7980SOL    HW124839   2.681   0.295   2.091
 7980SOL    HW224840   2.737   0.277   1.939
 7981SOL     OW24841   1.106   5.722   2.781
 7981SOL    HW124842   1.082   5.819   2.793
 7981SOL    HW224843   1.185   5.714   2.721
 7982SOL     OW24844   0.056   3.023   0.822
 7982SOL    HW124845   0.071   3.030   0.723
 7982SOL    HW224846   0.038   3.114   0.859
 7983SOL     OW24847   4.932   2.371   2.225
 7983SOL    HW124848   4.860   2.399   2.287
 7983SOL    HW224849   4.971   2.452   2.180
 7984SOL     OW24850   0.724   0.687   0.476
 7984SOL    HW124851   0.751   0.590   0.476
 7984SOL    HW224852   0.641   0.698   0.530
 7985SOL     OW24853   0.326   1.288   1.023
 7985SOL    HW124854   0.310   1.191   1.004
 7985SOL    HW224855   0.393   1.325   0.959
 7986SOL     OW24856   3.784   2.360   0.725
 7986SOL    HW124857   3.819   2.433   0.666
 7986SOL    HW224858   3.723   2.301   0.673
 7987SOL     OW24859   0.221   3.026   5.063
 7987SOL    HW124860   0.196   3.116   5.097
 7987SOL    HW224861   0.168   2.956   5.112
 7988SOL     OW24862   2.722   1.531   5.481
 7988SOL    HW124863   2.651   1.540   5.551
 7988SOL    HW224864   2.752   1.622   5.452
 7989SOL     OW24865   3.347   3.515   5.626
 7989SOL    HW124866   3.397   3.595   5.659
 7989SOL    HW224867   3.338   3.448   5.700
 7990SOL     OW24868   2.272   2.324   4.593
 7990SOL    HW124869   2.358   2.359   4.631
 7990SOL    HW224870   2.202   2.324   4.664
 7991SOL     OW24871   0.207   3.506   5.235
 7991SOL    HW124872   0.302   3.538   5.242
 7991SOL    HW224873   0.160   3.521   5.322
 7992SOL     OW24874   2.758   0.780   0.376
 7992SOL    HW124875   2.660   0.760   0.374
 7992SOL    HW224876   2.798   0.759   0.287
 7993SOL     OW24877   2.076   6.710   6.858
 7993SOL    HW124878   2.140   6.655   6.911
 7993SOL    HW224879   2.070   6.802   6.899
 7994SOL     OW24880   5.846   0.610   3.747
 7994SOL    HW124881   5.782   0.565   3.685
 7994SOL    HW224882   5.799   0.681   3.798
 7995SOL     OW24883   4.053   5.004   2.908
 7995SOL    HW124884   4.048   4.906   2.887
 7995SOL    HW224885   4.089   5.053   2.829
 7996SOL     OW24886   3.948   0.624   4.863
 7996SOL    HW124887   4.024   0.593   4.806
 7996SOL    HW224888   3.982   0.646   4.955
 7997SOL     OW24889   5.831   2.864   1.975
 7997SOL    HW124890   5.795   2.811   1.898
 7997SOL    HW224891   5.887   2.805   2.033
 7998SOL     OW24892   6.313   5.169   6.837
 7998SOL    HW124893   6.274   5.077   6.851
 7998SOL    HW224894   6.264   5.235   6.893
 7999SOL     OW24895   1.666   0.454   5.807
 7999SOL    HW124896   1.682   0.552   5.820
 7999SOL    HW224897   1.589   0.441   5.744
 8000SOL     OW24898   6.096   6.968   5.881
 8000SOL    HW124899   6.192   6.939   5.890
 8000SOL    HW224900   6.055   6.924   5.801
 8001SOL     OW24901   2.266   0.154   1.359
 8001SOL    HW124902   2.345   0.093   1.363
 8001SOL    HW224903   2.219   0.153   1.447
 8002SOL     OW24904   5.864   3.093   5.381
 8002SOL    HW124905   5.962   3.085   5.395
 8002SOL    HW224906   5.830   3.011   5.336
 8003SOL     OW24907   4.134   5.309   3.230
 8003SOL    HW124908   4.214   5.351   3.187
 8003SOL    HW224909   4.164   5.249   3.304
 8004SOL     OW24910   1.845   3.861   2.620
 8004SOL    HW124911   1.828   3.844   2.717
 8004SOL    HW224912   1.944   3.860   2.603
 8005SOL     OW24913   2.986   0.952   1.930
 8005SOL    HW124914   3.056   0.908   1.873
 8005SOL    HW224915   3.003   1.050   1.936
 8006SOL     OW24916   3.269   6.429   0.797
 8006SOL    HW124917   3.299   6.372   0.720
 8006SOL    HW224918   3.277   6.377   0.881
 8007SOL     OW24919   0.527   0.808   4.510
 8007SOL    HW124920   0.430   0.827   4.500
 8007SOL    HW224921   0.548   0.720   4.467
 8008SOL     OW24922   6.240   5.718   0.487
 8008SOL    HW124923   6.155   5.686   0.446
 8008SOL    HW224924   6.303   5.748   0.415
 8009SOL     OW24925   6.828   6.760   3.552
 8009SOL    HW124926   6.867   6.794   3.466
 8009SOL    HW224927   6.895   6.701   3.597
 8010SOL     OW24928   2.721   2.515   6.672
 8010SOL    HW124929   2.759   2.456   6.601
 8010SOL    HW224930   2.623   2.525   6.658
 8011SOL     OW24931   2.488   2.006   0.766
 8011SOL    HW124932   2.532   1.976   0.850
 8011SOL    HW224933   2.406   2.058   0.788
 8012SOL     OW24934   3.073   6.652   3.059
 8012SOL    HW124935   3.134   6.610   2.991
 8012SOL    HW224936   3.102   6.627   3.151
 8013SOL     OW24937   6.364   4.699   4.999
 8013SOL    HW124938   6.459   4.711   5.031
 8013SOL    HW224939   6.302   4.744   5.063
 8014SOL     OW24940   2.017   0.258   6.984
 8014SOL    HW124941   1.984   0.330   0.026
 8014SOL    HW224942   1.939   0.214   6.940
 8015SOL     OW24943   1.850   2.100   6.806
 8015SOL    HW124944   1.802   2.134   6.725
 8015SOL    HW224945   1.939   2.064   6.779
 8016SOL     OW24946   3.550   6.581   1.607
 8016SOL    HW124947   3.478   6.512   1.600
 8016SOL    HW224948   3.540   6.630   1.694
 8017SOL     OW24949   5.774   4.264   4.407
 8017SOL    HW124950   5.692   4.209   4.416
 8017SOL    HW224951   5.850   4.220   4.455
 8018SOL     OW24952   5.547   2.500   4.640
 8018SOL    HW124953   5.535   2.468   4.734
 8018SOL    HW224954   5.645   2.511   4.621
 8019SOL     OW24955   2.570   5.090   1.225
 8019SOL    HW124956   2.628   5.139   1.290
 8019SOL    HW224957   2.625   5.058   1.148
 8020SOL     OW24958   6.074   6.216   6.323
 8020SOL    HW124959   6.174   6.216   6.336
 8020SOL    HW224960   6.037   6.305   6.352
 8021SOL     OW24961   0.817   1.066   1.080
 8021SOL    HW124962   0.791   0.971   1.061
 8021SOL    HW224963   0.858   1.106   0.998
 8022SOL     OW24964   4.088   6.101   3.356
 8022SOL    HW124965   4.054   6.114   3.450
 8022SOL    HW224966   4.049   6.017   3.318
 8023SOL     OW24967   6.144   6.333   3.417
 8023SOL    HW124968   6.177   6.351   3.324
 8023SOL    HW224969   6.211   6.366   3.483
 8024SOL     OW24970   4.635   5.459   4.557
 8024SOL    HW124971   4.677   5.500   4.638
 8024SOL    HW224972   4.625   5.361   4.571
 8025SOL     OW24973   3.648   6.019   0.224
 8025SOL    HW124974   3.616   5.961   0.299
 8025SOL    HW224975   3.676   5.961   0.147
 8026SOL     OW24976   1.613   2.473   0.629
 8026SOL    HW124977   1.515   2.487   0.616
 8026SOL    HW224978   1.631   2.375   0.643
 8027SOL     OW24979   5.273   2.750   5.575
 8027SOL    HW124980   5.221   2.706   5.648
 8027SOL    HW224981   5.268   2.695   5.492
 8028SOL     OW24982   5.551   4.798   6.977
 8028SOL    HW124983   5.611   4.877   6.965
 8028SOL    HW224984   5.577   4.748   0.040
 8029SOL     OW24985   3.236   4.951   0.741
 8029SOL    HW124986   3.319   4.899   0.721
 8029SOL    HW224987   3.190   4.911   0.820
 8030SOL     OW24988   6.032   3.997   6.984
 8030SOL    HW124989   6.031   3.922   6.918
 8030SOL    HW224990   5.988   3.967   0.050
 8031SOL     OW24991   3.812   5.766   1.634
 8031SOL    HW124992   3.808   5.844   1.572
 8031SOL    HW224993   3.857   5.689   1.589
 8032SOL     OW24994   5.439   4.494   6.179
 8032SOL    HW124995   5.514   4.529   6.123
 8032SOL    HW224996   5.455   4.516   6.275
 8033SOL     OW24997   6.179   2.843   0.139
 8033SOL    HW124998   6.083   2.869   0.150
 8033SOL    HW224999   6.231   2.921   0.102
 8034SOL     OW25000   5.983   1.466   5.477
 8034SOL    HW125001   5.904   1.512   5.516
 8034SOL    HW225002   6.066   1.493   5.526
 8035SOL     OW25003   5.379   6.650   0.135
 8035SOL    HW125004   5.404   6.566   0.086
 8035SOL    HW225005   5.462   6.697   0.166
 8036SOL     OW25006   1.882   3.892   1.633
 8036SOL    HW125007   1.945   3.880   1.709
 8036SOL    HW225008   1.923   3.954   1.565
 8037SOL     OW25009   2.070   3.108   1.273
 8037SOL    HW125010   2.131   3.091   1.196
 8037SOL    HW225011   2.123   3.130   1.355
 8038SOL     OW25012   6.631   1.755   4.387
 8038SOL    HW125013   6.686   1.815   4.330
 8038SOL    HW225014   6.669   1.752   4.480
 8039SOL     OW25015   2.325   6.522   4.146
 8039SOL    HW125016   2.271   6.439   4.155
 8039SOL    HW225017   2.378   6.537   4.229
 8040SOL     OW25018   0.011   5.443   0.814
 8040SOL    HW125019   6.984   5.460   0.727
 8040SOL    HW225020   0.003   5.347   0.839
 8041SOL     OW25021   4.237   1.720   0.531
 8041SOL    HW125022   4.171   1.793   0.550
 8041SOL    HW225023   4.197   1.654   0.467
 8042SOL     OW25024   2.669   3.398   1.206
 8042SOL    HW125025   2.653   3.382   1.109
 8042SOL    HW225026   2.674   3.311   1.254
 8043SOL     OW25027   2.379   0.118   1.784
 8043SOL    HW125028   2.402   0.177   1.707
 8043SOL    HW225029   2.461   0.101   1.839
 8044SOL     OW25030   3.280   3.901   1.920
 8044SOL    HW125031   3.194   3.902   1.871
 8044SOL    HW225032   3.285   3.981   1.981
 8045SOL     OW25033   6.442   2.932   3.266
 8045SOL    HW125034   6.478   2.903   3.178
 8045SOL    HW225035   6.433   2.853   3.327
 8046SOL     OW25036   6.884   4.889   5.868
 8046SOL    HW125037   6.933   4.927   5.790
 8046SOL    HW225038   6.798   4.940   5.882
 8047SOL     OW25039   3.826   5.917   3.722
 8047SOL    HW125040   3.831   5.963   3.633
 8047SOL    HW225041   3.885   5.965   3.787
 8048SOL     OW25042   6.617   0.356   5.584
 8048SOL    HW125043   6.704   0.393   5.617
 8048SOL    HW225044   6.627   0.259   5.563
 8049SOL     OW25045   1.661   5.094   0.455
 8049SOL    HW125046   1.685   5.189   0.434
 8049SOL    HW225047   1.729   5.057   0.519
 8050SOL     OW25048   1.329   2.785   1.281
 8050SOL    HW125049   1.304   2.689   1.293
 8050SOL    HW225050   1.365   2.822   1.366
 8051SOL     OW25051   4.134   1.471   3.246
 8051SOL    HW125052   4.184   1.509   3.168
 8051SOL    HW225053   4.065   1.407   3.213
 8052SOL     OW25054   3.235   1.946   2.878
 8052SOL    HW125055   3.291   1.870   2.912
 8052SOL    HW225056   3.295   2.018   2.843
 8053SOL     OW25057   3.823   3.271   2.270
 8053SOL    HW125058   3.850   3.367   2.262
 8053SOL    HW225059   3.857   3.233   2.356
 8054SOL     OW25060   4.060   6.420   4.858
 8054SOL    HW125061   4.068   6.353   4.785
 8054SOL    HW225062   4.142   6.418   4.915
 8055SOL     OW25063   1.463   6.710   5.342
 8055SOL    HW125064   1.552   6.750   5.319
 8055SOL    HW225065   1.406   6.779   5.387
 8056SOL     OW25066   4.300   1.737   2.872
 8056SOL    HW125067   4.323   1.700   2.962
 8056SOL    HW225068   4.239   1.815   2.882
 8057SOL     OW25069   3.590   6.299   3.921
 8057SOL    HW125070   3.641   6.222   3.960
 8057SOL    HW225071   3.647   6.380   3.921
 8058SOL     OW25072   1.806   0.703   3.184
 8058SOL    HW125073   1.762   0.656   3.107
 8058SOL    HW225074   1.865   0.639   3.233
 8059SOL     OW25075   2.592   1.572   3.978
 8059SOL    HW125076   2.520   1.617   3.925
 8059SOL    HW225077   2.586   1.601   4.073
 8060SOL     OW25078   0.596   1.570   4.903
 8060SOL    HW125079   0.573   1.581   4.806
 8060SOL    HW225080   0.647   1.650   4.935
 8061SOL     OW25081   0.225   5.603   1.478
 8061SOL    HW125082   0.203   5.529   1.541
 8061SOL    HW225083   0.161   5.679   1.492
 8062SOL     OW25084   2.129   3.818   2.570
 8062SOL    HW125085   2.138   3.766   2.655
 8062SOL    HW225086   2.131   3.755   2.493
 8063SOL     OW25087   3.083   3.083   6.849
 8063SOL    HW125088   2.992   3.117   6.874
 8063SOL    HW225089   3.134   3.060   6.933
 8064SOL     OW25090   6.403   3.344   0.254
 8064SOL    HW125091   6.392   3.319   0.158
 8064SOL    HW225092   6.384   3.264   0.312
 8065SOL     OW25093   4.424   7.011   6.313
 8065SOL    HW125094   4.519   0.019   6.329
 8065SOL    HW225095   4.419   6.911   6.307
 8066SOL     OW25096   2.100   0.453   1.694
 8066SOL    HW125097   2.133   0.544   1.720
 8066SOL    HW225098   2.005   0.459   1.664
 8067SOL     OW25099   5.125   2.393   1.868
 8067SOL    HW125100   5.097   2.309   1.914
 8067SOL    HW225101   5.063   2.413   1.793
 8068SOL     OW25102   0.907   4.328   4.145
 8068SOL    HW125103   0.975   4.375   4.088
 8068SOL    HW225104   0.827   4.387   4.154
 8069SOL     OW25105   2.117   6.268   1.796
 8069SOL    HW125106   2.216   6.281   1.791
 8069SOL    HW225107   2.071   6.354   1.772
 8070SOL     OW25108   3.832   0.243   2.001
 8070SOL    HW125109   3.883   0.189   1.934
 8070SOL    HW225110   3.833   0.196   2.090
 8071SOL     OW25111   4.113   6.302   0.236
 8071SOL    HW125112   4.084   6.373   0.300
 8071SOL    HW225113   4.211   6.311   0.218
 8072SOL     OW25114   5.254   0.694   1.712
 8072SOL    HW125115   5.275   0.782   1.668
 8072SOL    HW225116   5.174   0.653   1.669
 8073SOL     OW25117   4.258   6.268   5.558
 8073SOL    HW125118   4.195   6.256   5.482
 8073SOL    HW225119   4.298   6.360   5.554
 8074SOL     OW25120   3.215   3.674   6.951
 8074SOL    HW125121   3.122   3.678   6.914
 8074SOL    HW225122   3.269   3.608   6.899
 8075SOL     OW25123   5.941   1.652   2.737
 8075SOL    HW125124   5.896   1.572   2.697
 8075SOL    HW225125   6.039   1.634   2.746
 8076SOL     OW25126   5.541   2.945   6.535
 8076SOL    HW125127   5.622   2.953   6.477
 8076SOL    HW225128   5.459   2.945   6.479
 8077SOL     OW25129   1.251   0.857   0.503
 8077SOL    HW125130   1.162   0.832   0.466
 8077SOL    HW225131   1.244   0.947   0.547
 8078SOL     OW25132   6.115   3.396   0.356
 8078SOL    HW125133   6.117   3.490   0.389
 8078SOL    HW225134   6.170   3.338   0.417
 8079SOL     OW25135   6.684   1.554   2.045
 8079SOL    HW125136   6.780   1.568   2.019
 8079SOL    HW225137   6.676   1.553   2.144
 8080SOL     OW25138   3.816   5.119   0.462
 8080SOL    HW125139   3.769   5.055   0.402
 8080SOL    HW225140   3.867   5.186   0.407
 8081SOL     OW25141   5.682   0.540   5.541
 8081SOL    HW125142   5.666   0.573   5.634
 8081SOL    HW225143   5.612   0.578   5.480
 8082SOL     OW25144   6.514   3.051   4.070
 8082SOL    HW125145   6.540   3.005   4.155
 8082SOL    HW225146   6.535   3.148   4.078
 8083SOL     OW25147   4.873   2.673   4.103
 8083SOL    HW125148   4.818   2.740   4.054
 8083SOL    HW225149   4.892   2.595   4.043
 8084SOL     OW25150   6.428   0.224   1.300
 8084SOL    HW125151   6.388   0.159   1.235
 8084SOL    HW225152   6.526   0.209   1.306
 8085SOL     OW25153   6.346   2.001   1.320
 8085SOL    HW125154   6.362   2.082   1.376
 8085SOL    HW225155   6.299   1.932   1.374
 8086SOL     OW25156   3.232   6.656   5.462
 8086SOL    HW125157   3.147   6.641   5.513
 8086SOL    HW225158   3.222   6.738   5.405
 8087SOL     OW25159   2.995   3.162   1.437
 8087SOL    HW125160   3.029   3.075   1.472
 8087SOL    HW225161   3.071   3.218   1.406
 8088SOL     OW25162   4.433   0.716   2.780
 8088SOL    HW125163   4.345   0.710   2.732
 8088SOL    HW225164   4.449   0.810   2.808
 8089SOL     OW25165   6.030   2.879   0.803
 8089SOL    HW125166   5.961   2.848   0.737
 8089SOL    HW225167   6.002   2.967   0.842
 8090SOL     OW25168   4.838   2.343   5.148
 8090SOL    HW125169   4.817   2.435   5.115
 8090SOL    HW225170   4.923   2.312   5.106
 8091SOL     OW25171   3.072   5.180   5.745
 8091SOL    HW125172   3.133   5.257   5.731
 8091SOL    HW225173   3.032   5.153   5.657
 8092SOL     OW25174   0.617   2.000   4.160
 8092SOL    HW125175   0.553   1.963   4.227
 8092SOL    HW225176   0.603   1.956   4.072
 8093SOL     OW25177   5.823   6.073   1.163
 8093SOL    HW125178   5.728   6.086   1.192
 8093SOL    HW225179   5.866   6.003   1.219
 8094SOL     OW25180   0.922   3.843   4.541
 8094SOL    HW125181   0.836   3.868   4.585
 8094SOL    HW225182   0.994   3.836   4.610
 8095SOL     OW25183   5.975   3.959   4.343
 8095SOL    HW125184   6.036   3.901   4.397
 8095SOL    HW225185   5.884   3.918   4.341
 8096SOL     OW25186   3.790   6.501   1.498
 8096SOL    HW125187   3.772   6.465   1.406
 8096SOL    HW225188   3.706   6.538   1.536
 8097SOL     OW25189   4.673   1.120   4.832
 8097SOL    HW125190   4.698   1.024   4.816
 8097SOL    HW225191   4.667   1.168   4.745
 8098SOL     OW25192   2.585   6.953   3.605
 8098SOL    HW125193   2.511   6.999   3.556
 8098SOL    HW225194   2.671   6.965   3.554
 8099SOL     OW25195   5.626   6.521   5.360
 8099SOL    HW125196   5.601   6.606   5.406
 8099SOL    HW225197   5.545   6.461   5.355
 8100SOL     OW25198   0.932   6.786   0.914
 8100SOL    HW125199   0.918   6.881   0.888
 8100SOL    HW225200   0.847   6.735   0.905
 8101SOL     OW25201   1.242   5.644   3.037
 8101SOL    HW125202   1.185   5.642   2.955
 8101SOL    HW225203   1.333   5.608   3.014
 8102SOL     OW25204   0.083   6.543   6.237
 8102SOL    HW125205   0.147   6.466   6.231
 8102SOL    HW225206   0.133   6.629   6.223
 8103SOL     OW25207   2.627   1.817   2.209
 8103SOL    HW125208   2.602   1.763   2.129
 8103SOL    HW225209   2.575   1.902   2.209
 8104SOL     OW25210   2.103   6.549   5.996
 8104SOL    HW125211   2.127   6.550   5.899
 8104SOL    HW225212   2.035   6.478   6.013
 8105SOL     OW25213   1.553   2.303   2.515
 8105SOL    HW125214   1.622   2.329   2.582
 8105SOL    HW225215   1.583   2.330   2.424
 8106SOL     OW25216   0.524   3.775   4.405
 8106SOL    HW125217   0.504   3.863   4.447
 8106SOL    HW225218   0.587   3.723   4.463
 8107SOL     OW25219   2.130   6.045   5.918
 8107SOL    HW125220   2.065   6.025   5.844
 8107SOL    HW225221   2.104   5.993   6.000
 8108SOL     OW25222   1.919   3.042   4.320
 8108SOL    HW125223   1.941   3.012   4.413
 8108SOL    HW225224   1.906   3.141   4.319
 8109SOL     OW25225   1.135   5.032   5.332
 8109SOL    HW125226   1.215   5.091   5.325
 8109SOL    HW225227   1.136   4.985   5.421
 8110SOL     OW25228   1.890   4.394   1.015
 8110SOL    HW125229   1.806   4.399   1.069
 8110SOL    HW225230   1.911   4.298   0.996
 8111SOL     OW25231   2.699   5.542   4.413
 8111SOL    HW125232   2.730   5.471   4.351
 8111SOL    HW225233   2.612   5.515   4.455
 8112SOL     OW25234   3.440   0.827   4.577
 8112SOL    HW125235   3.537   0.844   4.590
 8112SOL    HW225236   3.406   0.768   4.651
 8113SOL     OW25237   3.538   3.072   6.090
 8113SOL    HW125238   3.591   3.007   6.144
 8113SOL    HW225239   3.451   3.091   6.136
 8114SOL     OW25240   2.769   3.929   1.253
 8114SOL    HW125241   2.780   3.830   1.254
 8114SOL    HW225242   2.858   3.973   1.264
 8115SOL     OW25243   3.922   1.987   1.365
 8115SOL    HW125244   3.914   1.910   1.302
 8115SOL    HW225245   4.012   2.029   1.355
 8116SOL     OW25246   5.625   0.943   5.591
 8116SOL    HW125247   5.693   0.947   5.665
 8116SOL    HW225248   5.552   1.008   5.609
 8117SOL     OW25249   2.448   1.827   5.550
 8117SOL    HW125250   2.496   1.744   5.580
 8117SOL    HW225251   2.510   1.905   5.555
 8118SOL     OW25252   1.354   2.947   4.528
 8118SOL    HW125253   1.289   2.983   4.596
 8118SOL    HW225254   1.391   2.860   4.562
 8119SOL     OW25255   1.160   5.970   2.108
 8119SOL    HW125256   1.155   6.052   2.050
 8119SOL    HW225257   1.214   5.990   2.190
 8120SOL     OW25258   4.011   4.265   1.386
 8120SOL    HW125259   3.946   4.267   1.462
 8120SOL    HW225260   4.083   4.198   1.405
 8121SOL     OW25261   6.654   6.691   2.985
 8121SOL    HW125262   6.636   6.620   3.054
 8121SOL    HW225263   6.598   6.674   2.905
 8122SOL     OW25264   0.607   6.351   1.521
 8122SOL    HW125265   0.615   6.406   1.438
 8122SOL    HW225266   0.587   6.411   1.599
 8123SOL     OW25267   0.508   5.545   0.278
 8123SOL    HW125268   0.548   5.485   0.209
 8123SOL    HW225269   0.569   5.550   0.357
 8124SOL     OW25270   0.549   6.146   2.435
 8124SOL    HW125271   0.462   6.193   2.425
 8124SOL    HW225272   0.589   6.168   2.524
 8125SOL     OW25273   5.729   5.591   2.856
 8125SOL    HW125274   5.665   5.536   2.910
 8125SOL    HW225275   5.765   5.535   2.782
 8126SOL     OW25276   6.132   4.616   2.185
 8126SOL    HW125277   6.041   4.636   2.148
 8126SOL    HW225278   6.185   4.700   2.191
 8127SOL     OW25279   3.214   4.502   1.150
 8127SOL    HW125280   3.131   4.539   1.108
 8127SOL    HW225281   3.259   4.573   1.204
 8128SOL     OW25282   3.762   2.726   5.471
 8128SOL    HW125283   3.734   2.723   5.375
 8128SOL    HW225284   3.860   2.709   5.478
 8129SOL     OW25285   5.005   6.656   0.329
 8129SOL    HW125286   4.962   6.575   0.289
 8129SOL    HW225287   4.948   6.690   0.404
 8130SOL     OW25288   1.018   0.194   0.567
 8130SOL    HW125289   0.933   0.218   0.614
 8130SOL    HW225290   1.006   0.203   0.468
 8131SOL     OW25291   0.820   1.195   0.111
 8131SOL    HW125292   0.865   1.242   0.187
 8131SOL    HW225293   0.769   1.116   0.146
 8132SOL     OW25294   6.091   4.752   3.070
 8132SOL    HW125295   6.160   4.825   3.079
 8132SOL    HW225296   6.051   4.756   2.979
 8133SOL     OW25297   0.756   5.897   1.780
 8133SOL    HW125298   0.738   5.991   1.810
 8133SOL    HW225299   0.851   5.873   1.802
 8134SOL     OW25300   2.107   2.446   1.680
 8134SOL    HW125301   2.131   2.408   1.591
 8134SOL    HW225302   2.098   2.546   1.671
 8135SOL     OW25303   3.841   5.977   2.347
 8135SOL    HW125304   3.879   5.909   2.410
 8135SOL    HW225305   3.755   6.012   2.385
 8136SOL     OW25306   3.486   6.145   1.027
 8136SOL    HW125307   3.432   6.228   1.044
 8136SOL    HW225308   3.573   6.170   0.984
 8137SOL     OW25309   2.848   3.992   5.499
 8137SOL    HW125310   2.751   4.009   5.483
 8137SOL    HW225311   2.861   3.896   5.523
 8138SOL     OW25312   4.910   1.142   3.845
 8138SOL    HW125313   4.846   1.201   3.796
 8138SOL    HW225314   4.875   1.048   3.844
 8139SOL     OW25315   1.672   2.596   4.255
 8139SOL    HW125316   1.608   2.544   4.200
 8139SOL    HW225317   1.738   2.534   4.298
 8140SOL     OW25318   4.184   0.077   1.140
 8140SOL    HW125319   4.147   0.091   1.232
 8140SOL    HW225320   4.277   0.112   1.136
 8141SOL     OW25321   5.906   0.889   5.188
 8141SOL    HW125322   5.870   0.915   5.098
 8141SOL    HW225323   5.971   0.958   5.219
 8142SOL     OW25324   2.434   5.371   1.588
 8142SOL    HW125325   2.339   5.346   1.605
 8142SOL    HW225326   2.436   5.452   1.528
 8143SOL     OW25327   6.052   5.205   1.012
 8143SOL    HW125328   6.025   5.278   0.949
 8143SOL    HW225329   6.007   5.120   0.985
 8144SOL     OW25330   6.805   5.179   0.366
 8144SOL    HW125331   6.795   5.130   0.279
 8144SOL    HW225332   6.877   5.248   0.356
 8145SOL     OW25333   5.433   5.558   6.890
 8145SOL    HW125334   5.437   5.526   6.984
 8145SOL    HW225335   5.444   5.480   6.828
 8146SOL     OW25336   6.205   0.449   4.726
 8146SOL    HW125337   6.297   0.487   4.737
 8146SOL    HW225338   6.198   0.405   4.636
 8147SOL     OW25339   1.899   0.904   6.501
 8147SOL    HW125340   1.929   0.852   6.581
 8147SOL    HW225341   1.927   0.856   6.418
 8148SOL     OW25342   4.708   4.609   0.472
 8148SOL    HW125343   4.692   4.664   0.554
 8148SOL    HW225344   4.625   4.608   0.416
 8149SOL     OW25345   0.698   0.030   4.915
 8149SOL    HW125346   0.757   0.087   4.857
 8149SOL    HW225347   0.724   6.953   4.905
 8150SOL     OW25348   0.246   4.126   0.751
 8150SOL    HW125349   0.313   4.121   0.825
 8150SOL    HW225350   0.272   4.198   0.687
 8151SOL     OW25351   6.278   6.243   3.100
 8151SOL    HW125352   6.256   6.341   3.099
 8151SOL    HW225353   6.245   6.201   3.016
 8152SOL     OW25354   5.044   1.583   3.234
 8152SOL    HW125355   5.099   1.663   3.257
 8152SOL    HW225356   4.966   1.611   3.180
 8153SOL     OW25357   0.293   1.355   2.057
 8153SOL    HW125358   0.246   1.443   2.056
 8153SOL    HW225359   0.341   1.344   2.144
 8154SOL     OW25360   1.918   0.406   2.912
 8154SOL    HW125361   1.990   0.391   2.844
 8154SOL    HW225362   1.887   0.319   2.948
 8155SOL     OW25363   1.753   5.273   3.394
 8155SOL    HW125364   1.678   5.230   3.344
 8155SOL    HW225365   1.837   5.268   3.340
 8156SOL     OW25366   0.771   4.556   1.143
 8156SOL    HW125367   0.854   4.543   1.198
 8156SOL    HW225368   0.704   4.486   1.166
 8157SOL     OW25369   6.681   4.130   4.889
 8157SOL    HW125370   6.732   4.130   4.975
 8157SOL    HW225371   6.660   4.224   4.862
 8158SOL     OW25372   6.110   5.682   6.656
 8158SOL    HW125373   6.090   5.651   6.749
 8158SOL    HW225374   6.106   5.781   6.653
 8159SOL     OW25375   3.141   6.863   5.051
 8159SOL    HW125376   3.123   6.884   4.955
 8159SOL    HW225377   3.095   6.778   5.076
 8160SOL     OW25378   5.792   1.198   1.885
 8160SOL    HW125379   5.803   1.115   1.940
 8160SOL    HW225380   5.724   1.183   1.814
 8161SOL     OW25381   5.850   3.821   1.869
 8161SOL    HW125382   5.872   3.766   1.788
 8161SOL    HW225383   5.786   3.770   1.927
 8162SOL     OW25384   0.202   5.480   5.794
 8162SOL    HW125385   0.249   5.500   5.707
 8162SOL    HW225386   0.116   5.530   5.797
 8163SOL     OW25387   4.257   4.473   5.458
 8163SOL    HW125388   4.185   4.464   5.527
 8163SOL    HW225389   4.261   4.390   5.403
 8164SOL     OW25390   5.650   1.741   1.252
 8164SOL    HW125391   5.717   1.812   1.230
 8164SOL    HW225392   5.652   1.669   1.182
 8165SOL     OW25393   0.135   1.172   0.184
 8165SOL    HW125394   0.116   1.270   0.172
 8165SOL    HW225395   0.154   1.154   0.281
 8166SOL     OW25396   1.548   1.669   5.315
 8166SOL    HW125397   1.528   1.626   5.227
 8166SOL    HW225398   1.548   1.769   5.303
 8167SOL     OW25399   1.769   3.328   4.077
 8167SOL    HW125400   1.864   3.343   4.052
 8167SOL    HW225401   1.717   3.301   3.996
 8168SOL     OW25402   1.487   0.498   2.410
 8168SOL    HW125403   1.445   0.588   2.424
 8168SOL    HW225404   1.550   0.502   2.332
 8169SOL     OW25405   5.002   3.031   0.370
 8169SOL    HW125406   5.046   3.117   0.340
 8169SOL    HW225407   4.945   3.049   0.450
 8170SOL     OW25408   6.833   4.920   2.302
 8170SOL    HW125409   6.844   5.003   2.356
 8170SOL    HW225410   6.816   4.842   2.364
 8171SOL     OW25411   2.536   1.263   0.385
 8171SOL    HW125412   2.587   1.349   0.389
 8171SOL    HW225413   2.447   1.275   0.429
 8172SOL     OW25414   1.092   2.478   0.514
 8172SOL    HW125415   1.069   2.429   0.430
 8172SOL    HW225416   1.021   2.546   0.534
 8173SOL     OW25417   5.815   1.132   1.482
 8173SOL    HW125418   5.766   1.210   1.443
 8173SOL    HW225419   5.759   1.049   1.474
 8174SOL     OW25420   2.966   5.799   3.125
 8174SOL    HW125421   3.011   5.749   3.051
 8174SOL    HW225422   2.882   5.841   3.090
 8175SOL     OW25423   0.129   1.634   5.560
 8175SOL    HW125424   0.151   1.633   5.658
 8175SOL    HW225425   0.030   1.646   5.549
 8176SOL     OW25426   2.218   4.566   0.333
 8176SOL    HW125427   2.127   4.563   0.373
 8176SOL    HW225428   2.287   4.552   0.405
 8177SOL     OW25429   3.270   0.835   3.889
 8177SOL    HW125430   3.176   0.860   3.910
 8177SOL    HW225431   3.325   0.918   3.878
 8178SOL     OW25432   3.001   6.835   1.843
 8178SOL    HW125433   3.073   6.848   1.774
 8178SOL    HW225434   3.019   6.751   1.894
 8179SOL     OW25435   5.491   0.846   3.286
 8179SOL    HW125436   5.413   0.823   3.343
 8179SOL    HW225437   5.576   0.830   3.337
 8180SOL     OW25438   4.969   6.050   0.225
 8180SOL    HW125439   4.994   5.954   0.211
 8180SOL    HW225440   4.981   6.074   0.321
 8181SOL     OW25441   7.015   0.151   0.133
 8181SOL    HW125442   7.019   0.230   0.072
 8181SOL    HW225443   6.920   0.121   0.141
 8182SOL     OW25444   3.077   3.490   4.517
 8182SOL    HW125445   3.064   3.446   4.606
 8182SOL    HW225446   2.992   3.488   4.465
 8183SOL     OW25447   0.036   0.455   5.405
 8183SOL    HW125448   0.085   0.534   5.370
 8183SOL    HW225449   0.095   0.374   5.402
 8184SOL     OW25450   0.675   5.953   6.992
 8184SOL    HW125451   0.623   5.953   0.058
 8184SOL    HW225452   0.614   5.978   6.917
 8185SOL     OW25453   0.874   6.195   6.056
 8185SOL    HW125454   0.968   6.218   6.031
 8185SOL    HW225455   0.811   6.229   5.986
 8186SOL     OW25456   1.857   5.491   6.333
 8186SOL    HW125457   1.875   5.422   6.263
 8186SOL    HW225458   1.941   5.543   6.351
 8187SOL     OW25459   0.808   0.862   5.714
 8187SOL    HW125460   0.809   0.902   5.622
 8187SOL    HW225461   0.901   0.862   5.751
 8188SOL     OW25462   1.912   2.849   3.231
 8188SOL    HW125463   1.881   2.940   3.258
 8188SOL    HW225464   2.000   2.856   3.185
 8189SOL     OW25465   5.472   5.173   3.624
 8189SOL    HW125466   5.553   5.149   3.570
 8189SOL    HW225467   5.391   5.130   3.583
 8190SOL     OW25468   0.142   4.160   2.578
 8190SOL    HW125469   0.231   4.163   2.623
 8190SOL    HW225470   0.105   4.067   2.584
 8191SOL     OW25471   4.164   5.502   0.733
 8191SOL    HW125472   4.260   5.532   0.738
 8191SOL    HW225473   4.160   5.402   0.739
 8192SOL     OW25474   0.406   6.083   3.744
 8192SOL    HW125475   0.503   6.089   3.768
 8192SOL    HW225476   0.356   6.037   3.817
 8193SOL     OW25477   0.729   5.002   4.411
 8193SOL    HW125478   0.761   4.911   4.385
 8193SOL    HW225479   0.630   5.007   4.394
 8194SOL     OW25480   4.527   6.878   2.042
 8194SOL    HW125481   4.502   6.913   1.951
 8194SOL    HW225482   4.468   6.921   2.111
 8195SOL     OW25483   6.195   6.505   3.109
 8195SOL    HW125484   6.204   6.529   3.012
 8195SOL    HW225485   6.109   6.540   3.144
 8196SOL     OW25486   4.830   1.225   1.283
 8196SOL    HW125487   4.764   1.273   1.225
 8196SOL    HW225488   4.923   1.241   1.248
 8197SOL     OW25489   3.896   1.502   2.629
 8197SOL    HW125490   3.986   1.507   2.670
 8197SOL    HW225491   3.826   1.501   2.700
 8198SOL     OW25492   1.607   6.967   1.698
 8198SOL    HW125493   1.644   6.920   1.778
 8198SOL    HW225494   1.624   0.046   1.706
 8199SOL     OW25495   5.567   2.913   0.132
 8199SOL    HW125496   5.642   2.945   0.075
 8199SOL    HW225497   5.553   2.815   0.116
 8200SOL     OW25498   4.452   3.297   0.608
 8200SOL    HW125499   4.487   3.209   0.637
 8200SOL    HW225500   4.519   3.343   0.551
 8201SOL     OW25501   5.711   0.126   5.097
 8201SOL    HW125502   5.655   0.067   5.155
 8201SOL    HW225503   5.722   0.084   5.007
 8202SOL     OW25504   0.994   6.792   2.089
 8202SOL    HW125505   1.087   6.778   2.125
 8202SOL    HW225506   0.930   6.735   2.140
 8203SOL     OW25507   1.483   3.050   1.758
 8203SOL    HW125508   1.549   3.115   1.797
 8203SOL    HW225509   1.393   3.093   1.754
 8204SOL     OW25510   3.190   2.935   1.457
 8204SOL    HW125511   3.278   2.948   1.504
 8204SOL    HW225512   3.207   2.897   1.366
 8205SOL     OW25513   1.110   3.412   0.169
 8205SOL    HW125514   1.143   3.488   0.226
 8205SOL    HW225515   1.176   3.396   0.096
 8206SOL     OW25516   3.345   0.421   0.680
 8206SOL    HW125517   3.316   0.474   0.760
 8206SOL    HW225518   3.443   0.437   0.663
 8207SOL     OW25519   4.168   3.533   4.802
 8207SOL    HW125520   4.167   3.434   4.819
 8207SOL    HW225521   4.133   3.551   4.710
 8208SOL     OW25522   2.451   1.010   0.330
 8208SOL    HW125523   2.478   1.106   0.340
 8208SOL    HW225524   2.469   0.962   0.416
 8209SOL     OW25525   6.145   1.800   4.791
 8209SOL    HW125526   6.056   1.754   4.785
 8209SOL    HW225527   6.138   1.891   4.751
 8210SOL     OW25528   2.267   2.301   6.475
 8210SOL    HW125529   2.182   2.278   6.427
 8210SOL    HW225530   2.244   2.341   6.564
 8211SOL     OW25531   3.454   4.547   1.381
 8211SOL    HW125532   3.452   4.544   1.481
 8211SOL    HW225533   3.531   4.494   1.348
 8212SOL     OW25534   1.654   2.755   3.563
 8212SOL    HW125535   1.753   2.741   3.558
 8212SOL    HW225536   1.612   2.675   3.607
 8213SOL     OW25537   6.795   5.183   1.193
 8213SOL    HW125538   6.797   5.159   1.096
 8213SOL    HW225539   6.845   5.114   1.246
 8214SOL     OW25540   5.669   4.005   3.758
 8214SOL    HW125541   5.737   3.989   3.829
 8214SOL    HW225542   5.664   4.102   3.738
 8215SOL     OW25543   3.862   5.308   3.536
 8215SOL    HW125544   3.808   5.266   3.462
 8215SOL    HW225545   3.808   5.308   3.620
 8216SOL     OW25546   5.603   3.737   3.808
 8216SOL    HW125547   5.653   3.822   3.792
 8216SOL    HW225548   5.506   3.757   3.821
 8217SOL     OW25549   2.107   6.209   0.092
 8217SOL    HW125550   2.154   6.127   0.125
 8217SOL    HW225551   2.098   6.205   7.012
 8218SOL     OW25552   6.675   2.405   6.701
 8218SOL    HW125553   6.611   2.381   6.628
 8218SOL    HW225554   6.763   2.361   6.684
 8219SOL     OW25555   5.856   1.803   0.093
 8219SOL    HW125556   5.810   1.877   0.142
 8219SOL    HW225557   5.881   1.835   0.001
 8220SOL     OW25558   3.924   3.522   2.186
 8220SOL    HW125559   3.984   3.567   2.252
 8220SOL    HW225560   3.949   3.551   2.093
 8221SOL     OW25561   5.384   6.152   3.534
 8221SOL    HW125562   5.401   6.201   3.449
 8221SOL    HW225563   5.309   6.087   3.521
 8222SOL     OW25564   5.806   1.983   1.283
 8222SOL    HW125565   5.883   1.939   1.236
 8222SOL    HW225566   5.841   2.049   1.350
 8223SOL     OW25567   0.412   4.986   5.888
 8223SOL    HW125568   0.419   4.945   5.979
 8223SOL    HW225569   0.351   5.065   5.891
 8224SOL     OW25570   1.208   3.049   4.087
 8224SOL    HW125571   1.158   3.018   4.167
 8224SOL    HW225572   1.273   3.120   4.114
 8225SOL     OW25573   4.854   1.580   0.399
 8225SOL    HW125574   4.867   1.642   0.321
 8225SOL    HW225575   4.929   1.592   0.464
 8226SOL     OW25576   5.017   0.775   0.995
 8226SOL    HW125577   5.047   0.752   0.903
 8226SOL    HW225578   4.922   0.805   0.994
 8227SOL     OW25579   6.664   3.393   3.416
 8227SOL    HW125580   6.589   3.455   3.440
 8227SOL    HW225581   6.627   3.307   3.383
 8228SOL     OW25582   6.655   2.719   5.235
 8228SOL    HW125583   6.591   2.780   5.188
 8228SOL    HW225584   6.617   2.626   5.237
 8229SOL     OW25585   3.479   5.089   0.299
 8229SOL    HW125586   3.456   5.185   0.283
 8229SOL    HW225587   3.397   5.038   0.325
 8230SOL     OW25588   5.072   0.078   3.888
 8230SOL    HW125589   5.095   0.145   3.958
 8230SOL    HW225590   5.049   0.125   3.803
 8231SOL     OW25591   4.713   6.177   0.958
 8231SOL    HW125592   4.670   6.189   1.047
 8231SOL    HW225593   4.662   6.109   0.905
 8232SOL     OW25594   2.871   2.624   6.053
 8232SOL    HW125595   2.833   2.619   6.145
 8232SOL    HW225596   2.961   2.580   6.052
 8233SOL     OW25597   0.309   5.218   0.113
 8233SOL    HW125598   0.255   5.223   0.197
 8233SOL    HW225599   0.249   5.231   0.034
 8234SOL     OW25600   3.504   2.080   6.854
 8234SOL    HW125601   3.471   2.127   6.936
 8234SOL    HW225602   3.555   1.998   6.880
 8235SOL     OW25603   4.600   3.108   0.969
 8235SOL    HW125604   4.652   3.022   0.968
 8235SOL    HW225605   4.551   3.116   1.055
 8236SOL     OW25606   6.106   3.426   0.771
 8236SOL    HW125607   6.121   3.497   0.702
 8236SOL    HW225608   6.180   3.359   0.767
 8237SOL     OW25609   4.444   6.067   5.621
 8237SOL    HW125610   4.373   6.122   5.578
 8237SOL    HW225611   4.522   6.057   5.558
 8238SOL     OW25612   2.047   1.844   6.481
 8238SOL    HW125613   2.034   1.745   6.470
 8238SOL    HW225614   1.959   1.888   6.496
 8239SOL     OW25615   0.257   2.095   6.320
 8239SOL    HW125616   0.182   2.139   6.271
 8239SOL    HW225617   0.247   1.995   6.313
 8240SOL     OW25618   3.996   3.860   3.843
 8240SOL    HW125619   4.024   3.912   3.762
 8240SOL    HW225620   4.041   3.771   3.843
 8241SOL     OW25621   3.828   6.735   0.484
 8241SOL    HW125622   3.872   6.777   0.563
 8241SOL    HW225623   3.804   6.640   0.505
 8242SOL     OW25624   1.016   4.264   5.554
 8242SOL    HW125625   1.010   4.356   5.515
 8242SOL    HW225626   1.107   4.250   5.592
 8243SOL     OW25627   0.825   3.653   4.889
 8243SOL    HW125628   0.855   3.584   4.824
 8243SOL    HW225629   0.786   3.608   4.969
 8244SOL     OW25630   0.438   6.765   4.298
 8244SOL    HW125631   0.445   6.792   4.395
 8244SOL    HW225632   0.351   6.718   4.283
 8245SOL     OW25633   3.562   2.857   0.634
 8245SOL    HW125634   3.467   2.866   0.663
 8245SOL    HW225635   3.568   2.858   0.534
 8246SOL     OW25636   5.067   3.697   5.848
 8246SOL    HW125637   5.108   3.657   5.766
 8246SOL    HW225638   5.056   3.626   5.917
 8247SOL     OW25639   0.837   0.224   1.324
 8247SOL    HW125640   0.795   0.142   1.285
 8247SOL    HW225641   0.911   0.254   1.264
 8248SOL     OW25642   6.179   4.180   3.489
 8248SOL    HW125643   6.193   4.149   3.395
 8248SOL    HW225644   6.206   4.276   3.496
 8249SOL     OW25645   2.096   5.097   3.739
 8249SOL    HW125646   2.067   5.018   3.795
 8249SOL    HW225647   2.020   5.126   3.681
 8250SOL     OW25648   4.076   3.598   2.422
 8250SOL    HW125649   4.085   3.637   2.514
 8250SOL    HW225650   4.115   3.506   2.422
 8251SOL     OW25651   5.664   1.853   4.628
 8251SOL    HW125652   5.723   1.933   4.628
 8251SOL    HW225653   5.627   1.839   4.536
 8252SOL     OW25654   1.555   3.151   4.964
 8252SOL    HW125655   1.586   3.056   4.963
 8252SOL    HW225656   1.558   3.186   5.057
 8253SOL     OW25657   3.322   3.310   5.470
 8253SOL    HW125658   3.351   3.316   5.374
 8253SOL    HW225659   3.312   3.402   5.507
 8254SOL     OW25660   3.869   5.539   3.377
 8254SOL    HW125661   3.882   5.449   3.418
 8254SOL    HW225662   3.796   5.587   3.425
 8255SOL     OW25663   4.748   5.206   3.708
 8255SOL    HW125664   4.757   5.256   3.794
 8255SOL    HW225665   4.756   5.271   3.632
 8256SOL     OW25666   6.815   1.492   4.280
 8256SOL    HW125667   6.896   1.485   4.221
 8256SOL    HW225668   6.760   1.571   4.251
 8257SOL     OW25669   6.495   4.307   3.801
 8257SOL    HW125670   6.437   4.365   3.743
 8257SOL    HW225671   6.440   4.267   3.874
 8258SOL     OW25672   4.488   1.293   6.903
 8258SOL    HW125673   4.487   1.193   6.912
 8258SOL    HW225674   4.483   1.335   6.993
 8259SOL     OW25675   3.764   1.891   2.025
 8259SOL    HW125676   3.845   1.945   2.045
 8259SOL    HW225677   3.692   1.950   1.990
 8260SOL     OW25678   2.357   6.070   0.391
 8260SOL    HW125679   2.312   6.144   0.342
 8260SOL    HW225680   2.291   6.024   0.451
 8261SOL     OW25681   5.478   1.483   2.043
 8261SOL    HW125682   5.507   1.563   1.990
 8261SOL    HW225683   5.557   1.443   2.089
 8262SOL     OW25684   0.940   2.220   1.215
 8262SOL    HW125685   0.960   2.142   1.275
 8262SOL    HW225686   0.873   2.279   1.258
 8263SOL     OW25687   6.555   1.641   0.745
 8263SOL    HW125688   6.520   1.726   0.785
 8263SOL    HW225689   6.655   1.644   0.744
 8264SOL     OW25690   1.851   4.923   3.242
 8264SOL    HW125691   1.865   4.965   3.332
 8264SOL    HW225692   1.756   4.891   3.235
 8265SOL     OW25693   1.762   0.773   2.013
 8265SOL    HW125694   1.681   0.758   1.957
 8265SOL    HW225695   1.735   0.806   2.103
 8266SOL     OW25696   3.148   0.061   2.914
 8266SOL    HW125697   3.069   0.001   2.929
 8266SOL    HW225698   3.165   0.067   2.815
 8267SOL     OW25699   0.576   3.280   1.270
 8267SOL    HW125700   0.652   3.315   1.324
 8267SOL    HW225701   0.501   3.348   1.271
 8268SOL     OW25702   2.748   6.915   5.340
 8268SOL    HW125703   2.809   6.988   5.371
 8268SOL    HW225704   2.802   6.840   5.302
 8269SOL     OW25705   5.569   1.857   0.967
 8269SOL    HW125706   5.540   1.765   0.994
 8269SOL    HW225707   5.499   1.923   0.993
 8270SOL     OW25708   3.833   6.042   3.464
 8270SOL    HW125709   3.821   5.996   3.375
 8270SOL    HW225710   3.759   6.108   3.477
 8271SOL     OW25711   6.874   1.786   2.545
 8271SOL    HW125712   6.898   1.872   2.589
 8271SOL    HW225713   6.921   1.711   2.591
 8272SOL     OW25714   3.479   1.375   3.287
 8272SOL    HW125715   3.563   1.328   3.257
 8272SOL    HW225716   3.487   1.472   3.268
 8273SOL     OW25717   2.455   6.346   0.767
 8273SOL    HW125718   2.408   6.429   0.798
 8273SOL    HW225719   2.438   6.332   0.670
 8274SOL     OW25720   5.203   5.312   3.020
 8274SOL    HW125721   5.205   5.345   2.926
 8274SOL    HW225722   5.150   5.227   3.024
 8275SOL     OW25723   4.899   2.211   5.714
 8275SOL    HW125724   4.816   2.173   5.671
 8275SOL    HW225725   4.979   2.182   5.661
 8276SOL     OW25726   0.805   1.649   3.533
 8276SOL    HW125727   0.786   1.555   3.561
 8276SOL    HW225728   0.853   1.648   3.445
 8277SOL     OW25729   6.605   0.262   6.717
 8277SOL    HW125730   6.559   0.328   6.776
 8277SOL    HW225731   6.605   0.172   6.761
 8278SOL     OW25732   2.295   2.388   0.606
 8278SOL    HW125733   2.204   2.374   0.568
 8278SOL    HW225734   2.352   2.436   0.540
 8279SOL     OW25735   7.010   6.252   4.037
 8279SOL    HW125736   0.010   6.161   4.074
 8279SOL    HW225737   6.944   6.245   3.963
 8280SOL     OW25738   3.113   2.925   5.747
 8280SOL    HW125739   3.148   2.834   5.724
 8280SOL    HW225740   3.022   2.916   5.788
 8281SOL     OW25741   0.007   5.736   1.592
 8281SOL    HW125742   0.054   5.745   1.679
 8281SOL    HW225743   6.960   5.662   1.597
 8282SOL     OW25744   5.153   2.173   5.329
 8282SOL    HW125745   5.188   2.081   5.311
 8282SOL    HW225746   5.128   2.181   5.426
 8283SOL     OW25747   1.890   4.200   5.870
 8283SOL    HW125748   1.884   4.146   5.786
 8283SOL    HW225749   1.978   4.184   5.914
 8284SOL     OW25750   7.002   4.597   2.015
 8284SOL    HW125751   6.972   4.553   2.100
 8284SOL    HW225752   0.011   4.690   2.035
 8285SOL     OW25753   3.554   3.507   5.361
 8285SOL    HW125754   3.599   3.423   5.393
 8285SOL    HW225755   3.579   3.583   5.421
 8286SOL     OW25756   6.492   2.132   5.797
 8286SOL    HW125757   6.464   2.037   5.784
 8286SOL    HW225758   6.418   2.184   5.840
 8287SOL     OW25759   2.044   5.384   4.549
 8287SOL    HW125760   2.099   5.311   4.588
 8287SOL    HW225761   1.948   5.374   4.576
 8288SOL     OW25762   2.502   2.498   3.379
 8288SOL    HW125763   2.417   2.524   3.334
 8288SOL    HW225764   2.485   2.473   3.474
 8289SOL     OW25765   0.613   6.254   6.900
 8289SOL    HW125766   0.672   6.229   6.823
 8289SOL    HW225767   0.670   6.278   6.979
 8290SOL     OW25768   6.625   2.633   0.999
 8290SOL    HW125769   6.720   2.606   0.984
 8290SOL    HW225770   6.567   2.551   1.002
 8291SOL     OW25771   4.475   0.421   6.950
 8291SOL    HW125772   4.530   0.361   7.007
 8291SOL    HW225773   4.522   0.509   6.941
 8292SOL     OW25774   3.176   6.597   6.772
 8292SOL    HW125775   3.260   6.559   6.810
 8292SOL    HW225776   3.100   6.579   6.836
 8293SOL     OW25777   5.420   5.873   5.991
 8293SOL    HW125778   5.352   5.819   6.041
 8293SOL    HW225779   5.502   5.818   5.975
 8294SOL     OW25780   5.467   2.428   0.071
 8294SOL    HW125781   5.367   2.433   0.066
 8294SOL    HW225782   5.497   2.336   0.050
 8295SOL     OW25783   4.699   4.138   0.954
 8295SOL    HW125784   4.790   4.096   0.951
 8295SOL    HW225785   4.658   4.136   0.863
 8296SOL     OW25786   1.810   5.406   6.740
 8296SOL    HW125787   1.875   5.333   6.720
 8296SOL    HW225788   1.852   5.495   6.721
 8297SOL     OW25789   0.224   2.919   3.031
 8297SOL    HW125790   0.260   2.894   2.941
 8297SOL    HW225791   0.133   2.880   3.042
 8298SOL     OW25792   4.933   0.541   1.622
 8298SOL    HW125793   4.950   0.637   1.645
 8298SOL    HW225794   4.869   0.535   1.546
 8299SOL     OW25795   6.132   2.089   1.596
 8299SOL    HW125796   6.173   1.999   1.609
 8299SOL    HW225797   6.062   2.085   1.524
 8300SOL     OW25798   0.506   4.816   3.609
 8300SOL    HW125799   0.458   4.739   3.567
 8300SOL    HW225800   0.489   4.817   3.707
 8301SOL     OW25801   3.603   2.767   0.001
 8301SOL    HW125802   3.596   2.840   6.953
 8301SOL    HW225803   3.568   2.682   6.981
 8302SOL     OW25804   5.903   6.438   6.415
 8302SOL    HW125805   5.822   6.387   6.386
 8302SOL    HW225806   5.875   6.520   6.466
 8303SOL     OW25807   0.450   0.090   4.965
 8303SOL    HW125808   0.391   0.009   4.972
 8303SOL    HW225809   0.545   0.061   4.952
 8304SOL     OW25810   1.136   3.741   6.936
 8304SOL    HW125811   1.087   3.774   7.017
 8304SOL    HW225812   1.152   3.818   6.874
 8305SOL     OW25813   3.637   5.429   3.192
 8305SOL    HW125814   3.666   5.389   3.278
 8305SOL    HW225815   3.717   5.460   3.141
 8306SOL     OW25816   0.869   3.087   4.159
 8306SOL    HW125817   0.895   3.159   4.095
 8306SOL    HW225818   0.949   3.059   4.212
 8307SOL     OW25819   4.269   5.594   1.104
 8307SOL    HW125820   4.252   5.562   1.197
 8307SOL    HW225821   4.197   5.560   1.043
 8308SOL     OW25822   3.725   6.558   2.193
 8308SOL    HW125823   3.823   6.539   2.181
 8308SOL    HW225824   3.709   6.600   2.282
 8309SOL     OW25825   5.598   5.859   1.730
 8309SOL    HW125826   5.501   5.880   1.732
 8309SOL    HW225827   5.619   5.793   1.803
 8310SOL     OW25828   0.083   4.550   0.485
 8310SOL    HW125829   0.003   4.555   0.426
 8310SOL    HW225830   0.063   4.592   0.573
 8311SOL     OW25831   6.566   0.857   0.085
 8311SOL    HW125832   6.533   0.767   0.056
 8311SOL    HW225833   6.640   0.846   0.152
 8312SOL     OW25834   5.631   6.734   1.711
 8312SOL    HW125835   5.639   6.648   1.760
 8312SOL    HW225836   5.720   6.760   1.674
 8313SOL     OW25837   3.644   1.448   2.401
 8313SOL    HW125838   3.734   1.442   2.357
 8313SOL    HW225839   3.626   1.363   2.450
 8314SOL     OW25840   6.554   0.422   2.561
 8314SOL    HW125841   6.565   0.414   2.660
 8314SOL    HW225842   6.476   0.481   2.540
 8315SOL     OW25843   4.901   3.894   7.015
 8315SOL    HW125844   4.846   3.826   0.044
 8315SOL    HW225845   4.867   3.986   0.019
 8316SOL     OW25846   1.557   3.715   6.903
 8316SOL    HW125847   1.478   3.753   6.950
 8316SOL    HW225848   1.535   3.699   6.807
 8317SOL     OW25849   2.412   4.543   1.750
 8317SOL    HW125850   2.366   4.624   1.712
 8317SOL    HW225851   2.510   4.550   1.734
 8318SOL     OW25852   3.837   1.651   5.166
 8318SOL    HW125853   3.916   1.592   5.181
 8318SOL    HW225854   3.761   1.620   5.222
 8319SOL     OW25855   3.627   1.499   5.347
 8319SOL    HW125856   3.580   1.411   5.349
 8319SOL    HW225857   3.560   1.573   5.341
 8320SOL     OW25858   2.961   4.393   1.363
 8320SOL    HW125859   2.990   4.309   1.315
 8320SOL    HW225860   2.861   4.396   1.366
 8321SOL     OW25861   0.736   0.452   1.400
 8321SOL    HW125862   0.695   0.473   1.489
 8321SOL    HW225863   0.762   0.356   1.396
 8322SOL     OW25864   6.503   6.582   6.884
 8322SOL    HW125865   6.592   6.608   6.921
 8322SOL    HW225866   6.467   6.504   6.936
 8323SOL     OW25867   1.109   1.832   2.198
 8323SOL    HW125868   1.075   1.741   2.177
 8323SOL    HW225869   1.138   1.877   2.113
 8324SOL     OW25870   6.316   0.882   2.229
 8324SOL    HW125871   6.385   0.812   2.250
 8324SOL    HW225872   6.316   0.901   2.131
 8325SOL     OW25873   3.372   2.937   4.034
 8325SOL    HW125874   3.466   2.965   4.047
 8325SOL    HW225875   3.353   2.927   3.936
 8326SOL     OW25876   4.016   3.137   6.061
 8326SOL    HW125877   3.957   3.100   5.989
 8326SOL    HW225878   4.015   3.237   6.057
 8327SOL     OW25879   5.359   2.308   5.946
 8327SOL    HW125880   5.295   2.305   6.022
 8327SOL    HW225881   5.334   2.383   5.884
 8328SOL     OW25882   2.109   2.121   5.819
 8328SOL    HW125883   2.113   2.029   5.858
 8328SOL    HW225884   2.019   2.161   5.837
 8329SOL     OW25885   6.977   3.109   5.510
 8329SOL    HW125886   0.054   3.127   5.530
 8329SOL    HW225887   6.948   3.165   5.432
 8330SOL     OW25888   2.157   6.468   0.595
 8330SOL    HW125889   2.241   6.430   0.557
 8330SOL    HW225890   2.166   6.568   0.602
 8331SOL     OW25891   2.535   6.777   0.937
 8331SOL    HW125892   2.621   6.785   0.987
 8331SOL    HW225893   2.542   6.826   0.850
 8332SOL     OW25894   4.998   4.904   2.360
 8332SOL    HW125895   5.064   4.932   2.291
 8332SOL    HW225896   4.906   4.909   2.321
 8333SOL     OW25897   0.733   5.669   0.071
 8333SOL    HW125898   0.667   5.594   0.064
 8333SOL    HW225899   0.703   5.745   0.014
 8334SOL     OW25900   5.881   1.973   3.704
 8334SOL    HW125901   5.948   1.946   3.635
 8334SOL    HW225902   5.822   2.046   3.666
 8335SOL     OW25903   5.982   6.704   5.858
 8335SOL    HW125904   5.905   6.712   5.795
 8335SOL    HW225905   5.948   6.679   5.949
 8336SOL     OW25906   0.433   1.867   1.840
 8336SOL    HW125907   0.460   1.862   1.936
 8336SOL    HW225908   0.477   1.793   1.789
 8337SOL     OW25909   0.545   6.345   2.834
 8337SOL    HW125910   0.515   6.430   2.789
 8337SOL    HW225911   0.521   6.349   2.931
 8338SOL     OW25912   1.689   4.564   1.620
 8338SOL    HW125913   1.786   4.565   1.596
 8338SOL    HW225914   1.638   4.512   1.551
 8339SOL     OW25915   5.198   1.648   2.656
 8339SOL    HW125916   5.287   1.602   2.661
 8339SOL    HW225917   5.210   1.738   2.614
 8340SOL     OW25918   4.972   3.961   0.717
 8340SOL    HW125919   5.066   3.955   0.751
 8340SOL    HW225920   4.953   4.054   0.686
 8341SOL     OW25921   2.770   6.258   1.186
 8341SOL    HW125922   2.764   6.337   1.247
 8341SOL    HW225923   2.753   6.175   1.238
 8342SOL     OW25924   4.090   0.750   0.961
 8342SOL    HW125925   4.054   0.715   0.874
 8342SOL    HW225926   4.179   0.709   0.979
 8343SOL     OW25927   1.473   5.251   6.057
 8343SOL    HW125928   1.438   5.160   6.079
 8343SOL    HW225929   1.486   5.260   5.958
 8344SOL     OW25930   4.534   6.157   5.847
 8344SOL    HW125931   4.498   6.114   5.764
 8344SOL    HW225932   4.562   6.086   5.911
 8345SOL     OW25933   6.070   1.125   2.895
 8345SOL    HW125934   6.170   1.123   2.902
 8345SOL    HW225935   6.044   1.115   2.799
 8346SOL     OW25936   3.181   5.283   1.158
 8346SOL    HW125937   3.141   5.372   1.134
 8346SOL    HW225938   3.201   5.233   1.074
 8347SOL     OW25939   3.571   6.700   5.466
 8347SOL    HW125940   3.609   6.759   5.537
 8347SOL    HW225941   3.477   6.674   5.490
 8348SOL     OW25942   1.201   0.813   0.189
 8348SOL    HW125943   1.169   0.818   0.284
 8348SOL    HW225944   1.297   0.786   0.188
 8349SOL     OW25945   5.473   4.512   1.720
 8349SOL    HW125946   5.421   4.520   1.635
 8349SOL    HW225947   5.525   4.427   1.719
 8350SOL     OW25948   6.339   1.185   5.159
 8350SOL    HW125949   6.325   1.220   5.252
 8350SOL    HW225950   6.436   1.187   5.137
 8351SOL     OW25951   3.695   6.252   3.637
 8351SOL    HW125952   3.673   6.272   3.732
 8351SOL    HW225953   3.723   6.337   3.591
 8352SOL     OW25954   6.845   6.489   2.214
 8352SOL    HW125955   6.889   6.578   2.209
 8352SOL    HW225956   6.767   6.493   2.275
 8353SOL     OW25957   0.535   3.440   2.394
 8353SOL    HW125958   0.505   3.360   2.445
 8353SOL    HW225959   0.478   3.519   2.418
 8354SOL     OW25960   2.224   1.075   6.837
 8354SOL    HW125961   2.287   1.085   6.760
 8354SOL    HW225962   2.267   1.109   6.920
 8355SOL     OW25963   3.327   0.583   0.158
 8355SOL    HW125964   3.335   0.498   0.106
 8355SOL    HW225965   3.241   0.584   0.209
 8356SOL     OW25966   2.469   5.872   6.993
 8356SOL    HW125967   2.512   5.870   0.064
 8356SOL    HW225968   2.372   5.896   7.003
 8357SOL     OW25969   4.822   5.953   5.144
 8357SOL    HW125970   4.909   6.001   5.155
 8357SOL    HW225971   4.749   6.007   5.187
 8358SOL     OW25972   1.721   2.963   5.375
 8358SOL    HW125973   1.713   2.863   5.382
 8358SOL    HW225974   1.747   3.000   5.464
 8359SOL     OW25975   4.378   5.559   4.437
 8359SOL    HW125976   4.400   5.588   4.344
 8359SOL    HW225977   4.462   5.533   4.485
 8360SOL     OW25978   5.261   0.297   2.866
 8360SOL    HW125979   5.335   0.359   2.841
 8360SOL    HW225980   5.174   0.346   2.864
 8361SOL     OW25981   1.933   0.336   2.572
 8361SOL    HW125982   1.835   0.316   2.583
 8361SOL    HW225983   1.944   0.415   2.513
 8362SOL     OW25984   2.935   2.076   0.531
 8362SOL    HW125985   2.843   2.051   0.562
 8362SOL    HW225986   3.002   2.051   0.601
 8363SOL     OW25987   6.971   3.167   0.325
 8363SOL    HW125988   6.897   3.137   0.386
 8363SOL    HW225989   6.939   3.244   0.270
 8364SOL     OW25990   6.644   3.833   3.546
 8364SOL    HW125991   6.558   3.814   3.498
 8364SOL    HW225992   6.632   3.911   3.607
 8365SOL     OW25993   1.967   3.126   6.292
 8365SOL    HW125994   2.024   3.127   6.374
 8365SOL    HW225995   1.996   3.200   6.231
 8366SOL     OW25996   3.100   6.439   2.769
 8366SOL    HW125997   3.060   6.355   2.734
 8366SOL    HW225998   3.166   6.475   2.702
 8367SOL     OW25999   5.580   6.501   3.820
 8367SOL    HW126000   5.596   6.533   3.726
 8367SOL    HW226001   5.499   6.442   3.821
 8368SOL     OW26002   2.911   5.112   6.001
 8368SOL    HW126003   2.958   5.100   6.089
 8368SOL    HW226004   2.978   5.126   5.929
 8369SOL     OW26005   1.988   1.516   0.651
 8369SOL    HW126006   2.086   1.494   0.644
 8369SOL    HW226007   1.947   1.508   0.560
 8370SOL     OW26008   1.158   1.583   6.233
 8370SOL    HW126009   1.212   1.572   6.149
 8370SOL    HW226010   1.066   1.615   6.209
 8371SOL     OW26011   1.467   2.972   0.729
 8371SOL    HW126012   1.506   2.978   0.820
 8371SOL    HW226013   1.374   3.009   0.730
 8372SOL     OW26014   0.190   0.991   3.024
 8372SOL    HW126015   0.236   0.933   3.091
 8372SOL    HW226016   0.194   1.087   3.054
 8373SOL     OW26017   1.746   6.124   5.285
 8373SOL    HW126018   1.846   6.118   5.285
 8373SOL    HW226019   1.713   6.120   5.191
 8374SOL     OW26020   6.598   6.999   6.876
 8374SOL    HW126021   6.621   7.007   6.779
 8374SOL    HW226022   6.505   0.014   6.892
 8375SOL     OW26023   3.489   6.840   6.118
 8375SOL    HW126024   3.555   6.810   6.049
 8375SOL    HW226025   3.518   6.927   6.157
 8376SOL     OW26026   3.120   0.549   4.652
 8376SOL    HW126027   3.097   0.638   4.613
 8376SOL    HW226028   3.117   0.480   4.580
 8377SOL     OW26029   5.894   4.548   1.520
 8377SOL    HW126030   5.938   4.528   1.608
 8377SOL    HW226031   5.893   4.465   1.464
 8378SOL     OW26032   4.849   3.103   3.001
 8378SOL    HW126033   4.830   3.125   3.097
 8378SOL    HW226034   4.878   3.007   2.994
 8379SOL     OW26035   6.266   2.637   2.466
 8379SOL    HW126036   6.235   2.729   2.441
 8379SOL    HW226037   6.231   2.614   2.557
 8380SOL     OW26038   4.402   1.978   3.138
 8380SOL    HW126039   4.375   1.944   3.229
 8380SOL    HW226040   4.328   1.960   3.073
 8381SOL     OW26041   1.871   5.527   4.735
 8381SOL    HW126042   1.903   5.582   4.812
 8381SOL    HW226043   1.849   5.435   4.768
 8382SOL     OW26044   1.397   3.072   2.153
 8382SOL    HW126045   1.482   3.109   2.116
 8382SOL    HW226046   1.416   2.986   2.201
 8383SOL     OW26047   2.802   2.355   6.471
 8383SOL    HW126048   2.799   2.393   6.379
 8383SOL    HW226049   2.877   2.289   6.478
 8384SOL     OW26050   0.422   6.884   1.660
 8384SOL    HW126051   0.506   6.922   1.620
 8384SOL    HW226052   0.379   6.822   1.595
 8385SOL     OW26053   4.776   2.391   1.970
 8385SOL    HW126054   4.804   2.372   2.065
 8385SOL    HW226055   4.710   2.322   1.941
 8386SOL     OW26056   1.206   3.952   2.728
 8386SOL    HW126057   1.221   3.974   2.825
 8386SOL    HW226058   1.263   4.012   2.672
 8387SOL     OW26059   0.443   2.468   1.132
 8387SOL    HW126060   0.531   2.434   1.099
 8387SOL    HW226061   0.440   2.568   1.121
 8388SOL     OW26062   2.032   0.863   1.982
 8388SOL    HW126063   2.031   0.952   1.936
 8388SOL    HW226064   1.941   0.822   1.978
 8389SOL     OW26065   5.606   2.675   2.145
 8389SOL    HW126066   5.569   2.740   2.080
 8389SOL    HW226067   5.537   2.605   2.166
 8390SOL     OW26068   5.465   1.813   5.543
 8390SOL    HW126069   5.516   1.761   5.612
 8390SOL    HW226070   5.504   1.796   5.453
 8391SOL     OW26071   6.034   0.377   0.975
 8391SOL    HW126072   6.130   0.389   1.001
 8391SOL    HW226073   6.029   0.326   0.890
 8392SOL     OW26074   5.284   3.150   4.747
 8392SOL    HW126075   5.298   3.083   4.820
 8392SOL    HW226076   5.186   3.158   4.728
 8393SOL     OW26077   5.199   6.969   1.389
 8393SOL    HW126078   5.126   7.018   1.341
 8393SOL    HW226079   5.183   6.973   1.488
 8394SOL     OW26080   6.111   3.550   1.554
 8394SOL    HW126081   6.121   3.566   1.456
 8394SOL    HW226082   6.159   3.622   1.605
 8395SOL     OW26083   1.903   1.203   4.489
 8395SOL    HW126084   1.941   1.289   4.454
 8395SOL    HW226085   1.965   1.165   4.558
 8396SOL     OW26086   4.531   5.884   4.338
 8396SOL    HW126087   4.593   5.846   4.407
 8396SOL    HW226088   4.517   5.817   4.265
 8397SOL     OW26089   6.331   1.078   3.000
 8397SOL    HW126090   6.412   1.088   3.057
 8397SOL    HW226091   6.251   1.066   3.059
 8398SOL     OW26092   4.773   2.123   5.958
 8398SOL    HW126093   4.689   2.175   5.971
 8398SOL    HW226094   4.811   2.143   5.868
 8399SOL     OW26095   6.754   4.819   0.735
 8399SOL    HW126096   6.780   4.846   0.642
 8399SOL    HW226097   6.796   4.881   0.801
 8400SOL     OW26098   1.650   2.221   4.795
 8400SOL    HW126099   1.727   2.176   4.749
 8400SOL    HW226100   1.584   2.151   4.825
 8401SOL     OW26101   3.038   0.569   5.983
 8401SOL    HW126102   3.042   0.508   5.904
 8401SOL    HW226103   3.062   0.662   5.955
 8402SOL     OW26104   3.919   0.259   5.875
 8402SOL    HW126105   3.864   0.176   5.867
 8402SOL    HW226106   3.886   0.313   5.953
 8403SOL     OW26107   5.821   4.829   4.357
 8403SOL    HW126108   5.758   4.765   4.313
 8403SOL    HW226109   5.910   4.786   4.368
 8404SOL     OW26110   1.808   2.046   6.386
 8404SOL    HW126111   1.816   1.947   6.369
 8404SOL    HW226112   1.733   2.062   6.450
 8405SOL     OW26113   3.799   0.844   5.553
 8405SOL    HW126114   3.832   0.900   5.477
 8405SOL    HW226115   3.723   0.890   5.598
 8406SOL     OW26116   5.034   0.611   6.096
 8406SOL    HW126117   5.026   0.514   6.073
 8406SOL    HW226118   5.056   0.621   6.193
 8407SOL     OW26119   3.524   6.695   4.049
 8407SOL    HW126120   3.473   6.701   4.135
 8407SOL    HW226121   3.612   6.742   4.060
 8408SOL     OW26122   4.064   1.292   1.468
 8408SOL    HW126123   4.147   1.329   1.427
 8408SOL    HW226124   4.026   1.357   1.533
 8409SOL     OW26125   4.370   2.432   1.838
 8409SOL    HW126126   4.295   2.480   1.794
 8409SOL    HW226127   4.424   2.496   1.893
 8410SOL     OW26128   6.781   1.972   1.715
 8410SOL    HW126129   6.742   2.059   1.686
 8410SOL    HW226130   6.753   1.953   1.809
 8411SOL     OW26131   1.818   5.375   0.417
 8411SOL    HW126132   1.812   5.405   0.512
 8411SOL    HW226133   1.768   5.439   0.359
 8412SOL     OW26134   2.678   2.854   6.048
 8412SOL    HW126135   2.594   2.816   6.008
 8412SOL    HW226136   2.744   2.781   6.064
 8413SOL     OW26137   4.192   5.759   4.742
 8413SOL    HW126138   4.291   5.752   4.733
 8413SOL    HW226139   4.157   5.678   4.789
 8414SOL     OW26140   0.732   0.817   1.676
 8414SOL    HW126141   0.647   0.850   1.717
 8414SOL    HW226142   0.775   0.751   1.737
 8415SOL     OW26143   2.138   0.859   5.303
 8415SOL    HW126144   2.219   0.832   5.252
 8415SOL    HW226145   2.154   0.946   5.349
 8416SOL     OW26146   6.559   1.335   5.037
 8416SOL    HW126147   6.506   1.375   4.962
 8416SOL    HW226148   6.531   1.377   5.123
 8417SOL     OW26149   1.464   4.218   5.291
 8417SOL    HW126150   1.400   4.150   5.328
 8417SOL    HW226151   1.432   4.310   5.314
 8418SOL     OW26152   0.678   6.156   2.194
 8418SOL    HW126153   0.604   6.146   2.260
 8418SOL    HW226154   0.733   6.072   2.192
 8419SOL     OW26155   4.642   1.856   3.816
 8419SOL    HW126156   4.734   1.879   3.784
 8419SOL    HW226157   4.587   1.939   3.821
 8420SOL     OW26158   2.904   0.491   2.884
 8420SOL    HW126159   2.827   0.444   2.926
 8420SOL    HW226160   2.921   0.577   2.932
 8421SOL     OW26161   4.788   6.093   6.286
 8421SOL    HW126162   4.829   6.005   6.309
 8421SOL    HW226163   4.804   6.113   6.190
 8422SOL     OW26164   4.559   2.676   3.093
 8422SOL    HW126165   4.616   2.696   3.013
 8422SOL    HW226166   4.546   2.759   3.146
 8423SOL     OW26167   6.734   5.014   6.414
 8423SOL    HW126168   6.772   5.103   6.388
 8423SOL    HW226169   6.645   5.001   6.369
 8424SOL     OW26170   2.240   7.010   3.654
 8424SOL    HW126171   2.293   0.003   3.570
 8424SOL    HW226172   2.255   0.068   3.714
 8425SOL     OW26173   4.154   3.505   3.064
 8425SOL    HW126174   4.161   3.518   2.965
 8425SOL    HW226175   4.131   3.410   3.084
 8426SOL     OW26176   3.702   2.994   1.792
 8426SOL    HW126177   3.762   2.961   1.865
 8426SOL    HW226178   3.646   3.069   1.826
 8427SOL     OW26179   3.456   3.861   3.936
 8427SOL    HW126180   3.551   3.877   3.906
 8427SOL    HW226181   3.451   3.868   4.036
 8428SOL     OW26182   6.535   6.890   0.489
 8428SOL    HW126183   6.569   6.982   0.507
 8428SOL    HW226184   6.591   6.847   0.418
 8429SOL     OW26185   2.523   5.425   5.866
 8429SOL    HW126186   2.546   5.356   5.797
 8429SOL    HW226187   2.519   5.381   5.956
 8430SOL     OW26188   4.181   6.647   5.417
 8430SOL    HW126189   4.192   6.641   5.516
 8430SOL    HW226190   4.106   6.710   5.396
 8431SOL     OW26191   3.244   3.936   6.357
 8431SOL    HW126192   3.326   3.899   6.402
 8431SOL    HW226193   3.222   3.880   6.277
 8432SOL     OW26194   6.325   5.089   6.138
 8432SOL    HW126195   6.241   5.036   6.129
 8432SOL    HW226196   6.317   5.174   6.086
 8433SOL     OW26197   5.450   2.750   0.622
 8433SOL    HW126198   5.464   2.818   0.694
 8433SOL    HW226199   5.501   2.777   0.541
 8434SOL     OW26200   2.528   6.367   5.627
 8434SOL    HW126201   2.583   6.286   5.610
 8434SOL    HW226202   2.562   6.415   5.707
 8435SOL     OW26203   4.678   0.996   3.015
 8435SOL    HW126204   4.727   1.062   2.959
 8435SOL    HW226205   4.743   0.945   3.072
 8436SOL     OW26206   2.613   5.931   2.375
 8436SOL    HW126207   2.606   5.947   2.473
 8436SOL    HW226208   2.635   5.834   2.359
 8437SOL     OW26209   1.914   3.968   2.038
 8437SOL    HW126210   1.978   3.961   1.962
 8437SOL    HW226211   1.954   3.928   2.120
 8438SOL     OW26212   0.838   4.492   2.245
 8438SOL    HW126213   0.862   4.447   2.159
 8438SOL    HW226214   0.906   4.470   2.315
 8439SOL     OW26215   5.714   5.466   3.514
 8439SOL    HW126216   5.653   5.523   3.459
 8439SOL    HW226217   5.806   5.504   3.512
 8440SOL     OW26218   1.966   1.506   2.899
 8440SOL    HW126219   2.015   1.541   2.819
 8440SOL    HW226220   2.013   1.426   2.935
 8441SOL     OW26221   6.008   1.294   4.319
 8441SOL    HW126222   6.069   1.259   4.390
 8441SOL    HW226223   6.047   1.377   4.279
 8442SOL     OW26224   3.604   1.488   5.953
 8442SOL    HW126225   3.649   1.477   5.865
 8442SOL    HW226226   3.532   1.557   5.946
 8443SOL     OW26227   0.822   3.820   3.048
 8443SOL    HW126228   0.816   3.750   2.977
 8443SOL    HW226229   0.732   3.861   3.063
 8444SOL     OW26230   4.783   5.066   4.443
 8444SOL    HW126231   4.695   5.114   4.440
 8444SOL    HW226232   4.814   5.060   4.538
 8445SOL     OW26233   4.089   5.656   6.871
 8445SOL    HW126234   4.171   5.604   6.894
 8445SOL    HW226235   4.115   5.748   6.841
 8446SOL     OW26236   6.836   5.965   4.876
 8446SOL    HW126237   6.922   5.999   4.837
 8446SOL    HW226238   6.856   5.893   4.943
 8447SOL     OW26239   3.954   2.202   3.078
 8447SOL    HW126240   3.908   2.290   3.081
 8447SOL    HW226241   3.904   2.136   3.135
 8448SOL     OW26242   4.019   6.422   3.341
 8448SOL    HW126243   4.103   6.379   3.375
 8448SOL    HW226244   3.963   6.353   3.294
 8449SOL     OW26245   2.244   2.562   3.311
 8449SOL    HW126246   2.199   2.605   3.232
 8449SOL    HW226247   2.175   2.514   3.366
 8450SOL     OW26248   6.845   0.919   6.950
 8450SOL    HW126249   6.750   0.889   6.934
 8450SOL    HW226250   6.855   0.950   0.025
 8451SOL     OW26251   4.633   2.684   1.067
 8451SOL    HW126252   4.660   2.755   1.001
 8451SOL    HW226253   4.538   2.658   1.050
 8452SOL     OW26254   5.467   2.125   5.533
 8452SOL    HW126255   5.478   2.194   5.461
 8452SOL    HW226256   5.389   2.066   5.510
 8453SOL     OW26257   1.090   6.017   0.898
 8453SOL    HW126258   1.143   6.022   0.814
 8453SOL    HW226259   1.097   6.103   0.948
 8454SOL     OW26260   6.689   4.114   0.136
 8454SOL    HW126261   6.600   4.079   0.106
 8454SOL    HW226262   6.735   4.158   0.059
 8455SOL     OW26263   6.984   0.801   3.237
 8455SOL    HW126264   0.037   0.786   3.169
 8455SOL    HW226265   0.003   0.787   3.328
 8456SOL     OW26266   5.761   0.855   3.875
 8456SOL    HW126267   5.823   0.930   3.854
 8456SOL    HW226268   5.731   0.861   3.970
 8457SOL     OW26269   6.520   6.747   4.779
 8457SOL    HW126270   6.541   6.797   4.694
 8457SOL    HW226271   6.452   6.676   4.760
 8458SOL     OW26272   0.405   6.529   6.991
 8458SOL    HW126273   0.324   6.572   0.010
 8458SOL    HW226274   0.379   6.447   6.941
 8459SOL     OW26275   1.668   5.903   3.184
 8459SOL    HW126276   1.671   5.821   3.127
 8459SOL    HW226277   1.743   5.964   3.159
 8460SOL     OW26278   3.694   4.153   4.025
 8460SOL    HW126279   3.737   4.145   4.115
 8460SOL    HW226280   3.598   4.177   4.037
 8461SOL     OW26281   6.544   3.763   3.858
 8461SOL    HW126282   6.538   3.670   3.823
 8461SOL    HW226283   6.637   3.797   3.846
 8462SOL     OW26284   2.049   2.794   2.325
 8462SOL    HW126285   2.036   2.739   2.242
 8462SOL    HW226286   2.065   2.889   2.299
 8463SOL     OW26287   5.251   1.327   2.171
 8463SOL    HW126288   5.293   1.389   2.104
 8463SOL    HW226289   5.290   1.344   2.261
 8464SOL     OW26290   6.355   2.314   4.627
 8464SOL    HW126291   6.359   2.233   4.567
 8464SOL    HW226292   6.356   2.397   4.571
 8465SOL     OW26293   1.767   2.549   0.387
 8465SOL    HW126294   1.712   2.488   0.329
 8465SOL    HW226295   1.734   2.545   0.481
 8466SOL     OW26296   0.748   6.655   3.586
 8466SOL    HW126297   0.674   6.690   3.643
 8466SOL    HW226298   0.782   6.728   3.527
 8467SOL     OW26299   2.851   5.241   0.682
 8467SOL    HW126300   2.907   5.197   0.753
 8467SOL    HW226301   2.804   5.320   0.721
 8468SOL     OW26302   4.614   1.470   0.101
 8468SOL    HW126303   4.612   1.540   0.172
 8468SOL    HW226304   4.645   1.511   0.015
 8469SOL     OW26305   3.734   2.239   6.666
 8469SOL    HW126306   3.684   2.173   6.722
 8469SOL    HW226307   3.818   2.196   6.633
 8470SOL     OW26308   2.662   2.321   6.177
 8470SOL    HW126309   2.681   2.223   6.167
 8470SOL    HW226310   2.574   2.333   6.223
 8471SOL     OW26311   3.762   1.051   3.627
 8471SOL    HW126312   3.830   1.125   3.626
 8471SOL    HW226313   3.782   0.989   3.703
 8472SOL     OW26314   1.427   6.520   3.244
 8472SOL    HW126315   1.521   6.553   3.249
 8472SOL    HW226316   1.380   6.541   3.330
 8473SOL     OW26317   6.663   5.700   6.934
 8473SOL    HW126318   6.641   5.614   6.979
 8473SOL    HW226319   6.760   5.721   6.948
 8474SOL     OW26320   3.786   4.097   1.301
 8474SOL    HW126321   3.749   4.005   1.298
 8474SOL    HW226322   3.886   4.093   1.304
 8475SOL     OW26323   4.596   1.139   3.276
 8475SOL    HW126324   4.624   1.080   3.352
 8475SOL    HW226325   4.596   1.086   3.191
 8476SOL     OW26326   4.586   0.249   2.425
 8476SOL    HW126327   4.640   0.334   2.426
 8476SOL    HW226328   4.494   0.268   2.458
 8477SOL     OW26329   2.952   1.188   1.752
 8477SOL    HW126330   2.999   1.254   1.693
 8477SOL    HW226331   2.905   1.120   1.696
 8478SOL     OW26332   1.744   0.189   5.923
 8478SOL    HW126333   1.720   0.283   5.899
 8478SOL    HW226334   1.781   0.143   5.842
 8479SOL     OW26335   4.985   0.809   1.607
 8479SOL    HW126336   5.007   0.837   1.514
 8479SOL    HW226337   4.919   0.873   1.646
 8480SOL     OW26338   1.842   1.040   1.462
 8480SOL    HW126339   1.916   1.071   1.522
 8480SOL    HW226340   1.759   1.026   1.515
 8481SOL     OW26341   4.057   0.423   4.110
 8481SOL    HW126342   4.056   0.513   4.066
 8481SOL    HW226343   3.964   0.398   4.136
 8482SOL     OW26344   0.976   0.528   2.195
 8482SOL    HW126345   0.882   0.560   2.182
 8482SOL    HW226346   1.010   0.490   2.109
 8483SOL     OW26347   4.269   5.940   1.706
 8483SOL    HW126348   4.183   5.891   1.718
 8483SOL    HW226349   4.285   5.956   1.609
 8484SOL     OW26350   0.813   4.898   4.671
 8484SOL    HW126351   0.769   4.826   4.724
 8484SOL    HW226352   0.759   4.916   4.588
 8485SOL     OW26353   2.896   3.499   6.230
 8485SOL    HW126354   2.906   3.598   6.220
 8485SOL    HW226355   2.837   3.480   6.309
 8486SOL     OW26356   4.427   0.897   2.376
 8486SOL    HW126357   4.458   0.808   2.343
 8486SOL    HW226358   4.378   0.885   2.463
 8487SOL     OW26359   4.142   6.821   1.109
 8487SOL    HW126360   4.161   6.914   1.139
 8487SOL    HW226361   4.199   6.800   1.029
 8488SOL     OW26362   4.932   2.929   4.792
 8488SOL    HW126363   4.966   2.882   4.711
 8488SOL    HW226364   4.990   3.009   4.810
 8489SOL     OW26365   4.194   4.930   2.558
 8489SOL    HW126366   4.098   4.955   2.548
 8489SOL    HW226367   4.201   4.838   2.595
 8490SOL     OW26368   3.739   5.459   2.706
 8490SOL    HW126369   3.695   5.547   2.690
 8490SOL    HW226370   3.669   5.388   2.718
 8491SOL     OW26371   2.076   1.264   2.442
 8491SOL    HW126372   1.987   1.220   2.435
 8491SOL    HW226373   2.147   1.195   2.457
 8492SOL     OW26374   5.474   3.432   5.134
 8492SOL    HW126375   5.494   3.524   5.169
 8492SOL    HW226376   5.541   3.408   5.064
 8493SOL     OW26377   3.823   2.112   1.026
 8493SOL    HW126378   3.734   2.081   0.991
 8493SOL    HW226379   3.890   2.039   1.017
 8494SOL     OW26380   3.334   5.243   6.892
 8494SOL    HW126381   3.402   5.177   6.859
 8494SOL    HW226382   3.322   5.315   6.824
 8495SOL     OW26383   0.334   2.502   0.716
 8495SOL    HW126384   0.288   2.541   0.636
 8495SOL    HW226385   0.423   2.546   0.728
 8496SOL     OW26386   6.970   2.906   3.155
 8496SOL    HW126387   6.987   2.818   3.199
 8496SOL    HW226388   6.902   2.895   3.082
 8497SOL     OW26389   6.172   5.626   3.130
 8497SOL    HW126390   6.153   5.676   3.046
 8497SOL    HW226391   6.270   5.634   3.152
 8498SOL     OW26392   0.211   0.721   0.664
 8498SOL    HW126393   0.140   0.664   0.706
 8498SOL    HW226394   0.189   0.735   0.567
 8499SOL     OW26395   3.500   3.862   6.460
 8499SOL    HW126396   3.491   3.810   6.545
 8499SOL    HW226397   3.519   3.958   6.481
 8500SOL     OW26398   2.961   0.945   6.301
 8500SOL    HW126399   2.957   0.982   6.394
 8500SOL    HW226400   2.929   1.013   6.236
 8501SOL     OW26401   1.928   4.132   6.516
 8501SOL    HW126402   1.881   4.053   6.555
 8501SOL    HW226403   1.980   4.103   6.435
 8502SOL     OW26404   0.024   0.508   2.398
 8502SOL    HW126405   0.081   0.588   2.379
 8502SOL    HW226406   6.961   0.537   2.447
 8503SOL     OW26407   2.397   5.550   2.820
 8503SOL    HW126408   2.461   5.491   2.869
 8503SOL    HW226409   2.337   5.596   2.885
 8504SOL     OW26410   1.194   5.831   3.555
 8504SOL    HW126411   1.228   5.806   3.464
 8504SOL    HW226412   1.266   5.881   3.604
 8505SOL     OW26413   4.961   3.091   3.499
 8505SOL    HW126414   5.027   3.147   3.550
 8505SOL    HW226415   4.928   3.017   3.557
 8506SOL     OW26416   0.982   6.584   0.364
 8506SOL    HW126417   0.943   6.540   0.445
 8506SOL    HW226418   0.912   6.641   0.320
 8507SOL     OW26419   1.665   0.929   5.005
 8507SOL    HW126420   1.631   0.989   4.933
 8507SOL    HW226421   1.652   0.972   5.094
 8508SOL     OW26422   1.051   2.171   6.266
 8508SOL    HW126423   1.130   2.227   6.291
 8508SOL    HW226424   0.976   2.190   6.330
 8509SOL     OW26425   6.363   2.035   4.543
 8509SOL    HW126426   6.366   1.951   4.489
 8509SOL    HW226427   6.292   2.026   4.613
 8510SOL     OW26428   5.190   0.598   2.694
 8510SOL    HW126429   5.285   0.579   2.720
 8510SOL    HW226430   5.189   0.652   2.610
 8511SOL     OW26431   6.942   4.755   1.656
 8511SOL    HW126432   6.892   4.699   1.721
 8511SOL    HW226433   0.018   4.727   1.653
 8512SOL     OW26434   4.655   1.805   0.251
 8512SOL    HW126435   4.744   1.771   0.218
 8512SOL    HW226436   4.613   1.861   0.180
 8513SOL     OW26437   0.034   4.078   1.151
 8513SOL    HW126438   0.019   4.028   1.236
 8513SOL    HW226439   0.133   4.089   1.137
 8514SOL     OW26440   2.530   2.548   5.752
 8514SOL    HW126441   2.466   2.478   5.783
 8514SOL    HW226442   2.616   2.505   5.723
 8515SOL     OW26443   0.976   0.612   1.081
 8515SOL    HW126444   0.939   0.662   1.003
 8515SOL    HW226445   0.954   0.659   1.166
 8516SOL     OW26446   5.584   2.260   3.364
 8516SOL    HW126447   5.573   2.285   3.268
 8516SOL    HW226448   5.497   2.272   3.412
 8517SOL     OW26449   2.190   2.320   5.258
 8517SOL    HW126450   2.114   2.372   5.296
 8517SOL    HW226451   2.275   2.347   5.305
 8518SOL     OW26452   5.374   4.934   0.118
 8518SOL    HW126453   5.276   4.923   0.103
 8518SOL    HW226454   5.421   4.935   0.030
 8519SOL     OW26455   1.388   3.603   0.813
 8519SOL    HW126456   1.323   3.635   0.882
 8519SOL    HW226457   1.474   3.579   0.857
 8520SOL     OW26458   4.290   3.994   6.135
 8520SOL    HW126459   4.255   4.023   6.046
 8520SOL    HW226460   4.308   4.074   6.192
 8521SOL     OW26461   2.172   6.367   5.796
 8521SOL    HW126462   2.112   6.294   5.764
 8521SOL    HW226463   2.211   6.341   5.885
 8522SOL     OW26464   1.208   6.709   0.428
 8522SOL    HW126465   1.181   6.799   0.461
 8522SOL    HW226466   1.127   6.661   0.393
 8523SOL     OW26467   2.677   1.012   6.887
 8523SOL    HW126468   2.753   0.948   6.876
 8523SOL    HW226469   2.685   1.058   6.975
 8524SOL     OW26470   2.124   5.640   4.587
 8524SOL    HW126471   2.070   5.562   4.617
 8524SOL    HW226472   2.205   5.649   4.646
 8525SOL     OW26473   6.637   4.705   1.226
 8525SOL    HW126474   6.645   4.704   1.326
 8525SOL    HW226475   6.576   4.632   1.197
 8526SOL     OW26476   1.343   6.193   0.458
 8526SOL    HW126477   1.439   6.173   0.477
 8526SOL    HW226478   1.330   6.293   0.456
 8527SOL     OW26479   3.245   0.960   5.730
 8527SOL    HW126480   3.314   0.902   5.687
 8527SOL    HW226481   3.168   0.971   5.667
 8528SOL     OW26482   5.022   1.919   0.576
 8528SOL    HW126483   5.082   1.903   0.497
 8528SOL    HW226484   4.927   1.908   0.548
 8529SOL     OW26485   1.095   6.206   6.450
 8529SOL    HW126486   1.093   6.150   6.532
 8529SOL    HW226487   1.011   6.261   6.445
 8530SOL     OW26488   3.231   4.121   4.396
 8530SOL    HW126489   3.222   4.132   4.495
 8530SOL    HW226490   3.163   4.178   4.349
 8531SOL     OW26491   6.787   5.554   3.956
 8531SOL    HW126492   6.701   5.597   3.984
 8531SOL    HW226493   6.789   5.460   3.992
 8532SOL     OW26494   2.424   5.408   4.789
 8532SOL    HW126495   2.367   5.489   4.782
 8532SOL    HW226496   2.438   5.386   4.886
 8533SOL     OW26497   2.086   5.946   5.149
 8533SOL    HW126498   2.065   5.853   5.180
 8533SOL    HW226499   2.169   5.944   5.093
 8534SOL     OW26500   3.173   2.165   4.215
 8534SOL    HW126501   3.243   2.157   4.286
 8534SOL    HW226502   3.217   2.162   4.125
 8535SOL     OW26503   6.278   0.459   2.846
 8535SOL    HW126504   6.228   0.398   2.908
 8535SOL    HW226505   6.223   0.541   2.829
 8536SOL     OW26506   0.379   1.091   4.560
 8536SOL    HW126507   0.477   1.086   4.579
 8536SOL    HW226508   0.363   1.158   4.487
 8537SOL     OW26509   6.850   1.042   2.968
 8537SOL    HW126510   6.816   1.023   3.060
 8537SOL    HW226511   6.934   1.096   2.974
 8538SOL     OW26512   1.518   2.360   6.765
 8538SOL    HW126513   1.489   2.452   6.792
 8538SOL    HW226514   1.453   2.323   6.699
 8539SOL     OW26515   6.089   2.716   3.024
 8539SOL    HW126516   6.001   2.735   3.068
 8539SOL    HW226517   6.108   2.788   2.956
 8540SOL     OW26518   3.797   0.206   0.664
 8540SOL    HW126519   3.879   0.244   0.622
 8540SOL    HW226520   3.782   0.250   0.753
 8541SOL     OW26521   1.982   2.682   4.320
 8541SOL    HW126522   1.955   2.676   4.416
 8541SOL    HW226523   2.066   2.736   4.313
 8542SOL     OW26524   3.796   4.454   0.356
 8542SOL    HW126525   3.712   4.402   0.343
 8542SOL    HW226526   3.831   4.440   0.449
 8543SOL     OW26527   2.245   2.401   6.114
 8543SOL    HW126528   2.302   2.339   6.169
 8543SOL    HW226529   2.149   2.379   6.128
 8544SOL     OW26530   6.860   3.016   3.424
 8544SOL    HW126531   6.880   3.006   3.326
 8544SOL    HW226532   6.921   3.084   3.464
 8545SOL     OW26533   4.971   6.651   4.772
 8545SOL    HW126534   5.035   6.628   4.698
 8545SOL    HW226535   5.020   6.700   4.844
 8546SOL     OW26536   4.273   2.017   5.460
 8546SOL    HW126537   4.199   2.083   5.450
 8546SOL    HW226538   4.311   1.996   5.369
 8547SOL     OW26539   0.856   4.240   3.197
 8547SOL    HW126540   0.791   4.258   3.123
 8547SOL    HW226541   0.949   4.256   3.164
 8548SOL     OW26542   5.844   1.631   5.914
 8548SOL    HW126543   5.761   1.574   5.915
 8548SOL    HW226544   5.818   1.727   5.919
 8549SOL     OW26545   5.845   3.304   4.791
 8549SOL    HW126546   5.822   3.329   4.696
 8549SOL    HW226547   5.941   3.324   4.808
 8550SOL     OW26548   0.905   4.045   6.355
 8550SOL    HW126549   0.928   4.056   6.452
 8550SOL    HW226550   0.872   4.132   6.318
 8551SOL     OW26551   3.470   3.863   0.213
 8551SOL    HW126552   3.449   3.768   0.237
 8551SOL    HW226553   3.429   3.924   0.282
 8552SOL     OW26554   2.866   6.509   3.964
 8552SOL    HW126555   2.865   6.490   3.866
 8552SOL    HW226556   2.787   6.467   4.008
 8553SOL     OW26557   5.838   6.129   0.325
 8553SOL    HW126558   5.897   6.133   0.245
 8553SOL    HW226559   5.882   6.075   0.396
 8554SOL     OW26560   6.182   4.214   0.057
 8554SOL    HW126561   6.133   4.134   0.022
 8554SOL    HW226562   6.145   4.297   0.016
 8555SOL     OW26563   1.274   0.010   4.248
 8555SOL    HW126564   1.286   6.989   4.157
 8555SOL    HW226565   1.263   6.956   4.316
 8556SOL     OW26566   6.330   0.246   3.637
 8556SOL    HW126567   6.270   0.324   3.656
 8556SOL    HW226568   6.422   0.279   3.616
 8557SOL     OW26569   0.249   0.749   1.176
 8557SOL    HW126570   0.218   0.831   1.128
 8557SOL    HW226571   0.172   0.686   1.189
 8558SOL     OW26572   1.268   5.169   2.068
 8558SOL    HW126573   1.332   5.237   2.033
 8558SOL    HW226574   1.210   5.137   1.993
 8559SOL     OW26575   0.568   0.898   6.265
 8559SOL    HW126576   0.647   0.928   6.213
 8559SOL    HW226577   0.515   0.832   6.210
 8560SOL     OW26578   6.305   2.424   6.976
 8560SOL    HW126579   6.241   2.361   6.932
 8560SOL    HW226580   6.258   2.474   0.029
 8561SOL     OW26581   4.628   6.395   4.182
 8561SOL    HW126582   4.576   6.478   4.203
 8561SOL    HW226583   4.570   6.333   4.129
 8562SOL     OW26584   3.945   6.616   4.546
 8562SOL    HW126585   3.987   6.680   4.482
 8562SOL    HW226586   3.965   6.644   4.639
 8563SOL     OW26587   2.703   3.104   5.671
 8563SOL    HW126588   2.715   3.100   5.572
 8563SOL    HW226589   2.785   3.068   5.717
 8564SOL     OW26590   0.633   0.068   3.850
 8564SOL    HW126591   0.668   7.009   3.901
 8564SOL    HW226592   0.591   0.036   3.765
 8565SOL     OW26593   3.957   0.081   1.822
 8565SOL    HW126594   4.026   0.153   1.824
 8565SOL    HW226595   4.003   7.012   1.813
 8566SOL     OW26596   2.170   3.208   3.598
 8566SOL    HW126597   2.095   3.179   3.657
 8566SOL    HW226598   2.235   3.263   3.651
 8567SOL     OW26599   5.344   6.884   0.966
 8567SOL    HW126600   5.427   6.933   0.991
 8567SOL    HW226601   5.367   6.814   0.898
 8568SOL     OW26602   5.393   1.075   0.257
 8568SOL    HW126603   5.307   1.119   0.231
 8568SOL    HW226604   5.387   1.043   0.351
 8569SOL     OW26605   4.341   1.711   4.497
 8569SOL    HW126606   4.305   1.767   4.422
 8569SOL    HW226607   4.441   1.706   4.490
 8570SOL     OW26608   0.651   4.176   0.072
 8570SOL    HW126609   0.598   4.151   0.153
 8570SOL    HW226610   0.746   4.192   0.097
 8571SOL     OW26611   6.918   4.225   5.341
 8571SOL    HW126612   6.953   4.157   5.406
 8571SOL    HW226613   6.930   4.316   5.379
 8572SOL     OW26614   2.941   5.069   5.532
 8572SOL    HW126615   2.900   4.990   5.487
 8572SOL    HW226616   2.925   5.151   5.478
 8573SOL     OW26617   3.742   5.769   4.772
 8573SOL    HW126618   3.759   5.721   4.686
 8573SOL    HW226619   3.758   5.866   4.759
 8574SOL     OW26620   0.427   3.922   4.823
 8574SOL    HW126621   0.423   3.835   4.872
 8574SOL    HW226622   0.461   3.994   4.884
 8575SOL     OW26623   3.444   3.298   6.876
 8575SOL    HW126624   3.378   3.298   6.800
 8575SOL    HW226625   3.430   3.380   6.932
 8576SOL     OW26626   1.654   0.203   1.585
 8576SOL    HW126627   1.555   0.210   1.588
 8576SOL    HW226628   1.690   0.276   1.526
 8577SOL     OW26629   6.468   5.762   3.030
 8577SOL    HW126630   6.557   5.718   3.023
 8577SOL    HW226631   6.457   5.804   3.120
 8578SOL     OW26632   4.214   0.044   3.426
 8578SOL    HW126633   4.301   0.068   3.384
 8578SOL    HW226634   4.175   0.124   3.471
 8579SOL     OW26635   0.685   6.021   2.970
 8579SOL    HW126636   0.760   6.087   2.960
 8579SOL    HW226637   0.648   6.027   3.063
 8580SOL     OW26638   2.472   4.389   6.674
 8580SOL    HW126639   2.539   4.357   6.607
 8580SOL    HW226640   2.517   4.409   6.761
 8581SOL     OW26641   2.892   2.394   1.176
 8581SOL    HW126642   2.960   2.388   1.249
 8581SOL    HW226643   2.916   2.467   1.113
 8582SOL     OW26644   4.300   4.202   1.143
 8582SOL    HW126645   4.330   4.109   1.120
 8582SOL    HW226646   4.342   4.229   1.230
 8583SOL     OW26647   5.833   0.089   6.364
 8583SOL    HW126648   5.866   0.022   6.298
 8583SOL    HW226649   5.733   0.088   6.366
 8584SOL     OW26650   0.023   5.217   6.607
 8584SOL    HW126651   0.041   5.121   6.586
 8584SOL    HW226652   6.960   5.225   6.662
 8585SOL     OW26653   0.461   1.516   0.562
 8585SOL    HW126654   0.470   1.441   0.497
 8585SOL    HW226655   0.543   1.573   0.558
 8586SOL     OW26656   4.288   5.592   4.016
 8586SOL    HW126657   4.270   5.599   3.917
 8586SOL    HW226658   4.208   5.622   4.066
 8587SOL     OW26659   6.753   1.458   1.199
 8587SOL    HW126660   6.803   1.527   1.147
 8587SOL    HW226661   6.801   1.441   1.286
 8588SOL     OW26662   4.543   1.942   0.029
 8588SOL    HW126663   4.601   2.011   7.005
 8588SOL    HW226664   4.447   1.962   0.011
 8589SOL     OW26665   2.886   1.942   4.645
 8589SOL    HW126666   2.870   1.979   4.554
 8589SOL    HW226667   2.885   2.016   4.712
 8590SOL     OW26668   6.450   4.723   5.685
 8590SOL    HW126669   6.364   4.674   5.697
 8590SOL    HW226670   6.456   4.797   5.753
 8591SOL     OW26671   1.075   3.261   6.725
 8591SOL    HW126672   1.175   3.257   6.719
 8591SOL    HW226673   1.038   3.168   6.720
 8592SOL     OW26674   6.054   5.468   6.500
 8592SOL    HW126675   6.062   5.539   6.570
 8592SOL    HW226676   6.116   5.488   6.424
 8593SOL     OW26677   1.007   0.330   2.723
 8593SOL    HW126678   0.918   0.334   2.769
 8593SOL    HW226679   1.004   0.383   2.639
 8594SOL     OW26680   3.506   3.544   4.167
 8594SOL    HW126681   3.595   3.582   4.144
 8594SOL    HW226682   3.434   3.605   4.133
 8595SOL     OW26683   1.778   2.312   2.022
 8595SOL    HW126684   1.795   2.316   1.924
 8595SOL    HW226685   1.842   2.247   2.064
 8596SOL     OW26686   6.433   4.872   2.356
 8596SOL    HW126687   6.407   4.835   2.267
 8596SOL    HW226688   6.507   4.816   2.395
 8597SOL     OW26689   1.450   1.119   0.705
 8597SOL    HW126690   1.433   1.039   0.762
 8597SOL    HW226691   1.377   1.130   0.638
 8598SOL     OW26692   5.418   4.626   0.416
 8598SOL    HW126693   5.343   4.607   0.353
 8598SOL    HW226694   5.450   4.720   0.402
 8599SOL     OW26695   1.361   3.382   2.523
 8599SOL    HW126696   1.281   3.422   2.479
 8599SOL    HW226697   1.443   3.408   2.474
 8600SOL     OW26698   6.323   4.020   6.780
 8600SOL    HW126699   6.289   4.000   6.872
 8600SOL    HW226700   6.410   3.973   6.765
 8601SOL     OW26701   6.773   6.756   3.837
 8601SOL    HW126702   6.834   6.741   3.760
 8601SOL    HW226703   6.690   6.702   3.825
 8602SOL     OW26704   3.303   6.548   2.116
 8602SOL    HW126705   3.375   6.480   2.103
 8602SOL    HW226706   3.341   6.640   2.111
 8603SOL     OW26707   4.539   3.522   0.877
 8603SOL    HW126708   4.449   3.481   0.884
 8603SOL    HW226709   4.531   3.620   0.860
 8604SOL     OW26710   5.730   2.596   2.583
 8604SOL    HW126711   5.799   2.529   2.558
 8604SOL    HW226712   5.742   2.679   2.529
 8605SOL     OW26713   2.733   6.811   1.910
 8605SOL    HW126714   2.725   6.746   1.985
 8605SOL    HW226715   2.828   6.841   1.901
 8606SOL     OW26716   4.122   4.804   5.765
 8606SOL    HW126717   4.114   4.835   5.670
 8606SOL    HW226718   4.215   4.772   5.782
 8607SOL     OW26719   3.987   6.053   1.940
 8607SOL    HW126720   3.990   5.954   1.920
 8607SOL    HW226721   3.985   6.067   2.039
 8608SOL     OW26722   4.706   6.030   2.487
 8608SOL    HW126723   4.637   6.025   2.415
 8608SOL    HW226724   4.770   6.104   2.468
 8609SOL     OW26725   3.890   0.625   5.394
 8609SOL    HW126726   3.876   0.542   5.447
 8609SOL    HW226727   3.890   0.704   5.455
 8610SOL     OW26728   6.464   6.622   4.259
 8610SOL    HW126729   6.414   6.587   4.338
 8610SOL    HW226730   6.527   6.552   4.225
 8611SOL     OW26731   1.637   1.922   3.628
 8611SOL    HW126732   1.592   1.844   3.674
 8611SOL    HW226733   1.709   1.888   3.568
 8612SOL     OW26734   4.477   3.264   5.385
 8612SOL    HW126735   4.401   3.204   5.408
 8612SOL    HW226736   4.533   3.221   5.313
 8613SOL     OW26737   1.323   1.201   0.334
 8613SOL    HW126738   1.325   1.148   0.249
 8613SOL    HW226739   1.411   1.190   0.382
 8614SOL     OW26740   0.885   1.717   3.267
 8614SOL    HW126741   0.930   1.633   3.237
 8614SOL    HW226742   0.951   1.792   3.267
 8615SOL     OW26743   4.564   2.838   5.238
 8615SOL    HW126744   4.468   2.814   5.254
 8615SOL    HW226745   4.594   2.800   5.151
 8616SOL     OW26746   1.627   3.368   6.818
 8616SOL    HW126747   1.644   3.342   6.913
 8616SOL    HW226748   1.603   3.465   6.814
 8617SOL     OW26749   5.907   3.084   0.929
 8617SOL    HW126750   5.844   3.113   0.858
 8617SOL    HW226751   5.875   3.118   1.018
 8618SOL     OW26752   4.709   0.578   4.228
 8618SOL    HW126753   4.758   0.641   4.168
 8618SOL    HW226754   4.624   0.549   4.184
 8619SOL     OW26755   4.687   5.749   0.898
 8619SOL    HW126756   4.649   5.657   0.890
 8619SOL    HW226757   4.619   5.809   0.941
 8620SOL     OW26758   6.027   6.781   3.099
 8620SOL    HW126759   5.963   6.859   3.100
 8620SOL    HW226760   6.117   6.812   3.069
 8621SOL     OW26761   5.684   0.773   3.085
 8621SOL    HW126762   5.629   0.809   3.160
 8621SOL    HW226763   5.744   0.845   3.050
 8622SOL     OW26764   5.428   5.187   6.795
 8622SOL    HW126765   5.443   5.237   6.880
 8622SOL    HW226766   5.360   5.116   6.809
 8623SOL     OW26767   6.576   3.222   2.796
 8623SOL    HW126768   6.496   3.181   2.753
 8623SOL    HW226769   6.572   3.210   2.895
 8624SOL     OW26770   0.501   5.347   3.641
 8624SOL    HW126771   0.461   5.422   3.588
 8624SOL    HW226772   0.485   5.261   3.594
 8625SOL     OW26773   3.954   0.743   5.124
 8625SOL    HW126774   4.021   0.817   5.121
 8625SOL    HW226775   3.935   0.719   5.219
 8626SOL     OW26776   2.992   3.854   3.179
 8626SOL    HW126777   3.091   3.852   3.196
 8626SOL    HW226778   2.943   3.870   3.265
 8627SOL     OW26779   2.219   0.418   6.911
 8627SOL    HW126780   2.164   0.344   6.950
 8627SOL    HW226781   2.161   0.478   6.857
 8628SOL     OW26782   5.974   1.353   0.127
 8628SOL    HW126783   6.028   1.322   0.049
 8628SOL    HW226784   5.980   1.287   0.201
 8629SOL     OW26785   0.981   4.906   4.083
 8629SOL    HW126786   0.996   4.841   4.008
 8629SOL    HW226787   1.070   4.935   4.120
 8630SOL     OW26788   5.694   4.254   4.115
 8630SOL    HW126789   5.722   4.246   4.210
 8630SOL    HW226790   5.620   4.188   4.097
 8631SOL     OW26791   3.642   5.923   4.466
 8631SOL    HW126792   3.726   5.950   4.513
 8631SOL    HW226793   3.606   6.001   4.414
 8632SOL     OW26794   4.852   0.635   3.601
 8632SOL    HW126795   4.784   0.654   3.530
 8632SOL    HW226796   4.938   0.681   3.577
 8633SOL     OW26797   6.011   0.697   4.122
 8633SOL    HW126798   5.920   0.731   4.146
 8633SOL    HW226799   6.011   0.668   4.026
 8634SOL     OW26800   6.657   5.014   1.560
 8634SOL    HW126801   6.723   4.986   1.491
 8634SOL    HW226802   6.629   4.935   1.614
 8635SOL     OW26803   6.360   4.249   5.120
 8635SOL    HW126804   6.341   4.210   5.210
 8635SOL    HW226805   6.358   4.177   5.051
 8636SOL     OW26806   5.478   5.719   0.390
 8636SOL    HW126807   5.487   5.620   0.401
 8636SOL    HW226808   5.457   5.760   0.479
 8637SOL     OW26809   1.922   0.708   1.377
 8637SOL    HW126810   1.885   0.763   1.302
 8637SOL    HW226811   1.927   0.612   1.350
 8638SOL     OW26812   4.098   5.229   0.681
 8638SOL    HW126813   4.006   5.211   0.714
 8638SOL    HW226814   4.094   5.261   0.586
 8639SOL     OW26815   6.827   2.933   2.596
 8639SOL    HW126816   6.883   2.855   2.569
 8639SOL    HW226817   6.738   2.901   2.629
 8640SOL     OW26818   5.014   6.255   1.039
 8640SOL    HW126819   5.100   6.204   1.032
 8640SOL    HW226820   4.937   6.194   1.024
 8641SOL     OW26821   5.483   4.606   3.234
 8641SOL    HW126822   5.438   4.601   3.323
 8641SOL    HW226823   5.582   4.596   3.247
 8642SOL     OW26824   4.775   1.516   1.444
 8642SOL    HW126825   4.704   1.578   1.477
 8642SOL    HW226826   4.864   1.546   1.479
 8643SOL     OW26827   4.966   0.947   6.070
 8643SOL    HW126828   4.965   0.930   6.169
 8643SOL    HW226829   4.885   1.000   6.044
 8644SOL     OW26830   6.325   3.289   5.136
 8644SOL    HW126831   6.404   3.270   5.194
 8644SOL    HW226832   6.323   3.386   5.112
 8645SOL     OW26833   6.149   4.809   1.766
 8645SOL    HW126834   6.165   4.813   1.865
 8645SOL    HW226835   6.225   4.853   1.718
 8646SOL     OW26836   5.345   0.980   0.499
 8646SOL    HW126837   5.381   1.036   0.573
 8646SOL    HW226838   5.254   0.945   0.525
 8647SOL     OW26839   4.386   5.086   1.375
 8647SOL    HW126840   4.375   5.072   1.276
 8647SOL    HW226841   4.445   5.166   1.390
 8648SOL     OW26842   5.296   1.857   4.610
 8648SOL    HW126843   5.358   1.859   4.532
 8648SOL    HW226844   5.321   1.931   4.674
 8649SOL     OW26845   6.954   4.459   5.500
 8649SOL    HW126846   0.009   4.520   5.474
 8649SOL    HW226847   6.878   4.514   5.535
 8650SOL     OW26848   1.541   4.599   2.440
 8650SOL    HW126849   1.604   4.535   2.396
 8650SOL    HW226850   1.490   4.649   2.370
 8651SOL     OW26851   3.272   1.766   1.191
 8651SOL    HW126852   3.268   1.667   1.202
 8651SOL    HW226853   3.366   1.797   1.208
 8652SOL     OW26854   1.480   3.495   3.730
 8652SOL    HW126855   1.531   3.536   3.655
 8652SOL    HW226856   1.401   3.445   3.693
 8653SOL     OW26857   6.345   3.596   6.603
 8653SOL    HW126858   6.332   3.691   6.577
 8653SOL    HW226859   6.442   3.579   6.622
 8654SOL     OW26860   0.635   0.071   3.028
 8654SOL    HW126861   0.649   0.097   2.933
 8654SOL    HW226862   0.687   0.132   3.087
 8655SOL     OW26863   6.083   5.826   4.310
 8655SOL    HW126864   6.006   5.787   4.260
 8655SOL    HW226865   6.096   5.921   4.283
 8656SOL     OW26866   5.719   2.399   1.295
 8656SOL    HW126867   5.768   2.458   1.231
 8656SOL    HW226868   5.664   2.333   1.244
 8657SOL     OW26869   3.176   4.073   0.135
 8657SOL    HW126870   3.152   3.978   0.116
 8657SOL    HW226871   3.263   4.095   0.091
 8658SOL     OW26872   6.636   5.328   0.534
 8658SOL    HW126873   6.688   5.270   0.471
 8658SOL    HW226874   6.688   5.412   0.551
 8659SOL     OW26875   5.545   0.501   4.513
 8659SOL    HW126876   5.518   0.433   4.444
 8659SOL    HW226877   5.635   0.477   4.550
 8660SOL     OW26878   5.726   4.756   1.437
 8660SOL    HW126879   5.749   4.828   1.503
 8660SOL    HW226880   5.773   4.672   1.461
 8661SOL     OW26881   6.537   3.590   1.487
 8661SOL    HW126882   6.514   3.633   1.574
 8661SOL    HW226883   6.606   3.646   1.439
 8662SOL     OW26884   0.504   0.070   0.598
 8662SOL    HW126885   0.516   0.160   0.555
 8662SOL    HW226886   0.490   0.001   0.527
 8663SOL     OW26887   2.677   5.633   0.427
 8663SOL    HW126888   2.729   5.607   0.345
 8663SOL    HW226889   2.612   5.561   0.450
 8664SOL     OW26890   4.428   5.566   0.719
 8664SOL    HW126891   4.478   5.543   0.802
 8664SOL    HW226892   4.483   5.543   0.639
 8665SOL     OW26893   5.145   5.438   5.401
 8665SOL    HW126894   5.065   5.386   5.431
 8665SOL    HW226895   5.125   5.536   5.407
 8666SOL     OW26896   5.020   3.200   4.699
 8666SOL    HW126897   4.966   3.234   4.776
 8666SOL    HW226898   4.961   3.188   4.619
 8667SOL     OW26899   4.527   1.760   3.579
 8667SOL    HW126900   4.513   1.762   3.678
 8667SOL    HW226901   4.532   1.854   3.545
 8668SOL     OW26902   3.764   2.132   4.305
 8668SOL    HW126903   3.695   2.150   4.234
 8668SOL    HW226904   3.808   2.044   4.288
 8669SOL     OW26905   4.102   0.960   6.250
 8669SOL    HW126906   4.087   0.901   6.329
 8669SOL    HW226907   4.194   0.944   6.214
 8670SOL     OW26908   3.488   5.049   4.265
 8670SOL    HW126909   3.430   5.127   4.242
 8670SOL    HW226910   3.556   5.036   4.193
 8671SOL     OW26911   5.546   6.453   2.928
 8671SOL    HW126912   5.499   6.539   2.950
 8671SOL    HW226913   5.619   6.437   2.994
 8672SOL     OW26914   3.329   5.054   4.928
 8672SOL    HW126915   3.278   5.023   4.847
 8672SOL    HW226916   3.271   5.046   5.009
 8673SOL     OW26917   5.711   2.289   0.696
 8673SOL    HW126918   5.655   2.370   0.713
 8673SOL    HW226919   5.790   2.290   0.757
 8674SOL     OW26920   0.632   0.137   2.734
 8674SOL    HW126921   0.638   0.227   2.777
 8674SOL    HW226922   0.579   0.144   2.649
 8675SOL     OW26923   2.100   1.542   2.644
 8675SOL    HW126924   2.124   1.553   2.547
 8675SOL    HW226925   2.179   1.506   2.694
 8676SOL     OW26926   4.394   0.461   3.203
 8676SOL    HW126927   4.464   0.392   3.187
 8676SOL    HW226928   4.304   0.418   3.200
 8677SOL     OW26929   2.590   4.349   5.694
 8677SOL    HW126930   2.573   4.254   5.666
 8677SOL    HW226931   2.588   4.409   5.614
 8678SOL     OW26932   1.219   6.971   6.512
 8678SOL    HW126933   1.312   7.006   6.519
 8678SOL    HW226934   1.222   6.874   6.488
 8679SOL     OW26935   0.202   2.352   4.386
 8679SOL    HW126936   0.286   2.402   4.409
 8679SOL    HW226937   0.200   2.266   4.436
 8680SOL     OW26938   1.485   3.025   0.333
 8680SOL    HW126939   1.553   3.014   0.406
 8680SOL    HW226940   1.462   3.121   0.323
 8681SOL     OW26941   3.480   3.913   0.917
 8681SOL    HW126942   3.569   3.891   0.957
 8681SOL    HW226943   3.476   3.877   0.824
 8682SOL     OW26944   2.180   6.082   2.666
 8682SOL    HW126945   2.111   6.117   2.603
 8682SOL    HW226946   2.158   5.987   2.689
 8683SOL     OW26947   6.462   3.343   6.988
 8683SOL    HW126948   6.558   3.363   6.970
 8683SOL    HW226949   6.418   3.312   6.903
 8684SOL     OW26950   6.625   2.826   3.944
 8684SOL    HW126951   6.719   2.795   3.962
 8684SOL    HW226952   6.595   2.886   4.018
 8685SOL     OW26953   1.128   2.187   5.386
 8685SOL    HW126954   1.177   2.102   5.366
 8685SOL    HW226955   1.194   2.262   5.396
 8686SOL     OW26956   6.485   2.540   3.587
 8686SOL    HW126957   6.566   2.554   3.645
 8686SOL    HW226958   6.493   2.453   3.539
 8687SOL     OW26959   3.757   0.184   3.325
 8687SOL    HW126960   3.662   0.190   3.293
 8687SOL    HW226961   3.812   0.137   3.256
 8688SOL     OW26962   2.172   0.628   2.083
 8688SOL    HW126963   2.107   0.701   2.061
 8688SOL    HW226964   2.265   0.663   2.078
 8689SOL     OW26965   4.542   5.973   0.848
 8689SOL    HW126966   4.532   5.992   0.751
 8689SOL    HW226967   4.452   5.971   0.891
 8690SOL     OW26968   0.361   1.439   2.752
 8690SOL    HW126969   0.288   1.371   2.765
 8690SOL    HW226970   0.348   1.484   2.664
 8691SOL     OW26971   5.131   2.340   0.515
 8691SOL    HW126972   5.156   2.299   0.427
 8691SOL    HW226973   5.042   2.306   0.544
 8692SOL     OW26974   2.107   1.312   4.187
 8692SOL    HW126975   2.058   1.285   4.104
 8692SOL    HW226976   2.076   1.403   4.215
 8693SOL     OW26977   5.309   2.397   0.706
 8693SOL    HW126978   5.247   2.366   0.779
 8693SOL    HW226979   5.267   2.377   0.617
 8694SOL     OW26980   4.871   6.828   5.715
 8694SOL    HW126981   4.804   6.823   5.641
 8694SOL    HW226982   4.881   6.738   5.757
 8695SOL     OW26983   4.053   4.417   5.619
 8695SOL    HW126984   3.961   4.455   5.611
 8695SOL    HW226985   4.083   4.420   5.714
 8696SOL     OW26986   2.154   5.318   1.504
 8696SOL    HW126987   2.110   5.243   1.454
 8696SOL    HW226988   2.133   5.405   1.458
 8697SOL     OW26989   6.085   4.589   1.168
 8697SOL    HW126990   6.068   4.507   1.223
 8697SOL    HW226991   6.182   4.593   1.145
 8698SOL     OW26992   5.258   5.469   4.453
 8698SOL    HW126993   5.272   5.412   4.372
 8698SOL    HW226994   5.297   5.560   4.437
 8699SOL     OW26995   1.029   1.608   5.017
 8699SOL    HW126996   0.935   1.629   4.991
 8699SOL    HW226997   1.081   1.583   4.935
 8700SOL     OW26998   2.928   1.358   5.593
 8700SOL    HW126999   2.863   1.413   5.540
 8700SOL    HW227000   2.989   1.418   5.644
 8701SOL     OW27001   0.799   1.782   5.009
 8701SOL    HW127002   0.867   1.820   4.946
 8701SOL    HW227003   0.834   1.787   5.102
 8702SOL     OW27004   4.535   6.034   0.167
 8702SOL    HW127005   4.547   5.964   0.237
 8702SOL    HW227006   4.578   6.004   0.082
 8703SOL     OW27007   2.730   5.486   0.761
 8703SOL    HW127008   2.737   5.572   0.710
 8703SOL    HW227009   2.734   5.506   0.859
 8704SOL     OW27010   0.412   4.153   1.625
 8704SOL    HW127011   0.477   4.079   1.611
 8704SOL    HW227012   0.338   4.147   1.557
 8705SOL     OW27013   4.971   0.068   5.741
 8705SOL    HW127014   4.936   6.995   5.725
 8705SOL    HW227015   4.899   0.124   5.782
 8706SOL     OW27016   5.232   1.844   0.716
 8706SOL    HW127017   5.291   1.924   0.709
 8706SOL    HW227018   5.142   1.865   0.678
 8707SOL     OW27019   4.916   2.889   5.829
 8707SOL    HW127020   4.944   2.796   5.807
 8707SOL    HW227021   4.980   2.954   5.786
 8708SOL     OW27022   4.045   1.452   1.156
 8708SOL    HW127023   4.015   1.358   1.170
 8708SOL    HW227024   4.132   1.466   1.203
 8709SOL     OW27025   6.853   4.042   0.987
 8709SOL    HW127026   6.891   4.029   0.895
 8709SOL    HW227027   6.928   4.062   1.051
 8710SOL     OW27028   1.689   3.380   3.400
 8710SOL    HW127029   1.627   3.387   3.322
 8710SOL    HW227030   1.783   3.370   3.367
 8711SOL     OW27031   0.353   1.422   3.961
 8711SOL    HW127032   0.450   1.418   3.984
 8711SOL    HW227033   0.303   1.357   4.018
 8712SOL     OW27034   3.567   1.720   5.629
 8712SOL    HW127035   3.630   1.782   5.581
 8712SOL    HW227036   3.485   1.708   5.574
 8713SOL     OW27037   0.111   4.590   3.314
 8713SOL    HW127038   0.069   4.499   3.309
 8713SOL    HW227039   0.117   4.629   3.222
 8714SOL     OW27040   1.360   1.341   4.806
 8714SOL    HW127041   1.452   1.354   4.768
 8714SOL    HW227042   1.350   1.247   4.837
 8715SOL     OW27043   6.237   1.851   1.504
 8715SOL    HW127044   6.331   1.818   1.505
 8715SOL    HW227045   6.175   1.774   1.490
 8716SOL     OW27046   1.416   2.116   1.326
 8716SOL    HW127047   1.433   2.214   1.311
 8716SOL    HW227048   1.380   2.075   1.242
 8717SOL     OW27049   3.162   3.445   0.990
 8717SOL    HW127050   3.224   3.493   1.053
 8717SOL    HW227051   3.111   3.375   1.040
 8718SOL     OW27052   6.098   3.146   5.223
 8718SOL    HW127053   6.193   3.177   5.227
 8718SOL    HW227054   6.067   3.147   5.128
 8719SOL     OW27055   6.765   0.474   6.250
 8719SOL    HW127056   6.818   0.558   6.254
 8719SOL    HW227057   6.826   0.397   6.231
 8720SOL     OW27058   4.862   3.542   6.298
 8720SOL    HW127059   4.826   3.586   6.216
 8720SOL    HW227060   4.914   3.609   6.351
 8721SOL     OW27061   0.238   2.426   3.848
 8721SOL    HW127062   0.338   2.430   3.841
 8721SOL    HW227063   0.207   2.495   3.912
 8722SOL     OW27064   3.694   2.443   0.237
 8722SOL    HW127065   3.718   2.513   0.304
 8722SOL    HW227066   3.612   2.394   0.268
 8723SOL     OW27067   6.687   4.423   1.370
 8723SOL    HW127068   6.686   4.513   1.414
 8723SOL    HW227069   6.622   4.421   1.295
 8724SOL     OW27070   4.917   6.769   6.457
 8724SOL    HW127071   5.004   6.748   6.500
 8724SOL    HW227072   4.887   6.860   6.485
 8725SOL     OW27073   2.918   5.663   0.582
 8725SOL    HW127074   2.951   5.757   0.585
 8725SOL    HW227075   2.840   5.658   0.520
 8726SOL     OW27076   5.584   0.561   1.475
 8726SOL    HW127077   5.505   0.616   1.448
 8726SOL    HW227078   5.662   0.582   1.416
 8727SOL     OW27079   6.252   5.942   1.278
 8727SOL    HW127080   6.283   5.990   1.195
 8727SOL    HW227081   6.253   6.006   1.355
 8728SOL     OW27082   2.742   6.946   4.811
 8728SOL    HW127083   2.718   0.019   4.840
 8728SOL    HW227084   2.756   6.945   4.712
 8729SOL     OW27085   5.341   6.053   4.460
 8729SOL    HW127086   5.368   6.017   4.371
 8729SOL    HW227087   5.302   5.979   4.515
 8730SOL     OW27088   0.149   5.864   1.818
 8730SOL    HW127089   0.096   5.947   1.835
 8730SOL    HW227090   0.239   5.889   1.782
 8731SOL     OW27091   0.848   1.449   2.449
 8731SOL    HW127092   0.844   1.537   2.497
 8731SOL    HW227093   0.755   1.418   2.429
 8732SOL     OW27094   5.365   4.556   1.470
 8732SOL    HW127095   5.406   4.521   1.385
 8732SOL    HW227096   5.275   4.514   1.483
 8733SOL     OW27097   0.916   6.266   1.600
 8733SOL    HW127098   0.833   6.275   1.546
 8733SOL    HW227099   0.922   6.340   1.666
 8734SOL     OW27100   6.606   5.617   1.164
 8734SOL    HW127101   6.698   5.612   1.124
 8734SOL    HW227102   6.578   5.526   1.193
 8735SOL     OW27103   6.690   2.035   6.717
 8735SOL    HW127104   6.656   2.074   6.631
 8735SOL    HW227105   6.639   2.075   6.793
 8736SOL     OW27106   0.712   4.806   6.666
 8736SOL    HW127107   0.803   4.765   6.661
 8736SOL    HW227108   0.654   4.755   6.729
 8737SOL     OW27109   3.709   5.562   6.240
 8737SOL    HW127110   3.800   5.560   6.198
 8737SOL    HW227111   3.645   5.511   6.182
 8738SOL     OW27112   0.912   3.634   4.326
 8738SOL    HW127113   0.882   3.653   4.233
 8738SOL    HW227114   0.881   3.707   4.387
 8739SOL     OW27115   0.682   3.113   5.172
 8739SOL    HW127116   0.668   3.092   5.268
 8739SOL    HW227117   0.647   3.038   5.115
 8740SOL     OW27118   2.335   6.441   1.227
 8740SOL    HW127119   2.293   6.444   1.317
 8740SOL    HW227120   2.315   6.525   1.177
 8741SOL     OW27121   1.441   3.500   2.788
 8741SOL    HW127122   1.419   3.452   2.703
 8741SOL    HW227123   1.361   3.552   2.818
 8742SOL     OW27124   4.812   6.857   2.065
 8742SOL    HW127125   4.856   6.905   2.141
 8742SOL    HW227126   4.716   6.886   2.058
 8743SOL     OW27127   2.466   4.799   2.885
 8743SOL    HW127128   2.415   4.722   2.924
 8743SOL    HW227129   2.403   4.861   2.839
 8744SOL     OW27130   3.114   2.543   6.019
 8744SOL    HW127131   3.126   2.454   5.976
 8744SOL    HW227132   3.145   2.615   5.956
 8745SOL     OW27133   6.364   2.466   6.123
 8745SOL    HW127134   6.377   2.460   6.024
 8745SOL    HW227135   6.407   2.549   6.157
 8746SOL     OW27136   5.307   4.600   5.468
 8746SOL    HW127137   5.399   4.569   5.445
 8746SOL    HW227138   5.264   4.641   5.387
 8747SOL     OW27139   1.843   2.231   4.183
 8747SOL    HW127140   1.822   2.134   4.166
 8747SOL    HW227141   1.920   2.258   4.126
 8748SOL     OW27142   2.480   0.296   6.948
 8748SOL    HW127143   2.450   0.239   0.005
 8748SOL    HW227144   2.408   0.361   6.925
 8749SOL     OW27145   4.168   0.716   3.610
 8749SOL    HW127146   4.105   0.668   3.670
 8749SOL    HW227147   4.153   0.815   3.616
 8750SOL     OW27148   2.108   1.035   5.016
 8750SOL    HW127149   2.071   0.942   5.015
 8750SOL    HW227150   2.033   1.101   5.022
 8751SOL     OW27151   2.142   6.869   2.791
 8751SOL    HW127152   2.240   6.862   2.813
 8751SOL    HW227153   2.116   6.794   2.731
 8752SOL     OW27154   1.506   2.251   6.151
 8752SOL    HW127155   1.408   2.259   6.132
 8752SOL    HW227156   1.556   2.255   6.064
 8753SOL     OW27157   5.139   1.157   4.874
 8753SOL    HW127158   5.229   1.181   4.911
 8753SOL    HW227159   5.134   1.184   4.778
 8754SOL     OW27160   1.354   1.645   5.504
 8754SOL    HW127161   1.417   1.644   5.426
 8754SOL    HW227162   1.310   1.556   5.513
 8755SOL     OW27163   1.910   2.007   1.107
 8755SOL    HW127164   1.939   2.019   1.202
 8755SOL    HW227165   1.981   2.042   1.046
 8756SOL     OW27166   2.169   3.257   4.217
 8756SOL    HW127167   2.132   3.224   4.304
 8756SOL    HW227168   2.201   3.351   4.228
 8757SOL     OW27169   5.053   6.093   5.215
 8757SOL    HW127170   5.023   6.102   5.310
 8757SOL    HW227171   5.067   6.184   5.176
 8758SOL     OW27172   6.092   6.410   1.637
 8758SOL    HW127173   6.048   6.467   1.707
 8758SOL    HW227174   6.031   6.402   1.558
 8759SOL     OW27175   5.264   0.965   6.104
 8759SOL    HW127176   5.251   0.974   6.203
 8759SOL    HW227177   5.180   0.990   6.057
 8760SOL     OW27178   1.784   1.972   4.072
 8760SOL    HW127179   1.767   1.875   4.090
 8760SOL    HW227180   1.883   1.989   4.070
 8761SOL     OW27181   4.491   6.605   0.135
 8761SOL    HW127182   4.438   6.550   0.200
 8761SOL    HW227183   4.495   6.699   0.167
 8762SOL     OW27184   0.811   4.064   1.146
 8762SOL    HW127185   0.733   4.079   1.207
 8762SOL    HW227186   0.858   4.150   1.130
 8763SOL     OW27187   0.592   6.496   6.132
 8763SOL    HW127188   0.615   6.542   6.046
 8763SOL    HW227189   0.543   6.560   6.191
 8764SOL     OW27190   3.460   1.719   5.311
 8764SOL    HW127191   3.385   1.762   5.362
 8764SOL    HW227192   3.450   1.737   5.214
 8765SOL     OW27193   6.958   0.252   4.174
 8765SOL    HW127194   6.897   0.183   4.133
 8765SOL    HW227195   6.958   0.242   4.273
 8766SOL     OW27196   2.194   4.607   2.326
 8766SOL    HW127197   2.284   4.572   2.300
 8766SOL    HW227198   2.153   4.655   2.249
 8767SOL     OW27199   4.409   1.294   4.431
 8767SOL    HW127200   4.324   1.345   4.442
 8767SOL    HW227201   4.465   1.337   4.360
 8768SOL     OW27202   1.316   3.386   7.011
 8768SOL    HW127203   1.379   3.308   7.000
 8768SOL    HW227204   1.287   3.418   6.921
 8769SOL     OW27205   2.072   0.208   5.619
 8769SOL    HW127206   1.977   0.236   5.609
 8769SOL    HW227207   2.077   0.127   5.678
 8770SOL     OW27208   5.731   2.352   2.231
 8770SOL    HW127209   5.765   2.258   2.237
 8770SOL    HW227210   5.654   2.363   2.295
 8771SOL     OW27211   1.232   1.770   6.419
 8771SOL    HW127212   1.222   1.687   6.364
 8771SOL    HW227213   1.274   1.842   6.363
 8772SOL     OW27214   5.345   0.519   0.059
 8772SOL    HW127215   5.351   0.583   7.002
 8772SOL    HW227216   5.436   0.506   0.098
 8773SOL     OW27217   2.929   2.227   3.188
 8773SOL    HW127218   2.884   2.279   3.261
 8773SOL    HW227219   2.949   2.134   3.220
 8774SOL     OW27220   1.080   0.850   6.989
 8774SOL    HW127221   1.148   0.850   6.916
 8774SOL    HW227222   1.125   0.840   0.058
 8775SOL     OW27223   6.557   0.125   3.397
 8775SOL    HW127224   6.508   0.051   3.442
 8775SOL    HW227225   6.610   0.176   3.465
 8776SOL     OW27226   3.417   3.334   4.982
 8776SOL    HW127227   3.420   3.257   5.046
 8776SOL    HW227228   3.405   3.299   4.889
 8777SOL     OW27229   6.710   5.872   1.369
 8777SOL    HW127230   6.648   5.825   1.433
 8777SOL    HW227231   6.801   5.879   1.409
 8778SOL     OW27232   0.579   2.229   3.271
 8778SOL    HW127233   0.534   2.289   3.337
 8778SOL    HW227234   0.579   2.274   3.181
 8779SOL     OW27235   1.633   4.419   0.805
 8779SOL    HW127236   1.730   4.406   0.786
 8779SOL    HW227237   1.580   4.353   0.752
 8780SOL     OW27238   1.695   5.490   3.987
 8780SOL    HW127239   1.716   5.537   4.073
 8780SOL    HW227240   1.776   5.491   3.928
 8781SOL     OW27241   0.289   2.237   1.988
 8781SOL    HW127242   0.257   2.146   2.014
 8781SOL    HW227243   0.283   2.248   1.889
 8782SOL     OW27244   4.513   1.764   2.689
 8782SOL    HW127245   4.606   1.727   2.693
 8782SOL    HW227246   4.464   1.740   2.773
 8783SOL     OW27247   5.620   3.391   5.408
 8783SOL    HW127248   5.586   3.331   5.336
 8783SOL    HW227249   5.552   3.397   5.481
 8784SOL     OW27250   5.289   4.392   5.001
 8784SOL    HW127251   5.358   4.463   4.983
 8784SOL    HW227252   5.205   4.435   5.034
 8785SOL     OW27253   5.984   4.511   6.503
 8785SOL    HW127254   5.901   4.494   6.557
 8785SOL    HW227255   5.966   4.583   6.436
 8786SOL     OW27256   1.895   6.383   0.120
 8786SOL    HW127257   1.976   6.329   0.096
 8786SOL    HW227258   1.900   6.408   0.216
 8787SOL     OW27259   0.521   3.236   0.438
 8787SOL    HW127260   0.481   3.190   0.517
 8787SOL    HW227261   0.456   3.304   0.403
 8788SOL     OW27262   0.950   1.852   5.621
 8788SOL    HW127263   0.918   1.769   5.576
 8788SOL    HW227264   0.931   1.931   5.563
 8789SOL     OW27265   0.001   6.905   6.229
 8789SOL    HW127266   0.007   6.832   6.296
 8789SOL    HW227267   6.930   6.904   6.186
 8790SOL     OW27268   5.655   1.846   0.472
 8790SOL    HW127269   5.739   1.800   0.499
 8790SOL    HW227270   5.634   1.919   0.537
 8791SOL     OW27271   4.621   6.371   5.454
 8791SOL    HW127272   4.614   6.374   5.553
 8791SOL    HW227273   4.568   6.446   5.414
 8792SOL     OW27274   5.108   6.896   2.789
 8792SOL    HW127275   5.171   6.971   2.806
 8792SOL    HW227276   5.104   6.836   2.869
 8793SOL     OW27277   0.787   5.474   4.085
 8793SOL    HW127278   0.706   5.449   4.032
 8793SOL    HW227279   0.869   5.451   4.033
 8794SOL     OW27280   2.733   6.885   2.565
 8794SOL    HW127281   2.826   6.892   2.529
 8794SOL    HW227282   2.705   6.789   2.566
 8795SOL     OW27283   1.973   6.211   5.602
 8795SOL    HW127284   1.927   6.131   5.642
 8795SOL    HW227285   2.008   6.187   5.512
 8796SOL     OW27286   5.322   2.260   4.972
 8796SOL    HW127287   5.257   2.312   5.028
 8796SOL    HW227288   5.346   2.175   5.020
 8797SOL     OW27289   0.600   6.672   6.821
 8797SOL    HW127290   0.551   6.603   6.874
 8797SOL    HW227291   0.698   6.666   6.840
 8798SOL     OW27292   4.747   3.791   5.526
 8798SOL    HW127293   4.649   3.810   5.537
 8798SOL    HW227294   4.796   3.876   5.509
 8799SOL     OW27295   3.417   5.836   2.723
 8799SOL    HW127296   3.489   5.812   2.788
 8799SOL    HW227297   3.419   5.934   2.705
 8800SOL     OW27298   4.168   4.757   6.855
 8800SOL    HW127299   4.170   4.697   6.935
 8800SOL    HW227300   4.163   4.703   6.772
 8801SOL     OW27301   2.692   0.161   4.966
 8801SOL    HW127302   2.741   0.216   4.898
 8801SOL    HW227303   2.741   0.164   5.053
 8802SOL     OW27304   2.784   0.172   2.368
 8802SOL    HW127305   2.826   0.259   2.394
 8802SOL    HW227306   2.730   0.137   2.444
 8803SOL     OW27307   4.012   6.037   0.781
 8803SOL    HW127308   4.100   6.035   0.734
 8803SOL    HW227309   4.019   6.095   0.862
 8804SOL     OW27310   4.183   0.351   0.939
 8804SOL    HW127311   4.209   0.293   0.862
 8804SOL    HW227312   4.252   0.344   1.011
 8805SOL     OW27313   0.493   0.376   2.952
 8805SOL    HW127314   0.568   0.386   3.017
 8805SOL    HW227315   0.436   0.298   2.977
 8806SOL     OW27316   2.044   4.647   6.478
 8806SOL    HW127317   2.084   4.638   6.569
 8806SOL    HW227318   2.012   4.558   6.446
 8807SOL     OW27319   1.530   5.773   6.284
 8807SOL    HW127320   1.486   5.684   6.296
 8807SOL    HW227321   1.568   5.778   6.192
 8808SOL     OW27322   6.230   1.023   0.917
 8808SOL    HW127323   6.151   1.033   0.977
 8808SOL    HW227324   6.298   1.093   0.938
 8809SOL     OW27325   5.845   3.968   1.473
 8809SOL    HW127326   5.826   3.985   1.569
 8809SOL    HW227327   5.939   3.995   1.452
 8810SOL     OW27328   4.783   1.620   4.121
 8810SOL    HW127329   4.740   1.706   4.148
 8810SOL    HW227330   4.875   1.614   4.161
 8811SOL     OW27331   1.039   1.486   3.505
 8811SOL    HW127332   1.071   1.414   3.444
 8811SOL    HW227333   1.010   1.446   3.592
 8812SOL     OW27334   1.936   0.478   1.218
 8812SOL    HW127335   2.003   0.515   1.154
 8812SOL    HW227336   1.957   0.382   1.236
 8813SOL     OW27337   1.618   4.771   1.087
 8813SOL    HW127338   1.690   4.715   1.047
 8813SOL    HW227339   1.535   4.763   1.032
 8814SOL     OW27340   5.397   0.674   6.674
 8814SOL    HW127341   5.436   0.754   6.721
 8814SOL    HW227342   5.329   0.630   6.732
 8815SOL     OW27343   0.312   6.167   2.633
 8815SOL    HW127344   0.388   6.129   2.687
 8815SOL    HW227345   0.264   6.236   2.686
 8816SOL     OW27346   0.888   5.784   1.337
 8816SOL    HW127347   0.851   5.721   1.269
 8816SOL    HW227348   0.839   5.872   1.331
 8817SOL     OW27349   2.549   4.938   5.326
 8817SOL    HW127350   2.647   4.918   5.329
 8817SOL    HW227351   2.521   4.979   5.413
 8818SOL     OW27352   0.021   5.224   4.006
 8818SOL    HW127353   0.059   5.207   3.915
 8818SOL    HW227354   6.954   5.273   3.998
 8819SOL     OW27355   5.332   6.973   4.525
 8819SOL    HW127356   5.352   6.962   4.622
 8819SOL    HW227357   5.233   6.971   4.511
 8820SOL     OW27358   1.411   2.444   4.188
 8820SOL    HW127359   1.372   2.535   4.203
 8820SOL    HW227360   1.394   2.417   4.093
 8821SOL     OW27361   1.852   1.074   5.969
 8821SOL    HW127362   1.788   1.140   6.010
 8821SOL    HW227363   1.869   0.999   6.032
 8822SOL     OW27364   0.304   2.588   3.323
 8822SOL    HW127365   0.357   2.667   3.292
 8822SOL    HW227366   0.356   2.538   3.393
 8823SOL     OW27367   2.379   5.881   1.709
 8823SOL    HW127368   2.282   5.873   1.732
 8823SOL    HW227369   2.426   5.795   1.733
 8824SOL     OW27370   3.757   3.842   0.920
 8824SOL    HW127371   3.727   3.813   0.830
 8824SOL    HW227372   3.856   3.860   0.918
 8825SOL     OW27373   1.048   1.676   1.271
 8825SOL    HW127374   1.107   1.604   1.234
 8825SOL    HW227375   0.996   1.640   1.348
 8826SOL     OW27376   5.704   1.501   6.859
 8826SOL    HW127377   5.663   1.448   6.934
 8826SOL    HW227378   5.782   1.451   6.822
 8827SOL     OW27379   1.274   1.477   3.819
 8827SOL    HW127380   1.212   1.434   3.885
 8827SOL    HW227381   1.340   1.409   3.787
 8828SOL     OW27382   2.196   6.389   2.568
 8828SOL    HW127383   2.148   6.382   2.656
 8828SOL    HW227384   2.266   6.317   2.563
 8829SOL     OW27385   0.108   1.667   0.246
 8829SOL    HW127386   0.138   1.636   0.155
 8829SOL    HW227387   0.184   1.707   0.295
 8830SOL     OW27388   0.739   2.014   0.426
 8830SOL    HW127389   0.747   1.914   0.430
 8830SOL    HW227390   0.793   2.055   0.498
 8831SOL     OW27391   6.716   0.651   2.871
 8831SOL    HW127392   6.667   0.714   2.931
 8831SOL    HW227393   6.783   0.701   2.818
 8832SOL     OW27394   0.183   1.261   2.369
 8832SOL    HW127395   0.140   1.286   2.282
 8832SOL    HW227396   0.211   1.344   2.418
 8833SOL     OW27397   2.283   4.662   3.787
 8833SOL    HW127398   2.206   4.627   3.842
 8833SOL    HW227399   2.247   4.717   3.711
 8834SOL     OW27400   5.646   3.863   4.652
 8834SOL    HW127401   5.628   3.807   4.733
 8834SOL    HW227402   5.723   3.924   4.670
 8835SOL     OW27403   0.153   6.701   6.664
 8835SOL    HW127404   0.233   6.747   6.624
 8835SOL    HW227405   0.072   6.728   6.613
 8836SOL     OW27406   4.915   2.195   0.591
 8836SOL    HW127407   4.848   2.206   0.665
 8836SOL    HW227408   4.967   2.111   0.605
 8837SOL     OW27409   0.340   1.240   1.464
 8837SOL    HW127410   0.296   1.299   1.396
 8837SOL    HW227411   0.390   1.297   1.529
 8838SOL     OW27412   2.272   5.576   3.911
 8838SOL    HW127413   2.274   5.631   3.827
 8838SOL    HW227414   2.300   5.633   3.988
 8839SOL     OW27415   6.534   6.504   3.665
 8839SOL    HW127416   6.625   6.466   3.679
 8839SOL    HW227417   6.513   6.569   3.738
 8840SOL     OW27418   5.212   1.837   2.068
 8840SOL    HW127419   5.146   1.903   2.104
 8840SOL    HW227420   5.274   1.808   2.141
 8841SOL     OW27421   1.717   0.695   4.371
 8841SOL    HW127422   1.817   0.695   4.376
 8841SOL    HW227423   1.689   0.706   4.276
 8842SOL     OW27424   2.126   3.031   2.172
 8842SOL    HW127425   2.218   3.043   2.211
 8842SOL    HW227426   2.104   3.110   2.115
 8843SOL     OW27427   0.435   3.060   4.642
 8843SOL    HW127428   0.351   3.025   4.684
 8843SOL    HW227429   0.512   3.002   4.667
 8844SOL     OW27430   6.539   1.721   6.457
 8844SOL    HW127431   6.492   1.657   6.517
 8844SOL    HW227432   6.610   1.770   6.508
 8845SOL     OW27433   5.374   4.453   0.015
 8845SOL    HW127434   5.473   4.464   0.014
 8845SOL    HW227435   5.333   4.519   0.078
 8846SOL     OW27436   2.022   4.627   3.369
 8846SOL    HW127437   1.971   4.698   3.418
 8846SOL    HW227438   2.104   4.667   3.329
 8847SOL     OW27439   2.706   0.857   2.511
 8847SOL    HW127440   2.762   0.824   2.586
 8847SOL    HW227441   2.619   0.891   2.547
 8848SOL     OW27442   1.654   0.186   2.647
 8848SOL    HW127443   1.588   0.180   2.572
 8848SOL    HW227444   1.639   0.110   2.711
 8849SOL     OW27445   2.768   6.891   1.018
 8849SOL    HW127446   2.822   6.855   1.094
 8849SOL    HW227447   2.829   6.926   0.947
 8850SOL     OW27448   3.197   2.792   7.017
 8850SOL    HW127449   3.202   2.856   0.074
 8850SOL    HW227450   3.255   2.713   0.017
 8851SOL     OW27451   1.497   3.360   3.054
 8851SOL    HW127452   1.578   3.302   3.065
 8851SOL    HW227453   1.485   3.380   2.956
 8852SOL     OW27454   0.751   2.066   6.068
 8852SOL    HW127455   0.824   2.012   6.111
 8852SOL    HW227456   0.662   2.034   6.101
 8853SOL     OW27457   5.205   1.073   1.275
 8853SOL    HW127458   5.170   1.141   1.340
 8853SOL    HW227459   5.303   1.087   1.262
 8854SOL     OW27460   0.958   2.431   4.853
 8854SOL    HW127461   0.991   2.487   4.929
 8854SOL    HW227462   1.034   2.409   4.792
 8855SOL     OW27463   5.628   5.573   1.013
 8855SOL    HW127464   5.719   5.546   1.043
 8855SOL    HW227465   5.583   5.496   0.969
 8856SOL     OW27466   6.675   0.093   5.612
 8856SOL    HW127467   6.622   0.012   5.586
 8856SOL    HW227468   6.772   0.076   5.597
 8857SOL     OW27469   6.541   1.828   6.083
 8857SOL    HW127470   6.520   1.780   5.998
 8857SOL    HW227471   6.598   1.770   6.141
 8858SOL     OW27472   5.835   5.850   4.483
 8858SOL    HW127473   5.872   5.759   4.463
 8858SOL    HW227474   5.757   5.842   4.544
 8859SOL     OW27475   0.635   6.415   3.580
 8859SOL    HW127476   0.622   6.396   3.677
 8859SOL    HW227477   0.698   6.492   3.568
 8860SOL     OW27478   0.276   4.332   2.824
 8860SOL    HW127479   0.207   4.281   2.875
 8860SOL    HW227480   0.348   4.270   2.793
 8861SOL     OW27481   4.308   2.895   0.719
 8861SOL    HW127482   4.296   2.851   0.808
 8861SOL    HW227483   4.399   2.936   0.715
 8862SOL     OW27484   4.701   4.665   5.010
 8862SOL    HW127485   4.696   4.735   5.081
 8862SOL    HW227486   4.786   4.675   4.959
 8863SOL     OW27487   2.154   3.832   3.537
 8863SOL    HW127488   2.226   3.767   3.561
 8863SOL    HW227489   2.169   3.866   3.444
 8864SOL     OW27490   6.118   1.909   5.380
 8864SOL    HW127491   6.112   1.837   5.449
 8864SOL    HW227492   6.127   1.868   5.289
 8865SOL     OW27493   2.641   1.514   0.361
 8865SOL    HW127494   2.624   1.594   0.419
 8865SOL    HW227495   2.625   1.538   0.266
 8866SOL     OW27496   5.981   6.658   2.202
 8866SOL    HW127497   5.893   6.692   2.168
 8866SOL    HW227498   6.008   6.576   2.151
 8867SOL     OW27499   6.507   3.748   3.085
 8867SOL    HW127500   6.597   3.706   3.099
 8867SOL    HW227501   6.517   3.829   3.027
 8868SOL     OW27502   6.679   2.850   3.504
 8868SOL    HW127503   6.736   2.925   3.472
 8868SOL    HW227504   6.711   2.764   3.464
 8869SOL     OW27505   3.895   6.866   3.477
 8869SOL    HW127506   3.897   6.795   3.548
 8869SOL    HW227507   3.954   6.942   3.503
 8870SOL     OW27508   1.504   0.517   2.860
 8870SOL    HW127509   1.430   0.579   2.835
 8870SOL    HW227510   1.551   0.486   2.777
 8871SOL     OW27511   6.824   0.520   2.562
 8871SOL    HW127512   6.737   0.474   2.545
 8871SOL    HW227513   6.807   0.607   2.607
 8872SOL     OW27514   6.400   4.599   3.765
 8872SOL    HW127515   6.352   4.577   3.850
 8872SOL    HW227516   6.365   4.542   3.691
 8873SOL     OW27517   2.193   1.742   2.871
 8873SOL    HW127518   2.154   1.740   2.779
 8873SOL    HW227519   2.286   1.778   2.867
 8874SOL     OW27520   3.189   6.200   1.198
 8874SOL    HW127521   3.106   6.155   1.166
 8874SOL    HW227522   3.210   6.169   1.291
 8875SOL     OW27523   6.823   3.203   4.535
 8875SOL    HW127524   6.874   3.262   4.472
 8875SOL    HW227525   6.767   3.261   4.596
 8876SOL     OW27526   4.277   0.339   6.564
 8876SOL    HW127527   4.236   0.390   6.488
 8876SOL    HW227528   4.295   0.401   6.640
 8877SOL     OW27529   1.001   4.300   1.171
 8877SOL    HW127530   1.009   4.374   1.237
 8877SOL    HW227531   1.071   4.311   1.100
 8878SOL     OW27532   4.379   3.954   1.060
 8878SOL    HW127533   4.356   3.857   1.053
 8878SOL    HW227534   4.357   4.000   0.974
 8879SOL     OW27535   6.523   4.720   2.926
 8879SOL    HW127536   6.556   4.751   3.015
 8879SOL    HW227537   6.586   4.752   2.855
 8880SOL     OW27538   4.241   1.167   3.557
 8880SOL    HW127539   4.250   1.248   3.615
 8880SOL    HW227540   4.229   1.196   3.462
 8881SOL     OW27541   3.857   4.833   4.298
 8881SOL    HW127542   3.759   4.832   4.281
 8881SOL    HW227543   3.876   4.794   4.388
 8882SOL     OW27544   4.335   0.888   0.765
 8882SOL    HW127545   4.309   0.854   0.675
 8882SOL    HW227546   4.380   0.977   0.755
 8883SOL     OW27547   6.871   6.627   4.773
 8883SOL    HW127548   6.948   6.564   4.781
 8883SOL    HW227549   6.790   6.587   4.817
 8884SOL     OW27550   4.968   3.680   5.271
 8884SOL    HW127551   4.935   3.683   5.177
 8884SOL    HW227552   4.900   3.637   5.330
 8885SOL     OW27553   6.029   6.092   0.817
 8885SOL    HW127554   5.957   6.024   0.829
 8885SOL    HW227555   6.098   6.056   0.753
 8886SOL     OW27556   4.193   5.792   6.387
 8886SOL    HW127557   4.134   5.821   6.311
 8886SOL    HW227558   4.280   5.759   6.351
 8887SOL     OW27559   4.684   0.153   1.709
 8887SOL    HW127560   4.756   0.207   1.752
 8887SOL    HW227561   4.722   0.071   1.668
 8888SOL     OW27562   3.124   2.168   2.749
 8888SOL    HW127563   3.107   2.070   2.759
 8888SOL    HW227564   3.223   2.184   2.746
 8889SOL     OW27565   1.394   5.311   6.295
 8889SOL    HW127566   1.332   5.388   6.285
 8889SOL    HW227567   1.433   5.287   6.205
 8890SOL     OW27568   0.882   6.184   0.370
 8890SOL    HW127569   0.958   6.184   0.435
 8890SOL    HW227570   0.914   6.152   0.281
 8891SOL     OW27571   6.443   3.767   5.995
 8891SOL    HW127572   6.442   3.740   5.899
 8891SOL    HW227573   6.536   3.761   6.031
 8892SOL     OW27574   3.384   5.246   4.711
 8892SOL    HW127575   3.381   5.181   4.787
 8892SOL    HW227576   3.469   5.299   4.716
 8893SOL     OW27577   0.920   5.171   5.286
 8893SOL    HW127578   0.902   5.201   5.379
 8893SOL    HW227579   1.001   5.113   5.284
 8894SOL     OW27580   4.511   2.223   0.819
 8894SOL    HW127581   4.610   2.228   0.800
 8894SOL    HW227582   4.463   2.291   0.764
 8895SOL     OW27583   7.011   3.571   0.500
 8895SOL    HW127584   0.082   3.548   0.536
 8895SOL    HW227585   7.002   3.671   0.495
 8896SOL     OW27586   0.421   1.960   4.331
 8896SOL    HW127587   0.332   1.970   4.285
 8896SOL    HW227588   0.423   2.018   4.412
 8897SOL     OW27589   1.563   4.766   4.118
 8897SOL    HW127590   1.590   4.673   4.142
 8897SOL    HW227591   1.645   4.821   4.099
 8898SOL     OW27592   4.635   4.255   2.637
 8898SOL    HW127593   4.625   4.304   2.550
 8898SOL    HW227594   4.586   4.305   2.709
 8899SOL     OW27595   1.278   3.748   3.631
 8899SOL    HW127596   1.193   3.751   3.683
 8899SOL    HW227597   1.339   3.820   3.663
 8900SOL     OW27598   4.723   2.356   4.174
 8900SOL    HW127599   4.734   2.275   4.117
 8900SOL    HW227600   4.637   2.402   4.151
 8901SOL     OW27601   1.507   4.146   4.449
 8901SOL    HW127602   1.521   4.212   4.524
 8901SOL    HW227603   1.443   4.184   4.383
 8902SOL     OW27604   0.374   4.285   0.550
 8902SOL    HW127605   0.283   4.320   0.529
 8902SOL    HW227606   0.443   4.347   0.512
 8903SOL     OW27607   0.980   0.130   5.162
 8903SOL    HW127608   0.986   0.160   5.257
 8903SOL    HW227609   0.949   0.205   5.104
 8904SOL     OW27610   0.256   1.069   3.328
 8904SOL    HW127611   0.228   1.117   3.245
 8904SOL    HW227612   0.343   1.022   3.312
 8905SOL     OW27613   0.969   3.457   2.678
 8905SOL    HW127614   0.906   3.471   2.602
 8905SOL    HW227615   1.055   3.504   2.659
 8906SOL     OW27616   6.164   0.015   6.937
 8906SOL    HW127617   6.238   6.967   6.941
 8906SOL    HW227618   6.107   0.007   7.018
 8907SOL     OW27619   2.745   3.546   5.337
 8907SOL    HW127620   2.662   3.602   5.333
 8907SOL    HW227621   2.809   3.577   5.267
 8908SOL     OW27622   1.339   4.781   6.974
 8908SOL    HW127623   1.258   4.776   6.915
 8908SOL    HW227624   1.376   4.874   6.972
 8909SOL     OW27625   1.882   6.841   1.658
 8909SOL    HW127626   1.884   6.938   1.684
 8909SOL    HW227627   1.796   6.821   1.611
 8910SOL     OW27628   1.692   0.217   3.779
 8910SOL    HW127629   1.694   0.135   3.837
 8910SOL    HW227630   1.646   0.196   3.693
 8911SOL     OW27631   4.290   2.334   4.773
 8911SOL    HW127632   4.213   2.283   4.736
 8911SOL    HW227633   4.259   2.392   4.849
 8912SOL     OW27634   3.704   3.701   4.314
 8912SOL    HW127635   3.713   3.796   4.284
 8912SOL    HW227636   3.654   3.699   4.401
 8913SOL     OW27637   5.385   6.099   6.996
 8913SOL    HW127638   5.357   6.136   0.065
 8913SOL    HW227639   5.335   6.146   6.923
 8914SOL     OW27640   4.723   5.181   6.618
 8914SOL    HW127641   4.811   5.162   6.576
 8914SOL    HW227642   4.668   5.238   6.556
 8915SOL     OW27643   1.607   1.026   3.322
 8915SOL    HW127644   1.607   1.041   3.421
 8915SOL    HW227645   1.513   1.013   3.290
 8916SOL     OW27646   4.858   1.100   0.855
 8916SOL    HW127647   4.952   1.135   0.853
 8916SOL    HW227648   4.817   1.111   0.765
 8917SOL     OW27649   5.923   2.202   0.915
 8917SOL    HW127650   6.001   2.223   0.975
 8917SOL    HW227651   5.941   2.116   0.866
 8918SOL     OW27652   0.319   3.758   2.944
 8918SOL    HW127653   0.248   3.707   2.993
 8918SOL    HW227654   0.372   3.695   2.888
 8919SOL     OW27655   6.409   3.363   1.433
 8919SOL    HW127656   6.444   3.451   1.467
 8919SOL    HW227657   6.438   3.290   1.495
 8920SOL     OW27658   6.301   1.460   0.310
 8920SOL    HW127659   6.266   1.369   0.330
 8920SOL    HW227660   6.382   1.478   0.367
 8921SOL     OW27661   2.109   3.152   2.717
 8921SOL    HW127662   2.169   3.080   2.684
 8921SOL    HW227663   2.108   3.151   2.817
 8922SOL     OW27664   4.359   6.013   4.097
 8922SOL    HW127665   4.337   5.957   4.178
 8922SOL    HW227666   4.351   6.109   4.121
 8923SOL     OW27667   2.058   1.514   4.365
 8923SOL    HW127668   1.958   1.510   4.359
 8923SOL    HW227669   2.091   1.597   4.321
 8924SOL     OW27670   6.311   5.054   4.931
 8924SOL    HW127671   6.341   5.002   5.011
 8924SOL    HW227672   6.214   5.036   4.914
 8925SOL     OW27673   0.896   5.993   2.594
 8925SOL    HW127674   0.848   6.078   2.613
 8925SOL    HW227675   0.873   5.961   2.502
 8926SOL     OW27676   5.520   1.767   6.425
 8926SOL    HW127677   5.482   1.856   6.402
 8926SOL    HW227678   5.468   1.726   6.500
 8927SOL     OW27679   1.409   1.009   5.679
 8927SOL    HW127680   1.429   1.005   5.581
 8927SOL    HW227681   1.446   0.928   5.723
 8928SOL     OW27682   1.040   6.324   5.293
 8928SOL    HW127683   1.011   6.417   5.272
 8928SOL    HW227684   0.964   6.261   5.279
 8929SOL     OW27685   0.258   1.785   4.577
 8929SOL    HW127686   0.221   1.733   4.654
 8929SOL    HW227687   0.184   1.833   4.531
 8930SOL     OW27688   1.930   4.451   3.690
 8930SOL    HW127689   1.867   4.460   3.613
 8930SOL    HW227690   1.895   4.380   3.752
 8931SOL     OW27691   4.215   2.990   0.492
 8931SOL    HW127692   4.249   2.966   0.583
 8931SOL    HW227693   4.292   3.001   0.430
 8932SOL     OW27694   0.694   3.281   3.471
 8932SOL    HW127695   0.676   3.364   3.524
 8932SOL    HW227696   0.695   3.303   3.374
 8933SOL     OW27697   3.702   2.199   5.222
 8933SOL    HW127698   3.729   2.294   5.206
 8933SOL    HW227699   3.745   2.140   5.153
 8934SOL     OW27700   2.936   5.589   2.902
 8934SOL    HW127701   2.861   5.584   2.967
 8934SOL    HW227702   2.900   5.575   2.809
 8935SOL     OW27703   0.232   4.333   1.159
 8935SOL    HW127704   0.240   4.430   1.139
 8935SOL    HW227705   0.137   4.311   1.180
 8936SOL     OW27706   2.930   2.371   0.810
 8936SOL    HW127707   3.002   2.349   0.876
 8936SOL    HW227708   2.861   2.299   0.810
 8937SOL     OW27709   0.478   6.097   5.907
 8937SOL    HW127710   0.540   6.062   5.837
 8937SOL    HW227711   0.462   6.194   5.891
 8938SOL     OW27712   5.277   5.927   1.377
 8938SOL    HW127713   5.268   5.909   1.475
 8938SOL    HW227714   5.359   5.881   1.342
 8939SOL     OW27715   4.648   2.209   4.925
 8939SOL    HW127716   4.610   2.231   4.835
 8939SOL    HW227717   4.587   2.243   4.996
 8940SOL     OW27718   5.803   0.643   2.779
 8940SOL    HW127719   5.845   0.568   2.831
 8940SOL    HW227720   5.747   0.605   2.706
 8941SOL     OW27721   4.915   1.859   6.184
 8941SOL    HW127722   4.968   1.776   6.164
 8941SOL    HW227723   4.976   1.938   6.187
 8942SOL     OW27724   0.383   2.734   5.369
 8942SOL    HW127725   0.305   2.672   5.377
 8942SOL    HW227726   0.349   2.827   5.356
 8943SOL     OW27727   5.391   4.148   0.934
 8943SOL    HW127728   5.442   4.108   1.010
 8943SOL    HW227729   5.306   4.188   0.969
 8944SOL     OW27730   4.546   5.492   0.952
 8944SOL    HW127731   4.569   5.397   0.973
 8944SOL    HW227732   4.488   5.530   1.023
 8945SOL     OW27733   1.933   0.873   4.160
 8945SOL    HW127734   1.952   0.783   4.199
 8945SOL    HW227735   1.840   0.875   4.124
 8946SOL     OW27736   3.772   1.826   4.219
 8946SOL    HW127737   3.790   1.757   4.289
 8946SOL    HW227738   3.846   1.825   4.151
 8947SOL     OW27739   4.081   3.703   5.007
 8947SOL    HW127740   4.143   3.673   4.934
 8947SOL    HW227741   4.134   3.737   5.084
 8948SOL     OW27742   6.228   5.286   2.940
 8948SOL    HW127743   6.312   5.336   2.961
 8948SOL    HW227744   6.149   5.343   2.963
 8949SOL     OW27745   1.981   6.092   0.438
 8949SOL    HW127746   2.002   6.187   0.413
 8949SOL    HW227747   1.966   6.086   0.537
 8950SOL     OW27748   4.889   2.595   4.887
 8950SOL    HW127749   4.850   2.609   4.796
 8950SOL    HW227750   4.977   2.642   4.894
 8951SOL     OW27751   2.251   2.560   5.613
 8951SOL    HW127752   2.348   2.583   5.619
 8951SOL    HW227753   2.216   2.538   5.704
 8952SOL     OW27754   6.557   0.427   2.851
 8952SOL    HW127755   6.461   0.452   2.840
 8952SOL    HW227756   6.611   0.510   2.865
 8953SOL     OW27757   1.877   3.744   6.620
 8953SOL    HW127758   1.976   3.754   6.610
 8953SOL    HW227759   1.853   3.647   6.609
 8954SOL     OW27760   2.007   5.926   5.705
 8954SOL    HW127761   2.043   5.928   5.612
 8954SOL    HW227762   1.950   5.845   5.717
 8955SOL     OW27763   6.026   3.703   3.034
 8955SOL    HW127764   6.076   3.621   3.007
 8955SOL    HW227765   5.932   3.679   3.059
 8956SOL     OW27766   1.062   0.893   5.821
 8956SOL    HW127767   1.082   0.801   5.857
 8956SOL    HW227768   1.100   0.901   5.729
 8957SOL     OW27769   2.893   4.831   2.221
 8957SOL    HW127770   2.920   4.767   2.149
 8957SOL    HW227771   2.794   4.845   2.218
 8958SOL     OW27772   2.132   0.094   4.286
 8958SOL    HW127773   2.180   0.180   4.303
 8958SOL    HW227774   2.174   0.048   4.207
 8959SOL     OW27775   2.176   4.196   1.316
 8959SOL    HW127776   2.152   4.288   1.286
 8959SOL    HW227777   2.115   4.130   1.271
 8960SOL     OW27778   3.785   5.976   1.429
 8960SOL    HW127779   3.809   6.059   1.480
 8960SOL    HW227780   3.714   5.998   1.362
 8961SOL     OW27781   1.286   1.742   3.840
 8961SOL    HW127782   1.270   1.646   3.818
 8961SOL    HW227783   1.296   1.794   3.755
 8962SOL     OW27784   5.057   0.117   3.612
 8962SOL    HW127785   5.129   0.135   3.545
 8962SOL    HW227786   4.979   0.176   3.593
 8963SOL     OW27787   6.940   0.820   3.938
 8963SOL    HW127788   6.927   0.747   4.005
 8963SOL    HW227789   7.006   0.886   3.974
 8964SOL     OW27790   6.036   5.026   2.722
 8964SOL    HW127791   6.136   5.032   2.717
 8964SOL    HW227792   6.010   4.940   2.767
 8965SOL     OW27793   1.207   5.111   1.647
 8965SOL    HW127794   1.219   5.143   1.553
 8965SOL    HW227795   1.288   5.133   1.701
 8966SOL     OW27796   2.796   2.767   5.395
 8966SOL    HW127797   2.798   2.855   5.348
 8966SOL    HW227798   2.890   2.737   5.413
 8967SOL     OW27799   4.071   0.750   0.404
 8967SOL    HW127800   4.065   0.661   0.359
 8967SOL    HW227801   4.027   0.819   0.348
 8968SOL     OW27802   5.282   4.945   2.333
 8968SOL    HW127803   5.250   4.990   2.416
 8968SOL    HW227804   5.381   4.931   2.339
 8969SOL     OW27805   6.219   0.962   4.502
 8969SOL    HW127806   6.195   0.915   4.417
 8969SOL    HW227807   6.223   0.896   4.577
 8970SOL     OW27808   3.789   2.353   1.405
 8970SOL    HW127809   3.818   2.380   1.497
 8970SOL    HW227810   3.699   2.310   1.410
 8971SOL     OW27811   3.865   5.808   2.560
 8971SOL    HW127812   3.941   5.748   2.534
 8971SOL    HW227813   3.873   5.832   2.657
 8972SOL     OW27814   5.607   0.419   4.815
 8972SOL    HW127815   5.668   0.403   4.738
 8972SOL    HW227816   5.524   0.363   4.803
 8973SOL     OW27817   1.609   5.333   6.934
 8973SOL    HW127818   1.599   5.415   6.991
 8973SOL    HW227819   1.662   5.356   6.853
 8974SOL     OW27820   0.493   3.195   4.266
 8974SOL    HW127821   0.549   3.272   4.297
 8974SOL    HW227822   0.542   3.144   4.196
 8975SOL     OW27823   2.662   6.981   0.374
 8975SOL    HW127824   2.626   6.890   0.395
 8975SOL    HW227825   2.762   6.976   0.364
 8976SOL     OW27826   0.268   5.469   4.432
 8976SOL    HW127827   0.256   5.371   4.418
 8976SOL    HW227828   0.324   5.507   4.358
 8977SOL     OW27829   5.951   1.595   6.191
 8977SOL    HW127830   5.976   1.599   6.094
 8977SOL    HW227831   5.997   1.670   6.239
 8978SOL     OW27832   5.741   6.449   0.927
 8978SOL    HW127833   5.668   6.381   0.934
 8978SOL    HW227834   5.803   6.424   0.852
 8979SOL     OW27835   1.785   4.639   4.382
 8979SOL    HW127836   1.881   4.648   4.353
 8979SOL    HW227837   1.774   4.678   4.473
 8980SOL     OW27838   3.557   2.854   4.549
 8980SOL    HW127839   3.650   2.855   4.512
 8980SOL    HW227840   3.492   2.870   4.475
 8981SOL     OW27841   3.672   1.875   5.321
 8981SOL    HW127842   3.588   1.824   5.303
 8981SOL    HW227843   3.653   1.973   5.317
 8982SOL     OW27844   3.110   4.865   0.971
 8982SOL    HW127845   3.065   4.934   1.027
 8982SOL    HW227846   3.073   4.775   0.994
 8983SOL     OW27847   4.967   5.012   0.530
 8983SOL    HW127848   4.927   5.002   0.621
 8983SOL    HW227849   4.991   5.107   0.514
 8984SOL     OW27850   1.996   5.804   3.176
 8984SOL    HW127851   2.046   5.837   3.256
 8984SOL    HW227852   1.981   5.706   3.183
 8985SOL     OW27853   3.331   3.154   6.241
 8985SOL    HW127854   3.309   3.186   6.333
 8985SOL    HW227855   3.247   3.128   6.193
 8986SOL     OW27856   3.441   6.084   2.645
 8986SOL    HW127857   3.491   6.136   2.713
 8986SOL    HW227858   3.459   6.121   2.554
 8987SOL     OW27859   4.937   6.595   2.220
 8987SOL    HW127860   4.992   6.636   2.147
 8987SOL    HW227861   4.863   6.658   2.244
 8988SOL     OW27862   0.421   5.514   4.688
 8988SOL    HW127863   0.339   5.540   4.739
 8988SOL    HW227864   0.395   5.485   4.596
 8989SOL     OW27865   3.391   2.977   6.655
 8989SOL    HW127866   3.411   2.910   6.583
 8989SOL    HW227867   3.472   2.988   6.713
 8990SOL     OW27868   0.332   5.942   4.204
 8990SOL    HW127869   0.382   6.027   4.221
 8990SOL    HW227870   0.385   5.864   4.237
 8991SOL     OW27871   0.906   2.068   5.461
 8991SOL    HW127872   0.852   2.150   5.442
 8991SOL    HW227873   1.000   2.095   5.481
 8992SOL     OW27874   6.122   2.196   6.933
 8992SOL    HW127875   6.053   2.137   6.891
 8992SOL    HW227876   6.077   2.263   6.992
 8993SOL     OW27877   4.586   2.271   0.097
 8993SOL    HW127878   4.584   2.243   0.192
 8993SOL    HW227879   4.499   2.315   0.073
 8994SOL     OW27880   1.890   5.172   4.031
 8994SOL    HW127881   1.990   5.167   4.026
 8994SOL    HW227882   1.863   5.238   4.100
 8995SOL     OW27883   6.870   1.633   0.772
 8995SOL    HW127884   6.874   1.540   0.738
 8995SOL    HW227885   6.927   1.692   0.715
 8996SOL     OW27886   5.152   4.873   5.958
 8996SOL    HW127887   5.069   4.852   5.906
 8996SOL    HW227888   5.189   4.789   5.996
 8997SOL     OW27889   5.469   0.673   4.860
 8997SOL    HW127890   5.520   0.732   4.922
 8997SOL    HW227891   5.514   0.584   4.853
 8998SOL     OW27892   6.376   3.509   4.282
 8998SOL    HW127893   6.388   3.575   4.356
 8998SOL    HW227894   6.294   3.454   4.298
 8999SOL     OW27895   4.304   6.410   6.256
 8999SOL    HW127896   4.392   6.394   6.211
 8999SOL    HW227897   4.292   6.344   6.331
 9000SOL     OW27898   1.825   3.618   1.620
 9000SOL    HW127899   1.764   3.605   1.697
 9000SOL    HW227900   1.862   3.711   1.621
 9001SOL     OW27901   1.110   5.450   2.511
 9001SOL    HW127902   1.027   5.487   2.469
 9001SOL    HW227903   1.186   5.512   2.492
 9002SOL     OW27904   0.941   4.309   0.224
 9002SOL    HW127905   1.014   4.377   0.233
 9002SOL    HW227906   0.899   4.292   0.314
 9003SOL     OW27907   5.551   0.919   1.440
 9003SOL    HW127908   5.534   0.995   1.377
 9003SOL    HW227909   5.523   0.833   1.397
 9004SOL     OW27910   4.383   4.950   0.638
 9004SOL    HW127911   4.367   4.852   0.621
 9004SOL    HW227912   4.352   4.973   0.730
 9005SOL     OW27913   5.349   1.658   5.234
 9005SOL    HW127914   5.257   1.638   5.268
 9005SOL    HW227915   5.367   1.603   5.152
 9006SOL     OW27916   3.614   5.693   0.921
 9006SOL    HW127917   3.645   5.638   0.844
 9006SOL    HW227918   3.644   5.787   0.909
 9007SOL     OW27919   2.520   1.181   2.737
 9007SOL    HW127920   2.607   1.225   2.712
 9007SOL    HW227921   2.525   1.151   2.832
 9008SOL     OW27922   0.225   5.454   2.880
 9008SOL    HW127923   0.297   5.443   2.811
 9008SOL    HW227924   0.266   5.459   2.971
 9009SOL     OW27925   4.208   5.836   0.966
 9009SOL    HW127926   4.167   5.812   0.879
 9009SOL    HW227927   4.161   5.788   1.040
 9010SOL     OW27928   1.614   6.302   4.023
 9010SOL    HW127929   1.588   6.394   3.993
 9010SOL    HW227930   1.711   6.287   4.005
 9011SOL     OW27931   3.102   1.419   2.335
 9011SOL    HW127932   3.009   1.427   2.369
 9011SOL    HW227933   3.165   1.469   2.394
 9012SOL     OW27934   1.780   6.095   6.408
 9012SOL    HW127935   1.747   6.122   6.499
 9012SOL    HW227936   1.858   6.153   6.383
 9013SOL     OW27937   1.537   6.601   4.015
 9013SOL    HW127938   1.587   6.657   4.080
 9013SOL    HW227939   1.576   6.612   3.924
 9014SOL     OW27940   5.589   2.662   3.111
 9014SOL    HW127941   5.581   2.744   3.055
 9014SOL    HW227942   5.528   2.669   3.190
 9015SOL     OW27943   5.269   1.734   7.010
 9015SOL    HW127944   5.170   1.734   6.997
 9015SOL    HW227945   5.311   1.799   6.946
 9016SOL     OW27946   5.755   5.340   6.305
 9016SOL    HW127947   5.765   5.434   6.336
 9016SOL    HW227948   5.807   5.327   6.220
 9017SOL     OW27949   3.649   0.629   4.245
 9017SOL    HW127950   3.622   0.613   4.150
 9017SOL    HW227951   3.567   0.637   4.302
 9018SOL     OW27952   4.238   3.902   6.376
 9018SOL    HW127953   4.253   3.919   6.278
 9018SOL    HW227954   4.263   3.808   6.398
 9019SOL     OW27955   0.577   3.448   3.744
 9019SOL    HW127956   0.487   3.416   3.772
 9019SOL    HW227957   0.647   3.394   3.791
 9020SOL     OW27958   6.038   6.425   2.057
 9020SOL    HW127959   6.011   6.369   1.978
 9020SOL    HW227960   6.132   6.456   2.044
 9021SOL     OW27961   0.099   0.447   4.058
 9021SOL    HW127962   0.123   0.412   3.967
 9021SOL    HW227963   0.040   0.381   4.104
 9022SOL     OW27964   4.170   2.830   6.275
 9022SOL    HW127965   4.089   2.839   6.333
 9022SOL    HW227966   4.199   2.920   6.243
 9023SOL     OW27967   5.222   3.935   0.813
 9023SOL    HW127968   5.308   3.979   0.837
 9023SOL    HW227969   5.189   3.881   0.890
 9024SOL     OW27970   1.697   4.996   6.482
 9024SOL    HW127971   1.703   4.924   6.413
 9024SOL    HW227972   1.687   4.955   6.573
 9025SOL     OW27973   0.976   5.417   0.844
 9025SOL    HW127974   0.972   5.318   0.854
 9025SOL    HW227975   0.996   5.458   0.933
 9026SOL     OW27976   4.355   1.391   0.226
 9026SOL    HW127977   4.314   1.428   0.143
 9026SOL    HW227978   4.419   1.458   0.264
 9027SOL     OW27979   0.162   3.860   3.433
 9027SOL    HW127980   0.157   3.828   3.527
 9027SOL    HW227981   0.106   3.801   3.375
 9028SOL     OW27982   3.584   4.262   5.554
 9028SOL    HW127983   3.542   4.200   5.621
 9028SOL    HW227984   3.659   4.215   5.508
 9029SOL     OW27985   4.122   6.686   4.791
 9029SOL    HW127986   4.116   6.710   4.888
 9029SOL    HW227987   4.137   6.588   4.782
 9030SOL     OW27988   2.308   1.903   3.112
 9030SOL    HW127989   2.303   2.002   3.116
 9030SOL    HW227990   2.378   1.875   3.046
 9031SOL     OW27991   4.232   0.212   4.951
 9031SOL    HW127992   4.271   0.132   4.904
 9031SOL    HW227993   4.282   0.229   5.035
 9032SOL     OW27994   4.677   3.945   1.753
 9032SOL    HW127995   4.729   3.863   1.730
 9032SOL    HW227996   4.731   4.004   1.812
 9033SOL     OW27997   0.903   6.029   3.243
 9033SOL    HW127998   0.953   6.113   3.265
 9033SOL    HW227999   0.807   6.039   3.268
 9034SOL     OW28000   3.828   6.211   4.313
 9034SOL    HW128001   3.797   6.200   4.218
 9034SOL    HW228002   3.823   6.307   4.339
 9035SOL     OW28003   1.097   4.981   0.054
 9035SOL    HW128004   1.086   5.021   6.983
 9035SOL    HW228005   1.187   5.004   0.090
 9036SOL     OW28006   1.609   3.679   5.525
 9036SOL    HW128007   1.540   3.676   5.453
 9036SOL    HW228008   1.659   3.593   5.527
 9037SOL     OW28009   0.823   1.743   2.853
 9037SOL    HW128010   0.838   1.677   2.926
 9037SOL    HW228011   0.846   1.835   2.887
 9038SOL     OW28012   4.199   3.750   5.250
 9038SOL    HW128013   4.271   3.682   5.265
 9038SOL    HW228014   4.129   3.739   5.321
 9039SOL     OW28015   3.982   5.761   0.205
 9039SOL    HW128016   4.053   5.707   0.160
 9039SOL    HW228017   3.926   5.701   0.262
 9040SOL     OW28018   2.524   1.685   0.844
 9040SOL    HW128019   2.603   1.736   0.876
 9040SOL    HW228020   2.450   1.692   0.911
 9041SOL     OW28021   7.002   2.140   1.606
 9041SOL    HW128022   6.938   2.065   1.624
 9041SOL    HW228023   7.016   2.149   1.508
 9042SOL     OW28024   3.727   5.863   6.757
 9042SOL    HW128025   3.655   5.849   6.825
 9042SOL    HW228026   3.740   5.780   6.703
 9043SOL     OW28027   3.178   1.747   0.257
 9043SOL    HW128028   3.167   1.746   0.158
 9043SOL    HW228029   3.130   1.825   0.296
 9044SOL     OW28030   0.510   0.718   6.778
 9044SOL    HW128031   0.425   0.771   6.789
 9044SOL    HW228032   0.494   0.624   6.810
 9045SOL     OW28033   4.030   1.510   3.522
 9045SOL    HW128034   4.114   1.520   3.575
 9045SOL    HW228035   4.052   1.478   3.430
 9046SOL     OW28036   3.373   3.842   2.822
 9046SOL    HW128037   3.415   3.818   2.909
 9046SOL    HW228038   3.277   3.866   2.836
 9047SOL     OW28039   1.305   3.775   6.004
 9047SOL    HW128040   1.291   3.766   5.905
 9047SOL    HW228041   1.324   3.871   6.026
 9048SOL     OW28042   6.349   2.012   6.191
 9048SOL    HW128043   6.384   1.980   6.279
 9048SOL    HW228044   6.390   1.958   6.117
 9049SOL     OW28045   3.120   6.486   6.517
 9049SOL    HW128046   3.134   6.531   6.429
 9049SOL    HW228047   3.150   6.547   6.591
 9050SOL     OW28048   0.139   5.114   0.404
 9050SOL    HW128049   0.110   5.019   0.399
 9050SOL    HW228050   0.223   5.121   0.459
 9051SOL     OW28051   2.418   1.417   1.333
 9051SOL    HW128052   2.453   1.352   1.265
 9051SOL    HW228053   2.376   1.495   1.286
 9052SOL     OW28054   1.426   2.901   5.239
 9052SOL    HW128055   1.371   2.980   5.213
 9052SOL    HW228056   1.511   2.933   5.281
 9053SOL     OW28057   2.056   1.127   0.384
 9053SOL    HW128058   2.041   1.134   0.286
 9053SOL    HW228059   2.004   1.049   0.420
 9054SOL     OW28060   2.266   5.536   3.348
 9054SOL    HW128061   2.175   5.505   3.319
 9054SOL    HW228062   2.285   5.626   3.309
 9055SOL     OW28063   0.080   4.174   4.744
 9055SOL    HW128064   0.136   4.177   4.826
 9055SOL    HW228065   0.007   4.107   4.756
 9056SOL     OW28066   6.326   2.513   2.810
 9056SOL    HW128067   6.341   2.414   2.803
 9056SOL    HW228068   6.235   2.535   2.774
 9057SOL     OW28069   4.133   2.072   4.513
 9057SOL    HW128070   4.042   2.110   4.529
 9057SOL    HW228071   4.132   2.014   4.432
 9058SOL     OW28072   1.918   0.823   5.739
 9058SOL    HW128073   1.890   0.919   5.729
 9058SOL    HW228074   1.956   0.790   5.653
 9059SOL     OW28075   1.150   1.877   3.284
 9059SOL    HW128076   1.242   1.857   3.251
 9059SOL    HW228077   1.125   1.970   3.258
 9060SOL     OW28078   4.977   2.529   5.429
 9060SOL    HW128079   4.985   2.577   5.341
 9060SOL    HW228080   4.885   2.489   5.437
 9061SOL     OW28081   3.543   5.945   3.156
 9061SOL    HW128082   3.566   5.896   3.071
 9061SOL    HW228083   3.468   5.898   3.202
 9062SOL     OW28084   1.872   5.418   1.085
 9062SOL    HW128085   1.896   5.503   1.133
 9062SOL    HW228086   1.955   5.363   1.072
 9063SOL     OW28087   3.009   1.403   2.040
 9063SOL    HW128088   3.012   1.424   2.138
 9063SOL    HW228089   2.915   1.380   2.014
 9064SOL     OW28090   5.692   3.643   0.376
 9064SOL    HW128091   5.752   3.568   0.352
 9064SOL    HW228092   5.669   3.696   0.294
 9065SOL     OW28093   2.351   1.100   0.083
 9065SOL    HW128094   2.374   1.055   0.170
 9065SOL    HW228095   2.431   1.151   0.051
 9066SOL     OW28096   4.727   6.734   0.366
 9066SOL    HW128097   4.695   6.809   0.424
 9066SOL    HW228098   4.770   6.772   0.284
 9067SOL     OW28099   1.753   6.343   2.604
 9067SOL    HW128100   1.773   6.278   2.678
 9067SOL    HW228101   1.684   6.408   2.635
 9068SOL     OW28102   1.771   6.153   6.939
 9068SOL    HW128103   1.695   6.128   6.998
 9068SOL    HW228104   1.774   6.252   6.929
 9069SOL     OW28105   1.660   2.144   6.587
 9069SOL    HW128106   1.596   2.121   6.661
 9069SOL    HW228107   1.623   2.221   6.535
 9070SOL     OW28108   1.159   4.211   3.287
 9070SOL    HW128109   1.098   4.262   3.347
 9070SOL    HW228110   1.253   4.244   3.298
 9071SOL     OW28111   4.885   6.411   0.292
 9071SOL    HW128112   4.809   6.346   0.298
 9071SOL    HW228113   4.932   6.398   0.205
 9072SOL     OW28114   5.150   5.288   6.641
 9072SOL    HW128115   5.110   5.248   6.723
 9072SOL    HW228116   5.211   5.220   6.598
 9073SOL     OW28117   2.103   0.720   1.729
 9073SOL    HW128118   2.021   0.750   1.680
 9073SOL    HW228119   2.148   0.799   1.769
 9074SOL     OW28120   1.179   6.942   3.186
 9074SOL    HW128121   1.197   6.844   3.192
 9074SOL    HW228122   1.247   6.984   3.125
 9075SOL     OW28123   0.826   0.825   2.755
 9075SOL    HW128124   0.923   0.844   2.762
 9075SOL    HW228125   0.784   0.888   2.689
 9076SOL     OW28126   6.490   1.460   5.273
 9076SOL    HW128127   6.394   1.485   5.284
 9076SOL    HW228128   6.511   1.381   5.331
 9077SOL     OW28129   5.899   6.628   1.781
 9077SOL    HW128130   5.895   6.680   1.866
 9077SOL    HW228131   5.919   6.690   1.705
 9078SOL     OW28132   3.350   2.922   4.751
 9078SOL    HW128133   3.418   2.920   4.677
 9078SOL    HW228134   3.347   2.833   4.796
 9079SOL     OW28135   3.916   0.606   6.209
 9079SOL    HW128136   3.984   0.649   6.148
 9079SOL    HW228137   3.876   0.527   6.164
 9080SOL     OW28138   5.080   1.773   0.948
 9080SOL    HW128139   5.002   1.835   0.956
 9080SOL    HW228140   5.138   1.802   0.872
 9081SOL     OW28141   5.473   0.232   2.220
 9081SOL    HW128142   5.499   0.224   2.124
 9081SOL    HW228143   5.442   0.326   2.238
 9082SOL     OW28144   3.013   1.234   3.503
 9082SOL    HW128145   3.101   1.244   3.456
 9082SOL    HW228146   3.019   1.158   3.568
 9083SOL     OW28147   4.084   4.814   4.567
 9083SOL    HW128148   4.171   4.859   4.547
 9083SOL    HW228149   4.101   4.722   4.602
 9084SOL     OW28150   3.629   3.367   2.979
 9084SOL    HW128151   3.718   3.412   2.984
 9084SOL    HW228152   3.632   3.296   2.910
 9085SOL     OW28153   1.184   1.806   0.642
 9085SOL    HW128154   1.232   1.869   0.703
 9085SOL    HW228155   1.244   1.783   0.565
 9086SOL     OW28156   0.332   3.921   0.597
 9086SOL    HW128157   0.305   3.985   0.669
 9086SOL    HW228158   0.323   3.965   0.508
 9087SOL     OW28159   4.449   3.777   1.285
 9087SOL    HW128160   4.482   3.722   1.208
 9087SOL    HW228161   4.468   3.873   1.267
 9088SOL     OW28162   5.332   6.458   0.928
 9088SOL    HW128163   5.292   6.429   1.015
 9088SOL    HW228164   5.424   6.419   0.920
 9089SOL     OW28165   4.100   6.848   6.140
 9089SOL    HW128166   4.191   6.881   6.165
 9089SOL    HW228167   4.083   6.759   6.183
 9090SOL     OW28168   5.859   1.348   3.985
 9090SOL    HW128169   5.951   1.386   4.001
 9090SOL    HW228170   5.809   1.347   4.071
 9091SOL     OW28171   2.965   2.867   6.681
 9091SOL    HW128172   2.975   2.918   6.596
 9091SOL    HW228173   3.002   2.921   6.757
 9092SOL     OW28174   0.046   2.791   6.410
 9092SOL    HW128175   0.022   2.854   6.483
 9092SOL    HW228176   0.066   2.841   6.326
 9093SOL     OW28177   1.540   6.239   5.455
 9093SOL    HW128178   1.587   6.245   5.543
 9093SOL    HW228179   1.595   6.185   5.392
 9094SOL     OW28180   0.805   3.792   1.918
 9094SOL    HW128181   0.752   3.815   1.999
 9094SOL    HW228182   0.859   3.872   1.890
 9095SOL     OW28183   6.790   6.431   5.387
 9095SOL    HW128184   6.727   6.451   5.311
 9095SOL    HW228185   6.768   6.341   5.424
 9096SOL     OW28186   6.722   5.403   3.456
 9096SOL    HW128187   6.680   5.486   3.419
 9096SOL    HW228188   6.716   5.405   3.556
 9097SOL     OW28189   1.388   2.080   6.685
 9097SOL    HW128190   1.296   2.053   6.716
 9097SOL    HW228191   1.388   2.091   6.586
 9098SOL     OW28192   1.895   4.095   4.012
 9098SOL    HW128193   1.980   4.109   3.962
 9098SOL    HW228194   1.874   3.997   4.016
 9099SOL     OW28195   2.392   2.379   0.134
 9099SOL    HW128196   2.386   2.460   0.075
 9099SOL    HW228197   2.429   2.404   0.223
 9100SOL     OW28198   1.311   4.610   3.102
 9100SOL    HW128199   1.259   4.686   3.141
 9100SOL    HW228200   1.248   4.537   3.076
 9101SOL     OW28201   1.036   2.356   0.739
 9101SOL    HW128202   1.053   2.386   0.645
 9101SOL    HW228203   1.122   2.355   0.789
 9102SOL     OW28204   3.903   6.552   2.974
 9102SOL    HW128205   3.989   6.514   2.940
 9102SOL    HW228206   3.921   6.605   3.057
 9103SOL     OW28207   6.470   0.641   0.975
 9103SOL    HW128208   6.567   0.666   0.972
 9103SOL    HW228209   6.420   0.711   1.026
 9104SOL     OW28210   5.678   2.123   6.190
 9104SOL    HW128211   5.666   2.216   6.225
 9104SOL    HW228212   5.774   2.108   6.166
 9105SOL     OW28213   1.933   1.287   5.460
 9105SOL    HW128214   1.952   1.335   5.374
 9105SOL    HW228215   1.835   1.288   5.478
 9106SOL     OW28216   1.364   3.689   0.097
 9106SOL    HW128217   1.303   3.610   0.086
 9106SOL    HW228218   1.310   3.771   0.115
 9107SOL     OW28219   2.852   1.414   0.478
 9107SOL    HW128220   2.882   1.506   0.507
 9107SOL    HW228221   2.781   1.422   0.408
 9108SOL     OW28222   6.015   5.507   5.922
 9108SOL    HW128223   5.993   5.532   5.828
 9108SOL    HW228224   5.943   5.447   5.958
 9109SOL     OW28225   5.632   3.498   2.475
 9109SOL    HW128226   5.715   3.503   2.421
 9109SOL    HW228227   5.563   3.443   2.427
 9110SOL     OW28228   2.314   6.084   3.531
 9110SOL    HW128229   2.253   6.021   3.484
 9110SOL    HW228230   2.349   6.151   3.466
 9111SOL     OW28231   3.960   2.547   6.369
 9111SOL    HW128232   4.042   2.543   6.428
 9111SOL    HW228233   3.973   2.486   6.291
 9112SOL     OW28234   0.893   5.122   1.165
 9112SOL    HW128235   0.916   5.208   1.211
 9112SOL    HW228236   0.942   5.047   1.210
 9113SOL     OW28237   5.775   0.847   4.164
 9113SOL    HW128238   5.728   0.769   4.206
 9113SOL    HW228239   5.795   0.916   4.234
 9114SOL     OW28240   1.245   6.318   5.473
 9114SOL    HW128241   1.209   6.327   5.380
 9114SOL    HW228242   1.313   6.245   5.475
 9115SOL     OW28243   4.857   4.421   4.640
 9115SOL    HW128244   4.815   4.368   4.566
 9115SOL    HW228245   4.789   4.484   4.679
 9116SOL     OW28246   1.686   0.291   3.049
 9116SOL    HW128247   1.615   0.358   3.071
 9116SOL    HW228248   1.669   0.252   2.959
 9117SOL     OW28249   2.435   6.150   0.077
 9117SOL    HW128250   2.465   6.057   0.053
 9117SOL    HW228251   2.510   6.199   0.121
 9118SOL     OW28252   6.571   4.238   2.417
 9118SOL    HW128253   6.617   4.197   2.496
 9118SOL    HW228254   6.627   4.225   2.336
 9119SOL     OW28255   3.268   0.019   0.294
 9119SOL    HW128256   3.261   7.008   0.389
 9119SOL    HW228257   3.219   0.106   0.283
 9120SOL     OW28258   6.506   3.905   4.597
 9120SOL    HW128259   6.450   3.874   4.520
 9120SOL    HW228260   6.533   4.000   4.581
 9121SOL     OW28261   3.646   0.659   4.825
 9121SOL    HW128262   3.588   0.606   4.764
 9121SOL    HW228263   3.741   0.656   4.792
 9122SOL     OW28264   1.059   3.653   1.878
 9122SOL    HW128265   1.082   3.567   1.923
 9122SOL    HW228266   0.966   3.679   1.902
 9123SOL     OW28267   6.652   6.414   4.476
 9123SOL    HW128268   6.751   6.426   4.480
 9123SOL    HW228269   6.618   6.380   4.564
 9124SOL     OW28270   3.023   4.875   0.431
 9124SOL    HW128271   2.929   4.860   0.402
 9124SOL    HW228272   3.030   4.869   0.531
 9125SOL     OW28273   5.448   6.474   1.599
 9125SOL    HW128274   5.464   6.385   1.642
 9125SOL    HW228275   5.493   6.475   1.509
 9126SOL     OW28276   4.418   4.557   1.282
 9126SOL    HW128277   4.508   4.519   1.260
 9126SOL    HW228278   4.378   4.508   1.359
 9127SOL     OW28279   6.609   5.323   5.026
 9127SOL    HW128280   6.631   5.288   4.935
 9127SOL    HW228281   6.659   5.269   5.095
 9128SOL     OW28282   5.525   4.227   5.691
 9128SOL    HW128283   5.563   4.203   5.602
 9128SOL    HW228284   5.438   4.181   5.704
 9129SOL     OW28285   1.045   2.705   0.896
 9129SOL    HW128286   0.980   2.662   0.959
 9129SOL    HW228287   0.994   2.755   0.826
 9130SOL     OW28288   2.907   3.388   5.047
 9130SOL    HW128289   2.943   3.388   4.954
 9130SOL    HW228290   2.820   3.338   5.049
 9131SOL     OW28291   4.521   2.371   0.415
 9131SOL    HW128292   4.498   2.462   0.379
 9131SOL    HW228293   4.522   2.374   0.515
 9132SOL     OW28294   0.829   4.080   3.839
 9132SOL    HW128295   0.735   4.111   3.854
 9132SOL    HW228296   0.851   4.009   3.905
 9133SOL     OW28297   5.649   0.648   1.061
 9133SOL    HW128298   5.699   0.640   1.148
 9133SOL    HW228299   5.657   0.563   1.010
 9134SOL     OW28300   4.862   5.260   0.920
 9134SOL    HW128301   4.867   5.345   0.972
 9134SOL    HW228302   4.861   5.280   0.822
 9135SOL     OW28303   6.254   6.641   2.833
 9135SOL    HW128304   6.222   6.735   2.843
 9135SOL    HW228305   6.349   6.641   2.800
 9136SOL     OW28306   6.313   4.531   0.270
 9136SOL    HW128307   6.359   4.447   0.300
 9136SOL    HW228308   6.324   4.602   0.341
 9137SOL     OW28309   5.192   6.573   5.578
 9137SOL    HW128310   5.250   6.494   5.600
 9137SOL    HW228311   5.248   6.655   5.575
 9138SOL     OW28312   2.119   3.596   0.163
 9138SOL    HW128313   2.207   3.566   0.126
 9138SOL    HW228314   2.045   3.552   0.112
 9139SOL     OW28315   6.442   0.152   0.983
 9139SOL    HW128316   6.449   0.202   0.896
 9139SOL    HW228317   6.533   0.123   1.012
 9140SOL     OW28318   2.166   3.618   3.125
 9140SOL    HW128319   2.204   3.533   3.161
 9140SOL    HW228320   2.110   3.663   3.194
 9141SOL     OW28321   6.828   5.541   5.017
 9141SOL    HW128322   6.757   5.489   5.064
 9141SOL    HW228323   6.846   5.499   4.928
 9142SOL     OW28324   1.051   4.812   4.543
 9142SOL    HW128325   0.974   4.870   4.569
 9142SOL    HW228326   1.117   4.866   4.492
 9143SOL     OW28327   6.642   4.400   2.865
 9143SOL    HW128328   6.701   4.320   2.881
 9143SOL    HW228329   6.682   4.480   2.910
 9144SOL     OW28330   3.021   4.530   5.550
 9144SOL    HW128331   3.097   4.567   5.498
 9144SOL    HW228332   3.024   4.430   5.546
 9145SOL     OW28333   1.370   5.869   5.596
 9145SOL    HW128334   1.429   5.851   5.674
 9145SOL    HW228335   1.419   5.923   5.528
 9146SOL     OW28336   5.795   2.960   3.471
 9146SOL    HW128337   5.839   2.942   3.559
 9146SOL    HW228338   5.757   2.875   3.435
 9147SOL     OW28339   4.345   0.517   5.294
 9147SOL    HW128340   4.357   0.593   5.358
 9147SOL    HW228341   4.296   0.443   5.340
 9148SOL     OW28342   5.866   5.718   1.653
 9148SOL    HW128343   5.831   5.760   1.736
 9148SOL    HW228344   5.915   5.787   1.599
 9149SOL     OW28345   0.425   3.912   0.961
 9149SOL    HW128346   0.461   3.849   1.030
 9149SOL    HW228347   0.468   3.894   0.873
 9150SOL     OW28348   2.403   3.555   0.107
 9150SOL    HW128349   2.491   3.521   0.141
 9150SOL    HW228350   2.418   3.605   0.021
 9151SOL     OW28351   1.499   2.814   4.078
 9151SOL    HW128352   1.444   2.781   4.155
 9151SOL    HW228353   1.591   2.836   4.110
 9152SOL     OW28354   1.948   3.949   2.979
 9152SOL    HW128355   1.887   3.873   2.957
 9152SOL    HW228356   1.913   4.033   2.939
 9153SOL     OW28357   0.818   3.063   6.262
 9153SOL    HW128358   0.860   3.107   6.342
 9153SOL    HW228359   0.872   3.083   6.181
 9154SOL     OW28360   5.565   5.103   3.037
 9154SOL    HW128361   5.604   5.061   2.955
 9154SOL    HW228362   5.509   5.035   3.086
 9155SOL     OW28363   1.165   6.057   2.516
 9155SOL    HW128364   1.235   6.005   2.565
 9155SOL    HW228365   1.075   6.035   2.554
 9156SOL     OW28366   6.997   3.567   6.090
 9156SOL    HW128367   0.017   3.657   6.110
 9156SOL    HW228368   7.013   3.544   5.994
 9157SOL     OW28369   1.748   4.802   5.897
 9157SOL    HW128370   1.657   4.823   5.861
 9157SOL    HW228371   1.778   4.713   5.861
 9158SOL     OW28372   6.630   4.158   4.536
 9158SOL    HW128373   6.713   4.205   4.505
 9158SOL    HW228374   6.583   4.214   4.603
 9159SOL     OW28375   2.415   1.167   3.740
 9159SOL    HW128376   2.460   1.118   3.665
 9159SOL    HW228377   2.439   1.124   3.827
 9160SOL     OW28378   1.430   3.696   0.534
 9160SOL    HW128379   1.400   3.647   0.616
 9160SOL    HW228380   1.361   3.763   0.508
 9161SOL     OW28381   6.323   3.804   2.649
 9161SOL    HW128382   6.269   3.834   2.728
 9161SOL    HW228383   6.286   3.846   2.566
 9162SOL     OW28384   3.899   2.336   1.685
 9162SOL    HW128385   3.994   2.306   1.700
 9162SOL    HW228386   3.839   2.290   1.750
 9163SOL     OW28387   2.419   2.348   3.856
 9163SOL    HW128388   2.339   2.293   3.878
 9163SOL    HW228389   2.442   2.405   3.935
 9164SOL     OW28390   2.304   6.434   6.453
 9164SOL    HW128391   2.351   6.352   6.485
 9164SOL    HW228392   2.318   6.443   6.354
 9165SOL     OW28393   5.539   1.905   6.017
 9165SOL    HW128394   5.507   1.933   5.926
 9165SOL    HW228395   5.508   1.971   6.085
 9166SOL     OW28396   5.005   6.270   1.760
 9166SOL    HW128397   5.102   6.292   1.772
 9166SOL    HW228398   4.949   6.342   1.801
 9167SOL     OW28399   1.520   1.217   4.441
 9167SOL    HW128400   1.489   1.266   4.361
 9167SOL    HW228401   1.579   1.141   4.413
 9168SOL     OW28402   6.869   6.295   5.121
 9168SOL    HW128403   6.804   6.369   5.139
 9168SOL    HW228404   6.913   6.268   5.206
 9169SOL     OW28405   6.900   6.013   1.000
 9169SOL    HW128406   6.973   5.961   1.044
 9169SOL    HW228407   6.820   6.015   1.061
 9170SOL     OW28408   1.452   0.987   5.391
 9170SOL    HW128409   1.551   0.972   5.396
 9170SOL    HW228410   1.433   1.085   5.403
 9171SOL     OW28411   3.547   5.061   6.812
 9171SOL    HW128412   3.641   5.073   6.781
 9171SOL    HW228413   3.506   4.983   6.765
 9172SOL     OW28414   4.993   1.747   5.242
 9172SOL    HW128415   4.911   1.695   5.219
 9172SOL    HW228416   5.031   1.713   5.328
 9173SOL     OW28417   5.843   3.610   5.152
 9173SOL    HW128418   5.825   3.598   5.054
 9173SOL    HW228419   5.827   3.523   5.200
 9174SOL     OW28420   6.942   4.758   1.242
 9174SOL    HW128421   6.848   4.724   1.244
 9174SOL    HW228422   6.955   4.823   1.317
 9175SOL     OW28423   2.149   7.004   1.100
 9175SOL    HW128424   2.180   0.064   1.153
 9175SOL    HW228425   2.128   6.929   1.162
 9176SOL     OW28426   1.436   0.987   2.346
 9176SOL    HW128427   1.345   1.012   2.313
 9176SOL    HW228428   1.481   1.067   2.386
 9177SOL     OW28429   0.306   6.623   3.956
 9177SOL    HW128430   0.293   6.636   3.858
 9177SOL    HW228431   0.386   6.565   3.972
 9178SOL     OW28432   1.306   4.613   1.127
 9178SOL    HW128433   1.351   4.524   1.114
 9178SOL    HW228434   1.348   4.660   1.205
 9179SOL     OW28435   3.541   5.334   4.015
 9179SOL    HW128436   3.472   5.324   4.088
 9179SOL    HW228437   3.504   5.295   3.930
 9180SOL     OW28438   0.250   1.410   5.735
 9180SOL    HW128439   0.157   1.407   5.771
 9180SOL    HW228440   0.315   1.414   5.810
 9181SOL     OW28441   2.849   2.255   3.675
 9181SOL    HW128442   2.791   2.335   3.694
 9181SOL    HW228443   2.796   2.188   3.623
 9182SOL     OW28444   0.559   1.924   2.229
 9182SOL    HW128445   0.604   1.926   2.318
 9182SOL    HW228446   0.460   1.915   2.243
 9183SOL     OW28447   1.964   1.660   6.175
 9183SOL    HW128448   1.982   1.625   6.267
 9183SOL    HW228449   2.048   1.654   6.120
 9184SOL     OW28450   3.447   3.343   0.917
 9184SOL    HW128451   3.469   3.285   0.838
 9184SOL    HW228452   3.372   3.302   0.969
 9185SOL     OW28453   1.490   0.419   6.135
 9185SOL    HW128454   1.495   0.346   6.067
 9185SOL    HW228455   1.576   0.469   6.136
 9186SOL     OW28456   4.676   0.304   6.543
 9186SOL    HW128457   4.683   0.236   6.470
 9186SOL    HW228458   4.592   0.289   6.595
 9187SOL     OW28459   5.552   2.517   0.750
 9187SOL    HW128460   5.523   2.604   0.711
 9187SOL    HW228461   5.472   2.460   0.768
 9188SOL     OW28462   1.841   0.493   1.630
 9188SOL    HW128463   1.853   0.591   1.641
 9188SOL    HW228464   1.785   0.475   1.549
 9189SOL     OW28465   3.895   0.398   5.601
 9189SOL    HW128466   3.843   0.315   5.578
 9189SOL    HW228467   3.940   0.386   5.689
 9190SOL     OW28468   4.561   1.254   5.224
 9190SOL    HW128469   4.565   1.354   5.222
 9190SOL    HW228470   4.482   1.225   5.277
 9191SOL     OW28471   5.570   0.004   1.890
 9191SOL    HW128472   5.520   0.058   1.959
 9191SOL    HW228473   5.594   0.063   1.813
 9192SOL     OW28474   4.865   3.448   4.169
 9192SOL    HW128475   4.919   3.476   4.249
 9192SOL    HW228476   4.853   3.348   4.171
 9193SOL     OW28477   3.818   3.207   3.368
 9193SOL    HW128478   3.849   3.282   3.309
 9193SOL    HW228479   3.784   3.132   3.311
 9194SOL     OW28480   3.592   4.964   2.703
 9194SOL    HW128481   3.503   4.964   2.749
 9194SOL    HW228482   3.648   5.039   2.739
 9195SOL     OW28483   0.730   2.816   2.880
 9195SOL    HW128484   0.827   2.811   2.905
 9195SOL    HW228485   0.684   2.732   2.910
 9196SOL     OW28486   5.079   6.657   4.039
 9196SOL    HW128487   5.016   6.718   3.992
 9196SOL    HW228488   5.030   6.577   4.074
 9197SOL     OW28489   4.301   1.401   6.105
 9197SOL    HW128490   4.254   1.404   6.017
 9197SOL    HW228491   4.240   1.361   6.174
 9198SOL     OW28492   6.279   2.305   5.573
 9198SOL    HW128493   6.311   2.313   5.479
 9198SOL    HW228494   6.227   2.219   5.583
 9199SOL     OW28495   1.384   2.822   5.842
 9199SOL    HW128496   1.366   2.918   5.861
 9199SOL    HW228497   1.327   2.765   5.899
 9200SOL     OW28498   5.402   5.848   0.685
 9200SOL    HW128499   5.404   5.750   0.705
 9200SOL    HW228500   5.313   5.886   0.710
 9201SOL     OW28501   0.792   4.119   2.507
 9201SOL    HW128502   0.741   4.179   2.445
 9201SOL    HW228503   0.739   4.037   2.526
 9202SOL     OW28504   2.481   5.968   4.038
 9202SOL    HW128505   2.570   6.005   4.014
 9202SOL    HW228506   2.417   5.986   3.963
 9203SOL     OW28507   5.113   0.761   0.391
 9203SOL    HW128508   5.168   0.710   0.457
 9203SOL    HW228509   5.016   0.744   0.407
 9204SOL     OW28510   5.280   4.225   2.612
 9204SOL    HW128511   5.228   4.305   2.642
 9204SOL    HW228512   5.238   4.142   2.648
 9205SOL     OW28513   4.747   2.644   1.832
 9205SOL    HW128514   4.767   2.551   1.864
 9205SOL    HW228515   4.756   2.708   1.908
 9206SOL     OW28516   6.635   6.003   3.845
 9206SOL    HW128517   6.707   6.072   3.845
 9206SOL    HW228518   6.574   6.017   3.922
 9207SOL     OW28519   4.002   5.997   6.527
 9207SOL    HW128520   4.094   5.979   6.494
 9207SOL    HW228521   3.945   5.916   6.513
 9208SOL     OW28522   4.196   4.311   1.650
 9208SOL    HW128523   4.251   4.297   1.732
 9208SOL    HW228524   4.100   4.291   1.670
 9209SOL     OW28525   3.814   0.443   3.006
 9209SOL    HW128526   3.903   0.468   2.969
 9209SOL    HW228527   3.802   0.484   3.096
 9210SOL     OW28528   1.351   6.725   0.133
 9210SOL    HW128529   1.260   6.725   0.174
 9210SOL    HW228530   1.362   6.808   0.077
 9211SOL     OW28531   4.938   1.225   6.290
 9211SOL    HW128532   4.867   1.260   6.228
 9211SOL    HW228533   5.028   1.246   6.252
 9212SOL     OW28534   5.611   4.255   5.371
 9212SOL    HW128535   5.549   4.213   5.305
 9212SOL    HW228536   5.671   4.184   5.409
 9213SOL     OW28537   6.324   6.440   2.022
 9213SOL    HW128538   6.380   6.518   1.994
 9213SOL    HW228539   6.375   6.355   2.008
 9214SOL     OW28540   1.931   2.191   5.513
 9214SOL    HW128541   2.012   2.136   5.494
 9214SOL    HW228542   1.959   2.280   5.548
 9215SOL     OW28543   0.333   3.583   3.424
 9215SOL    HW128544   0.269   3.615   3.355
 9215SOL    HW228545   0.283   3.539   3.498
 9216SOL     OW28546   2.540   5.986   3.224
 9216SOL    HW128547   2.470   6.004   3.155
 9216SOL    HW228548   2.595   6.068   3.238
 9217SOL     OW28549   3.860   1.649   6.681
 9217SOL    HW128550   3.853   1.579   6.610
 9217SOL    HW228551   3.796   1.723   6.662
 9218SOL     OW28552   5.622   5.584   6.633
 9218SOL    HW128553   5.551   5.652   6.653
 9218SOL    HW228554   5.579   5.495   6.622
 9219SOL     OW28555   3.069   2.448   5.616
 9219SOL    HW128556   3.061   2.482   5.522
 9219SOL    HW228557   3.038   2.353   5.620
 9220SOL     OW28558   0.218   6.341   3.252
 9220SOL    HW128559   0.259   6.341   3.344
 9220SOL    HW228560   0.166   6.257   3.240
 9221SOL     OW28561   2.799   1.336   1.208
 9221SOL    HW128562   2.798   1.377   1.299
 9221SOL    HW228563   2.862   1.387   1.149
 9222SOL     OW28564   1.984   4.386   4.589
 9222SOL    HW128565   1.901   4.368   4.537
 9222SOL    HW228566   2.022   4.475   4.564
 9223SOL     OW28567   0.078   3.320   4.677
 9223SOL    HW128568   0.114   3.293   4.587
 9223SOL    HW228569   0.038   3.240   4.722
 9224SOL     OW28570   2.191   4.899   2.986
 9224SOL    HW128571   2.172   4.831   3.057
 9224SOL    HW228572   2.167   4.861   2.896
 9225SOL     OW28573   6.318   5.585   5.703
 9225SOL    HW128574   6.219   5.574   5.713
 9225SOL    HW228575   6.360   5.582   5.794
 9226SOL     OW28576   1.237   0.511   6.170
 9226SOL    HW128577   1.212   0.464   6.254
 9226SOL    HW228578   1.331   0.489   6.145
 9227SOL     OW28579   2.783   3.957   0.266
 9227SOL    HW128580   2.800   4.022   0.341
 9227SOL    HW228581   2.806   3.865   0.296
 9228SOL     OW28582   3.728   2.769   5.214
 9228SOL    HW128583   3.716   2.861   5.251
 9228SOL    HW228584   3.771   2.774   5.124
 9229SOL     OW28585   6.861   5.495   0.565
 9229SOL    HW128586   6.915   5.439   0.503
 9229SOL    HW228587   6.862   5.590   0.534
 9230SOL     OW28588   4.134   1.039   4.864
 9230SOL    HW128589   4.226   1.021   4.829
 9230SOL    HW228590   4.081   1.089   4.794
 9231SOL     OW28591   6.320   5.880   1.992
 9231SOL    HW128592   6.309   5.962   2.048
 9231SOL    HW228593   6.416   5.869   1.967
 9232SOL     OW28594   1.094   5.058   1.898
 9232SOL    HW128595   1.004   5.018   1.914
 9232SOL    HW228596   1.105   5.079   1.801
 9233SOL     OW28597   1.031   6.419   5.898
 9233SOL    HW128598   1.069   6.501   5.856
 9233SOL    HW228599   0.956   6.384   5.842
 9234SOL     OW28600   2.343   3.786   6.313
 9234SOL    HW128601   2.298   3.856   6.368
 9234SOL    HW228602   2.438   3.812   6.298
 9235SOL     OW28603   2.067   2.105   3.399
 9235SOL    HW128604   2.037   2.182   3.343
 9235SOL    HW228605   2.052   2.019   3.350
 9236SOL     OW28606   1.636   3.438   6.305
 9236SOL    HW128607   1.651   3.357   6.248
 9236SOL    HW228608   1.700   3.438   6.381
 9237SOL     OW28609   6.362   5.767   2.764
 9237SOL    HW128610   6.427   5.745   2.692
 9237SOL    HW228611   6.407   5.761   2.853
 9238SOL     OW28612   1.830   2.672   4.582
 9238SOL    HW128613   1.897   2.729   4.630
 9238SOL    HW228614   1.806   2.593   4.639
 9239SOL     OW28615   0.665   4.883   6.382
 9239SOL    HW128616   0.677   4.831   6.466
 9239SOL    HW228617   0.740   4.864   6.319
 9240SOL     OW28618   4.352   1.846   3.369
 9240SOL    HW128619   4.379   1.784   3.443
 9240SOL    HW228620   4.256   1.829   3.345
 9241SOL     OW28621   5.164   6.779   0.149
 9241SOL    HW128622   5.255   6.739   0.140
 9241SOL    HW228623   5.114   6.731   0.222
 9242SOL     OW28624   1.745   2.400   1.015
 9242SOL    HW128625   1.839   2.417   1.046
 9242SOL    HW228626   1.721   2.468   0.945
 9243SOL     OW28627   1.802   0.138   6.915
 9243SOL    HW128628   1.823   0.090   6.830
 9243SOL    HW228629   1.706   0.167   6.913
 9244SOL     OW28630   2.858   6.084   5.806
 9244SOL    HW128631   2.807   6.122   5.884
 9244SOL    HW228632   2.829   5.989   5.791
 9245SOL     OW28633   1.534   5.100   2.746
 9245SOL    HW128634   1.461   5.032   2.738
 9245SOL    HW228635   1.603   5.068   2.811
 9246SOL     OW28636   4.823   6.152   6.765
 9246SOL    HW128637   4.867   6.131   6.852
 9246SOL    HW228638   4.890   6.197   6.705
 9247SOL     OW28639   3.871   6.267   2.596
 9247SOL    HW128640   3.965   6.254   2.627
 9247SOL    HW228641   3.867   6.252   2.497
 9248SOL     OW28642   2.536   0.406   6.684
 9248SOL    HW128643   2.551   0.415   6.783
 9248SOL    HW228644   2.580   0.482   6.636
 9249SOL     OW28645   2.361   6.884   0.052
 9249SOL    HW128646   2.347   6.799   0.103
 9249SOL    HW228647   2.366   6.864   6.974
 9250SOL     OW28648   0.393   2.910   3.569
 9250SOL    HW128649   0.457   2.984   3.591
 9250SOL    HW228650   0.309   2.950   3.530
 9251SOL     OW28651   3.532   1.833   1.260
 9251SOL    HW128652   3.597   1.766   1.224
 9251SOL    HW228653   3.574   1.882   1.337
 9252SOL     OW28654   5.779   1.229   4.865
 9252SOL    HW128655   5.796   1.297   4.936
 9252SOL    HW228656   5.866   1.189   4.836
 9253SOL     OW28657   1.606   5.494   4.570
 9253SOL    HW128658   1.536   5.565   4.568
 9253SOL    HW228659   1.673   5.515   4.641
 9254SOL     OW28660   0.104   5.112   2.569
 9254SOL    HW128661   0.064   5.129   2.479
 9254SOL    HW228662   0.180   5.047   2.559
 9255SOL     OW28663   6.739   4.515   0.570
 9255SOL    HW128664   6.641   4.509   0.585
 9255SOL    HW228665   6.787   4.473   0.648
 9256SOL     OW28666   3.013   6.488   1.185
 9256SOL    HW128667   3.067   6.416   1.229
 9256SOL    HW228668   2.957   6.447   1.113
 9257SOL     OW28669   5.826   5.562   4.408
 9257SOL    HW128670   5.874   5.495   4.463
 9257SOL    HW228671   5.830   5.535   4.311
 9258SOL     OW28672   3.889   5.564   1.448
 9258SOL    HW128673   3.900   5.598   1.354
 9258SOL    HW228674   3.969   5.509   1.473
 9259SOL     OW28675   0.872   2.055   6.691
 9259SOL    HW128676   0.851   1.962   6.663
 9259SOL    HW228677   0.831   2.073   6.780
 9260SOL     OW28678   4.971   3.807   4.534
 9260SOL    HW128679   5.063   3.838   4.556
 9260SOL    HW228680   4.904   3.861   4.586
 9261SOL     OW28681   1.878   1.882   1.573
 9261SOL    HW128682   1.778   1.887   1.564
 9261SOL    HW228683   1.921   1.941   1.505
 9262SOL     OW28684   6.556   6.198   5.914
 9262SOL    HW128685   6.636   6.244   5.952
 9262SOL    HW228686   6.477   6.259   5.919
 9263SOL     OW28687   1.847   4.740   3.019
 9263SOL    HW128688   1.888   4.756   3.109
 9263SOL    HW228689   1.837   4.641   3.004
 9264SOL     OW28690   5.804   3.996   6.588
 9264SOL    HW128691   5.822   4.080   6.640
 9264SOL    HW228692   5.838   3.917   6.639
 9265SOL     OW28693   5.310   0.916   1.557
 9265SOL    HW128694   5.244   0.859   1.508
 9265SOL    HW228695   5.398   0.913   1.510
 9266SOL     OW28696   1.689   4.585   0.531
 9266SOL    HW128697   1.615   4.518   0.535
 9266SOL    HW228698   1.653   4.677   0.549
 9267SOL     OW28699   0.564   1.067   4.218
 9267SOL    HW128700   0.629   1.068   4.294
 9267SOL    HW228701   0.523   0.977   4.210
 9268SOL     OW28702   0.393   0.405   1.298
 9268SOL    HW128703   0.447   0.329   1.334
 9268SOL    HW228704   0.443   0.491   1.310
 9269SOL     OW28705   3.573   0.836   6.800
 9269SOL    HW128706   3.634   0.810   6.725
 9269SOL    HW228707   3.627   0.871   6.876
 9270SOL     OW28708   2.875   0.513   6.180
 9270SOL    HW128709   2.842   0.597   6.223
 9270SOL    HW228710   2.942   0.535   6.110
 9271SOL     OW28711   1.415   4.958   5.425
 9271SOL    HW128712   1.409   5.016   5.506
 9271SOL    HW228713   1.336   4.896   5.423
 9272SOL     OW28714   5.899   6.328   5.993
 9272SOL    HW128715   5.837   6.328   5.914
 9272SOL    HW228716   5.947   6.241   5.998
 9273SOL     OW28717   5.586   3.525   3.632
 9273SOL    HW128718   5.511   3.501   3.693
 9273SOL    HW228719   5.640   3.598   3.672
 9274SOL     OW28720   0.504   3.411   0.854
 9274SOL    HW128721   0.436   3.470   0.897
 9274SOL    HW228722   0.477   3.315   0.863
 9275SOL     OW28723   5.818   0.845   0.904
 9275SOL    HW128724   5.864   0.756   0.903
 9275SOL    HW228725   5.877   0.914   0.864
 9276SOL     OW28726   2.607   5.243   6.946
 9276SOL    HW128727   2.704   5.220   6.952
 9276SOL    HW228728   2.571   5.213   6.857
 9277SOL     OW28729   4.779   4.749   2.524
 9277SOL    HW128730   4.803   4.819   2.456
 9277SOL    HW228731   4.843   4.673   2.516
 9278SOL     OW28732   0.549   7.007   5.700
 9278SOL    HW128733   0.610   7.018   5.622
 9278SOL    HW228734   0.455   6.997   5.667
 9279SOL     OW28735   3.178   6.116   2.046
 9279SOL    HW128736   3.141   6.191   1.991
 9279SOL    HW228737   3.160   6.029   2.000
 9280SOL     OW28738   1.841   5.866   2.774
 9280SOL    HW128739   1.743   5.868   2.755
 9280SOL    HW228740   1.864   5.779   2.819
 9281SOL     OW28741   1.597   5.275   0.787
 9281SOL    HW128742   1.691   5.244   0.802
 9281SOL    HW228743   1.580   5.357   0.841
 9282SOL     OW28744   3.170   6.778   4.790
 9282SOL    HW128745   3.179   6.688   4.748
 9282SOL    HW228746   3.105   6.833   4.737
 9283SOL     OW28747   4.279   6.777   0.874
 9283SOL    HW128748   4.224   6.713   0.822
 9283SOL    HW228749   4.328   6.838   0.812
 9284SOL     OW28750   3.845   4.543   6.375
 9284SOL    HW128751   3.791   4.548   6.459
 9284SOL    HW228752   3.853   4.447   6.347
 9285SOL     OW28753   0.083   6.103   2.855
 9285SOL    HW128754   0.107   6.199   2.863
 9285SOL    HW228755   0.116   6.053   2.935
 9286SOL     OW28756   4.213   0.246   2.051
 9286SOL    HW128757   4.175   0.307   2.120
 9286SOL    HW228758   4.182   0.275   1.960
 9287SOL     OW28759   4.597   3.680   5.884
 9287SOL    HW128760   4.588   3.651   5.789
 9287SOL    HW228761   4.510   3.663   5.931
 9288SOL     OW28762   3.547   1.746   2.149
 9288SOL    HW128763   3.644   1.748   2.126
 9288SOL    HW228764   3.504   1.831   2.119
 9289SOL     OW28765   5.109   6.830   1.087
 9289SOL    HW128766   5.175   6.865   1.020
 9289SOL    HW228767   5.157   6.775   1.155
 9290SOL     OW28768   6.213   1.223   3.876
 9290SOL    HW128769   6.183   1.178   3.961
 9290SOL    HW228770   6.183   1.319   3.877
 9291SOL     OW28771   0.544   3.658   5.638
 9291SOL    HW128772   0.621   3.661   5.701
 9291SOL    HW228773   0.577   3.670   5.544
 9292SOL     OW28774   0.358   1.058   6.373
 9292SOL    HW128775   0.281   1.007   6.412
 9292SOL    HW228776   0.438   0.999   6.367
 9293SOL     OW28777   4.784   2.155   4.594
 9293SOL    HW128778   4.846   2.153   4.673
 9293SOL    HW228779   4.690   2.148   4.627
 9294SOL     OW28780   4.686   0.065   6.404
 9294SOL    HW128781   4.745   0.027   6.332
 9294SOL    HW228782   4.717   0.033   6.493
 9295SOL     OW28783   6.337   1.397   4.432
 9295SOL    HW128784   6.380   1.463   4.494
 9295SOL    HW228785   6.354   1.424   4.337
 9296SOL     OW28786   2.206   5.278   5.768
 9296SOL    HW128787   2.218   5.179   5.756
 9296SOL    HW228788   2.292   5.324   5.747
 9297SOL     OW28789   6.887   5.203   2.391
 9297SOL    HW128790   6.792   5.202   2.422
 9297SOL    HW228791   6.892   5.251   2.303
 9298SOL     OW28792   1.375   3.800   6.444
 9298SOL    HW128793   1.403   3.894   6.430
 9298SOL    HW228794   1.339   3.762   6.359
 9299SOL     OW28795   2.489   2.430   4.702
 9299SOL    HW128796   2.512   2.458   4.795
 9299SOL    HW228797   2.570   2.392   4.658
 9300SOL     OW28798   2.226   6.029   4.460
 9300SOL    HW128799   2.286   6.072   4.392
 9300SOL    HW228800   2.270   6.031   4.550
 9301SOL     OW28801   0.166   4.288   4.237
 9301SOL    HW128802   0.091   4.275   4.173
 9301SOL    HW228803   0.249   4.313   4.186
 9302SOL     OW28804   2.149   4.641   4.547
 9302SOL    HW128805   2.125   4.690   4.463
 9302SOL    HW228806   2.248   4.626   4.549
 9303SOL     OW28807   2.348   4.617   0.087
 9303SOL    HW128808   2.300   4.590   0.170
 9303SOL    HW228809   2.282   4.654   0.021
 9304SOL     OW28810   5.315   5.453   6.504
 9304SOL    HW128811   5.410   5.420   6.507
 9304SOL    HW228812   5.264   5.412   6.579
 9305SOL     OW28813   1.658   1.917   1.234
 9305SOL    HW128814   1.751   1.937   1.201
 9305SOL    HW228815   1.608   2.003   1.245
 9306SOL     OW28816   0.104   6.519   4.705
 9306SOL    HW128817   0.153   6.487   4.786
 9306SOL    HW228818   0.152   6.597   4.665
 9307SOL     OW28819   1.780   3.803   1.127
 9307SOL    HW128820   1.773   3.885   1.185
 9307SOL    HW228821   1.784   3.722   1.185
 9308SOL     OW28822   2.145   3.209   1.962
 9308SOL    HW128823   2.161   3.308   1.967
 9308SOL    HW228824   2.203   3.169   1.890
 9309SOL     OW28825   4.937   5.409   6.498
 9309SOL    HW128826   4.968   5.398   6.404
 9309SOL    HW228827   4.990   5.347   6.558
 9310SOL     OW28828   5.954   5.842   6.030
 9310SOL    HW128829   5.978   5.756   6.075
 9310SOL    HW228830   5.949   5.915   6.098
 9311SOL     OW28831   4.711   4.361   0.628
 9311SOL    HW128832   4.758   4.385   0.713
 9311SOL    HW228833   4.728   4.433   0.560
 9312SOL     OW28834   0.424   2.820   2.845
 9312SOL    HW128835   0.492   2.806   2.774
 9312SOL    HW228836   0.470   2.839   2.932
 9313SOL     OW28837   0.806   0.622   2.594
 9313SOL    HW128838   0.707   0.617   2.578
 9313SOL    HW228839   0.823   0.669   2.680
 9314SOL     OW28840   5.429   5.256   1.143
 9314SOL    HW128841   5.407   5.159   1.127
 9314SOL    HW228842   5.418   5.277   1.240
 9315SOL     OW28843   5.396   6.182   6.238
 9315SOL    HW128844   5.302   6.149   6.241
 9315SOL    HW228845   5.418   6.229   6.324
 9316SOL     OW28846   4.793   0.155   0.007
 9316SOL    HW128847   4.830   0.169   6.934
 9316SOL    HW228848   4.710   0.209   0.019
 9317SOL     OW28849   2.756   5.740   3.407
 9317SOL    HW128850   2.849   5.704   3.411
 9317SOL    HW228851   2.715   5.715   3.320
 9318SOL     OW28852   3.956   6.735   1.867
 9318SOL    HW128853   3.896   6.756   1.944
 9318SOL    HW228854   4.030   6.803   1.862
 9319SOL     OW28855   4.338   1.704   0.062
 9319SOL    HW128856   4.358   1.762   0.142
 9319SOL    HW228857   4.260   1.742   0.013
 9320SOL     OW28858   6.828   6.463   0.045
 9320SOL    HW128859   6.844   6.537   6.999
 9320SOL    HW228860   6.891   6.387   0.025
 9321SOL     OW28861   0.694   3.585   4.536
 9321SOL    HW128862   0.702   3.673   4.584
 9321SOL    HW228863   0.718   3.511   4.599
 9322SOL     OW28864   5.293   3.047   0.048
 9322SOL    HW128865   5.290   2.980   0.122
 9322SOL    HW228866   5.348   3.012   6.992
 9323SOL     OW28867   0.791   2.318   5.965
 9323SOL    HW128868   0.793   2.221   5.989
 9323SOL    HW228869   0.791   2.373   6.049
 9324SOL     OW28870   0.503   4.570   1.580
 9324SOL    HW128871   0.589   4.615   1.558
 9324SOL    HW228872   0.484   4.579   1.677
 9325SOL     OW28873   0.359   4.600   3.456
 9325SOL    HW128874   0.263   4.581   3.434
 9325SOL    HW228875   0.405   4.516   3.482
 9326SOL     OW28876   4.586   4.135   0.705
 9326SOL    HW128877   4.624   4.226   0.690
 9326SOL    HW228878   4.648   4.067   0.665
 9327SOL     OW28879   2.770   1.382   3.384
 9327SOL    HW128880   2.679   1.386   3.424
 9327SOL    HW228881   2.836   1.350   3.453
 9328SOL     OW28882   2.080   0.846   3.593
 9328SOL    HW128883   2.178   0.838   3.613
 9328SOL    HW228884   2.068   0.874   3.498
 9329SOL     OW28885   0.201   5.523   6.925
 9329SOL    HW128886   0.264   5.570   6.863
 9329SOL    HW228887   0.107   5.533   6.891
 9330SOL     OW28888   0.277   6.394   0.451
 9330SOL    HW128889   0.245   6.342   0.371
 9330SOL    HW228890   0.199   6.439   0.495
 9331SOL     OW28891   2.098   3.867   4.233
 9331SOL    HW128892   1.999   3.857   4.219
 9331SOL    HW228893   2.116   3.893   4.328
 9332SOL     OW28894   6.322   5.179   0.734
 9332SOL    HW128895   6.238   5.126   0.733
 9332SOL    HW228896   6.300   5.276   0.747
 9333SOL     OW28897   3.013   4.053   1.302
 9333SOL    HW128898   3.049   3.981   1.361
 9333SOL    HW228899   3.088   4.099   1.256
 9334SOL     OW28900   6.276   5.861   5.882
 9334SOL    HW128901   6.344   5.900   5.819
 9334SOL    HW228902   6.212   5.805   5.830
 9335SOL     OW28903   0.911   3.869   1.558
 9335SOL    HW128904   0.910   3.937   1.485
 9335SOL    HW228905   0.923   3.915   1.646
 9336SOL     OW28906   5.473   0.267   6.167
 9336SOL    HW128907   5.393   0.233   6.119
 9336SOL    HW228908   5.551   0.271   6.104
 9337SOL     OW28909   2.531   1.229   5.743
 9337SOL    HW128910   2.491   1.315   5.712
 9337SOL    HW228911   2.472   1.153   5.716
 9338SOL     OW28912   5.610   6.019   0.130
 9338SOL    HW128913   5.524   6.058   0.094
 9338SOL    HW228914   5.616   6.038   0.228
 9339SOL     OW28915   6.933   3.857   5.327
 9339SOL    HW128916   6.878   3.835   5.246
 9339SOL    HW228917   6.961   3.773   5.372
 9340SOL     OW28918   2.709   4.852   1.711
 9340SOL    HW128919   2.666   4.938   1.685
 9340SOL    HW228920   2.807   4.867   1.729
 9341SOL     OW28921   5.294   5.124   6.457
 9341SOL    HW128922   5.361   5.185   6.415
 9341SOL    HW228923   5.233   5.087   6.388
 9342SOL     OW28924   2.981   0.276   4.585
 9342SOL    HW128925   2.923   0.210   4.537
 9342SOL    HW228926   3.077   0.254   4.569
 9343SOL     OW28927   4.932   3.616   0.772
 9343SOL    HW128928   4.858   3.626   0.838
 9343SOL    HW228929   4.956   3.706   0.734
 9344SOL     OW28930   5.477   0.629   5.345
 9344SOL    HW128931   5.449   0.562   5.276
 9344SOL    HW228932   5.471   0.721   5.307
 9345SOL     OW28933   0.210   4.293   0.126
 9345SOL    HW128934   0.309   4.290   0.139
 9345SOL    HW228935   0.166   4.232   0.192
 9346SOL     OW28936   5.797   6.803   2.010
 9346SOL    HW128937   5.883   6.854   2.014
 9346SOL    HW228938   5.729   6.855   1.958
 9347SOL     OW28939   3.951   6.061   1.156
 9347SOL    HW128940   4.007   6.047   1.237
 9347SOL    HW228941   3.871   6.002   1.159
 9348SOL     OW28942   2.011   5.396   1.791
 9348SOL    HW128943   1.958   5.323   1.834
 9348SOL    HW228944   2.054   5.361   1.707
 9349SOL     OW28945   6.986   6.220   1.681
 9349SOL    HW128946   6.954   6.313   1.662
 9349SOL    HW228947   0.041   6.197   1.619
 9350SOL     OW28948   6.340   0.695   0.264
 9350SOL    HW128949   6.351   0.736   0.354
 9350SOL    HW228950   6.423   0.646   0.240
 9351SOL     OW28951   4.312   3.051   5.441
 9351SOL    HW128952   4.301   2.996   5.524
 9351SOL    HW228953   4.344   2.994   5.366
 9352SOL     OW28954   2.905   2.766   6.428
 9352SOL    HW128955   2.882   2.863   6.425
 9352SOL    HW228956   2.822   2.712   6.416
 9353SOL     OW28957   0.280   3.197   1.398
 9353SOL    HW128958   0.182   3.216   1.407
 9353SOL    HW228959   0.328   3.281   1.373
 9354SOL     OW28960   5.234   1.519   1.894
 9354SOL    HW128961   5.318   1.533   1.948
 9354SOL    HW228962   5.203   1.607   1.857
 9355SOL     OW28963   6.540   1.327   2.983
 9355SOL    HW128964   6.560   1.242   3.032
 9355SOL    HW228965   6.621   1.358   2.934
 9356SOL     OW28966   5.165   3.988   2.713
 9356SOL    HW128967   5.208   3.902   2.740
 9356SOL    HW228968   5.066   3.974   2.702
 9357SOL     OW28969   3.223   3.338   0.613
 9357SOL    HW128970   3.303   3.397   0.602
 9357SOL    HW228971   3.251   3.242   0.606
 9358SOL     OW28972   5.059   4.126   1.994
 9358SOL    HW128973   5.043   4.033   1.961
 9358SOL    HW228974   5.046   4.130   2.093
 9359SOL     OW28975   5.540   4.669   5.979
 9359SOL    HW128976   5.507   4.619   5.898
 9359SOL    HW228977   5.527   4.767   5.964
 9360SOL     OW28978   1.362   0.237   5.468
 9360SOL    HW128979   1.397   0.316   5.519
 9360SOL    HW228980   1.427   0.212   5.397
 9361SOL     OW28981   2.395   1.120   2.264
 9361SOL    HW128982   2.448   1.182   2.321
 9361SOL    HW228983   2.322   1.170   2.217
 9362SOL     OW28984   1.482   1.666   3.006
 9362SOL    HW128985   1.534   1.746   3.034
 9362SOL    HW228986   1.541   1.585   3.007
 9363SOL     OW28987   2.335   6.877   1.684
 9363SOL    HW128988   2.338   6.964   1.734
 9363SOL    HW228989   2.382   6.888   1.596
 9364SOL     OW28990   5.838   5.425   1.174
 9364SOL    HW128991   5.854   5.398   1.268
 9364SOL    HW228992   5.828   5.344   1.117
 9365SOL     OW28993   1.876   1.165   4.960
 9365SOL    HW128994   1.809   1.113   5.014
 9365SOL    HW228995   1.840   1.257   4.942
 9366SOL     OW28996   2.768   1.311   1.912
 9366SOL    HW128997   2.752   1.240   1.981
 9366SOL    HW228998   2.831   1.277   1.842
 9367SOL     OW28999   6.574   5.956   3.582
 9367SOL    HW129000   6.481   5.990   3.569
 9367SOL    HW229001   6.590   5.941   3.679
 9368SOL     OW29002   4.413   2.938   1.420
 9368SOL    HW129003   4.322   2.896   1.433
 9368SOL    HW229004   4.441   2.982   1.505
 9369SOL     OW29005   6.970   2.402   5.381
 9369SOL    HW129006   7.005   2.311   5.360
 9369SOL    HW229007   0.024   2.469   5.371
 9370SOL     OW29008   5.971   6.999   3.261
 9370SOL    HW129009   5.941   7.016   3.355
 9370SOL    HW229010   6.069   6.980   3.259
 9371SOL     OW29011   1.202   0.046   0.274
 9371SOL    HW129012   1.199   0.000   0.185
 9371SOL    HW229013   1.280   0.010   0.326
 9372SOL     OW29014   6.432   6.445   6.504
 9372SOL    HW129015   6.418   6.427   6.407
 9372SOL    HW229016   6.483   6.369   6.545
 9373SOL     OW29017   4.445   2.077   3.887
 9373SOL    HW129018   4.431   2.069   3.986
 9373SOL    HW229019   4.363   2.046   3.839
 9374SOL     OW29020   5.258   4.265   0.413
 9374SOL    HW129021   5.303   4.264   0.502
 9374SOL    HW229022   5.303   4.202   0.351
 9375SOL     OW29023   0.795   1.237   3.814
 9375SOL    HW129024   0.809   1.301   3.889
 9375SOL    HW229025   0.719   1.176   3.836
 9376SOL     OW29026   2.174   2.592   2.481
 9376SOL    HW129027   2.118   2.641   2.414
 9376SOL    HW229028   2.241   2.535   2.434
 9377SOL     OW29029   6.074   5.531   2.718
 9377SOL    HW129030   5.985   5.505   2.682
 9377SOL    HW229031   6.076   5.515   2.817
 9378SOL     OW29032   3.272   5.838   1.274
 9378SOL    HW129033   3.270   5.868   1.178
 9378SOL    HW229034   3.298   5.741   1.277
 9379SOL     OW29035   5.580   4.515   5.486
 9379SOL    HW129036   5.547   4.421   5.473
 9379SOL    HW229037   5.678   4.518   5.465
 9380SOL     OW29038   5.930   6.019   6.202
 9380SOL    HW129039   5.834   6.042   6.187
 9380SOL    HW229040   5.973   6.092   6.256
 9381SOL     OW29041   2.942   0.961   0.072
 9381SOL    HW129042   3.008   0.980   0.145
 9381SOL    HW229043   2.887   0.881   0.097
 9382SOL     OW29044   5.192   2.348   2.337
 9382SOL    HW129045   5.155   2.296   2.414
 9382SOL    HW229046   5.118   2.398   2.292
 9383SOL     OW29047   5.724   5.516   5.577
 9383SOL    HW129048   5.642   5.574   5.581
 9383SOL    HW229049   5.702   5.424   5.608
 9384SOL     OW29050   4.452   5.899   1.929
 9384SOL    HW129051   4.392   5.870   2.004
 9384SOL    HW229052   4.399   5.908   1.845
 9385SOL     OW29053   3.860   1.632   3.707
 9385SOL    HW129054   3.763   1.609   3.697
 9385SOL    HW229055   3.913   1.585   3.637
 9386SOL     OW29056   3.976   0.291   4.474
 9386SOL    HW129057   4.049   0.270   4.538
 9386SOL    HW229058   3.945   0.385   4.488
 9387SOL     OW29059   3.988   0.314   0.492
 9387SOL    HW129060   4.085   0.332   0.475
 9387SOL    HW229061   3.933   0.351   0.418
 9388SOL     OW29062   6.967   0.144   2.600
 9388SOL    HW129063   6.955   0.183   2.509
 9388SOL    HW229064   0.035   0.173   2.638
 9389SOL     OW29065   3.106   1.112   6.908
 9389SOL    HW129066   3.091   1.204   6.944
 9389SOL    HW229067   3.039   1.049   6.947
 9390SOL     OW29068   3.206   6.710   2.335
 9390SOL    HW129069   3.261   6.633   2.302
 9390SOL    HW229070   3.123   6.717   2.281
 9391SOL     OW29071   0.779   1.018   5.459
 9391SOL    HW129072   0.740   1.062   5.377
 9391SOL    HW229073   0.845   1.080   5.501
 9392SOL     OW29074   1.342   6.260   3.903
 9392SOL    HW129075   1.347   6.256   3.803
 9392SOL    HW229076   1.434   6.247   3.941
 9393SOL     OW29077   3.857   2.426   5.305
 9393SOL    HW129078   3.918   2.357   5.343
 9393SOL    HW229079   3.890   2.517   5.331
 9394SOL     OW29080   5.466   2.277   2.263
 9394SOL    HW129081   5.378   2.305   2.302
 9394SOL    HW229082   5.463   2.180   2.242
 9395SOL     OW29083   1.869   2.498   6.816
 9395SOL    HW129084   1.795   2.551   6.857
 9395SOL    HW229085   1.839   2.460   6.728
 9396SOL     OW29086   6.452   0.432   6.860
 9396SOL    HW129087   6.432   0.497   6.787
 9396SOL    HW229088   6.511   0.476   6.928
 9397SOL     OW29089   3.089   0.852   0.934
 9397SOL    HW129090   3.003   0.803   0.926
 9397SOL    HW229091   3.149   0.827   0.858
 9398SOL     OW29092   2.562   1.947   6.940
 9398SOL    HW129093   2.510   2.029   6.961
 9398SOL    HW229094   2.504   1.866   6.953
 9399SOL     OW29095   6.898   0.836   5.361
 9399SOL    HW129096   6.843   0.842   5.278
 9399SOL    HW229097   6.987   0.795   5.339
 9400SOL     OW29098   4.973   2.382   3.408
 9400SOL    HW129099   5.069   2.357   3.424
 9400SOL    HW229100   4.927   2.308   3.359
 9401SOL     OW29101   3.225   0.298   3.027
 9401SOL    HW129102   3.193   0.213   2.984
 9401SOL    HW229103   3.246   0.365   2.957
 9402SOL     OW29104   2.162   5.301   6.781
 9402SOL    HW129105   2.158   5.264   6.874
 9402SOL    HW229106   2.192   5.396   6.784
 9403SOL     OW29107   5.395   1.520   4.351
 9403SOL    HW129108   5.353   1.551   4.437
 9403SOL    HW229109   5.407   1.421   4.354
 9404SOL     OW29110   0.461   4.303   5.867
 9404SOL    HW129111   0.527   4.354   5.812
 9404SOL    HW229112   0.369   4.332   5.844
 9405SOL     OW29113   6.184   0.035   1.019
 9405SOL    HW129114   6.255   0.090   0.975
 9405SOL    HW229115   6.139   0.089   1.090
 9406SOL     OW29116   6.957   1.197   5.754
 9406SOL    HW129117   6.940   1.139   5.674
 9406SOL    HW229118   6.951   1.293   5.727
 9407SOL     OW29119   3.269   6.384   3.258
 9407SOL    HW129120   3.343   6.352   3.318
 9407SOL    HW229121   3.305   6.398   3.166
 9408SOL     OW29122   3.630   1.802   6.609
 9408SOL    HW129123   3.585   1.746   6.539
 9408SOL    HW229124   3.699   1.860   6.566
 9409SOL     OW29125   5.415   3.887   3.003
 9409SOL    HW129126   5.460   3.926   3.084
 9409SOL    HW229127   5.326   3.931   2.990
 9410SOL     OW29128   4.711   6.265   2.802
 9410SOL    HW129129   4.711   6.319   2.886
 9410SOL    HW229130   4.799   6.219   2.791
 9411SOL     OW29131   5.056   5.841   1.115
 9411SOL    HW129132   5.006   5.886   1.042
 9411SOL    HW229133   5.025   5.877   1.203
 9412SOL     OW29134   6.584   2.770   1.238
 9412SOL    HW129135   6.612   2.701   1.305
 9412SOL    HW229136   6.591   2.732   1.145
 9413SOL     OW29137   3.633   6.058   5.138
 9413SOL    HW129138   3.566   6.014   5.197
 9413SOL    HW229139   3.723   6.016   5.153
 9414SOL     OW29140   2.510   1.552   1.637
 9414SOL    HW129141   2.416   1.570   1.665
 9414SOL    HW229142   2.573   1.596   1.701
 9415SOL     OW29143   3.114   0.658   2.506
 9415SOL    HW129144   3.023   0.699   2.497
 9415SOL    HW229145   3.134   0.603   2.425
 9416SOL     OW29146   0.794   2.382   1.419
 9416SOL    HW129147   0.784   2.457   1.353
 9416SOL    HW229148   0.825   2.418   1.507
 9417SOL     OW29149   1.937   6.509   4.641
 9417SOL    HW129150   1.861   6.464   4.688
 9417SOL    HW229151   2.011   6.443   4.626
 9418SOL     OW29152   3.580   4.453   0.882
 9418SOL    HW129153   3.559   4.545   0.849
 9418SOL    HW229154   3.675   4.448   0.911
 9419SOL     OW29155   3.650   6.398   5.396
 9419SOL    HW129156   3.714   6.406   5.320
 9419SOL    HW229157   3.643   6.485   5.444
 9420SOL     OW29158   0.621   1.623   4.146
 9420SOL    HW129159   0.530   1.621   4.189
 9420SOL    HW229160   0.630   1.707   4.093
 9421SOL     OW29161   1.762   4.936   4.869
 9421SOL    HW129162   1.818   4.892   4.939
 9421SOL    HW229163   1.814   4.942   4.784
 9422SOL     OW29164   4.200   2.020   1.917
 9422SOL    HW129165   4.217   1.948   1.850
 9422SOL    HW229166   4.102   2.042   1.919
 9423SOL     OW29167   4.692   1.071   5.096
 9423SOL    HW129168   4.691   1.096   5.000
 9423SOL    HW229169   4.636   1.136   5.148
 9424SOL     OW29170   2.965   6.468   4.297
 9424SOL    HW129171   2.868   6.468   4.275
 9424SOL    HW229172   3.003   6.377   4.283
 9425SOL     OW29173   1.225   3.962   3.889
 9425SOL    HW129174   1.193   4.057   3.890
 9425SOL    HW229175   1.302   3.953   3.825
 9426SOL     OW29176   3.504   6.577   0.246
 9426SOL    HW129177   3.555   6.524   0.178
 9426SOL    HW229178   3.419   6.611   0.205
 9427SOL     OW29179   3.162   4.888   4.253
 9427SOL    HW129180   3.074   4.934   4.236
 9427SOL    HW229181   3.168   4.864   4.350
 9428SOL     OW29182   4.728   6.437   2.572
 9428SOL    HW129183   4.716   6.367   2.643
 9428SOL    HW229184   4.825   6.457   2.561
 9429SOL     OW29185   0.184   3.771   2.356
 9429SOL    HW129186   0.220   3.790   2.264
 9429SOL    HW229187   0.152   3.676   2.360
 9430SOL     OW29188   6.250   6.842   2.117
 9430SOL    HW129189   6.222   6.850   2.212
 9430SOL    HW229190   6.173   6.866   2.058
 9431SOL     OW29191   6.804   4.576   1.822
 9431SOL    HW129192   6.720   4.546   1.867
 9431SOL    HW229193   6.879   4.575   1.888
 9432SOL     OW29194   6.455   6.843   4.508
 9432SOL    HW129195   6.364   6.884   4.508
 9432SOL    HW229196   6.466   6.787   4.426
 9433SOL     OW29197   2.693   4.667   4.719
 9433SOL    HW129198   2.602   4.696   4.691
 9433SOL    HW229199   2.697   4.659   4.818
 9434SOL     OW29200   5.356   5.538   3.134
 9434SOL    HW129201   5.334   5.564   3.228
 9434SOL    HW229202   5.277   5.494   3.092
 9435SOL     OW29203   1.458   0.801   4.523
 9435SOL    HW129204   1.474   0.703   4.536
 9435SOL    HW229205   1.447   0.820   4.425
 9436SOL     OW29206   2.052   2.717   6.840
 9436SOL    HW129207   1.993   2.640   6.865
 9436SOL    HW229208   2.057   2.781   6.916
 9437SOL     OW29209   0.870   5.139   3.991
 9437SOL    HW129210   0.841   5.203   4.063
 9437SOL    HW229211   0.888   5.050   4.032
 9438SOL     OW29212   1.561   6.454   1.968
 9438SOL    HW129213   1.528   6.365   1.999
 9438SOL    HW229214   1.626   6.491   2.034
 9439SOL     OW29215   0.467   2.742   1.521
 9439SOL    HW129216   0.463   2.681   1.442
 9439SOL    HW229217   0.440   2.834   1.493
 9440SOL     OW29218   4.828   5.895   5.784
 9440SOL    HW129219   4.878   5.825   5.733
 9440SOL    HW229220   4.770   5.948   5.722
 9441SOL     OW29221   1.147   4.768   4.800
 9441SOL    HW129222   1.129   4.739   4.706
 9441SOL    HW229223   1.072   4.825   4.833
 9442SOL     OW29224   0.628   3.750   1.729
 9442SOL    HW129225   0.676   3.761   1.816
 9442SOL    HW229226   0.679   3.688   1.670
 9443SOL     OW29227   1.694   3.360   1.751
 9443SOL    HW129228   1.694   3.309   1.666
 9443SOL    HW229229   1.764   3.324   1.813
 9444SOL     OW29230   6.988   3.609   6.565
 9444SOL    HW129231   6.929   3.530   6.545
 9444SOL    HW229232   0.061   3.577   6.584
 9445SOL     OW29233   5.848   3.652   1.646
 9445SOL    HW129234   5.930   3.635   1.591
 9445SOL    HW229235   5.771   3.604   1.606
 9446SOL     OW29236   6.173   5.529   1.443
 9446SOL    HW129237   6.225   5.451   1.408
 9446SOL    HW229238   6.236   5.592   1.488
 9447SOL     OW29239   5.683   2.568   1.508
 9447SOL    HW129240   5.686   2.498   1.438
 9447SOL    HW229241   5.667   2.525   1.597
 9448SOL     OW29242   6.403   6.532   0.277
 9448SOL    HW129243   6.369   6.448   0.235
 9448SOL    HW229244   6.393   6.525   0.376
 9449SOL     OW29245   6.933   5.337   5.625
 9449SOL    HW129246   7.001   5.327   5.698
 9449SOL    HW229247   6.909   5.247   5.589
 9450SOL     OW29248   3.190   4.985   4.694
 9450SOL    HW129249   3.102   4.945   4.720
 9450SOL    HW229250   3.175   5.070   4.644
 9451SOL     OW29251   4.153   4.601   6.077
 9451SOL    HW129252   4.144   4.574   6.173
 9451SOL    HW229253   4.208   4.685   6.071
 9452SOL     OW29254   2.676   4.304   1.394
 9452SOL    HW129255   2.588   4.258   1.397
 9452SOL    HW229256   2.741   4.256   1.453
 9453SOL     OW29257   3.299   5.135   1.821
 9453SOL    HW129258   3.312   5.038   1.842
 9453SOL    HW229259   3.351   5.190   1.886
 9454SOL     OW29260   2.299   2.762   4.985
 9454SOL    HW129261   2.302   2.860   5.006
 9454SOL    HW229262   2.367   2.714   5.041
 9455SOL     OW29263   3.225   1.637   2.479
 9455SOL    HW129264   3.193   1.679   2.394
 9455SOL    HW229265   3.325   1.646   2.485
 9456SOL     OW29266   1.747   3.006   1.279
 9456SOL    HW129267   1.770   3.014   1.182
 9456SOL    HW229268   1.711   2.914   1.297
 9457SOL     OW29269   0.269   3.696   0.727
 9457SOL    HW129270   0.286   3.776   0.670
 9457SOL    HW229271   0.275   3.614   0.671
 9458SOL     OW29272   0.265   5.954   4.945
 9458SOL    HW129273   0.170   5.957   4.978
 9458SOL    HW229274   0.311   5.874   4.984
 9459SOL     OW29275   5.250   5.787   1.603
 9459SOL    HW129276   5.257   5.847   1.682
 9459SOL    HW229277   5.171   5.727   1.613
 9460SOL     OW29278   0.782   2.314   5.371
 9460SOL    HW129279   0.713   2.386   5.371
 9460SOL    HW229280   0.862   2.343   5.318
 9461SOL     OW29281   1.529   0.517   3.165
 9461SOL    HW129282   1.514   0.613   3.141
 9461SOL    HW229283   1.584   0.512   3.249
 9462SOL     OW29284   0.482   3.208   2.927
 9462SOL    HW129285   0.554   3.236   2.990
 9462SOL    HW229286   0.400   3.183   2.978
 9463SOL     OW29287   5.079   1.583   0.589
 9463SOL    HW129288   5.094   1.605   0.686
 9463SOL    HW229289   5.148   1.516   0.560
 9464SOL     OW29290   5.055   0.127   6.421
 9464SOL    HW129291   4.970   0.095   6.462
 9464SOL    HW229292   5.112   0.049   6.397
 9465SOL     OW29293   5.916   0.333   4.082
 9465SOL    HW129294   5.972   0.362   4.005
 9465SOL    HW229295   5.964   0.261   4.133
 9466SOL     OW29296   2.992   2.598   6.717
 9466SOL    HW129297   2.925   2.545   6.666
 9466SOL    HW229298   2.988   2.694   6.688
 9467SOL     OW29299   2.030   3.394   2.198
 9467SOL    HW129300   2.112   3.426   2.151
 9467SOL    HW229301   1.954   3.390   2.133
 9468SOL     OW29302   6.888   2.829   5.561
 9468SOL    HW129303   6.941   2.910   5.585
 9468SOL    HW229304   6.823   2.808   5.635
 9469SOL     OW29305   6.503   4.762   1.890
 9469SOL    HW129306   6.526   4.674   1.931
 9469SOL    HW229307   6.559   4.834   1.933
 9470SOL     OW29308   5.115   4.269   0.969
 9470SOL    HW129309   5.126   4.285   0.871
 9470SOL    HW229310   5.048   4.197   0.984
 9471SOL     OW29311   6.794   2.113   6.156
 9471SOL    HW129312   6.877   2.170   6.153
 9471SOL    HW229313   6.726   2.157   6.216
 9472SOL     OW29314   6.706   3.607   4.261
 9472SOL    HW129315   6.632   3.631   4.199
 9472SOL    HW229316   6.675   3.619   4.356
 9473SOL     OW29317   3.693   5.679   5.026
 9473SOL    HW129318   3.636   5.750   5.067
 9473SOL    HW229319   3.711   5.701   4.930
 9474SOL     OW29320   4.051   5.069   2.281
 9474SOL    HW129321   3.976   5.010   2.252
 9474SOL    HW229322   4.014   5.156   2.313
 9475SOL     OW29323   2.018   3.406   1.223
 9475SOL    HW129324   2.029   3.433   1.319
 9475SOL    HW229325   1.978   3.315   1.218
 9476SOL     OW29326   3.801   3.889   5.575
 9476SOL    HW129327   3.834   3.968   5.524
 9476SOL    HW229328   3.712   3.860   5.538
 9477SOL     OW29329   1.488   2.789   0.984
 9477SOL    HW129330   1.455   2.780   1.078
 9477SOL    HW229331   1.420   2.749   0.921
 9478SOL     OW29332   5.483   4.863   5.109
 9478SOL    HW129333   5.405   4.877   5.171
 9478SOL    HW229334   5.558   4.820   5.159
 9479SOL     OW29335   6.714   5.760   5.915
 9479SOL    HW129336   6.644   5.827   5.941
 9479SOL    HW229337   6.733   5.700   5.993
 9480SOL     OW29338   5.945   4.746   0.262
 9480SOL    HW129339   5.955   4.770   0.166
 9480SOL    HW229340   5.906   4.823   0.312
 9481SOL     OW29341   0.052   3.388   2.035
 9481SOL    HW129342   0.029   3.328   2.112
 9481SOL    HW229343   0.137   3.357   1.993
 9482SOL     OW29344   4.069   0.563   2.918
 9482SOL    HW129345   4.087   0.657   2.948
 9482SOL    HW229346   4.148   0.506   2.940
 9483SOL     OW29347   1.617   1.935   6.791
 9483SOL    HW129348   1.529   1.980   6.779
 9483SOL    HW229349   1.678   1.994   6.845
 9484SOL     OW29350   6.693   1.449   3.254
 9484SOL    HW129351   6.618   1.481   3.196
 9484SOL    HW229352   6.743   1.527   3.291
 9485SOL     OW29353   0.944   0.125   3.162
 9485SOL    HW129354   0.960   0.127   3.063
 9485SOL    HW229355   1.031   0.129   3.210
 9486SOL     OW29356   3.162   5.865   1.992
 9486SOL    HW129357   3.173   5.858   1.893
 9486SOL    HW229358   3.070   5.836   2.018
 9487SOL     OW29359   3.062   3.117   3.825
 9487SOL    HW129360   3.044   3.165   3.739
 9487SOL    HW229361   3.157   3.084   3.826
 9488SOL     OW29362   1.483   0.086   1.223
 9488SOL    HW129363   1.507   7.015   1.187
 9488SOL    HW229364   1.487   0.154   1.149
 9489SOL     OW29365   3.371   3.962   0.470
 9489SOL    HW129366   3.275   3.977   0.446
 9489SOL    HW229367   3.407   4.045   0.513
 9490SOL     OW29368   5.152   1.197   0.781
 9490SOL    HW129369   5.197   1.141   0.851
 9490SOL    HW229370   5.176   1.293   0.796
 9491SOL     OW29371   6.083   5.280   6.312
 9491SOL    HW129372   6.029   5.329   6.380
 9491SOL    HW229373   6.160   5.337   6.283
 9492SOL     OW29374   3.000   3.975   1.857
 9492SOL    HW129375   3.023   4.044   1.789
 9492SOL    HW229376   2.985   4.019   1.946
 9493SOL     OW29377   5.040   6.300   3.068
 9493SOL    HW129378   4.942   6.306   3.048
 9493SOL    HW229379   5.090   6.363   3.010
 9494SOL     OW29380   4.013   3.550   5.458
 9494SOL    HW129381   3.948   3.499   5.402
 9494SOL    HW229382   4.098   3.498   5.465
 9495SOL     OW29383   5.854   2.673   5.435
 9495SOL    HW129384   5.909   2.596   5.467
 9495SOL    HW229385   5.764   2.670   5.479
 9496SOL     OW29386   5.627   4.187   6.870
 9496SOL    HW129387   5.658   4.202   6.964
 9496SOL    HW229388   5.705   4.192   6.808
 9497SOL     OW29389   6.525   5.947   6.042
 9497SOL    HW129390   6.555   5.939   6.137
 9497SOL    HW229391   6.527   6.043   6.014
 9498SOL     OW29392   4.638   0.044   5.986
 9498SOL    HW129393   4.683   0.121   5.941
 9498SOL    HW229394   4.555   0.075   6.034
 9499SOL     OW29395   4.433   4.395   5.788
 9499SOL    HW129396   4.489   4.433   5.714
 9499SOL    HW229397   4.489   4.332   5.842
 9500SOL     OW29398   5.654   6.115   1.648
 9500SOL    HW129399   5.601   6.175   1.707
 9500SOL    HW229400   5.621   6.021   1.659
 9501SOL     OW29401   3.459   2.142   4.664
 9501SOL    HW129402   3.436   2.208   4.736
 9501SOL    HW229403   3.377   2.091   4.638
 9502SOL     OW29404   6.132   3.204   5.665
 9502SOL    HW129405   6.145   3.164   5.755
 9502SOL    HW229406   6.134   3.131   5.596
 9503SOL     OW29407   1.780   6.778   1.229
 9503SOL    HW129408   1.715   6.793   1.303
 9503SOL    HW229409   1.763   6.688   1.187
 9504SOL     OW29410   1.088   2.766   6.737
 9504SOL    HW129411   0.995   2.734   6.716
 9504SOL    HW229412   1.106   2.754   6.835
 9505SOL     OW29413   5.886   3.423   2.869
 9505SOL    HW129414   5.853   3.345   2.816
 9505SOL    HW229415   5.958   3.470   2.817
 9506SOL     OW29416   6.250   3.960   0.501
 9506SOL    HW129417   6.186   3.988   0.430
 9506SOL    HW229418   6.200   3.945   0.586
 9507SOL     OW29419   1.237   2.079   3.905
 9507SOL    HW129420   1.257   2.038   3.816
 9507SOL    HW229421   1.310   2.053   3.970
 9508SOL     OW29422   5.127   2.258   0.200
 9508SOL    HW129423   5.185   2.177   0.209
 9508SOL    HW229424   5.032   2.232   0.215
 9509SOL     OW29425   2.552   6.848   5.139
 9509SOL    HW129426   2.633   6.874   5.191
 9509SOL    HW229427   2.482   6.918   5.148
 9510SOL     OW29428   5.885   4.447   2.868
 9510SOL    HW129429   5.859   4.381   2.938
 9510SOL    HW229430   5.984   4.449   2.859
 9511SOL     OW29431   0.730   1.370   0.878
 9511SOL    HW129432   0.771   1.384   0.968
 9511SOL    HW229433   0.783   1.302   0.828
 9512SOL     OW29434   1.348   2.345   3.920
 9512SOL    HW129435   1.272   2.283   3.940
 9512SOL    HW229436   1.313   2.435   3.897
 9513SOL     OW29437   2.375   4.293   3.747
 9513SOL    HW129438   2.310   4.327   3.678
 9513SOL    HW229439   2.328   4.230   3.809
 9514SOL     OW29440   2.446   2.948   6.220
 9514SOL    HW129441   2.368   2.985   6.168
 9514SOL    HW229442   2.510   2.904   6.157
 9515SOL     OW29443   1.849   5.655   6.632
 9515SOL    HW129444   1.783   5.711   6.582
 9515SOL    HW229445   1.934   5.650   6.580
 9516SOL     OW29446   5.190   3.531   4.192
 9516SOL    HW129447   5.136   3.553   4.273
 9516SOL    HW229448   5.244   3.611   4.165
 9517SOL     OW29449   0.329   5.517   2.098
 9517SOL    HW129450   0.280   5.437   2.133
 9517SOL    HW229451   0.428   5.503   2.108
 9518SOL     OW29452   0.818   2.687   5.837
 9518SOL    HW129453   0.851   2.685   5.932
 9518SOL    HW229454   0.883   2.639   5.778
 9519SOL     OW29455   3.777   3.259   2.750
 9519SOL    HW129456   3.717   3.324   2.703
 9519SOL    HW229457   3.857   3.307   2.785
 9520SOL     OW29458   5.908   0.436   6.074
 9520SOL    HW129459   5.930   0.380   6.153
 9520SOL    HW229460   5.814   0.416   6.045
 9521SOL     OW29461   3.550   0.387   1.120
 9521SOL    HW129462   3.584   0.480   1.111
 9521SOL    HW229463   3.593   0.341   1.198
 9522SOL     OW29464   3.631   6.690   2.416
 9522SOL    HW129465   3.699   6.758   2.446
 9522SOL    HW229466   3.617   6.622   2.488
 9523SOL     OW29467   2.983   4.834   4.007
 9523SOL    HW129468   3.053   4.829   4.077
 9523SOL    HW229469   2.935   4.921   4.012
 9524SOL     OW29470   2.568   4.047   1.124
 9524SOL    HW129471   2.629   4.008   1.192
 9524SOL    HW229472   2.601   4.137   1.096
 9525SOL     OW29473   1.948   3.352   4.978
 9525SOL    HW129474   1.972   3.255   4.970
 9525SOL    HW229475   2.022   3.408   4.940
 9526SOL     OW29476   5.101   5.184   6.894
 9526SOL    HW129477   5.001   5.181   6.885
 9526SOL    HW229478   5.140   5.099   6.859
 9527SOL     OW29479   4.145   0.366   3.149
 9527SOL    HW129480   4.097   0.279   3.143
 9527SOL    HW229481   4.081   0.438   3.176
 9528SOL     OW29482   5.445   2.340   1.001
 9528SOL    HW129483   5.528   2.285   0.989
 9528SOL    HW229484   5.369   2.280   1.028
 9529SOL     OW29485   6.359   1.043   1.379
 9529SOL    HW129486   6.437   1.105   1.375
 9529SOL    HW229487   6.330   1.032   1.474
 9530SOL     OW29488   0.969   5.424   3.903
 9530SOL    HW129489   0.942   5.337   3.862
 9530SOL    HW229490   1.067   5.422   3.926
 9531SOL     OW29491   3.523   5.261   2.728
 9531SOL    HW129492   3.424   5.263   2.713
 9531SOL    HW229493   3.543   5.227   2.819
 9532SOL     OW29494   6.426   5.408   3.076
 9532SOL    HW129495   6.451   5.313   3.094
 9532SOL    HW229496   6.509   5.464   3.072
 9533SOL     OW29497   2.158   3.943   3.183
 9533SOL    HW129498   2.200   3.982   3.102
 9533SOL    HW229499   2.072   3.898   3.158
 9534SOL     OW29500   5.304   4.719   4.511
 9534SOL    HW129501   5.293   4.808   4.467
 9534SOL    HW229502   5.215   4.673   4.517
 9535SOL     OW29503   0.983   1.197   5.560
 9535SOL    HW129504   1.051   1.221   5.628
 9535SOL    HW229505   1.028   1.174   5.474
 9536SOL     OW29506   3.623   3.992   5.075
 9536SOL    HW129507   3.653   3.955   5.163
 9536SOL    HW229508   3.546   3.938   5.040
 9537SOL     OW29509   0.775   1.214   3.331
 9537SOL    HW129510   0.743   1.260   3.413
 9537SOL    HW229511   0.869   1.242   3.312
 9538SOL     OW29512   4.351   0.743   5.435
 9538SOL    HW129513   4.420   0.814   5.425
 9538SOL    HW229514   4.301   0.757   5.521
 9539SOL     OW29515   3.369   3.497   2.436
 9539SOL    HW129516   3.282   3.547   2.444
 9539SOL    HW229517   3.383   3.470   2.341
 9540SOL     OW29518   4.713   4.612   3.698
 9540SOL    HW129519   4.753   4.594   3.608
 9540SOL    HW229520   4.659   4.533   3.727
 9541SOL     OW29521   1.835   5.510   5.179
 9541SOL    HW129522   1.898   5.432   5.184
 9541SOL    HW229523   1.776   5.510   5.260
 9542SOL     OW29524   6.066   4.183   4.497
 9542SOL    HW129525   6.028   4.118   4.431
 9542SOL    HW229526   6.133   4.241   4.453
 9543SOL     OW29527   2.677   0.116   5.592
 9543SOL    HW129528   2.714   0.121   5.685
 9543SOL    HW229529   2.655   0.021   5.571
 9544SOL     OW29530   5.632   3.684   4.109
 9544SOL    HW129531   5.641   3.658   4.013
 9544SOL    HW229532   5.705   3.640   4.162
 9545SOL     OW29533   1.328   4.287   1.330
 9545SOL    HW129534   1.317   4.200   1.379
 9545SOL    HW229535   1.276   4.283   1.244
 9546SOL     OW29536   2.448   2.495   6.665
 9546SOL    HW129537   2.399   2.566   6.614
 9546SOL    HW229538   2.436   2.407   6.619
 9547SOL     OW29539   4.276   6.236   4.227
 9547SOL    HW129540   4.216   6.263   4.302
 9547SOL    HW229541   4.298   6.315   4.170
 9548SOL     OW29542   1.012   4.744   0.120
 9548SOL    HW129543   0.914   4.743   0.098
 9548SOL    HW229544   1.058   4.813   0.065
 9549SOL     OW29545   5.071   3.208   0.848
 9549SOL    HW129546   5.129   3.259   0.784
 9549SOL    HW229547   4.979   3.248   0.847
 9550SOL     OW29548   5.676   3.252   1.363
 9550SOL    HW129549   5.765   3.217   1.392
 9550SOL    HW229550   5.640   3.315   1.432
 9551SOL     OW29551   6.338   2.989   6.659
 9551SOL    HW129552   6.336   2.971   6.561
 9551SOL    HW229553   6.408   2.932   6.702
 9552SOL     OW29554   3.050   2.145   6.855
 9552SOL    HW129555   2.959   2.111   6.835
 9552SOL    HW229556   3.067   2.140   6.953
 9553SOL     OW29557   5.438   1.583   6.666
 9553SOL    HW129558   5.403   1.661   6.718
 9553SOL    HW229559   5.530   1.561   6.696
 9554SOL     OW29560   2.389   6.540   3.559
 9554SOL    HW129561   2.360   6.621   3.609
 9554SOL    HW229562   2.449   6.485   3.617
 9555SOL     OW29563   6.242   0.816   3.738
 9555SOL    HW129564   6.241   0.771   3.649
 9555SOL    HW229565   6.281   0.754   3.806
 9556SOL     OW29566   1.957   4.654   0.158
 9556SOL    HW129567   1.990   4.560   0.158
 9556SOL    HW229568   1.971   4.695   0.068
 9557SOL     OW29569   4.733   0.576   1.447
 9557SOL    HW129570   4.640   0.562   1.415
 9557SOL    HW229571   4.776   0.649   1.393
 9558SOL     OW29572   5.042   6.393   6.719
 9558SOL    HW129573   5.039   6.326   6.645
 9558SOL    HW229574   5.135   6.397   6.756
 9559SOL     OW29575   1.478   4.290   0.307
 9559SOL    HW129576   1.551   4.337   0.257
 9559SOL    HW229577   1.456   4.204   0.261
 9560SOL     OW29578   3.615   0.038   2.063
 9560SOL    HW129579   3.526   0.083   2.068
 9560SOL    HW229580   3.682   0.088   2.118
 9561SOL     OW29581   0.869   1.029   0.522
 9561SOL    HW129582   0.885   1.068   0.613
 9561SOL    HW229583   0.781   0.980   0.522
 9562SOL     OW29584   3.178   5.595   3.304
 9562SOL    HW129585   3.109   5.567   3.370
 9562SOL    HW229586   3.140   5.591   3.211
 9563SOL     OW29587   0.844   6.060   1.139
 9563SOL    HW129588   0.856   6.086   1.043
 9563SOL    HW229589   0.753   6.022   1.153
 9564SOL     OW29590   1.001   0.585   6.980
 9564SOL    HW129591   0.928   0.563   6.915
 9564SOL    HW229592   1.020   0.683   6.977
 9565SOL     OW29593   2.969   1.558   3.677
 9565SOL    HW129594   2.950   1.652   3.647
 9565SOL    HW229595   3.049   1.523   3.628
 9566SOL     OW29596   2.791   0.430   0.310
 9566SOL    HW129597   2.727   0.499   0.278
 9566SOL    HW229598   2.742   0.361   0.364
 9567SOL     OW29599   6.637   3.944   1.116
 9567SOL    HW129600   6.558   3.993   1.079
 9567SOL    HW229601   6.721   3.977   1.072
 9568SOL     OW29602   4.910   1.254   6.921
 9568SOL    HW129603   4.912   1.318   6.998
 9568SOL    HW229604   4.928   1.161   6.954
 9569SOL     OW29605   5.488   1.107   2.275
 9569SOL    HW129606   5.489   1.165   2.194
 9569SOL    HW229607   5.579   1.107   2.317
 9570SOL     OW29608   0.340   2.914   1.342
 9570SOL    HW129609   0.245   2.885   1.356
 9570SOL    HW229610   0.344   3.013   1.336
 9571SOL     OW29611   2.984   1.779   6.788
 9571SOL    HW129612   2.890   1.814   6.785
 9571SOL    HW229613   3.040   1.832   6.724
 9572SOL     OW29614   2.245   4.097   3.907
 9572SOL    HW129615   2.265   3.999   3.912
 9572SOL    HW229616   2.246   4.136   3.999
 9573SOL     OW29617   6.169   1.239   4.575
 9573SOL    HW129618   6.192   1.142   4.580
 9573SOL    HW229619   6.237   1.287   4.520
 9574SOL     OW29620   3.196   3.308   1.335
 9574SOL    HW129621   3.276   3.257   1.367
 9574SOL    HW229622   3.225   3.399   1.306
 9575SOL     OW29623   6.445   6.707   1.484
 9575SOL    HW129624   6.456   6.645   1.407
 9575SOL    HW229625   6.351   6.740   1.487
 9576SOL     OW29626   0.951   6.670   6.996
 9576SOL    HW129627   1.021   6.606   0.007
 9576SOL    HW229628   0.890   6.692   0.053
 9577SOL     OW29629   6.268   5.130   2.149
 9577SOL    HW129630   6.266   5.200   2.078
 9577SOL    HW229631   6.265   5.173   2.239
 9578SOL     OW29632   1.888   2.572   3.125
 9578SOL    HW129633   1.830   2.647   3.156
 9578SOL    HW229634   1.979   2.606   3.101
 9579SOL     OW29635   5.756   6.110   2.068
 9579SOL    HW129636   5.703   6.188   2.100
 9579SOL    HW229637   5.841   6.104   2.120
 9580SOL     OW29638   4.960   4.855   2.817
 9580SOL    HW129639   5.049   4.848   2.863
 9580SOL    HW229640   4.976   4.870   2.719
 9581SOL     OW29641   6.233   1.497   0.028
 9581SOL    HW129642   6.300   1.525   0.098
 9581SOL    HW229643   6.150   1.550   0.038
 9582SOL     OW29644   4.988   5.996   4.152
 9582SOL    HW129645   4.899   6.037   4.131
 9582SOL    HW229646   5.057   6.035   4.092
 9583SOL     OW29647   3.376   4.500   1.655
 9583SOL    HW129648   3.449   4.536   1.713
 9583SOL    HW229649   3.309   4.572   1.637
 9584SOL     OW29650   2.239   5.065   4.539
 9584SOL    HW129651   2.325   5.015   4.535
 9584SOL    HW229652   2.248   5.143   4.601
 9585SOL     OW29653   4.232   5.634   1.874
 9585SOL    HW129654   4.326   5.668   1.874
 9585SOL    HW229655   4.169   5.708   1.895
 9586SOL     OW29656   4.732   4.880   2.237
 9586SOL    HW129657   4.648   4.859   2.188
 9586SOL    HW229658   4.810   4.844   2.185
 9587SOL     OW29659   2.642   6.193   1.686
 9587SOL    HW129660   2.647   6.288   1.716
 9587SOL    HW229661   2.706   6.138   1.740
 9588SOL     OW29662   6.460   5.566   0.578
 9588SOL    HW129663   6.366   5.591   0.551
 9588SOL    HW229664   6.517   5.555   0.497
 9589SOL     OW29665   1.959   3.685   6.214
 9589SOL    HW129666   2.040   3.641   6.251
 9589SOL    HW229667   1.985   3.772   6.172
 9590SOL     OW29668   5.343   1.740   2.279
 9590SOL    HW129669   5.247   1.719   2.296
 9590SOL    HW229670   5.399   1.657   2.289
 9591SOL     OW29671   3.620   0.331   6.338
 9591SOL    HW129672   3.646   0.238   6.315
 9591SOL    HW229673   3.524   0.346   6.316
 9592SOL     OW29674   2.181   5.138   6.028
 9592SOL    HW129675   2.167   5.194   5.946
 9592SOL    HW229676   2.268   5.089   6.020
 9593SOL     OW29677   1.792   1.760   4.733
 9593SOL    HW129678   1.818   1.816   4.654
 9593SOL    HW229679   1.866   1.761   4.800
 9594SOL     OW29680   0.473   6.184   4.199
 9594SOL    HW129681   0.510   6.189   4.107
 9594SOL    HW229682   0.537   6.225   4.264
 9595SOL     OW29683   0.163   3.509   3.871
 9595SOL    HW129684   0.100   3.452   3.923
 9595SOL    HW229685   0.249   3.519   3.921
 9596SOL     OW29686   0.573   6.510   0.660
 9596SOL    HW129687   0.534   6.547   0.575
 9596SOL    HW229688   0.499   6.488   0.723
 9597SOL     OW29689   0.609   3.928   2.540
 9597SOL    HW129690   0.563   3.920   2.452
 9597SOL    HW229691   0.595   3.844   2.593
 9598SOL     OW29692   1.064   3.969   3.090
 9598SOL    HW129693   1.065   4.017   3.177
 9598SOL    HW229694   0.978   3.919   3.080
 9599SOL     OW29695   3.528   6.941   3.761
 9599SOL    HW129696   3.589   6.976   3.832
 9599SOL    HW229697   3.534   6.842   3.757
 9600SOL     OW29698   3.167   0.692   1.379
 9600SOL    HW129699   3.097   0.649   1.436
 9600SOL    HW229700   3.251   0.704   1.432
 9601SOL     OW29701   6.580   4.257   1.610
 9601SOL    HW129702   6.643   4.245   1.687
 9601SOL    HW229703   6.509   4.187   1.614
 9602SOL     OW29704   4.677   4.216   5.764
 9602SOL    HW129705   4.636   4.129   5.792
 9602SOL    HW229706   4.663   4.284   5.835
 9603SOL     OW29707   5.796   5.707   5.261
 9603SOL    HW129708   5.816   5.804   5.251
 9603SOL    HW229709   5.816   5.677   5.354
 9604SOL     OW29710   5.116   6.844   0.697
 9604SOL    HW129711   5.024   6.808   0.679
 9604SOL    HW229712   5.178   6.769   0.716
 9605SOL     OW29713   6.531   6.416   3.399
 9605SOL    HW129714   6.526   6.461   3.488
 9605SOL    HW229715   6.588   6.334   3.406
 9606SOL     OW29716   1.736   1.750   6.601
 9606SOL    HW129717   1.792   1.677   6.641
 9606SOL    HW229718   1.683   1.794   6.672
 9607SOL     OW29719   3.103   2.999   6.138
 9607SOL    HW129720   3.032   3.067   6.153
 9607SOL    HW229721   3.135   2.964   6.226
 9608SOL     OW29722   6.449   3.833   3.369
 9608SOL    HW129723   6.363   3.868   3.404
 9608SOL    HW229724   6.450   3.838   3.270
 9609SOL     OW29725   4.031   2.435   6.128
 9609SOL    HW129726   3.964   2.399   6.063
 9609SOL    HW229727   4.123   2.412   6.096
 9610SOL     OW29728   1.382   4.185   2.584
 9610SOL    HW129729   1.371   4.128   2.502
 9610SOL    HW229730   1.469   4.164   2.628
 9611SOL     OW29731   1.231   0.589   0.493
 9611SOL    HW129732   1.277   0.676   0.512
 9611SOL    HW229733   1.283   0.539   0.424
 9612SOL     OW29734   0.682   3.074   2.794
 9612SOL    HW129735   0.712   2.996   2.849
 9612SOL    HW229736   0.615   3.127   2.846
 9613SOL     OW29737   5.845   5.391   3.215
 9613SOL    HW129738   5.935   5.410   3.254
 9613SOL    HW229739   5.828   5.292   3.216
 9614SOL     OW29740   5.392   1.977   2.921
 9614SOL    HW129741   5.489   1.959   2.936
 9614SOL    HW229742   5.344   1.978   3.009
 9615SOL     OW29743   2.439   2.804   1.229
 9615SOL    HW129744   2.490   2.776   1.148
 9615SOL    HW229745   2.503   2.842   1.296
 9616SOL     OW29746   3.304   2.744   6.780
 9616SOL    HW129747   3.321   2.831   6.733
 9616SOL    HW229748   3.237   2.758   6.852
 9617SOL     OW29749   2.475   2.577   3.999
 9617SOL    HW129750   2.540   2.579   4.075
 9617SOL    HW229751   2.451   2.670   3.973
 9618SOL     OW29752   3.013   1.126   0.854
 9618SOL    HW129753   3.040   1.030   0.863
 9618SOL    HW229754   2.960   1.137   0.770
 9619SOL     OW29755   2.548   1.253   4.937
 9619SOL    HW129756   2.601   1.171   4.918
 9619SOL    HW229757   2.451   1.236   4.918
 9620SOL     OW29758   5.868   0.099   5.473
 9620SOL    HW129759   5.795   0.149   5.519
 9620SOL    HW229760   5.828   0.022   5.422
 9621SOL     OW29761   1.742   2.454   2.913
 9621SOL    HW129762   1.799   2.498   2.982
 9621SOL    HW229763   1.646   2.457   2.942
 9622SOL     OW29764   5.773   0.611   1.299
 9622SOL    HW129765   5.828   0.693   1.285
 9622SOL    HW229766   5.829   0.530   1.283
 9623SOL     OW29767   3.462   3.498   6.492
 9623SOL    HW129768   3.519   3.441   6.432
 9623SOL    HW229769   3.368   3.497   6.459
 9624SOL     OW29770   6.085   3.207   3.417
 9624SOL    HW129771   6.122   3.114   3.419
 9624SOL    HW229772   5.989   3.204   3.389
 9625SOL     OW29773   6.387   6.049   0.134
 9625SOL    HW129774   6.472   6.021   0.180
 9625SOL    HW229775   6.396   6.142   0.100
 9626SOL     OW29776   3.769   6.136   6.736
 9626SOL    HW129777   3.738   6.163   6.645
 9626SOL    HW229778   3.765   6.036   6.745
 9627SOL     OW29779   1.211   6.430   6.577
 9627SOL    HW129780   1.170   6.339   6.579
 9627SOL    HW229781   1.196   6.475   6.665
 9628SOL     OW29782   4.315   5.963   1.449
 9628SOL    HW129783   4.364   6.011   1.376
 9628SOL    HW229784   4.218   5.957   1.426
 9629SOL     OW29785   2.749   6.528   1.286
 9629SOL    HW129786   2.835   6.521   1.237
 9629SOL    HW229787   2.766   6.556   1.380
 9630SOL     OW29788   6.210   0.958   5.865
 9630SOL    HW129789   6.214   0.966   5.964
 9630SOL    HW229790   6.251   0.871   5.836
 9631SOL     OW29791   6.142   6.152   6.732
 9631SOL    HW129792   6.094   6.120   6.814
 9631SOL    HW229793   6.163   6.249   6.742
 9632SOL     OW29794   1.614   6.471   1.634
 9632SOL    HW129795   1.553   6.525   1.576
 9632SOL    HW229796   1.591   6.485   1.730
 9633SOL     OW29797   6.807   5.299   6.314
 9633SOL    HW129798   6.719   5.327   6.276
 9633SOL    HW229799   6.861   5.254   6.243
 9634SOL     OW29800   1.352   6.470   4.551
 9634SOL    HW129801   1.337   6.498   4.456
 9634SOL    HW229802   1.399   6.544   4.600
 9635SOL     OW29803   2.218   5.389   5.239
 9635SOL    HW129804   2.267   5.476   5.246
 9635SOL    HW229805   2.235   5.335   5.322
 9636SOL     OW29806   4.190   0.930   5.690
 9636SOL    HW129807   4.095   0.941   5.663
 9636SOL    HW229808   4.222   1.013   5.737
 9637SOL     OW29809   2.040   1.569   6.428
 9637SOL    HW129810   2.069   1.546   6.521
 9637SOL    HW229811   2.097   1.520   6.362
 9638SOL     OW29812   6.379   1.991   5.285
 9638SOL    HW129813   6.321   1.914   5.308
 9638SOL    HW229814   6.410   1.983   5.190
 9639SOL     OW29815   4.359   1.240   2.461
 9639SOL    HW129816   4.450   1.201   2.449
 9639SOL    HW229817   4.368   1.331   2.502
 9640SOL     OW29818   2.259   1.986   2.682
 9640SOL    HW129819   2.184   1.972   2.617
 9640SOL    HW229820   2.281   2.083   2.687
 9641SOL     OW29821   6.322   5.796   0.028
 9641SOL    HW129822   6.337   5.821   6.951
 9641SOL    HW229823   6.334   5.877   0.085
 9642SOL     OW29824   3.248   0.311   4.510
 9642SOL    HW129825   3.317   0.252   4.552
 9642SOL    HW229826   3.259   0.310   4.411
 9643SOL     OW29827   4.649   4.375   3.802
 9643SOL    HW129828   4.593   4.371   3.884
 9643SOL    HW229829   4.740   4.411   3.825
 9644SOL     OW29830   1.882   2.226   5.920
 9644SOL    HW129831   1.783   2.228   5.904
 9644SOL    HW229832   1.904   2.149   5.981
 9645SOL     OW29833   3.084   5.199   4.933
 9645SOL    HW129834   3.063   5.104   4.907
 9645SOL    HW229835   3.000   5.245   4.962
 9646SOL     OW29836   4.077   4.745   2.776
 9646SOL    HW129837   3.999   4.771   2.720
 9646SOL    HW229838   4.148   4.704   2.719
 9647SOL     OW29839   6.512   2.969   0.529
 9647SOL    HW129840   6.446   2.991   0.457
 9647SOL    HW229841   6.472   2.904   0.593
 9648SOL     OW29842   4.782   2.894   0.939
 9648SOL    HW129843   4.834   2.934   1.014
 9648SOL    HW229844   4.833   2.906   0.853
 9649SOL     OW29845   2.058   6.242   0.759
 9649SOL    HW129846   2.088   6.331   0.724
 9649SOL    HW229847   2.068   6.239   0.858
 9650SOL     OW29848   6.855   6.422   1.952
 9650SOL    HW129849   6.953   6.431   1.935
 9650SOL    HW229850   6.836   6.443   2.048
 9651SOL     OW29851   0.453   1.421   5.974
 9651SOL    HW129852   0.402   1.459   6.051
 9651SOL    HW229853   0.497   1.495   5.923
 9652SOL     OW29854   0.504   5.727   2.895
 9652SOL    HW129855   0.465   5.658   2.957
 9652SOL    HW229856   0.598   5.745   2.922
 9653SOL     OW29857   5.949   5.363   4.614
 9653SOL    HW129858   5.983   5.323   4.699
 9653SOL    HW229859   5.878   5.304   4.575
 9654SOL     OW29860   2.322   2.565   2.139
 9654SOL    HW129861   2.339   2.487   2.200
 9654SOL    HW229862   2.362   2.546   2.049
 9655SOL     OW29863   6.512   2.555   6.873
 9655SOL    HW129864   6.561   2.496   6.809
 9655SOL    HW229865   6.436   2.504   6.913
 9656SOL     OW29866   3.806   0.473   2.691
 9656SOL    HW129867   3.808   0.410   2.769
 9656SOL    HW229868   3.786   0.565   2.724
 9657SOL     OW29869   6.960   0.164   4.435
 9657SOL    HW129870   7.008   0.078   4.419
 9657SOL    HW229871   6.897   0.153   4.511
 9658SOL     OW29872   6.555   2.561   2.528
 9658SOL    HW129873   6.611   2.504   2.588
 9658SOL    HW229874   6.476   2.509   2.496
 9659SOL     OW29875   0.358   4.620   0.007
 9659SOL    HW129876   0.398   4.561   0.077
 9659SOL    HW229877   0.292   4.568   6.972
 9660SOL     OW29878   0.565   5.387   0.057
 9660SOL    HW129879   0.571   5.342   6.987
 9660SOL    HW229880   0.495   5.341   0.112
 9661SOL     OW29881   4.202   6.768   1.352
 9661SOL    HW129882   4.184   6.790   1.256
 9661SOL    HW229883   4.116   6.745   1.398
 9662SOL     OW29884   6.114   0.692   4.628
 9662SOL    HW129885   6.154   0.604   4.651
 9662SOL    HW229886   6.058   0.724   4.705
 9663SOL     OW29887   2.301   5.328   2.398
 9663SOL    HW129888   2.225   5.340   2.334
 9663SOL    HW229889   2.367   5.264   2.359
 9664SOL     OW29890   3.054   6.658   2.076
 9664SOL    HW129891   3.006   6.580   2.115
 9664SOL    HW229892   3.146   6.630   2.047
 9665SOL     OW29893   5.556   4.112   4.487
 9665SOL    HW129894   5.556   4.027   4.538
 9665SOL    HW229895   5.466   4.154   4.492
 9666SOL     OW29896   5.492   4.541   4.362
 9666SOL    HW129897   5.438   4.592   4.429
 9666SOL    HW229898   5.584   4.525   4.399
 9667SOL     OW29899   4.085   3.365   4.042
 9667SOL    HW129900   4.045   3.364   3.950
 9667SOL    HW229901   4.079   3.457   4.079
 9668SOL     OW29902   0.581   0.778   5.492
 9668SOL    HW129903   0.578   0.724   5.576
 9668SOL    HW229904   0.589   0.875   5.515
 9669SOL     OW29905   1.714   5.863   0.523
 9669SOL    HW129906   1.783   5.919   0.568
 9669SOL    HW229907   1.641   5.842   0.588
 9670SOL     OW29908   5.451   5.170   0.239
 9670SOL    HW129909   5.395   5.210   0.312
 9670SOL    HW229910   5.410   5.083   0.210
 9671SOL     OW29911   6.839   6.428   6.249
 9671SOL    HW129912   6.824   6.340   6.205
 9671SOL    HW229913   6.936   6.453   6.243
 9672SOL     OW29914   0.488   6.520   4.838
 9672SOL    HW129915   0.402   6.476   4.866
 9672SOL    HW229916   0.467   6.593   4.773
 9673SOL     OW29917   2.806   3.340   6.472
 9673SOL    HW129918   2.770   3.257   6.516
 9673SOL    HW229919   2.906   3.339   6.476
 9674SOL     OW29920   3.240   6.645   2.587
 9674SOL    HW129921   3.322   6.588   2.596
 9674SOL    HW229922   3.235   6.683   2.494
 9675SOL     OW29923   6.695   2.602   2.272
 9675SOL    HW129924   6.666   2.610   2.368
 9675SOL    HW229925   6.693   2.506   2.245
 9676SOL     OW29926   0.194   3.254   4.428
 9676SOL    HW129927   0.228   3.343   4.456
 9676SOL    HW229928   0.270   3.188   4.424
 9677SOL     OW29929   1.946   3.559   5.545
 9677SOL    HW129930   1.892   3.601   5.472
 9677SOL    HW229931   2.014   3.497   5.506
 9678SOL     OW29932   3.251   3.807   3.231
 9678SOL    HW129933   3.266   3.746   3.308
 9678SOL    HW229934   3.302   3.774   3.151
 9679SOL     OW29935   1.133   3.441   2.031
 9679SOL    HW129936   1.199   3.507   2.067
 9679SOL    HW229937   1.066   3.419   2.102
 9680SOL     OW29938   5.951   5.600   3.494
 9680SOL    HW129939   6.019   5.673   3.505
 9680SOL    HW229940   5.983   5.535   3.425
 9681SOL     OW29941   1.929   0.666   2.700
 9681SOL    HW129942   1.868   0.631   2.770
 9681SOL    HW229943   1.920   0.612   2.617
 9682SOL     OW29944   6.012   4.133   3.070
 9682SOL    HW129945   5.918   4.102   3.058
 9682SOL    HW229946   6.052   4.151   2.980
 9683SOL     OW29947   4.786   5.889   7.004
 9683SOL    HW129948   4.779   5.868   6.906
 9683SOL    HW229949   4.817   5.984   7.015
 9684SOL     OW29950   1.681   3.669   4.041
 9684SOL    HW129951   1.583   3.689   4.043
 9684SOL    HW229952   1.695   3.574   4.010
 9685SOL     OW29953   2.046   2.384   7.000
 9685SOL    HW129954   2.051   2.444   0.060
 9685SOL    HW229955   1.978   2.420   6.936
 9686SOL     OW29956   5.990   1.159   1.691
 9686SOL    HW129957   5.924   1.162   1.616
 9686SOL    HW229958   5.943   1.176   1.777
 9687SOL     OW29959   3.446   0.293   3.793
 9687SOL    HW129960   3.403   0.220   3.846
 9687SOL    HW229961   3.495   0.254   3.715
 9688SOL     OW29962   0.340   1.637   3.226
 9688SOL    HW129963   0.297   1.671   3.143
 9688SOL    HW229964   0.419   1.695   3.249
 9689SOL     OW29965   2.167   5.859   6.134
 9689SOL    HW129966   2.171   5.887   6.230
 9689SOL    HW229967   2.106   5.780   6.125
 9690SOL     OW29968   6.237   4.356   1.230
 9690SOL    HW129969   6.227   4.328   1.325
 9690SOL    HW229970   6.222   4.278   1.170
 9691SOL     OW29971   1.717   4.191   1.611
 9691SOL    HW129972   1.759   4.228   1.694
 9691SOL    HW229973   1.712   4.091   1.619
 9692SOL     OW29974   2.704   5.730   1.425
 9692SOL    HW129975   2.740   5.642   1.393
 9692SOL    HW229976   2.764   5.765   1.497
 9693SOL     OW29977   6.267   5.845   1.713
 9693SOL    HW129978   6.255   5.752   1.747
 9693SOL    HW229979   6.256   5.910   1.788
 9694SOL     OW29980   2.135   2.110   6.982
 9694SOL    HW129981   2.139   2.087   6.885
 9694SOL    HW229982   2.095   2.200   6.994
 9695SOL     OW29983   6.077   4.109   1.415
 9695SOL    HW129984   6.078   4.106   1.315
 9695SOL    HW229985   6.105   4.200   1.446
 9696SOL     OW29986   4.170   3.100   1.087
 9696SOL    HW129987   4.147   3.107   0.990
 9696SOL    HW229988   4.197   3.190   1.121
 9697SOL     OW29989   0.850   5.882   0.416
 9697SOL    HW129990   0.847   5.891   0.316
 9697SOL    HW229991   0.827   5.970   0.457
 9698SOL     OW29992   6.018   1.949   5.036
 9698SOL    HW129993   6.002   1.998   4.951
 9698SOL    HW229994   6.031   2.014   5.111
 9699SOL     OW29995   1.594   3.207   0.032
 9699SOL    HW129996   1.661   3.132   0.037
 9699SOL    HW229997   1.582   3.246   0.123
 9700SOL     OW29998   3.337   4.210   4.661
 9700SOL    HW129999   3.347   4.306   4.684
 9700SOL    HW230000   3.425   4.164   4.673
 9701SOL     OW30001   5.765   4.555   4.998
 9701SOL    HW130002   5.665   4.562   4.991
 9701SOL    HW230003   5.789   4.480   5.059
 9702SOL     OW30004   4.452   0.877   1.012
 9702SOL    HW130005   4.458   0.971   1.047
 9702SOL    HW230006   4.415   0.878   0.919
 9703SOL     OW30007   2.855   6.493   3.668
 9703SOL    HW130008   2.847   6.560   3.595
 9703SOL    HW230009   2.930   6.430   3.646
 9704SOL     OW30010   3.040   0.621   3.565
 9704SOL    HW130011   3.026   0.660   3.474
 9704SOL    HW230012   3.059   0.523   3.556
 9705SOL     OW30013   3.537   3.828   0.658
 9705SOL    HW130014   3.477   3.868   0.589
 9705SOL    HW230015   3.632   3.854   0.639
 9706SOL     OW30016   5.549   3.002   2.703
 9706SOL    HW130017   5.604   3.012   2.620
 9706SOL    HW230018   5.455   3.032   2.684
 9707SOL     OW30019   2.385   5.288   2.643
 9707SOL    HW130020   2.382   5.375   2.693
 9707SOL    HW230021   2.332   5.295   2.559
 9708SOL     OW30022   2.686   1.895   2.738
 9708SOL    HW130023   2.761   1.917   2.800
 9708SOL    HW230024   2.723   1.860   2.652
 9709SOL     OW30025   1.720   5.332   2.597
 9709SOL    HW130026   1.687   5.238   2.589
 9709SOL    HW230027   1.724   5.358   2.694
 9710SOL     OW30028   0.239   0.702   3.150
 9710SOL    HW130029   0.327   0.676   3.189
 9710SOL    HW230030   0.216   0.641   3.074
 9711SOL     OW30031   0.825   4.119   5.352
 9711SOL    HW130032   0.826   4.196   5.288
 9711SOL    HW230033   0.909   4.120   5.407
 9712SOL     OW30034   4.735   2.116   4.057
 9712SOL    HW130035   4.639   2.090   4.067
 9712SOL    HW230036   4.755   2.131   3.960
 9713SOL     OW30037   6.823   5.183   2.683
 9713SOL    HW130038   6.854   5.128   2.760
 9713SOL    HW230039   6.897   5.193   2.617
 9714SOL     OW30040   1.679   2.323   1.597
 9714SOL    HW130041   1.609   2.388   1.565
 9714SOL    HW230042   1.636   2.234   1.613
 9715SOL     OW30043   4.723   5.506   5.253
 9715SOL    HW130044   4.819   5.525   5.231
 9715SOL    HW230045   4.717   5.473   5.347
 9716SOL     OW30046   4.092   2.049   6.410
 9716SOL    HW130047   4.065   2.046   6.314
 9716SOL    HW230048   4.122   1.958   6.439
 9717SOL     OW30049   5.732   5.005   3.699
 9717SOL    HW130050   5.787   5.010   3.782
 9717SOL    HW230051   5.778   5.056   3.626
 9718SOL     OW30052   4.786   3.086   1.452
 9718SOL    HW130053   4.751   2.996   1.476
 9718SOL    HW230054   4.852   3.078   1.377
 9719SOL     OW30055   0.312   1.439   0.160
 9719SOL    HW130056   0.400   1.419   0.117
 9719SOL    HW230057   0.325   1.503   0.236
 9720SOL     OW30058   6.923   0.102   1.957
 9720SOL    HW130059   6.873   0.070   2.037
 9720SOL    HW230060   7.019   0.116   1.981
 9721SOL     OW30061   6.817   3.764   2.517
 9721SOL    HW130062   6.779   3.781   2.426
 9721SOL    HW230063   6.745   3.773   2.586
 9722SOL     OW30064   0.968   6.999   4.043
 9722SOL    HW130065   0.896   6.935   4.068
 9722SOL    HW230066   1.056   6.952   4.042
 9723SOL     OW30067   0.178   1.046   3.730
 9723SOL    HW130068   0.148   1.113   3.662
 9723SOL    HW230069   0.210   1.094   3.812
 9724SOL     OW30070   3.711   2.683   1.421
 9724SOL    HW130071   3.706   2.776   1.459
 9724SOL    HW230072   3.710   2.616   1.496
 9725SOL     OW30073   4.226   3.398   5.475
 9725SOL    HW130074   4.278   3.343   5.540
 9725SOL    HW230075   4.289   3.445   5.414
 9726SOL     OW30076   5.499   6.721   4.923
 9726SOL    HW130077   5.450   6.770   4.995
 9726SOL    HW230078   5.463   6.629   4.914
 9727SOL     OW30079   1.540   2.273   5.566
 9727SOL    HW130080   1.457   2.287   5.512
 9727SOL    HW230081   1.585   2.362   5.581
 9728SOL     OW30082   3.126   5.037   6.937
 9728SOL    HW130083   3.152   4.979   7.014
 9728SOL    HW230084   3.194   5.110   6.926
 9729SOL     OW30085   2.870   5.061   2.474
 9729SOL    HW130086   2.862   5.114   2.390
 9729SOL    HW230087   2.896   4.967   2.452
 9730SOL     OW30088   6.744   3.645   3.201
 9730SOL    HW130089   6.748   3.581   3.278
 9730SOL    HW230090   6.749   3.739   3.235
 9731SOL     OW30091   4.552   5.218   0.879
 9731SOL    HW130092   4.621   5.149   0.855
 9731SOL    HW230093   4.538   5.279   0.801
 9732SOL     OW30094   6.403   6.429   2.603
 9732SOL    HW130095   6.385   6.429   2.505
 9732SOL    HW230096   6.316   6.419   2.652
 9733SOL     OW30097   5.524   4.478   6.438
 9733SOL    HW130098   5.432   4.508   6.462
 9733SOL    HW230099   5.533   4.380   6.459
 9734SOL     OW30100   5.281   2.393   4.595
 9734SOL    HW130101   5.308   2.301   4.566
 9734SOL    HW230102   5.359   2.455   4.587
 9735SOL     OW30103   1.494   4.399   1.071
 9735SOL    HW130104   1.564   4.384   1.140
 9735SOL    HW230105   1.536   4.403   0.980
 9736SOL     OW30106   3.423   1.486   0.651
 9736SOL    HW130107   3.387   1.578   0.668
 9736SOL    HW230108   3.453   1.445   0.737
 9737SOL     OW30109   4.070   2.201   5.092
 9737SOL    HW130110   4.043   2.210   5.188
 9737SOL    HW230111   4.113   2.286   5.061
 9738SOL     OW30112   1.695   0.320   2.289
 9738SOL    HW130113   1.654   0.389   2.228
 9738SOL    HW230114   1.785   0.351   2.319
 9739SOL     OW30115   5.197   4.736   1.639
 9739SOL    HW130116   5.294   4.735   1.614
 9739SOL    HW230117   5.189   4.740   1.739
 9740SOL     OW30118   6.809   4.290   3.132
 9740SOL    HW130119   6.727   4.272   3.186
 9740SOL    HW230120   6.825   4.389   3.128
 9741SOL     OW30121   4.531   2.187   1.763
 9741SOL    HW130122   4.474   2.256   1.809
 9741SOL    HW230123   4.542   2.108   1.823
 9742SOL     OW30124   4.915   2.005   4.251
 9742SOL    HW130125   4.877   2.083   4.202
 9742SOL    HW230126   4.991   2.036   4.308
 9743SOL     OW30127   1.643   2.518   5.618
 9743SOL    HW130128   1.660   2.583   5.692
 9743SOL    HW230129   1.612   2.568   5.537
 9744SOL     OW30130   1.528   0.768   1.873
 9744SOL    HW130131   1.450   0.724   1.918
 9744SOL    HW230132   1.521   0.753   1.774
 9745SOL     OW30133   0.007   2.133   4.846
 9745SOL    HW130134   6.967   2.067   4.893
 9745SOL    HW230135   0.074   2.169   4.911
 9746SOL     OW30136   6.015   1.138   4.803
 9746SOL    HW130137   6.074   1.078   4.857
 9746SOL    HW230138   6.071   1.200   4.748
 9747SOL     OW30139   0.527   7.003   6.707
 9747SOL    HW130140   0.586   6.923   6.720
 9747SOL    HW230141   0.582   0.067   6.716
 9748SOL     OW30142   0.007   5.985   4.088
 9748SOL    HW130143   0.030   5.956   4.181
 9748SOL    HW230144   6.956   5.924   4.051
 9749SOL     OW30145   0.688   4.528   4.206
 9749SOL    HW130146   0.686   4.498   4.302
 9749SOL    HW230147   0.707   4.627   4.203
 9750SOL     OW30148   4.292   4.649   3.463
 9750SOL    HW130149   4.310   4.747   3.449
 9750SOL    HW230150   4.363   4.595   3.418
 9751SOL     OW30151   2.049   2.365   0.462
 9751SOL    HW130152   1.987   2.441   0.442
 9751SOL    HW230153   2.028   2.288   0.402
 9752SOL     OW30154   3.660   1.209   5.508
 9752SOL    HW130155   3.572   1.211   5.459
 9752SOL    HW230156   3.647   1.164   5.596
 9753SOL     OW30157   6.644   5.842   5.197
 9753SOL    HW130158   6.576   5.771   5.179
 9753SOL    HW230159   6.599   5.931   5.202
 9754SOL     OW30160   0.527   2.086   6.423
 9754SOL    HW130161   0.592   2.029   6.372
 9754SOL    HW230162   0.438   2.085   6.377
 9755SOL     OW30163   4.018   4.905   5.157
 9755SOL    HW130164   4.022   4.884   5.059
 9755SOL    HW230165   4.034   5.003   5.171
 9756SOL     OW30166   5.936   2.600   6.084
 9756SOL    HW130167   5.974   2.515   6.119
 9756SOL    HW230168   5.843   2.613   6.118
 9757SOL     OW30169   6.279   2.273   3.904
 9757SOL    HW130170   6.274   2.365   3.867
 9757SOL    HW230171   6.295   2.208   3.830
 9758SOL     OW30172   3.138   0.260   0.215
 9758SOL    HW130173   3.111   0.356   0.229
 9758SOL    HW230174   3.160   0.245   0.119
 9759SOL     OW30175   3.333   6.089   1.399
 9759SOL    HW130176   3.424   6.126   1.380
 9759SOL    HW230177   3.322   6.001   1.353
 9760SOL     OW30178   5.707   4.341   6.127
 9760SOL    HW130179   5.659   4.335   6.215
 9760SOL    HW230180   5.688   4.259   6.073
 9761SOL     OW30181   5.635   5.650   2.396
 9761SOL    HW130182   5.604   5.613   2.308
 9761SOL    HW230183   5.711   5.714   2.380
 9762SOL     OW30184   2.462   1.489   4.315
 9762SOL    HW130185   2.383   1.547   4.338
 9762SOL    HW230186   2.429   1.402   4.277
 9763SOL     OW30187   2.273   1.639   1.221
 9763SOL    HW130188   2.274   1.690   1.135
 9763SOL    HW230189   2.179   1.622   1.249
 9764SOL     OW30190   1.553   2.558   2.315
 9764SOL    HW130191   1.642   2.558   2.270
 9764SOL    HW230192   1.490   2.616   2.263
 9765SOL     OW30193   6.935   1.435   5.653
 9765SOL    HW130194   6.836   1.433   5.640
 9765SOL    HW230195   6.980   1.454   5.566
 9766SOL     OW30196   2.919   1.075   2.324
 9766SOL    HW130197   3.018   1.089   2.328
 9766SOL    HW230198   2.899   0.977   2.333
 9767SOL     OW30199   4.679   0.425   5.645
 9767SOL    HW130200   4.766   0.433   5.597
 9767SOL    HW230201   4.665   0.505   5.703
 9768SOL     OW30202   4.390   2.431   2.566
 9768SOL    HW130203   4.424   2.499   2.630
 9768SOL    HW230204   4.389   2.341   2.610
 9769SOL     OW30205   0.494   2.028   1.413
 9769SOL    HW130206   0.502   2.064   1.320
 9769SOL    HW230207   0.501   2.104   1.478
 9770SOL     OW30208   6.260   4.245   6.140
 9770SOL    HW130209   6.198   4.274   6.067
 9770SOL    HW230210   6.328   4.182   6.103
 9771SOL     OW30211   3.658   6.214   5.605
 9771SOL    HW130212   3.662   6.281   5.679
 9771SOL    HW230213   3.673   6.260   5.517
 9772SOL     OW30214   6.716   0.462   1.567
 9772SOL    HW130215   6.722   0.413   1.654
 9772SOL    HW230216   6.806   0.465   1.524
 9773SOL     OW30217   5.646   5.614   3.209
 9773SOL    HW130218   5.720   5.552   3.183
 9773SOL    HW230219   5.610   5.659   3.127
 9774SOL     OW30220   0.108   5.234   3.192
 9774SOL    HW130221   0.028   5.212   3.248
 9774SOL    HW230222   0.081   5.293   3.116
 9775SOL     OW30223   2.755   2.324   4.916
 9775SOL    HW130224   2.715   2.415   4.918
 9775SOL    HW230225   2.692   2.261   4.872
 9776SOL     OW30226   0.467   5.053   4.731
 9776SOL    HW130227   0.529   5.099   4.666
 9776SOL    HW230228   0.438   4.965   4.693
 9777SOL     OW30229   5.661   4.667   6.767
 9777SOL    HW130230   5.626   4.735   6.703
 9777SOL    HW230231   5.595   4.655   6.842
 9778SOL     OW30232   3.711   0.958   3.374
 9778SOL    HW130233   3.750   0.994   3.459
 9778SOL    HW230234   3.779   0.902   3.326
 9779SOL     OW30235   3.034   2.020   5.990
 9779SOL    HW130236   2.972   1.981   6.058
 9779SOL    HW230237   3.010   1.985   5.899
 9780SOL     OW30238   3.595   4.261   0.272
 9780SOL    HW130239   3.509   4.279   0.319
 9780SOL    HW230240   3.578   4.247   0.175
 9781SOL     OW30241   1.841   4.901   4.130
 9781SOL    HW130242   1.855   4.987   4.082
 9781SOL    HW230243   1.925   4.875   4.178
 9782SOL     OW30244   6.612   0.690   1.265
 9782SOL    HW130245   6.682   0.715   1.332
 9782SOL    HW230246   6.557   0.614   1.302
 9783SOL     OW30247   5.302   1.285   2.732
 9783SOL    HW130248   5.368   1.241   2.671
 9783SOL    HW230249   5.233   1.219   2.760
 9784SOL     OW30250   5.174   0.873   4.301
 9784SOL    HW130251   5.174   0.941   4.375
 9784SOL    HW230252   5.254   0.887   4.243
 9785SOL     OW30253   0.768   2.971   1.423
 9785SOL    HW130254   0.777   2.952   1.521
 9785SOL    HW230255   0.680   3.014   1.405
 9786SOL     OW30256   2.656   6.694   4.485
 9786SOL    HW130257   2.741   6.744   4.500
 9786SOL    HW230258   2.579   6.757   4.493
 9787SOL     OW30259   5.293   4.501   1.920
 9787SOL    HW130260   5.378   4.495   1.867
 9787SOL    HW230261   5.309   4.463   2.011
 9788SOL     OW30262   0.626   1.101   5.250
 9788SOL    HW130263   0.601   1.014   5.206
 9788SOL    HW230264   0.571   1.174   5.210
 9789SOL     OW30265   1.802   5.853   4.327
 9789SOL    HW130266   1.861   5.857   4.408
 9789SOL    HW230267   1.706   5.864   4.355
 9790SOL     OW30268   6.354   1.806   4.383
 9790SOL    HW130269   6.449   1.775   4.383
 9790SOL    HW230270   6.302   1.757   4.453
 9791SOL     OW30271   1.194   2.316   1.164
 9791SOL    HW130272   1.104   2.283   1.192
 9791SOL    HW230273   1.221   2.392   1.222
 9792SOL     OW30274   4.296   5.581   2.328
 9792SOL    HW130275   4.316   5.512   2.258
 9792SOL    HW230276   4.375   5.642   2.337
 9793SOL     OW30277   4.697   5.861   2.721
 9793SOL    HW130278   4.599   5.842   2.719
 9793SOL    HW230279   4.721   5.925   2.648
 9794SOL     OW30280   3.626   2.956   6.816
 9794SOL    HW130281   3.680   3.038   6.796
 9794SOL    HW230282   3.663   2.879   6.764
 9795SOL     OW30283   2.171   4.148   4.538
 9795SOL    HW130284   2.213   4.110   4.620
 9795SOL    HW230285   2.146   4.243   4.554
 9796SOL     OW30286   3.690   4.992   0.174
 9796SOL    HW130287   3.617   5.007   0.240
 9796SOL    HW230288   3.685   5.060   0.102
 9797SOL     OW30289   4.877   2.880   5.067
 9797SOL    HW130290   4.787   2.843   5.089
 9797SOL    HW230291   4.895   2.868   4.969
 9798SOL     OW30292   1.839   2.417   1.773
 9798SOL    HW130293   1.931   2.440   1.740
 9798SOL    HW230294   1.777   2.406   1.696
 9799SOL     OW30295   3.080   3.926   2.187
 9799SOL    HW130296   3.046   3.867   2.259
 9799SOL    HW230297   3.158   3.979   2.220
 9800SOL     OW30298   3.716   5.178   7.011
 9800SOL    HW130299   3.651   5.155   6.938
 9800SOL    HW230300   3.807   5.148   6.984
 9801SOL     OW30301   4.634   5.161   0.075
 9801SOL    HW130302   4.698   5.237   0.062
 9801SOL    HW230303   4.548   5.197   0.111
 9802SOL     OW30304   0.558   4.336   1.429
 9802SOL    HW130305   0.579   4.425   1.470
 9802SOL    HW230306   0.511   4.279   1.496
 9803SOL     OW30307   5.692   0.944   6.460
 9803SOL    HW130308   5.701   1.032   6.415
 9803SOL    HW230309   5.631   0.952   6.539
 9804SOL     OW30310   5.663   5.280   4.531
 9804SOL    HW130311   5.632   5.317   4.619
 9804SOL    HW230312   5.622   5.332   4.456
 9805SOL     OW30313   3.115   4.220   0.687
 9805SOL    HW130314   3.149   4.297   0.741
 9805SOL    HW230315   3.151   4.134   0.725
 9806SOL     OW30316   6.375   2.217   2.768
 9806SOL    HW130317   6.280   2.233   2.741
 9806SOL    HW230318   6.408   2.134   2.725
 9807SOL     OW30319   3.807   2.679   0.680
 9807SOL    HW130320   3.843   2.669   0.772
 9807SOL    HW230321   3.738   2.751   0.678
 9808SOL     OW30322   1.078   1.512   5.300
 9808SOL    HW130323   1.063   1.554   5.210
 9808SOL    HW230324   1.022   1.559   5.368
 9809SOL     OW30325   1.157   0.640   4.718
 9809SOL    HW130326   1.187   0.562   4.664
 9809SOL    HW230327   1.176   0.623   4.815
 9810SOL     OW30328   3.953   1.271   3.721
 9810SOL    HW130329   3.921   1.303   3.810
 9810SOL    HW230330   3.986   1.348   3.667
 9811SOL     OW30331   1.342   6.599   2.705
 9811SOL    HW130332   1.332   6.695   2.733
 9811SOL    HW230333   1.379   6.595   2.613
 9812SOL     OW30334   5.093   2.902   5.340
 9812SOL    HW130335   5.079   3.001   5.347
 9812SOL    HW230336   5.129   2.868   5.427
 9813SOL     OW30337   6.534   4.864   0.350
 9813SOL    HW130338   6.574   4.906   0.432
 9813SOL    HW230339   6.456   4.807   0.377
 9814SOL     OW30340   6.849   0.501   5.594
 9814SOL    HW130341   6.925   0.465   5.540
 9814SOL    HW230342   6.886   0.551   5.673
 9815SOL     OW30343   6.563   3.976   2.900
 9815SOL    HW130344   6.647   4.024   2.874
 9815SOL    HW230345   6.509   4.034   2.962
 9816SOL     OW30346   6.575   0.533   5.852
 9816SOL    HW130347   6.672   0.537   5.876
 9816SOL    HW230348   6.566   0.530   5.752
 9817SOL     OW30349   2.894   6.928   0.024
 9817SOL    HW130350   2.904   7.009   0.081
 9817SOL    HW230351   2.906   6.953   6.947
 9818SOL     OW30352   0.793   6.703   3.291
 9818SOL    HW130353   0.707   6.753   3.301
 9818SOL    HW230354   0.848   6.745   3.219
 9819SOL     OW30355   6.899   2.769   4.568
 9819SOL    HW130356   6.857   2.778   4.477
 9819SOL    HW230357   6.841   2.711   4.625
 9820SOL     OW30358   3.828   2.320   5.975
 9820SOL    HW130359   3.730   2.308   5.991
 9820SOL    HW230360   3.859   2.253   5.908
 9821SOL     OW30361   3.747   2.914   1.551
 9821SOL    HW130362   3.831   2.959   1.520
 9821SOL    HW230363   3.723   2.946   1.643
 9822SOL     OW30364   3.477   6.405   4.734
 9822SOL    HW130365   3.466   6.494   4.779
 9822SOL    HW230366   3.502   6.336   4.803
 9823SOL     OW30367   2.923   6.871   2.976
 9823SOL    HW130368   2.898   6.928   3.054
 9823SOL    HW230369   2.974   6.791   3.008
 9824SOL     OW30370   0.675   6.146   5.601
 9824SOL    HW130371   0.592   6.153   5.544
 9824SOL    HW230372   0.751   6.189   5.553
 9825SOL     OW30373   6.651   6.473   5.157
 9825SOL    HW130374   6.636   6.571   5.171
 9825SOL    HW230375   6.663   6.454   5.060
 9826SOL     OW30376   2.511   5.743   5.088
 9826SOL    HW130377   2.491   5.838   5.068
 9826SOL    HW230378   2.546   5.698   5.005
 9827SOL     OW30379   1.614   4.647   1.896
 9827SOL    HW130380   1.685   4.607   1.838
 9827SOL    HW230381   1.625   4.746   1.898
 9828SOL     OW30382   4.618   1.847   4.517
 9828SOL    HW130383   4.536   1.902   4.530
 9828SOL    HW230384   4.644   1.805   4.604
 9829SOL     OW30385   4.823   5.111   5.746
 9829SOL    HW130386   4.841   5.208   5.762
 9829SOL    HW230387   4.758   5.101   5.671
 9830SOL     OW30388   5.269   1.510   3.994
 9830SOL    HW130389   5.319   1.427   4.022
 9830SOL    HW230390   5.330   1.568   3.940
 9831SOL     OW30391   0.615   4.376   2.572
 9831SOL    HW130392   0.702   4.414   2.605
 9831SOL    HW230393   0.627   4.341   2.479
 9832SOL     OW30394   4.476   5.698   4.747
 9832SOL    HW130395   4.542   5.624   4.760
 9832SOL    HW230396   4.488   5.738   4.657
 9833SOL     OW30397   4.109   3.609   3.820
 9833SOL    HW130398   4.206   3.597   3.799
 9833SOL    HW230399   4.061   3.523   3.806
 9834SOL     OW30400   2.699   6.434   5.397
 9834SOL    HW130401   2.777   6.375   5.416
 9834SOL    HW230402   2.630   6.423   5.469
 9835SOL     OW30403   4.016   3.632   4.587
 9835SOL    HW130404   3.953   3.611   4.662
 9835SOL    HW230405   3.976   3.604   4.500
 9836SOL     OW30406   0.124   3.850   6.189
 9836SOL    HW130407   0.035   3.894   6.202
 9836SOL    HW230408   0.162   3.876   6.100
 9837SOL     OW30409   5.607   1.826   3.644
 9837SOL    HW130410   5.702   1.837   3.672
 9837SOL    HW230411   5.603   1.766   3.564
 9838SOL     OW30412   1.643   6.805   1.510
 9838SOL    HW130413   1.612   6.889   1.555
 9838SOL    HW230414   1.567   6.741   1.502
 9839SOL     OW30415   4.703   6.631   3.838
 9839SOL    HW130416   4.670   6.699   3.773
 9839SOL    HW230417   4.762   6.675   3.906
 9840SOL     OW30418   6.378   1.742   6.735
 9840SOL    HW130419   6.381   1.642   6.743
 9840SOL    HW230420   6.375   1.782   6.826
 9841SOL     OW30421   6.565   6.268   3.014
 9841SOL    HW130422   6.572   6.360   3.051
 9841SOL    HW230423   6.479   6.227   3.043
 9842SOL     OW30424   3.537   0.174   6.882
 9842SOL    HW130425   3.510   0.087   6.841
 9842SOL    HW230426   3.606   0.218   6.824
 9843SOL     OW30427   0.210   0.493   1.564
 9843SOL    HW130428   0.275   0.561   1.598
 9843SOL    HW230429   0.255   0.433   1.498
 9844SOL     OW30430   4.590   0.081   4.398
 9844SOL    HW130431   4.577   0.113   4.304
 9844SOL    HW230432   4.656   0.141   4.445
 9845SOL     OW30433   1.582   3.505   2.381
 9845SOL    HW130434   1.655   3.437   2.391
 9845SOL    HW230435   1.613   3.593   2.417
 9846SOL     OW30436   6.400   2.599   1.478
 9846SOL    HW130437   6.411   2.562   1.386
 9846SOL    HW230438   6.311   2.644   1.486
 9847SOL     OW30439   4.172   3.712   6.839
 9847SOL    HW130440   4.117   3.684   6.761
 9847SOL    HW230441   4.210   3.632   6.885
 9848SOL     OW30442   3.699   3.887   5.916
 9848SOL    HW130443   3.650   3.799   5.918
 9848SOL    HW230444   3.702   3.925   6.008
 9849SOL     OW30445   0.775   2.377   4.446
 9849SOL    HW130446   0.758   2.424   4.533
 9849SOL    HW230447   0.688   2.348   4.407
 9850SOL     OW30448   1.834   6.834   3.863
 9850SOL    HW130449   1.916   6.853   3.809
 9850SOL    HW230450   1.859   6.786   3.946
 9851SOL     OW30451   3.794   5.336   3.829
 9851SOL    HW130452   3.826   5.428   3.852
 9851SOL    HW230453   3.722   5.309   3.893
 9852SOL     OW30454   1.919   6.923   0.417
 9852SOL    HW130455   1.843   6.971   0.462
 9852SOL    HW230456   1.890   6.830   0.393
 9853SOL     OW30457   0.096   4.288   3.401
 9853SOL    HW130458   0.103   4.328   3.492
 9853SOL    HW230459   0.188   4.271   3.365
 9854SOL     OW30460   0.590   4.064   6.690
 9854SOL    HW130461   0.629   4.150   6.721
 9854SOL    HW230462   0.500   4.081   6.649
 9855SOL     OW30463   0.921   5.174   0.392
 9855SOL    HW130464   1.020   5.179   0.401
 9855SOL    HW230465   0.889   5.082   0.416
 9856SOL     OW30466   5.577   3.318   3.258
 9856SOL    HW130467   5.502   3.253   3.247
 9856SOL    HW230468   5.606   3.352   3.169
 9857SOL     OW30469   4.768   0.238   5.839
 9857SOL    HW130470   4.736   0.291   5.760
 9857SOL    HW230471   4.786   0.301   5.915
 9858SOL     OW30472   6.555   5.803   1.956
 9858SOL    HW130473   6.535   5.717   1.908
 9858SOL    HW230474   6.639   5.842   1.920
 9859SOL     OW30475   6.995   5.732   3.219
 9859SOL    HW130476   6.968   5.712   3.313
 9859SOL    HW230477   6.985   5.649   3.163
 9860SOL     OW30478   1.675   3.207   4.537
 9860SOL    HW130479   1.603   3.232   4.602
 9860SOL    HW230480   1.635   3.152   4.463
 9861SOL     OW30481   3.726   2.004   2.935
 9861SOL    HW130482   3.818   1.963   2.936
 9861SOL    HW230483   3.703   2.036   3.026
 9862SOL     OW30484   1.224   4.083   6.515
 9862SOL    HW130485   1.323   4.094   6.508
 9862SOL    HW230486   1.202   3.985   6.521
 9863SOL     OW30487   4.212   6.609   1.678
 9863SOL    HW130488   4.125   6.559   1.680
 9863SOL    HW230489   4.195   6.706   1.664
 9864SOL     OW30490   2.432   5.705   5.517
 9864SOL    HW130491   2.528   5.683   5.535
 9864SOL    HW230492   2.395   5.761   5.591
 9865SOL     OW30493   1.608   5.313   5.788
 9865SOL    HW130494   1.572   5.391   5.737
 9865SOL    HW230495   1.707   5.306   5.772
 9866SOL     OW30496   6.680   5.368   5.715
 9866SOL    HW130497   6.777   5.344   5.710
 9866SOL    HW230498   6.655   5.390   5.809
 9867SOL     OW30499   3.901   1.917   2.328
 9867SOL    HW130500   3.951   1.907   2.242
 9867SOL    HW230501   3.840   1.996   2.323
 9868SOL     OW30502   2.215   4.382   3.538
 9868SOL    HW130503   2.119   4.408   3.547
 9868SOL    HW230504   2.222   4.300   3.481
 9869SOL     OW30505   0.104   2.618   1.028
 9869SOL    HW130506   0.151   2.686   0.971
 9869SOL    HW230507   0.143   2.528   1.012
 9870SOL     OW30508   2.539   2.418   2.609
 9870SOL    HW130509   2.501   2.503   2.646
 9870SOL    HW230510   2.511   2.341   2.667
 9871SOL     OW30511   5.449   5.793   3.407
 9871SOL    HW130512   5.368   5.829   3.361
 9871SOL    HW230513   5.479   5.710   3.360
 9872SOL     OW30514   0.923   4.889   5.732
 9872SOL    HW130515   0.917   4.877   5.832
 9872SOL    HW230516   0.940   4.986   5.712
 9873SOL     OW30517   1.046   1.092   5.295
 9873SOL    HW130518   1.067   1.023   5.225
 9873SOL    HW230519   1.112   1.167   5.288
 9874SOL     OW30520   0.243   2.180   4.619
 9874SOL    HW130521   0.265   2.237   4.698
 9874SOL    HW230522   0.240   2.084   4.647
 9875SOL     OW30523   6.378   6.186   0.620
 9875SOL    HW130524   6.409   6.190   0.715
 9875SOL    HW230525   6.323   6.104   0.607
 9876SOL     OW30526   0.395   6.499   3.511
 9876SOL    HW130527   0.409   6.596   3.494
 9876SOL    HW230528   0.483   6.455   3.529
 9877SOL     OW30529   0.990   5.601   5.469
 9877SOL    HW130530   0.895   5.620   5.496
 9877SOL    HW230531   1.052   5.640   5.538
 9878SOL     OW30532   3.380   2.486   6.680
 9878SOL    HW130533   3.312   2.420   6.712
 9878SOL    HW230534   3.341   2.578   6.685
 9879SOL     OW30535   6.789   5.599   6.103
 9879SOL    HW130536   6.733   5.610   6.185
 9879SOL    HW230537   6.886   5.597   6.129
 9880SOL     OW30538   2.968   1.094   1.398
 9880SOL    HW130539   2.951   1.073   1.302
 9880SOL    HW230540   2.929   1.022   1.455
 9881SOL     OW30541   6.145   1.478   3.928
 9881SOL    HW130542   6.124   1.504   3.834
 9881SOL    HW230543   6.141   1.559   3.987
 9882SOL     OW30544   3.798   3.412   4.984
 9882SOL    HW130545   3.736   3.343   5.021
 9882SOL    HW230546   3.791   3.496   5.038
 9883SOL     OW30547   2.018   6.994   2.291
 9883SOL    HW130548   1.945   6.964   2.352
 9883SOL    HW230549   1.983   0.045   2.229
 9884SOL     OW30550   2.816   2.624   5.652
 9884SOL    HW130551   2.908   2.598   5.622
 9884SOL    HW230552   2.806   2.724   5.648
 9885SOL     OW30553   4.855   2.950   5.507
 9885SOL    HW130554   4.881   2.975   5.601
 9885SOL    HW230555   4.899   3.012   5.443
 9886SOL     OW30556   3.380   5.577   1.266
 9886SOL    HW130557   3.456   5.639   1.286
 9886SOL    HW230558   3.380   5.554   1.169
 9887SOL     OW30559   3.402   2.091   0.104
 9887SOL    HW130560   3.417   1.992   0.108
 9887SOL    HW230561   3.310   2.109   0.069
 9888SOL     OW30562   6.346   7.010   3.536
 9888SOL    HW130563   6.353   6.959   3.621
 9888SOL    HW230564   6.338   0.088   3.556
 9889SOL     OW30565   6.660   5.991   2.705
 9889SOL    HW130566   6.755   6.020   2.716
 9889SOL    HW230567   6.629   5.946   2.788
 9890SOL     OW30568   0.441   3.515   2.802
 9890SOL    HW130569   0.517   3.452   2.783
 9890SOL    HW230570   0.394   3.536   2.717
 9891SOL     OW30571   5.345   6.016   1.748
 9891SOL    HW130572   5.280   6.025   1.823
 9891SOL    HW230573   5.323   6.083   1.676
 9892SOL     OW30574   1.323   5.654   3.908
 9892SOL    HW130575   1.226   5.648   3.883
 9892SOL    HW230576   1.333   5.643   4.007
 9893SOL     OW30577   5.559   5.319   4.761
 9893SOL    HW130578   5.577   5.405   4.808
 9893SOL    HW230579   5.595   5.243   4.815
 9894SOL     OW30580   4.364   3.536   5.257
 9894SOL    HW130581   4.305   3.526   5.176
 9894SOL    HW230582   4.458   3.554   5.227
 9895SOL     OW30583   5.523   2.171   6.924
 9895SOL    HW130584   5.471   2.135   7.001
 9895SOL    HW230585   5.462   2.185   6.846
 9896SOL     OW30586   4.101   3.323   0.316
 9896SOL    HW130587   4.058   3.258   0.379
 9896SOL    HW230588   4.035   3.349   0.246
 9897SOL     OW30589   6.579   1.441   3.533
 9897SOL    HW130590   6.554   1.528   3.574
 9897SOL    HW230591   6.589   1.452   3.434
 9898SOL     OW30592   1.751   4.754   6.333
 9898SOL    HW130593   1.828   4.735   6.394
 9898SOL    HW230594   1.708   4.668   6.305
 9899SOL     OW30595   5.113   4.870   2.603
 9899SOL    HW130596   5.132   4.773   2.621
 9899SOL    HW230597   5.059   4.879   2.520
 9900SOL     OW30598   1.386   4.222   3.727
 9900SOL    HW130599   1.293   4.215   3.763
 9900SOL    HW230600   1.395   4.306   3.673
 9901SOL     OW30601   2.608   2.052   6.097
 9901SOL    HW130602   2.615   2.108   6.014
 9901SOL    HW230603   2.537   1.983   6.085
 9902SOL     OW30604   4.764   3.717   0.124
 9902SOL    HW130605   4.725   3.675   0.042
 9902SOL    HW230606   4.776   3.647   0.195
 9903SOL     OW30607   3.819   1.224   1.563
 9903SOL    HW130608   3.913   1.228   1.529
 9903SOL    HW230609   3.820   1.225   1.663
 9904SOL     OW30610   0.307   7.012   1.877
 9904SOL    HW130611   0.322   0.086   1.844
 9904SOL    HW230612   0.350   6.947   1.814
 9905SOL     OW30613   1.561   6.459   6.052
 9905SOL    HW130614   1.594   6.549   6.082
 9905SOL    HW230615   1.542   6.402   6.132
 9906SOL     OW30616   4.153   4.117   5.903
 9906SOL    HW130617   4.055   4.102   5.895
 9906SOL    HW230618   4.171   4.215   5.913
 9907SOL     OW30619   1.070   6.610   2.615
 9907SOL    HW130620   1.160   6.571   2.638
 9907SOL    HW230621   1.075   6.710   2.620
 9908SOL     OW30622   0.486   3.307   4.734
 9908SOL    HW130623   0.579   3.307   4.770
 9908SOL    HW230624   0.465   3.216   4.698
 9909SOL     OW30625   3.394   0.390   2.619
 9909SOL    HW130626   3.424   0.302   2.656
 9909SOL    HW230627   3.320   0.426   2.676
 9910SOL     OW30628   0.880   4.462   0.895
 9910SOL    HW130629   0.861   4.365   0.879
 9910SOL    HW230630   0.839   4.491   0.982
 9911SOL     OW30631   3.930   5.187   3.074
 9911SOL    HW130632   4.004   5.217   3.135
 9911SOL    HW230633   3.965   5.114   3.015
 9912SOL     OW30634   3.877   6.890   1.134
 9912SOL    HW130635   3.976   6.877   1.135
 9912SOL    HW230636   3.838   6.844   1.054
 9913SOL     OW30637   4.034   2.211   2.465
 9913SOL    HW130638   3.962   2.177   2.526
 9913SOL    HW230639   4.076   2.292   2.506
 9914SOL     OW30640   2.334   5.632   5.266
 9914SOL    HW130641   2.392   5.684   5.204
 9914SOL    HW230642   2.350   5.661   5.361
 9915SOL     OW30643   6.076   3.621   4.120
 9915SOL    HW130644   6.138   3.699   4.124
 9915SOL    HW230645   6.127   3.539   4.095
 9916SOL     OW30646   2.654   2.938   0.774
 9916SOL    HW130647   2.723   2.986   0.828
 9916SOL    HW230648   2.679   2.842   0.765
 9917SOL     OW30649   2.274   2.845   4.707
 9917SOL    HW130650   2.341   2.776   4.680
 9917SOL    HW230651   2.300   2.883   4.796
 9918SOL     OW30652   2.374   0.802   4.797
 9918SOL    HW130653   2.414   0.780   4.886
 9918SOL    HW230654   2.440   0.783   4.724
 9919SOL     OW30655   0.357   5.510   2.584
 9919SOL    HW130656   0.419   5.575   2.541
 9919SOL    HW230657   0.262   5.538   2.566
 9920SOL     OW30658   4.294   6.475   2.667
 9920SOL    HW130659   4.214   6.535   2.678
 9920SOL    HW230660   4.375   6.519   2.705
 9921SOL     OW30661   4.892   6.893   3.559
 9921SOL    HW130662   4.946   6.977   3.569
 9921SOL    HW230663   4.803   6.915   3.519
 9922SOL     OW30664   5.004   3.395   1.478
 9922SOL    HW130665   4.905   3.396   1.489
 9922SOL    HW230666   5.030   3.452   1.399
 9923SOL     OW30667   6.110   0.897   6.148
 9923SOL    HW130668   6.012   0.920   6.140
 9923SOL    HW230669   6.120   0.798   6.159
 9924SOL     OW30670   5.027   0.972   3.331
 9924SOL    HW130671   5.093   1.047   3.319
 9924SOL    HW230672   5.043   0.927   3.418
 9925SOL     OW30673   3.357   2.066   4.975
 9925SOL    HW130674   3.290   2.140   4.981
 9925SOL    HW230675   3.338   2.010   4.894
 9926SOL     OW30676   1.698   0.583   6.191
 9926SOL    HW130677   1.790   0.587   6.152
 9926SOL    HW230678   1.661   0.675   6.201
 9927SOL     OW30679   1.040   2.393   2.112
 9927SOL    HW130680   1.048   2.492   2.101
 9927SOL    HW230681   0.953   2.362   2.073
 9928SOL     OW30682   7.006   3.309   2.824
 9928SOL    HW130683   6.996   3.278   2.919
 9928SOL    HW230684   6.927   3.366   2.799
 9929SOL     OW30685   1.481   4.399   5.708
 9929SOL    HW130686   1.541   4.354   5.642
 9929SOL    HW230687   1.522   4.395   5.799
 9930SOL     OW30688   0.125   5.533   0.165
 9930SOL    HW130689   0.192   5.521   0.239
 9930SOL    HW230690   0.173   5.530   0.077
 9931SOL     OW30691   2.937   4.916   6.787
 9931SOL    HW130692   2.899   4.849   6.852
 9931SOL    HW230693   3.008   4.970   6.833
 9932SOL     OW30694   2.077   2.395   1.093
 9932SOL    HW130695   2.095   2.488   1.124
 9932SOL    HW230696   2.143   2.369   1.023
 9933SOL     OW30697   0.485   1.345   2.288
 9933SOL    HW130698   0.506   1.442   2.296
 9933SOL    HW230699   0.518   1.297   2.369
 9934SOL     OW30700   4.915   0.960   7.017
 9934SOL    HW130701   4.925   0.880   0.055
 9934SOL    HW230702   4.934   0.936   6.922
 9935SOL     OW30703   2.721   2.213   0.805
 9935SOL    HW130704   2.781   2.136   0.824
 9935SOL    HW230705   2.636   2.204   0.858
 9936SOL     OW30706   5.341   6.308   5.999
 9936SOL    HW130707   5.274   6.380   6.017
 9936SOL    HW230708   5.369   6.267   6.086
 9937SOL     OW30709   1.675   6.631   3.277
 9937SOL    HW130710   1.639   6.698   3.342
 9937SOL    HW230711   1.695   6.678   3.190
 9938SOL     OW30712   6.731   0.963   3.521
 9938SOL    HW130713   6.811   0.977   3.579
 9938SOL    HW230714   6.669   1.042   3.530
 9939SOL     OW30715   2.831   4.144   1.559
 9939SOL    HW130716   2.888   4.131   1.478
 9939SOL    HW230717   2.889   4.157   1.639
 9940SOL     OW30718   6.927   0.951   3.710
 9940SOL    HW130719   0.003   0.976   3.694
 9940SOL    HW230720   6.917   0.914   3.803
 9941SOL     OW30721   5.743   4.554   0.779
 9941SOL    HW130722   5.703   4.487   0.842
 9941SOL    HW230723   5.744   4.644   0.823
 9942SOL     OW30724   5.605   5.960   2.761
 9942SOL    HW130725   5.565   5.998   2.844
 9942SOL    HW230726   5.697   5.925   2.780
 9943SOL     OW30727   1.191   3.746   5.398
 9943SOL    HW130728   1.119   3.751   5.468
 9943SOL    HW230729   1.150   3.742   5.308
 9944SOL     OW30730   1.755   5.778   5.734
 9944SOL    HW130731   1.673   5.732   5.768
 9944SOL    HW230732   1.742   5.802   5.638
 9945SOL     OW30733   6.672   3.665   6.919
 9945SOL    HW130734   6.582   3.685   6.957
 9945SOL    HW230735   6.665   3.587   6.857
 9946SOL     OW30736   4.973   2.085   1.637
 9946SOL    HW130737   4.914   2.162   1.610
 9946SOL    HW230738   4.918   2.018   1.687
 9947SOL     OW30739   0.771   1.294   2.808
 9947SOL    HW130740   0.762   1.387   2.844
 9947SOL    HW230741   0.849   1.290   2.746
 9948SOL     OW30742   5.547   0.869   5.067
 9948SOL    HW130743   5.582   0.892   5.158
 9948SOL    HW230744   5.595   0.923   4.998
 9949SOL     OW30745   6.669   4.073   3.350
 9949SOL    HW130746   6.616   4.006   3.403
 9949SOL    HW230747   6.742   4.110   3.406
 9950SOL     OW30748   4.601   4.085   5.484
 9950SOL    HW130749   4.577   4.017   5.414
 9950SOL    HW230750   4.695   4.072   5.513
 9951SOL     OW30751   0.127   1.868   2.871
 9951SOL    HW130752   0.213   1.847   2.918
 9951SOL    HW230753   0.116   1.967   2.863
 9952SOL     OW30754   1.398   4.787   1.670
 9952SOL    HW130755   1.466   4.741   1.727
 9952SOL    HW230756   1.320   4.813   1.726
 9953SOL     OW30757   5.970   3.780   3.819
 9953SOL    HW130758   6.058   3.823   3.841
 9953SOL    HW230759   5.908   3.789   3.897
 9954SOL     OW30760   3.438   0.801   1.497
 9954SOL    HW130761   3.450   0.897   1.520
 9954SOL    HW230762   3.497   0.745   1.557
 9955SOL     OW30763   5.439   5.045   1.733
 9955SOL    HW130764   5.409   5.013   1.823
 9955SOL    HW230765   5.471   4.968   1.678
 9956SOL     OW30766   1.984   2.519   3.779
 9956SOL    HW130767   1.940   2.430   3.788
 9956SOL    HW230768   1.919   2.591   3.803
 9957SOL     OW30769   5.362   0.646   0.455
 9957SOL    HW130770   5.449   0.681   0.421
 9957SOL    HW230771   5.346   0.554   0.419
 9958SOL     OW30772   5.806   5.319   7.019
 9958SOL    HW130773   5.854   5.290   0.082
 9958SOL    HW230774   5.786   5.417   0.005
 9959SOL     OW30775   5.618   5.406   0.777
 9959SOL    HW130776   5.564   5.485   0.749
 9959SOL    HW230777   5.598   5.328   0.718
 9960SOL     OW30778   6.475   0.116   0.171
 9960SOL    HW130779   6.408   0.055   0.214
 9960SOL    HW230780   6.440   0.147   0.083
 9961SOL     OW30781   3.303   5.916   1.006
 9961SOL    HW130782   3.317   5.910   0.907
 9961SOL    HW230783   3.344   6.000   1.040
 9962SOL     OW30784   3.180   0.117   1.698
 9962SOL    HW130785   3.223   0.053   1.635
 9962SOL    HW230786   3.108   0.167   1.650
 9963SOL     OW30787   1.139   0.464   5.692
 9963SOL    HW130788   1.093   0.499   5.610
 9963SOL    HW230789   1.124   0.365   5.698
 9964SOL     OW30790   4.649   4.356   5.996
 9964SOL    HW130791   4.631   4.267   6.037
 9964SOL    HW230792   4.612   4.428   6.055
 9965SOL     OW30793   2.915   5.265   3.912
 9965SOL    HW130794   2.845   5.262   3.841
 9965SOL    HW230795   2.912   5.181   3.965
 9966SOL     OW30796   3.901   4.847   3.202
 9966SOL    HW130797   3.963   4.908   3.152
 9966SOL    HW230798   3.952   4.800   3.274
 9967SOL     OW30799   6.975   0.499   3.104
 9967SOL    HW130800   7.016   0.547   3.027
 9967SOL    HW230801   6.882   0.534   3.120
 9968SOL     OW30802   4.102   6.541   0.454
 9968SOL    HW130803   4.120   6.609   0.383
 9968SOL    HW230804   4.004   6.536   0.471
 9969SOL     OW30805   0.212   5.943   3.894
 9969SOL    HW130806   0.134   5.952   3.832
 9969SOL    HW230807   0.186   5.978   3.984
 9970SOL     OW30808   6.650   3.302   2.542
 9970SOL    HW130809   6.655   3.261   2.633
 9970SOL    HW230810   6.730   3.275   2.488
 9971SOL     OW30811   0.051   5.218   4.695
 9971SOL    HW130812   0.069   5.141   4.757
 9971SOL    HW230813   0.128   5.282   4.699
 9972SOL     OW30814   3.547   4.211   5.998
 9972SOL    HW130815   3.501   4.187   5.912
 9972SOL    HW230816   3.492   4.179   6.075
 9973SOL     OW30817   2.475   1.805   3.598
 9973SOL    HW130818   2.570   1.785   3.574
 9973SOL    HW230819   2.448   1.892   3.557
 9974SOL     OW30820   1.462   2.347   3.214
 9974SOL    HW130821   1.430   2.420   3.274
 9974SOL    HW230822   1.541   2.302   3.255
 9975SOL     OW30823   2.276   4.614   6.659
 9975SOL    HW130824   2.295   4.670   6.579
 9975SOL    HW230825   2.355   4.556   6.679
 9976SOL     OW30826   4.170   5.219   5.976
 9976SOL    HW130827   4.142   5.126   5.998
 9976SOL    HW230828   4.116   5.253   5.899
 9977SOL     OW30829   4.285   0.075   5.792
 9977SOL    HW130830   4.270   0.168   5.823
 9977SOL    HW230831   4.368   0.072   5.735
 9978SOL     OW30832   0.934   3.042   0.028
 9978SOL    HW130833   1.003   2.971   0.015
 9978SOL    HW230834   0.962   3.102   0.104
 9979SOL     OW30835   3.330   3.773   5.306
 9979SOL    HW130836   3.377   3.782   5.218
 9979SOL    HW230837   3.258   3.704   5.299
 9980SOL     OW30838   1.325   1.413   1.587
 9980SOL    HW130839   1.363   1.376   1.672
 9980SOL    HW230840   1.257   1.350   1.550
 9981SOL     OW30841   5.937   1.602   0.257
 9981SOL    HW130842   5.950   1.512   0.216
 9981SOL    HW230843   5.945   1.673   0.186
 9982SOL     OW30844   1.819   2.138   4.587
 9982SOL    HW130845   1.905   2.146   4.536
 9982SOL    HW230846   1.761   2.071   4.542
 9983SOL     OW30847   0.949   3.704   2.331
 9983SOL    HW130848   0.857   3.672   2.354
 9983SOL    HW230849   0.977   3.775   2.396
 9984SOL     OW30850   0.400   5.009   0.868
 9984SOL    HW130851   0.479   4.976   0.816
 9984SOL    HW230852   0.418   5.102   0.901
 9985SOL     OW30853   4.968   4.402   0.094
 9985SOL    HW130854   4.985   4.456   0.012
 9985SOL    HW230855   4.975   4.460   0.175
 9986SOL     OW30856   5.742   5.586   0.011
 9986SOL    HW130857   5.763   5.620   6.939
 9986SOL    HW230858   5.673   5.646   0.053
 9987SOL     OW30859   5.775   2.782   1.332
 9987SOL    HW130860   5.792   2.775   1.233
 9987SOL    HW230861   5.744   2.694   1.367
 9988SOL     OW30862   6.031   0.090   3.556
 9988SOL    HW130863   5.974   0.151   3.610
 9988SOL    HW230864   6.040   0.002   3.603
 9989SOL     OW30865   6.879   6.141   2.712
 9989SOL    HW130866   6.958   6.148   2.774
 9989SOL    HW230867   6.823   6.223   2.720
 9990SOL     OW30868   0.156   0.063   3.120
 9990SOL    HW130869   0.090   0.100   3.185
 9990SOL    HW230870   0.108   0.015   3.046
 9991SOL     OW30871   1.801   4.372   2.619
 9991SOL    HW130872   1.760   4.281   2.622
 9991SOL    HW230873   1.774   4.418   2.535
 9992SOL     OW30874   2.400   5.107   0.497
 9992SOL    HW130875   2.420   5.009   0.510
 9992SOL    HW230876   2.373   5.147   0.584
 9993SOL     OW30877   4.015   0.226   4.780
 9993SOL    HW130878   4.002   0.130   4.756
 9993SOL    HW230879   4.087   0.233   4.849
 9994SOL     OW30880   5.902   5.617   4.758
 9994SOL    HW130881   5.946   5.553   4.695
 9994SOL    HW230882   5.964   5.694   4.776
 9995SOL     OW30883   3.554   1.693   6.384
 9995SOL    HW130884   3.465   1.707   6.342
 9995SOL    HW230885   3.615   1.648   6.319
 9996SOL     OW30886   2.762   3.738   0.543
 9996SOL    HW130887   2.840   3.776   0.492
 9996SOL    HW230888   2.784   3.737   0.641
 9997SOL     OW30889   6.569   2.435   3.939
 9997SOL    HW130890   6.576   2.534   3.952
 9997SOL    HW230891   6.474   2.406   3.954
 9998SOL     OW30892   4.815   3.948   2.190
 9998SOL    HW130893   4.907   3.957   2.228
 9998SOL    HW230894   4.814   3.876   2.120
 9999SOL     OW30895   0.547   6.516   4.041
 9999SOL    HW130896   0.585   6.534   4.132
 9999SOL    HW230897   0.608   6.454   3.992
10000SOL     OW30898   4.494   2.402   1.205
10000SOL    HW130899   4.479   2.465   1.129
10000SOL    HW230900   4.456   2.312   1.183
10001SOL     OW30901   3.823   6.230   1.539
10001SOL    HW130902   3.915   6.223   1.577
10001SOL    HW230903   3.796   6.326   1.533
10002SOL     OW30904   2.635   0.579   1.999
10002SOL    HW130905   2.677   0.491   2.020
10002SOL    HW230906   2.551   0.589   2.052
10003SOL     OW30907   1.335   0.762   3.155
10003SOL    HW130908   1.334   0.862   3.163
10003SOL    HW230909   1.249   0.730   3.116
10004SOL     OW30910   6.598   4.832   4.304
10004SOL    HW130911   6.544   4.833   4.220
10004SOL    HW230912   6.695   4.819   4.282
10005SOL     OW30913   2.841   5.147   3.390
10005SOL    HW130914   2.864   5.104   3.477
10005SOL    HW230915   2.908   5.121   3.321
10006SOL     OW30916   5.658   0.916   5.311
10006SOL    HW130917   5.750   0.890   5.282
10006SOL    HW230918   5.655   0.920   5.411
10007SOL     OW30919   1.148   5.196   4.252
10007SOL    HW130920   1.050   5.175   4.248
10007SOL    HW230921   1.191   5.137   4.321
10008SOL     OW30922   3.435   1.732   5.893
10008SOL    HW130923   3.468   1.723   5.799
10008SOL    HW230924   3.343   1.771   5.891
10009SOL     OW30925   1.166   3.986   2.003
10009SOL    HW130926   1.182   4.063   2.065
10009SOL    HW230927   1.183   3.900   2.051
10010SOL     OW30928   2.565   4.364   0.321
10010SOL    HW130929   2.511   4.374   0.405
10010SOL    HW230930   2.639   4.432   0.321
10011SOL     OW30931   1.942   3.216   0.130
10011SOL    HW130932   2.037   3.187   0.113
10011SOL    HW230933   1.881   3.138   0.117
10012SOL     OW30934   5.778   2.440   3.010
10012SOL    HW130935   5.693   2.474   3.050
10012SOL    HW230936   5.850   2.508   3.020
10013SOL     OW30937   0.605   6.080   4.816
10013SOL    HW130938   0.551   6.015   4.870
10013SOL    HW230939   0.647   6.147   4.877
10014SOL     OW30940   0.854   1.066   2.951
10014SOL    HW130941   0.843   1.160   2.920
10014SOL    HW230942   0.785   1.008   2.908
10015SOL     OW30943   4.036   5.880   6.175
10015SOL    HW130944   4.047   5.830   6.088
10015SOL    HW230945   4.103   5.954   6.179
10016SOL     OW30946   2.182   0.518   4.133
10016SOL    HW130947   2.231   0.433   4.112
10016SOL    HW230948   2.221   0.559   4.216
10017SOL     OW30949   2.811   2.250   2.940
10017SOL    HW130950   2.870   2.286   3.014
10017SOL    HW230951   2.862   2.249   2.854
10018SOL     OW30952   6.513   3.620   5.173
10018SOL    HW130953   6.558   3.583   5.254
10018SOL    HW230954   6.483   3.714   5.191
10019SOL     OW30955   0.447   2.452   2.087
10019SOL    HW130956   0.462   2.519   2.014
10019SOL    HW230957   0.399   2.372   2.050
10020SOL     OW30958   6.159   1.427   1.996
10020SOL    HW130959   6.133   1.408   1.901
10020SOL    HW230960   6.201   1.347   2.037
10021SOL     OW30961   0.681   3.186   2.481
10021SOL    HW130962   0.768   3.160   2.524
10021SOL    HW230963   0.695   3.199   2.383
10022SOL     OW30964   2.059   4.879   5.975
10022SOL    HW130965   2.093   4.970   6.001
10022SOL    HW230966   1.961   4.883   5.960
10023SOL     OW30967   0.871   1.067   5.982
10023SOL    HW130968   0.847   1.019   6.067
10023SOL    HW230969   0.925   1.006   5.924
10024SOL     OW30970   1.606   4.775   2.656
10024SOL    HW130971   1.696   4.798   2.694
10024SOL    HW230972   1.618   4.708   2.582
10025SOL     OW30973   1.253   4.331   0.707
10025SOL    HW130974   1.235   4.397   0.780
10025SOL    HW230975   1.267   4.240   0.746
10026SOL     OW30976   5.212   1.603   4.572
10026SOL    HW130977   5.145   1.606   4.498
10026SOL    HW230978   5.246   1.695   4.591
10027SOL     OW30979   2.982   1.666   5.190
10027SOL    HW130980   3.023   1.596   5.249
10027SOL    HW230981   2.996   1.642   5.094
10028SOL     OW30982   4.216   0.099   1.590
10028SOL    HW130983   4.154   0.091   1.512
10028SOL    HW230984   4.310   0.092   1.558
10029SOL     OW30985   0.270   4.224   4.542
10029SOL    HW130986   0.193   4.210   4.604
10029SOL    HW230987   0.236   4.257   4.454
10030SOL     OW30988   2.245   6.990   4.063
10030SOL    HW130989   2.343   6.983   4.077
10030SOL    HW230990   2.226   0.039   3.992
10031SOL     OW30991   2.612   4.898   3.271
10031SOL    HW130992   2.637   4.985   3.228
10031SOL    HW230993   2.643   4.822   3.213
10032SOL     OW30994   3.186   6.528   4.682
10032SOL    HW130995   3.125   6.452   4.660
10032SOL    HW230996   3.263   6.494   4.737
10033SOL     OW30997   2.946   0.595   4.257
10033SOL    HW130998   3.002   0.672   4.288
10033SOL    HW230999   2.968   0.575   4.161
10034SOL     OW31000   2.368   1.067   4.012
10034SOL    HW131001   2.271   1.045   4.003
10034SOL    HW231002   2.381   1.123   4.094
10035SOL     OW31003   6.311   2.535   2.227
10035SOL    HW131004   6.358   2.601   2.169
10035SOL    HW231005   6.292   2.576   2.316
10036SOL     OW31006   0.080   0.473   6.852
10036SOL    HW131007   0.002   0.425   6.813
10036SOL    HW231008   0.066   0.572   6.844
10037SOL     OW31009   6.014   6.601   6.794
10037SOL    HW131010   5.997   6.698   6.807
10037SOL    HW231011   6.087   6.588   6.727
10038SOL     OW31012   4.279   6.236   6.470
10038SOL    HW131013   4.239   6.299   6.536
10038SOL    HW231014   4.355   6.187   6.512
10039SOL     OW31015   0.151   5.575   2.421
10039SOL    HW131016   0.065   5.573   2.472
10039SOL    HW231017   0.175   5.670   2.400
10040SOL     OW31018   2.996   0.200   1.187
10040SOL    HW131019   3.079   0.157   1.153
10040SOL    HW231020   3.011   0.299   1.197
10041SOL     OW31021   6.382   5.425   5.134
10041SOL    HW131022   6.331   5.491   5.079
10041SOL    HW231023   6.464   5.397   5.085
10042SOL     OW31024   0.360   0.467   4.709
10042SOL    HW131025   0.305   0.545   4.739
10042SOL    HW231026   0.452   0.474   4.748
10043SOL     OW31027   0.508   0.497   3.972
10043SOL    HW131028   0.583   0.536   4.025
10043SOL    HW231029   0.425   0.551   3.986
10044SOL     OW31030   2.880   1.528   6.748
10044SOL    HW131031   2.921   1.437   6.761
10044SOL    HW231032   2.927   1.594   6.806
10045SOL     OW31033   3.752   0.019   5.063
10045SOL    HW131034   3.753   6.984   4.979
10045SOL    HW231035   3.730   6.979   5.141
10046SOL     OW31036   0.460   2.665   1.872
10046SOL    HW131037   0.549   2.682   1.828
10046SOL    HW231038   0.438   2.741   1.933
10047SOL     OW31039   0.214   1.956   3.263
10047SOL    HW131040   0.121   1.957   3.228
10047SOL    HW231041   0.219   1.896   3.343
10048SOL     OW31042   3.502   2.308   1.716
10048SOL    HW131043   3.503   2.405   1.691
10048SOL    HW231044   3.579   2.288   1.777
10049SOL     OW31045   1.527   6.610   4.755
10049SOL    HW131046   1.602   6.544   4.765
10049SOL    HW231047   1.477   6.616   4.841
10050SOL     OW31048   5.150   2.396   3.855
10050SOL    HW131049   5.196   2.451   3.924
10050SOL    HW231050   5.059   2.434   3.838
10051SOL     OW31051   5.624   2.739   5.587
10051SOL    HW131052   5.537   2.692   5.603
10051SOL    HW231053   5.640   2.806   5.660
10052SOL     OW31054   0.817   3.632   1.551
10052SOL    HW131055   0.831   3.595   1.459
10052SOL    HW231056   0.853   3.725   1.556
10053SOL     OW31057   3.365   5.845   3.344
10053SOL    HW131058   3.283   5.788   3.334
10053SOL    HW231059   3.340   5.930   3.390
10054SOL     OW31060   3.729   5.369   4.356
10054SOL    HW131061   3.751   5.433   4.283
10054SOL    HW231062   3.739   5.275   4.322
10055SOL     OW31063   6.179   3.122   5.926
10055SOL    HW131064   6.126   3.078   5.998
10055SOL    HW231065   6.271   3.144   5.961
10056SOL     OW31066   6.918   4.942   1.443
10056SOL    HW131067   6.968   5.026   1.464
10056SOL    HW231068   6.939   4.872   1.511
10057SOL     OW31069   3.268   2.104   3.984
10057SOL    HW131070   3.320   2.026   3.951
10057SOL    HW231071   3.178   2.105   3.940
10058SOL     OW31072   0.761   5.249   3.569
10058SOL    HW131073   0.825   5.324   3.549
10058SOL    HW231074   0.674   5.287   3.601
10059SOL     OW31075   5.734   0.169   0.650
10059SOL    HW131076   5.685   0.254   0.665
10059SOL    HW231077   5.669   0.095   0.633
10060SOL     OW31078   2.269   3.038   1.777
10060SOL    HW131079   2.350   2.981   1.792
10060SOL    HW231080   2.261   3.061   1.680
10061SOL     OW31081   6.107   2.054   4.679
10061SOL    HW131082   6.098   2.077   4.582
10061SOL    HW231083   6.091   2.136   4.734
10062SOL     OW31084   6.137   6.166   2.865
10062SOL    HW131085   6.173   6.149   2.773
10062SOL    HW231086   6.037   6.170   2.861
10063SOL     OW31087   1.308   2.744   3.041
10063SOL    HW131088   1.371   2.817   3.069
10063SOL    HW231089   1.359   2.658   3.034
10064SOL     OW31090   5.627   6.863   4.660
10064SOL    HW131091   5.659   6.820   4.576
10064SOL    HW231092   5.580   6.795   4.716
10065SOL     OW31093   1.091   6.398   3.099
10065SOL    HW131094   1.180   6.363   3.129
10065SOL    HW231095   1.037   6.426   3.179
10066SOL     OW31096   0.808   0.141   3.410
10066SOL    HW131097   0.746   0.219   3.412
10066SOL    HW231098   0.861   0.143   3.326
10067SOL     OW31099   3.765   4.860   3.744
10067SOL    HW131100   3.765   4.936   3.680
10067SOL    HW231101   3.678   4.811   3.737
10068SOL     OW31102   4.857   3.889   5.014
10068SOL    HW131103   4.943   3.908   5.061
10068SOL    HW231104   4.824   3.798   5.039
10069SOL     OW31105   3.478   0.931   3.212
10069SOL    HW131106   3.394   0.915   3.265
10069SOL    HW231107   3.557   0.920   3.272
10070SOL     OW31108   0.578   6.706   4.553
10070SOL    HW131109   0.616   6.787   4.508
10070SOL    HW231110   0.522   6.734   4.631
10071SOL     OW31111   5.263   5.951   5.116
10071SOL    HW131112   5.344   6.010   5.123
10071SOL    HW231113   5.184   5.998   5.155
10072SOL     OW31114   0.947   6.899   2.993
10072SOL    HW131115   0.999   6.886   3.078
10072SOL    HW231116   0.987   6.973   2.940
10073SOL     OW31117   0.298   4.748   6.473
10073SOL    HW131118   0.335   4.818   6.534
10073SOL    HW231119   0.372   4.686   6.445
10074SOL     OW31120   2.463   6.989   6.041
10074SOL    HW131121   2.418   6.901   6.058
10074SOL    HW231122   2.423   0.013   5.961
10075SOL     OW31123   1.261   2.618   3.897
10075SOL    HW131124   1.208   2.570   3.967
10075SOL    HW231125   1.223   2.710   3.885
10076SOL     OW31126   5.410   6.993   4.861
10076SOL    HW131127   5.480   6.926   4.835
10076SOL    HW231128   5.380   6.975   4.955
10077SOL     OW31129   3.902   1.417   6.284
10077SOL    HW131130   3.876   1.419   6.380
10077SOL    HW231131   3.985   1.362   6.273
10078SOL     OW31132   5.537   6.506   6.009
10078SOL    HW131133   5.470   6.436   5.981
10078SOL    HW231134   5.509   6.595   5.972
10079SOL     OW31135   0.351   3.981   0.285
10079SOL    HW131136   0.275   4.000   0.223
10079SOL    HW231137   0.392   4.067   0.315
10080SOL     OW31138   1.725   3.084   6.418
10080SOL    HW131139   1.814   3.119   6.386
10080SOL    HW231140   1.701   3.127   6.505
10081SOL     OW31141   6.911   0.654   6.547
10081SOL    HW131142   6.869   0.564   6.532
10081SOL    HW231143   6.955   0.685   6.463
10082SOL     OW31144   6.525   1.265   1.333
10082SOL    HW131145   6.593   1.303   1.271
10082SOL    HW231146   6.545   1.295   1.427
10083SOL     OW31147   4.911   0.452   4.384
10083SOL    HW131148   4.834   0.488   4.332
10083SOL    HW231149   4.986   0.518   4.382
10084SOL     OW31150   2.390   1.372   6.053
10084SOL    HW131151   2.441   1.287   6.067
10084SOL    HW231152   2.451   1.450   6.068
10085SOL     OW31153   0.627   5.356   2.746
10085SOL    HW131154   0.559   5.303   2.696
10085SOL    HW231155   0.655   5.435   2.691
10086SOL     OW31156   6.435   3.573   2.081
10086SOL    HW131157   6.350   3.625   2.072
10086SOL    HW231158   6.454   3.556   2.177
10087SOL     OW31159   1.459   0.217   4.269
10087SOL    HW131160   1.394   0.144   4.247
10087SOL    HW231161   1.551   0.187   4.246
10088SOL     OW31162   0.430   0.133   4.686
10088SOL    HW131163   0.439   0.126   4.786
10088SOL    HW231164   0.349   0.186   4.664
10089SOL     OW31165   1.365   3.578   2.184
10089SOL    HW131166   1.391   3.582   2.088
10089SOL    HW231167   1.436   3.530   2.235
10090SOL     OW31168   0.558   4.979   0.435
10090SOL    HW131169   0.558   4.959   0.337
10090SOL    HW231170   0.486   5.045   0.456
10091SOL     OW31171   0.705   2.456   4.720
10091SOL    HW131172   0.791   2.445   4.769
10091SOL    HW231173   0.630   2.459   4.786
10092SOL     OW31174   1.992   4.262   5.514
10092SOL    HW131175   2.004   4.244   5.416
10092SOL    HW231176   1.939   4.187   5.554
10093SOL     OW31177   6.394   4.445   6.295
10093SOL    HW131178   6.365   4.537   6.266
10093SOL    HW231179   6.336   4.377   6.250
10094SOL     OW31180   1.433   1.461   2.051
10094SOL    HW131181   1.365   1.389   2.034
10094SOL    HW231182   1.439   1.479   2.149
10095SOL     OW31183   6.763   0.986   5.892
10095SOL    HW131184   6.841   0.984   5.830
10095SOL    HW231185   6.679   0.969   5.841
10096SOL     OW31186   0.649   5.531   2.405
10096SOL    HW131187   0.629   5.592   2.481
10096SOL    HW231188   0.744   5.500   2.411
10097SOL     OW31189   1.355   0.946   6.837
10097SOL    HW131190   1.284   0.972   6.771
10097SOL    HW231191   1.442   0.932   6.789
10098SOL     OW31192   2.271   4.773   6.431
10098SOL    HW131193   2.293   4.788   6.334
10098SOL    HW231194   2.179   4.735   6.439
10099SOL     OW31195   6.936   4.484   4.474
10099SOL    HW131196   6.957   4.386   4.464
10099SOL    HW231197   7.007   4.527   4.530
10100SOL     OW31198   5.376   1.178   5.018
10100SOL    HW131199   5.384   1.105   5.086
10100SOL    HW231200   5.384   1.267   5.063
10101SOL     OW31201   0.270   4.772   2.267
10101SOL    HW131202   0.280   4.784   2.366
10101SOL    HW231203   0.173   4.771   2.243
10102SOL     OW31204   2.433   1.537   2.602
10102SOL    HW131205   2.383   1.488   2.673
10102SOL    HW231206   2.379   1.616   2.572
10103SOL     OW31207   2.754   2.378   6.915
10103SOL    HW131208   2.788   2.451   6.856
10103SOL    HW231209   2.685   2.414   6.977
10104SOL     OW31210   1.282   5.929   5.135
10104SOL    HW131211   1.235   5.922   5.223
10104SOL    HW231212   1.226   5.887   5.064
10105SOL     OW31213   2.322   0.521   6.454
10105SOL    HW131214   2.363   0.446   6.401
10105SOL    HW231215   2.392   0.562   6.512
10106SOL     OW31216   5.152   5.603   0.331
10106SOL    HW131217   5.141   5.698   0.301
10106SOL    HW231218   5.062   5.559   0.336
10107SOL     OW31219   5.550   1.469   5.960
10107SOL    HW131220   5.585   1.520   6.038
10107SOL    HW231221   5.470   1.415   5.988
10108SOL     OW31222   6.359   6.711   0.638
10108SOL    HW131223   6.416   6.759   0.571
10108SOL    HW231224   6.380   6.745   0.730
10109SOL     OW31225   4.735   4.971   3.583
10109SOL    HW131226   4.652   4.932   3.624
10109SOL    HW231227   4.751   5.062   3.621
10110SOL     OW31228   3.611   0.592   5.992
10110SOL    HW131229   3.623   0.679   6.040
10110SOL    HW231230   3.638   0.602   5.897
10111SOL     OW31231   0.639   2.397   2.679
10111SOL    HW131232   0.579   2.324   2.648
10111SOL    HW231233   0.638   2.472   2.614
10112SOL     OW31234   4.515   4.503   5.546
10112SOL    HW131235   4.557   4.430   5.492
10112SOL    HW231236   4.423   4.521   5.512
10113SOL     OW31237   3.900   6.804   6.994
10113SOL    HW131238   3.921   6.706   6.990
10113SOL    HW231239   3.945   6.843   0.055
10114SOL     OW31240   4.367   0.615   1.103
10114SOL    HW131241   4.279   0.627   1.149
10114SOL    HW231242   4.392   0.700   1.056
10115SOL     OW31243   2.133   1.838   3.888
10115SOL    HW131244   2.122   1.739   3.880
10115SOL    HW231245   2.217   1.859   3.937
10116SOL     OW31246   1.115   1.265   1.509
10116SOL    HW131247   1.165   1.205   1.448
10116SOL    HW231248   1.049   1.212   1.562
10117SOL     OW31249   5.240   0.715   5.960
10117SOL    HW131250   5.165   0.669   6.009
10117SOL    HW231251   5.266   0.798   6.009
10118SOL     OW31252   7.018   5.386   1.612
10118SOL    HW131253   6.983   5.326   1.684
10118SOL    HW231254   6.946   5.448   1.582
10119SOL     OW31255   2.546   0.867   5.709
10119SOL    HW131256   2.621   0.909   5.658
10119SOL    HW231257   2.560   0.884   5.807
10120SOL     OW31258   0.038   2.814   3.670
10120SOL    HW131259   0.090   2.728   3.671
10120SOL    HW231260   7.008   2.824   3.756
10121SOL     OW31261   6.607   4.672   5.110
10121SOL    HW131262   6.621   4.656   5.208
10121SOL    HW231263   6.663   4.607   5.058
10122SOL     OW31264   5.295   3.573   0.604
10122SOL    HW131265   5.281   3.666   0.571
10122SOL    HW231266   5.392   3.550   0.599
10123SOL     OW31267   0.169   6.326   0.199
10123SOL    HW131268   0.130   6.411   0.164
10123SOL    HW231269   0.108   6.250   0.177
10124SOL     OW31270   3.139   4.099   0.413
10124SOL    HW131271   3.149   4.109   0.314
10124SOL    HW231272   3.183   4.178   0.459
10125SOL     OW31273   1.152   0.657   1.772
10125SOL    HW131274   1.213   0.617   1.841
10125SOL    HW231275   1.150   0.756   1.782
10126SOL     OW31276   6.587   5.234   0.778
10126SOL    HW131277   6.488   5.225   0.788
10126SOL    HW231278   6.608   5.278   0.691
10127SOL     OW31279   4.036   5.465   5.240
10127SOL    HW131280   4.036   5.485   5.338
10127SOL    HW231281   3.942   5.463   5.207
10128SOL     OW31282   0.237   2.397   0.941
10128SOL    HW131283   0.322   2.360   0.978
10128SOL    HW231284   0.253   2.428   0.847
10129SOL     OW31285   6.109   2.490   3.154
10129SOL    HW131286   6.055   2.502   3.237
10129SOL    HW231287   6.117   2.578   3.106
10130SOL     OW31288   6.563   5.364   1.280
10130SOL    HW131289   6.572   5.375   1.379
10130SOL    HW231290   6.631   5.299   1.246
10131SOL     OW31291   0.192   1.024   1.069
10131SOL    HW131292   0.151   1.111   1.093
10131SOL    HW231293   0.127   0.970   1.015
10132SOL     OW31294   3.039   6.850   2.644
10132SOL    HW131295   3.071   6.942   2.622
10132SOL    HW231296   3.117   6.788   2.652
10133SOL     OW31297   5.143   5.812   3.276
10133SOL    HW131298   5.135   5.880   3.203
10133SOL    HW231299   5.117   5.722   3.241
10134SOL     OW31300   0.049   1.416   3.015
10134SOL    HW131301   6.991   1.362   3.048
10134SOL    HW231302   0.038   1.511   3.046
10135SOL     OW31303   4.233   4.989   3.149
10135SOL    HW131304   4.298   5.062   3.126
10135SOL    HW231305   4.178   4.968   3.068
10136SOL     OW31306   5.865   6.715   3.366
10136SOL    HW131307   5.936   6.772   3.324
10136SOL    HW231308   5.785   6.772   3.387
10137SOL     OW31309   6.483   5.136   3.727
10137SOL    HW131310   6.517   5.204   3.793
10137SOL    HW231311   6.560   5.101   3.673
10138SOL     OW31312   5.483   2.414   6.623
10138SOL    HW131313   5.536   2.498   6.625
10138SOL    HW231314   5.393   2.430   6.663
10139SOL     OW31315   3.700   2.965   3.288
10139SOL    HW131316   3.634   2.901   3.329
10139SOL    HW231317   3.676   2.981   3.193
10140SOL     OW31318   0.115   5.087   6.214
10140SOL    HW131319   0.198   5.065   6.265
10140SOL    HW231320   0.039   5.033   6.250
10141SOL     OW31321   1.698   0.706   4.098
10141SOL    HW131322   1.670   0.612   4.115
10141SOL    HW231323   1.704   0.721   3.999
10142SOL     OW31324   4.485   6.140   4.859
10142SOL    HW131325   4.496   6.177   4.767
10142SOL    HW231326   4.432   6.055   4.855
10143SOL     OW31327   4.515   7.011   1.172
10143SOL    HW131328   4.586   6.996   1.240
10143SOL    HW231329   4.515   6.935   1.106
10144SOL     OW31330   3.065   5.424   4.137
10144SOL    HW131331   2.999   5.401   4.066
10144SOL    HW231332   3.105   5.514   4.118
10145SOL     OW31333   3.062   6.095   5.587
10145SOL    HW131334   2.993   6.041   5.636
10145SOL    HW231335   3.145   6.102   5.643
10146SOL     OW31336   4.075   5.319   4.326
10146SOL    HW131337   4.138   5.267   4.269
10146SOL    HW231338   3.986   5.275   4.326
10147SOL     OW31339   4.626   4.934   4.776
10147SOL    HW131340   4.598   4.964   4.867
10147SOL    HW231341   4.562   4.865   4.743
10148SOL     OW31342   5.643   5.983   0.706
10148SOL    HW131343   5.559   5.931   0.718
10148SOL    HW231344   5.714   5.947   0.767
10149SOL     OW31345   4.168   2.564   1.138
10149SOL    HW131346   4.117   2.597   1.217
10149SOL    HW231347   4.110   2.500   1.086
10150SOL     OW31348   4.484   4.271   1.346
10150SOL    HW131349   4.481   4.201   1.418
10150SOL    HW231350   4.536   4.350   1.378
10151SOL     OW31351   2.059   6.955   5.720
10151SOL    HW131352   2.057   6.922   5.625
10151SOL    HW231353   2.016   6.887   5.779
10152SOL     OW31354   6.952   5.575   3.465
10152SOL    HW131355   6.877   5.511   3.446
10152SOL    HW231356   6.968   5.577   3.564
10153SOL     OW31357   5.159   6.249   4.550
10153SOL    HW131358   5.226   6.199   4.495
10153SOL    HW231359   5.167   6.222   4.645
10154SOL     OW31360   6.709   5.086   5.931
10154SOL    HW131361   6.669   5.071   6.022
10154SOL    HW231362   6.761   5.171   5.931
10155SOL     OW31363   4.088   0.709   6.007
10155SOL    HW131364   4.053   0.673   5.920
10155SOL    HW231365   4.170   0.763   5.991
10156SOL     OW31366   5.859   0.907   2.217
10156SOL    HW131367   5.864   0.858   2.131
10156SOL    HW231368   5.853   0.842   2.293
10157SOL     OW31369   5.691   1.388   6.367
10157SOL    HW131370   5.710   1.485   6.351
10157SOL    HW231371   5.770   1.334   6.341
10158SOL     OW31372   4.374   3.501   6.891
10158SOL    HW131373   4.353   3.518   6.987
10158SOL    HW231374   4.374   3.403   6.873
10159SOL     OW31375   1.431   2.083   6.399
10159SOL    HW131376   1.467   1.990   6.391
10159SOL    HW231377   1.480   2.143   6.336
10160SOL     OW31378   0.255   5.386   3.886
10160SOL    HW131379   0.159   5.384   3.858
10160SOL    HW231380   0.263   5.436   3.972
10161SOL     OW31381   3.162   5.477   6.199
10161SOL    HW131382   3.225   5.452   6.126
10161SOL    HW231383   3.194   5.561   6.244
10162SOL     OW31384   3.166   2.365   6.785
10162SOL    HW131385   3.101   2.441   6.781
10162SOL    HW231386   3.119   2.281   6.810
10163SOL     OW31387   6.067   3.494   5.911
10163SOL    HW131388   6.106   3.495   5.819
10163SOL    HW231389   6.070   3.586   5.949
10164SOL     OW31390   6.880   3.008   5.003
10164SOL    HW131391   6.810   3.070   4.968
10164SOL    HW231392   6.895   3.026   5.100
10165SOL     OW31393   0.427   1.889   4.768
10165SOL    HW131394   0.392   1.827   4.698
10165SOL    HW231395   0.470   1.968   4.724
10166SOL     OW31396   2.370   1.391   1.907
10166SOL    HW131397   2.429   1.356   1.835
10166SOL    HW231398   2.326   1.475   1.877
10167SOL     OW31399   4.794   0.161   0.318
10167SOL    HW131400   4.885   0.148   0.358
10167SOL    HW231401   4.802   0.165   0.219
10168SOL     OW31402   6.868   4.439   3.839
10168SOL    HW131403   6.817   4.363   3.880
10168SOL    HW231404   6.946   4.462   3.897
10169SOL     OW31405   6.603   4.038   3.715
10169SOL    HW131406   6.577   4.011   3.807
10169SOL    HW231407   6.556   4.123   3.691
10170SOL     OW31408   1.715   4.585   4.920
10170SOL    HW131409   1.806   4.603   4.956
10170SOL    HW231410   1.706   4.487   4.897
10171SOL     OW31411   6.830   4.113   6.373
10171SOL    HW131412   6.843   4.034   6.313
10171SOL    HW231413   6.862   4.196   6.326
10172SOL     OW31414   4.898   0.835   2.439
10172SOL    HW131415   4.825   0.784   2.484
10172SOL    HW231416   4.879   0.843   2.341
10173SOL     OW31417   1.773   1.745   2.246
10173SOL    HW131418   1.740   1.823   2.299
10173SOL    HW231419   1.871   1.734   2.260
10174SOL     OW31420   6.748   4.827   2.817
10174SOL    HW131421   6.797   4.766   2.755
10174SOL    HW231422   6.810   4.896   2.853
10175SOL     OW31423   6.257   2.302   5.856
10175SOL    HW131424   6.163   2.323   5.880
10175SOL    HW231425   6.268   2.307   5.756
10176SOL     OW31426   2.032   3.939   6.852
10176SOL    HW131427   1.935   3.938   6.877
10176SOL    HW231428   2.088   3.926   6.934
10177SOL     OW31429   3.120   6.114   0.184
10177SOL    HW131430   3.095   6.210   0.197
10177SOL    HW231431   3.052   6.069   0.126
10178SOL     OW31432   6.207   2.804   4.685
10178SOL    HW131433   6.199   2.902   4.705
10178SOL    HW231434   6.226   2.754   4.769
10179SOL     OW31435   1.294   2.603   5.996
10179SOL    HW131436   1.220   2.579   6.059
10179SOL    HW231437   1.369   2.538   6.007
10180SOL     OW31438   2.711   5.662   5.525
10180SOL    HW131439   2.744   5.600   5.597
10180SOL    HW231440   2.765   5.746   5.527
10181SOL     OW31441   6.035   3.444   1.108
10181SOL    HW131442   6.117   3.390   1.129
10181SOL    HW231443   5.955   3.383   1.105
10182SOL     OW31444   5.752   1.306   1.120
10182SOL    HW131445   5.729   1.223   1.170
10182SOL    HW231446   5.851   1.310   1.105
10183SOL     OW31447   1.786   1.698   5.952
10183SOL    HW131448   1.846   1.751   5.891
10183SOL    HW231449   1.839   1.668   6.031
10184SOL     OW31450   4.409   0.973   6.212
10184SOL    HW131451   4.455   1.057   6.182
10184SOL    HW231452   4.478   0.907   6.242
10185SOL     OW31453   4.763   6.875   0.867
10185SOL    HW131454   4.831   6.802   0.866
10185SOL    HW231455   4.686   6.849   0.925
10186SOL     OW31456   4.556   2.614   2.727
10186SOL    HW131457   4.595   2.695   2.683
10186SOL    HW231458   4.533   2.635   2.822
10187SOL     OW31459   0.808   2.494   1.700
10187SOL    HW131460   0.750   2.576   1.698
10187SOL    HW231461   0.783   2.439   1.780
10188SOL     OW31462   4.273   6.333   0.556
10188SOL    HW131463   4.264   6.340   0.655
10188SOL    HW231464   4.220   6.406   0.513
10189SOL     OW31465   1.760   6.423   5.229
10189SOL    HW131466   1.767   6.357   5.304
10189SOL    HW231467   1.668   6.421   5.192
10190SOL     OW31468   4.867   2.771   6.955
10190SOL    HW131469   4.889   2.838   0.006
10190SOL    HW231470   4.843   2.684   6.998
10191SOL     OW31471   5.466   4.895   0.420
10191SOL    HW131472   5.553   4.945   0.417
10191SOL    HW231473   5.421   4.901   0.331
10192SOL     OW31474   3.607   1.011   5.725
10192SOL    HW131475   3.557   1.008   5.811
10192SOL    HW231476   3.544   0.992   5.649
10193SOL     OW31477   4.885   4.170   0.555
10193SOL    HW131478   4.812   4.232   0.579
10193SOL    HW231479   4.853   4.105   0.485
10194SOL     OW31480   5.831   4.152   5.534
10194SOL    HW131481   5.904   4.136   5.468
10194SOL    HW231482   5.787   4.065   5.556
10195SOL     OW31483   6.870   4.373   1.608
10195SOL    HW131484   6.809   4.378   1.529
10195SOL    HW231485   6.818   4.346   1.689
10196SOL     OW31486   0.230   1.636   4.851
10196SOL    HW131487   0.319   1.682   4.852
10196SOL    HW231488   0.234   1.555   4.911
10197SOL     OW31489   5.992   0.538   5.826
10197SOL    HW131490   5.962   0.459   5.772
10197SOL    HW231491   5.970   0.523   5.922
10198SOL     OW31492   3.783   0.056   2.779
10198SOL    HW131493   3.861   0.049   2.717
10198SOL    HW231494   3.700   0.023   2.733
10199SOL     OW31495   1.332   2.906   5.585
10199SOL    HW131496   1.346   2.847   5.664
10199SOL    HW231497   1.241   2.891   5.546
10200SOL     OW31498   6.302   3.359   1.184
10200SOL    HW131499   6.371   3.376   1.114
10200SOL    HW231500   6.343   3.368   1.275
10201SOL     OW31501   0.939   3.681   0.953
10201SOL    HW131502   0.970   3.776   0.953
10201SOL    HW231503   0.839   3.678   0.957
10202SOL     OW31504   3.708   0.608   5.742
10202SOL    HW131505   3.767   0.669   5.688
10202SOL    HW231506   3.716   0.515   5.708
10203SOL     OW31507   6.248   2.645   4.927
10203SOL    HW131508   6.197   2.573   4.974
10203SOL    HW231509   6.344   2.640   4.955
10204SOL     OW31510   5.291   6.443   6.885
10204SOL    HW131511   5.386   6.459   6.913
10204SOL    HW231512   5.280   6.347   6.860
10205SOL     OW31513   1.381   0.778   6.130
10205SOL    HW131514   1.349   0.684   6.142
10205SOL    HW231515   1.308   0.833   6.089
10206SOL     OW31516   1.442   0.643   5.576
10206SOL    HW131517   1.458   0.718   5.641
10206SOL    HW231518   1.430   0.558   5.626
10207SOL     OW31519   1.184   1.461   5.606
10207SOL    HW131520   1.151   1.459   5.700
10207SOL    HW231521   1.115   1.422   5.545
10208SOL     OW31522   6.410   4.907   5.187
10208SOL    HW131523   6.493   4.909   5.131
10208SOL    HW231524   6.435   4.891   5.283
10209SOL     OW31525   6.852   6.830   6.668
10209SOL    HW131526   6.917   6.857   6.597
10209SOL    HW231527   6.759   6.837   6.633
10210SOL     OW31528   4.046   6.051   2.194
10210SOL    HW131529   4.120   6.050   2.261
10210SOL    HW231530   3.960   6.025   2.237
10211SOL     OW31531   4.452   5.753   5.480
10211SOL    HW131532   4.399   5.822   5.429
10211SOL    HW231533   4.549   5.774   5.472
10212SOL     OW31534   0.612   0.401   6.103
10212SOL    HW131535   0.598   0.306   6.131
10212SOL    HW231536   0.574   0.414   6.011
10213SOL     OW31537   5.265   1.442   0.843
10213SOL    HW131538   5.328   1.496   0.787
10213SOL    HW231539   5.288   1.454   0.940
10214SOL     OW31540   0.580   2.575   0.813
10214SOL    HW131541   0.590   2.672   0.833
10214SOL    HW231542   0.610   2.521   0.891
10215SOL     OW31543   3.112   3.571   2.493
10215SOL    HW131544   3.055   3.490   2.505
10215SOL    HW231545   3.080   3.623   2.414
10216SOL     OW31546   6.685   6.763   2.587
10216SOL    HW131547   6.741   6.835   2.628
10216SOL    HW231548   6.635   6.801   2.509
10217SOL     OW31549   3.304   0.954   3.403
10217SOL    HW131550   3.272   1.048   3.398
10217SOL    HW231551   3.350   0.939   3.491
10218SOL     OW31552   1.306   2.339   2.138
10218SOL    HW131553   1.315   2.405   2.212
10218SOL    HW231554   1.210   2.327   2.115
10219SOL     OW31555   0.144   0.764   2.451
10219SOL    HW131556   0.221   0.814   2.413
10219SOL    HW231557   0.059   0.811   2.430
10220SOL     OW31558   3.363   2.864   1.865
10220SOL    HW131559   3.398   2.854   1.958
10220SOL    HW231560   3.274   2.818   1.857
10221SOL     OW31561   0.747   6.157   3.481
10221SOL    HW131562   0.847   6.152   3.483
10221SOL    HW231563   0.718   6.245   3.518
10222SOL     OW31564   3.006   3.758   4.481
10222SOL    HW131565   2.994   3.819   4.560
10222SOL    HW231566   3.043   3.671   4.511
10223SOL     OW31567   0.814   5.658   1.576
10223SOL    HW131568   0.753   5.723   1.620
10223SOL    HW231569   0.844   5.694   1.488
10224SOL     OW31570   5.662   3.828   3.523
10224SOL    HW131571   5.752   3.785   3.531
10224SOL    HW231572   5.650   3.893   3.598
10225SOL     OW31573   2.290   3.593   6.143
10225SOL    HW131574   2.286   3.614   6.045
10225SOL    HW231575   2.301   3.677   6.196
10226SOL     OW31576   4.705   2.140   6.919
10226SOL    HW131577   4.661   2.179   7.000
10226SOL    HW231578   4.764   2.209   6.878
10227SOL     OW31579   5.108   3.750   0.973
10227SOL    HW131580   5.090   3.656   0.946
10227SOL    HW231581   5.109   3.757   1.073
10228SOL     OW31582   5.440   0.665   0.829
10228SOL    HW131583   5.367   0.615   0.782
10228SOL    HW231584   5.425   0.661   0.928
10229SOL     OW31585   6.933   3.393   4.362
10229SOL    HW131586   0.013   3.399   4.370
10229SOL    HW231587   6.893   3.484   4.367
10230SOL     OW31588   0.229   6.266   2.290
10230SOL    HW131589   0.213   6.273   2.388
10230SOL    HW231590   0.145   6.240   2.244
10231SOL     OW31591   1.416   5.318   2.932
10231SOL    HW131592   1.322   5.348   2.913
10231SOL    HW231593   1.432   5.229   2.890
10232SOL     OW31594   5.078   5.247   4.019
10232SOL    HW131595   5.069   5.329   3.963
10232SOL    HW231596   5.011   5.250   4.094
10233SOL     OW31597   3.739   4.324   5.842
10233SOL    HW131598   3.652   4.292   5.879
10233SOL    HW231599   3.808   4.252   5.853
10234SOL     OW31600   6.808   1.171   1.748
10234SOL    HW131601   6.729   1.148   1.691
10234SOL    HW231602   6.864   1.089   1.762
10235SOL     OW31603   1.480   0.862   2.959
10235SOL    HW131604   1.571   0.878   2.997
10235SOL    HW231605   1.421   0.820   3.028
10236SOL     OW31606   2.500   0.033   1.438
10236SOL    HW131607   2.533   7.015   1.351
10236SOL    HW231608   2.556   7.018   1.512
10237SOL     OW31609   0.469   3.499   5.876
10237SOL    HW131610   0.422   3.569   5.823
10237SOL    HW231611   0.529   3.446   5.816
10238SOL     OW31612   3.243   6.602   1.389
10238SOL    HW131613   3.196   6.639   1.309
10238SOL    HW231614   3.185   6.612   1.470
10239SOL     OW31615   1.550   2.735   4.551
10239SOL    HW131616   1.645   2.730   4.521
10239SOL    HW231617   1.531   2.661   4.615
10240SOL     OW31618   2.316   6.948   0.868
10240SOL    HW131619   2.280   6.989   0.952
10240SOL    HW231620   2.392   6.888   0.890
10241SOL     OW31621   3.765   2.565   1.659
10241SOL    HW131622   3.685   2.577   1.717
10241SOL    HW231623   3.810   2.478   1.681
10242SOL     OW31624   0.204   2.888   6.939
10242SOL    HW131625   0.201   2.792   6.966
10242SOL    HW231626   0.147   2.941   7.002
10243SOL     OW31627   2.523   5.274   0.836
10243SOL    HW131628   2.586   5.348   0.813
10243SOL    HW231629   2.437   5.313   0.868
10244SOL     OW31630   2.734   4.921   1.386
10244SOL    HW131631   2.710   4.840   1.439
10244SOL    HW231632   2.656   4.950   1.330
10245SOL     OW31633   4.323   4.074   0.814
10245SOL    HW131634   4.396   4.107   0.754
10245SOL    HW231635   4.269   4.152   0.847
10246SOL     OW31636   3.026   3.876   4.224
10246SOL    HW131637   2.960   3.828   4.165
10246SOL    HW231638   3.025   3.834   4.315
10247SOL     OW31639   0.525   2.509   4.924
10247SOL    HW131640   0.498   2.590   4.976
10247SOL    HW231641   0.608   2.470   4.964
10248SOL     OW31642   0.976   0.387   3.441
10248SOL    HW131643   1.076   0.399   3.446
10248SOL    HW231644   0.945   0.332   3.518
10249SOL     OW31645   2.630   5.104   6.715
10249SOL    HW131646   2.642   5.195   6.676
10249SOL    HW231647   2.712   5.049   6.697
10250SOL     OW31648   4.381   2.403   0.679
10250SOL    HW131649   4.424   2.493   0.685
10250SOL    HW231650   4.282   2.414   0.673
10251SOL     OW31651   1.882   0.341   4.195
10251SOL    HW131652   1.915   0.331   4.289
10251SOL    HW231653   1.958   0.371   4.137
10252SOL     OW31654   5.625   4.109   5.991
10252SOL    HW131655   5.530   4.086   6.014
10252SOL    HW231656   5.642   4.086   5.895
10253SOL     OW31657   3.961   6.246   6.388
10253SOL    HW131658   3.972   6.179   6.461
10253SOL    HW231659   3.994   6.335   6.420
10254SOL     OW31660   5.651   1.430   5.305
10254SOL    HW131661   5.657   1.384   5.394
10254SOL    HW231662   5.639   1.528   5.319
10255SOL     OW31663   3.745   5.248   2.122
10255SOL    HW131664   3.797   5.334   2.124
10255SOL    HW231665   3.704   5.232   2.211
10256SOL     OW31666   4.411   0.975   2.931
10256SOL    HW131667   4.506   0.995   2.956
10256SOL    HW231668   4.376   1.046   2.870
10257SOL     OW31669   3.242   5.243   2.726
10257SOL    HW131670   3.152   5.260   2.685
10257SOL    HW231671   3.240   5.270   2.822
10258SOL     OW31672   1.222   1.253   1.943
10258SOL    HW131673   1.166   1.194   2.002
10258SOL    HW231674   1.290   1.198   1.896
10259SOL     OW31675   1.471   4.023   3.515
10259SOL    HW131676   1.385   3.992   3.476
10259SOL    HW231677   1.453   4.088   3.589
10260SOL     OW31678   1.048   0.584   3.692
10260SOL    HW131679   0.977   0.518   3.719
10260SOL    HW231680   1.062   0.579   3.593
10261SOL     OW31681   6.602   3.637   1.099
10261SOL    HW131682   6.649   3.552   1.073
10261SOL    HW231683   6.658   3.687   1.165
10262SOL     OW31684   4.091   1.198   0.350
10262SOL    HW131685   4.182   1.234   0.373
10262SOL    HW231686   4.096   1.147   0.264
10263SOL     OW31687   6.025   0.908   1.568
10263SOL    HW131688   5.962   0.861   1.629
10263SOL    HW231689   6.047   0.998   1.605
10264SOL     OW31690   0.057   5.941   6.147
10264SOL    HW131691   6.985   5.925   6.108
10264SOL    HW231692   0.119   5.971   6.074
10265SOL     OW31693   2.021   1.794   0.194
10265SOL    HW131694   1.944   1.793   0.258
10265SOL    HW231695   2.078   1.714   0.209
10266SOL     OW31696   2.889   3.579   1.989
10266SOL    HW131697   2.854   3.632   1.912
10266SOL    HW231698   2.987   3.597   2.000
10267SOL     OW31699   5.706   0.995   1.145
10267SOL    HW131700   5.777   0.954   1.202
10267SOL    HW231701   5.684   0.933   1.070
10268SOL     OW31702   4.034   0.159   1.375
10268SOL    HW131703   4.001   0.251   1.356
10268SOL    HW231704   3.956   0.096   1.379
10269SOL     OW31705   2.962   2.564   0.634
10269SOL    HW131706   2.919   2.536   0.549
10269SOL    HW231707   2.960   2.489   0.700
10270SOL     OW31708   2.582   0.174   2.189
10270SOL    HW131709   2.576   0.101   2.120
10270SOL    HW231710   2.656   0.153   2.253
10271SOL     OW31711   1.391   2.010   6.971
10271SOL    HW131712   1.299   1.972   6.968
10271SOL    HW231713   1.402   2.078   6.898
10272SOL     OW31714   6.274   0.426   5.000
10272SOL    HW131715   6.189   0.451   5.044
10272SOL    HW231716   6.255   0.380   4.913
10273SOL     OW31717   2.358   4.961   3.326
10273SOL    HW131718   2.453   4.932   3.336
10273SOL    HW231719   2.327   4.941   3.233
10274SOL     OW31720   0.306   5.265   5.305
10274SOL    HW131721   0.303   5.360   5.337
10274SOL    HW231722   0.397   5.245   5.268
10275SOL     OW31723   0.014   0.426   2.717
10275SOL    HW131724   6.971   0.429   2.639
10275SOL    HW231725   6.992   0.372   2.791
10276SOL     OW31726   3.435   6.032   5.863
10276SOL    HW131727   3.471   6.035   5.769
10276SOL    HW231728   3.338   6.058   5.862
10277SOL     OW31729   0.195   6.649   4.319
10277SOL    HW131730   0.113   6.700   4.295
10277SOL    HW231731   0.187   6.555   4.286
10278SOL     OW31732   6.810   0.365   5.293
10278SOL    HW131733   6.729   0.423   5.301
10278SOL    HW231734   6.878   0.392   5.362
10279SOL     OW31735   2.037   5.953   3.962
10279SOL    HW131736   1.969   5.891   3.920
10279SOL    HW231737   2.041   5.936   4.060
10280SOL     OW31738   5.384   4.206   0.658
10280SOL    HW131739   5.374   4.170   0.751
10280SOL    HW231740   5.433   4.293   0.661
10281SOL     OW31741   6.982   1.974   3.728
10281SOL    HW131742   7.010   2.069   3.743
10281SOL    HW231743   6.887   1.972   3.695
10282SOL     OW31744   5.319   3.181   3.502
10282SOL    HW131745   5.240   3.200   3.561
10282SOL    HW231746   5.400   3.165   3.559
10283SOL     OW31747   0.597   3.126   1.044
10283SOL    HW131748   0.600   3.200   1.111
10283SOL    HW231749   0.653   3.049   1.077
10284SOL     OW31750   0.409   3.213   3.830
10284SOL    HW131751   0.342   3.144   3.858
10284SOL    HW231752   0.481   3.170   3.777
10285SOL     OW31753   5.436   6.231   4.864
10285SOL    HW131754   5.483   6.234   4.953
10285SOL    HW231755   5.494   6.184   4.798
10286SOL     OW31756   2.722   1.217   3.873
10286SOL    HW131757   2.721   1.288   3.943
10286SOL    HW231758   2.666   1.247   3.795
10287SOL     OW31759   2.613   5.605   2.655
10287SOL    HW131760   2.544   5.619   2.726
10287SOL    HW231761   2.570   5.606   2.565
10288SOL     OW31762   3.547   0.001   5.586
10288SOL    HW131763   3.458   6.997   5.624
10288SOL    HW231764   3.548   6.999   5.488
10289SOL     OW31765   3.127   5.681   6.562
10289SOL    HW131766   3.216   5.715   6.593
10289SOL    HW231767   3.059   5.753   6.569
10290SOL     OW31768   2.933   3.228   2.314
10290SOL    HW131769   2.863   3.185   2.257
10290SOL    HW231770   3.023   3.216   2.271
10291SOL     OW31771   2.009   1.795   2.633
10291SOL    HW131772   1.993   1.835   2.542
10291SOL    HW231773   2.007   1.695   2.627
10292SOL     OW31774   6.230   6.389   6.846
10292SOL    HW131775   6.238   6.447   6.765
10292SOL    HW231776   6.151   6.419   6.901
10293SOL     OW31777   1.232   4.196   4.166
10293SOL    HW131778   1.291   4.253   4.109
10293SOL    HW231779   1.170   4.254   4.218
10294SOL     OW31780   4.095   1.507   2.198
10294SOL    HW131781   4.107   1.413   2.230
10294SOL    HW231782   4.035   1.556   2.261
10295SOL     OW31783   1.180   1.818   6.856
10295SOL    HW131784   1.113   1.777   6.918
10295SOL    HW231785   1.212   1.750   6.791
10296SOL     OW31786   5.507   1.611   5.726
10296SOL    HW131787   5.409   1.618   5.707
10296SOL    HW231788   5.522   1.542   5.797
10297SOL     OW31789   3.111   1.376   6.968
10297SOL    HW131790   3.153   1.430   6.895
10297SOL    HW231791   3.139   1.412   0.037
10298SOL     OW31792   0.852   2.273   2.828
10298SOL    HW131793   0.849   2.290   2.926
10298SOL    HW231794   0.799   2.343   2.780
10299SOL     OW31795   4.125   6.212   2.625
10299SOL    HW131796   4.180   6.287   2.586
10299SOL    HW231797   4.172   6.175   2.706
10300SOL     OW31798   0.696   3.444   1.980
10300SOL    HW131799   0.765   3.472   2.046
10300SOL    HW231800   0.659   3.354   2.004
10301SOL     OW31801   4.263   0.407   6.105
10301SOL    HW131802   4.228   0.390   6.013
10301SOL    HW231803   4.189   0.396   6.172
10302SOL     OW31804   2.767   6.056   4.748
10302SOL    HW131805   2.850   6.007   4.722
10302SOL    HW231806   2.736   6.111   4.671
10303SOL     OW31807   0.909   5.969   5.024
10303SOL    HW131808   0.846   5.918   4.965
10303SOL    HW231809   0.961   6.034   4.969
10304SOL     OW31810   6.316   6.780   0.130
10304SOL    HW131811   6.328   6.787   0.031
10304SOL    HW231812   6.351   6.692   0.161
10305SOL     OW31813   2.245   4.203   5.687
10305SOL    HW131814   2.341   4.202   5.658
10305SOL    HW231815   2.186   4.187   5.607
10306SOL     OW31816   4.661   0.274   1.111
10306SOL    HW131817   4.665   0.215   1.030
10306SOL    HW231818   4.566   0.293   1.134
10307SOL     OW31819   2.485   6.912   4.506
10307SOL    HW131820   2.386   6.930   4.507
10307SOL    HW231821   2.534   6.996   4.528
10308SOL     OW31822   2.680   5.011   2.693
10308SOL    HW131823   2.697   4.934   2.633
10308SOL    HW231824   2.761   5.029   2.748
10309SOL     OW31825   6.102   1.423   5.004
10309SOL    HW131826   6.003   1.409   4.994
10309SOL    HW231827   6.136   1.363   5.076
10310SOL     OW31828   2.719   3.565   5.966
10310SOL    HW131829   2.695   3.636   5.900
10310SOL    HW231830   2.810   3.530   5.946
10311SOL     OW31831   5.128   6.094   0.450
10311SOL    HW131832   5.043   6.060   0.490
10311SOL    HW231833   5.179   6.148   0.517
10312SOL     OW31834   4.430   0.494   1.910
10312SOL    HW131835   4.475   0.423   1.964
10312SOL    HW231836   4.338   0.509   1.946
10313SOL     OW31837   4.749   6.363   3.053
10313SOL    HW131838   4.688   6.337   3.128
10313SOL    HW231839   4.755   6.463   3.049
10314SOL     OW31840   0.698   0.503   1.153
10314SOL    HW131841   0.707   0.495   1.252
10314SOL    HW231842   0.676   0.597   1.129
10315SOL     OW31843   5.670   6.152   3.908
10315SOL    HW131844   5.652   6.061   3.944
10315SOL    HW231845   5.675   6.148   3.808
10316SOL     OW31846   0.814   2.045   6.961
10316SOL    HW131847   0.845   1.989   0.018
10316SOL    HW231848   0.715   2.062   6.969
10317SOL     OW31849   3.934   5.514   6.070
10317SOL    HW131850   3.953   5.546   5.977
10317SOL    HW231851   4.018   5.476   6.109
10318SOL     OW31852   6.073   6.974   0.182
10318SOL    HW131853   5.983   6.948   0.215
10318SOL    HW231854   6.141   6.959   0.254
10319SOL     OW31855   0.421   4.379   4.354
10319SOL    HW131856   0.413   4.350   4.449
10319SOL    HW231857   0.482   4.316   4.305
10320SOL     OW31858   0.631   6.862   4.025
10320SOL    HW131859   0.722   6.831   4.051
10320SOL    HW231860   0.565   6.787   4.034
10321SOL     OW31861   5.458   2.309   1.971
10321SOL    HW131862   5.432   2.389   1.918
10321SOL    HW231863   5.467   2.335   2.067
10322SOL     OW31864   4.542   4.511   4.859
10322SOL    HW131865   4.447   4.525   4.887
10322SOL    HW231866   4.603   4.566   4.916
10323SOL     OW31867   0.461   4.451   5.224
10323SOL    HW131868   0.496   4.539   5.256
10323SOL    HW231869   0.520   4.378   5.258
10324SOL     OW31870   3.189   3.246   2.194
10324SOL    HW131871   3.234   3.186   2.128
10324SOL    HW231872   3.231   3.337   2.190
10325SOL     OW31873   0.147   5.939   3.082
10325SOL    HW131874   0.079   5.871   3.110
10325SOL    HW231875   0.233   5.894   3.060
10326SOL     OW31876   5.565   3.194   6.639
10326SOL    HW131877   5.568   3.274   6.579
10326SOL    HW231878   5.541   3.113   6.586
10327SOL     OW31879   2.295   3.881   0.762
10327SOL    HW131880   2.389   3.866   0.733
10327SOL    HW231881   2.290   3.883   0.862
10328SOL     OW31882   6.484   3.049   1.847
10328SOL    HW131883   6.470   2.964   1.797
10328SOL    HW231884   6.417   3.056   1.921
10329SOL     OW31885   3.529   1.333   2.781
10329SOL    HW131886   3.447   1.357   2.832
10329SOL    HW231887   3.594   1.286   2.840
10330SOL     OW31888   4.343   0.555   1.577
10330SOL    HW131889   4.391   0.491   1.637
10330SOL    HW231890   4.341   0.645   1.620
10331SOL     OW31891   6.303   5.521   0.072
10331SOL    HW131892   6.385   5.498   0.124
10331SOL    HW231893   6.319   5.605   0.020
10332SOL     OW31894   1.097   0.920   6.705
10332SOL    HW131895   1.044   1.005   6.709
10332SOL    HW231896   1.058   0.859   6.636
10333SOL     OW31897   1.156   5.607   4.750
10333SOL    HW131898   1.114   5.640   4.835
10333SOL    HW231899   1.168   5.508   4.755
10334SOL     OW31900   3.078   0.219   3.925
10334SOL    HW131901   3.142   0.201   3.850
10334SOL    HW231902   3.053   0.133   3.969
10335SOL     OW31903   0.616   2.898   5.994
10335SOL    HW131904   0.583   2.850   6.075
10335SOL    HW231905   0.595   2.844   5.913
10336SOL     OW31906   5.206   0.077   3.084
10336SOL    HW131907   5.259   0.147   3.132
10336SOL    HW231908   5.222   0.086   2.985
10337SOL     OW31909   6.004   5.283   6.769
10337SOL    HW131910   6.003   5.341   6.688
10337SOL    HW231911   5.947   5.324   6.840
10338SOL     OW31912   2.343   6.653   1.847
10338SOL    HW131913   2.362   6.735   1.794
10338SOL    HW231914   2.246   6.631   1.842
10339SOL     OW31915   6.491   2.501   5.796
10339SOL    HW131916   6.516   2.528   5.703
10339SOL    HW231917   6.427   2.425   5.793
10340SOL     OW31918   2.087   3.908   6.395
10340SOL    HW131919   2.113   3.954   6.310
10340SOL    HW231920   2.029   3.830   6.375
10341SOL     OW31921   2.141   2.617   3.053
10341SOL    HW131922   2.202   2.541   3.029
10341SOL    HW231923   2.141   2.685   2.979
10342SOL     OW31924   1.076   1.007   3.086
10342SOL    HW131925   1.066   0.908   3.095
10342SOL    HW231926   1.030   1.038   3.002
10343SOL     OW31927   2.359   5.503   1.245
10343SOL    HW131928   2.423   5.550   1.305
10343SOL    HW231929   2.374   5.531   1.150
10344SOL     OW31930   4.398   4.642   6.334
10344SOL    HW131931   4.414   4.738   6.354
10344SOL    HW231932   4.305   4.617   6.359
10345SOL     OW31933   1.334   3.630   4.739
10345SOL    HW131934   1.341   3.657   4.835
10345SOL    HW231935   1.413   3.665   4.689
10346SOL     OW31936   0.201   5.578   1.217
10346SOL    HW131937   0.258   5.598   1.297
10346SOL    HW231938   0.114   5.538   1.248
10347SOL     OW31939   4.513   1.476   3.609
10347SOL    HW131940   4.545   1.567   3.583
10347SOL    HW231941   4.582   1.408   3.586
10348SOL     OW31942   6.093   4.333   0.549
10348SOL    HW131943   6.065   4.261   0.486
10348SOL    HW231944   6.155   4.295   0.618
10349SOL     OW31945   0.401   6.515   6.601
10349SOL    HW131946   0.403   6.416   6.585
10349SOL    HW231947   0.483   6.542   6.652
10350SOL     OW31948   2.873   0.215   5.796
10350SOL    HW131949   2.830   0.305   5.794
10350SOL    HW231950   2.965   0.221   5.755
10351SOL     OW31951   4.887   5.384   5.819
10351SOL    HW131952   4.914   5.473   5.857
10351SOL    HW231953   4.956   5.316   5.842
10352SOL     OW31954   3.666   2.881   6.246
10352SOL    HW131955   3.696   2.791   6.278
10352SOL    HW231956   3.738   2.948   6.262
10353SOL     OW31957   6.927   2.391   4.815
10353SOL    HW131958   6.966   2.302   4.838
10353SOL    HW231959   6.991   2.463   4.842
10354SOL     OW31960   5.660   1.824   2.108
10354SOL    HW131961   5.632   1.787   2.020
10354SOL    HW231962   5.615   1.912   2.123
10355SOL     OW31963   2.135   5.843   1.904
10355SOL    HW131964   2.150   5.783   1.983
10355SOL    HW231965   2.095   5.790   1.830
10356SOL     OW31966   0.050   3.622   5.013
10356SOL    HW131967   6.984   3.645   5.061
10356SOL    HW231968   0.114   3.581   5.078
10357SOL     OW31969   2.313   1.538   6.994
10357SOL    HW131970   2.216   1.524   6.973
10357SOL    HW231971   2.341   1.477   0.048
10358SOL     OW31972   0.181   1.721   1.593
10358SOL    HW131973   0.106   1.663   1.561
10358SOL    HW231974   0.163   1.749   1.687
10359SOL     OW31975   0.138   1.127   1.651
10359SOL    HW131976   0.208   1.187   1.612
10359SOL    HW231977   0.054   1.133   1.596
10360SOL     OW31978   5.648   6.391   3.506
10360SOL    HW131979   5.742   6.391   3.471
10360SOL    HW231980   5.627   6.301   3.544
10361SOL     OW31981   2.118   4.813   1.273
10361SOL    HW131982   2.055   4.799   1.350
10361SOL    HW231983   2.067   4.809   1.187
10362SOL     OW31984   1.810   4.717   4.643
10362SOL    HW131985   1.804   4.656   4.722
10362SOL    HW231986   1.881   4.784   4.659
10363SOL     OW31987   5.019   0.912   4.087
10363SOL    HW131988   4.999   1.009   4.101
10363SOL    HW231989   5.076   0.878   4.162
10364SOL     OW31990   1.657   3.836   1.511
10364SOL    HW131991   1.732   3.871   1.567
10364SOL    HW231992   1.685   3.752   1.466
10365SOL     OW31993   4.570   5.762   0.217
10365SOL    HW131994   4.595   5.671   0.251
10365SOL    HW231995   4.548   5.756   0.120
10366SOL     OW31996   3.295   6.586   3.666
10366SOL    HW131997   3.307   6.635   3.580
10366SOL    HW231998   3.224   6.516   3.654
10367SOL     OW31999   6.639   2.151   3.481
10367SOL    HW132000   6.738   2.139   3.483
10367SOL    HW232001   6.616   2.234   3.430
10368SOL     OW32002   2.266   0.614   1.411
10368SOL    HW132003   2.205   0.601   1.489
10368SOL    HW232004   2.360   0.622   1.443
10369SOL     OW32005   3.951   2.871   0.356
10369SOL    HW132006   3.915   2.899   0.267
10369SOL    HW232007   4.048   2.895   0.363
10370SOL     OW32008   3.172   0.616   5.041
10370SOL    HW132009   3.113   0.536   5.024
10370SOL    HW232010   3.228   0.633   4.960
10371SOL     OW32011   4.976   6.615   6.229
10371SOL    HW132012   4.940   6.643   6.318
10371SOL    HW232013   4.991   6.697   6.173
10372SOL     OW32014   1.269   0.425   3.109
10372SOL    HW132015   1.364   0.449   3.132
10372SOL    HW232016   1.247   0.336   3.149
10373SOL     OW32017   1.179   6.029   4.700
10373SOL    HW132018   1.080   6.021   4.683
10373SOL    HW232019   1.223   6.071   4.620
10374SOL     OW32020   3.178   2.147   3.346
10374SOL    HW132021   3.108   2.217   3.357
10374SOL    HW232022   3.165   2.099   3.260
10375SOL     OW32023   6.017   2.281   0.490
10375SOL    HW132024   5.935   2.225   0.499
10375SOL    HW232025   6.009   2.362   0.548
10376SOL     OW32026   0.461   0.844   3.928
10376SOL    HW132027   0.438   0.852   3.831
10376SOL    HW232028   0.403   0.775   3.971
10377SOL     OW32029   1.200   6.787   4.446
10377SOL    HW132030   1.187   6.698   4.402
10377SOL    HW232031   1.114   6.837   4.447
10378SOL     OW32032   0.113   6.859   6.907
10378SOL    HW132033   0.146   6.938   6.855
10378SOL    HW232034   0.151   6.775   6.868
10379SOL     OW32035   5.107   1.794   4.371
10379SOL    HW132036   5.102   1.846   4.456
10379SOL    HW232037   5.163   1.843   4.305
10380SOL     OW32038   5.566   0.739   2.520
10380SOL    HW132039   5.581   0.785   2.607
10380SOL    HW232040   5.488   0.781   2.473
10381SOL     OW32041   4.375   5.016   5.142
10381SOL    HW132042   4.475   5.017   5.135
10381SOL    HW232043   4.335   5.038   5.053
10382SOL     OW32044   2.034   5.670   0.682
10382SOL    HW132045   2.128   5.694   0.705
10382SOL    HW232046   2.008   5.713   0.596
10383SOL     OW32047   6.918   2.912   6.818
10383SOL    HW132048   6.963   2.962   6.744
10383SOL    HW232049   6.935   2.814   6.807
10384SOL     OW32050   6.144   0.050   0.501
10384SOL    HW132051   6.212   0.006   0.443
10384SOL    HW232052   6.142   0.006   0.590
10385SOL     OW32053   5.729   2.051   0.162
10385SOL    HW132054   5.667   2.068   0.238
10385SOL    HW232055   5.678   2.053   0.076
10386SOL     OW32056   5.759   2.942   6.095
10386SOL    HW132057   5.728   2.848   6.108
10386SOL    HW232058   5.700   3.004   6.146
10387SOL     OW32059   2.352   2.750   3.486
10387SOL    HW132060   2.403   2.697   3.555
10387SOL    HW232061   2.333   2.691   3.407
10388SOL     OW32062   1.536   4.619   2.952
10388SOL    HW132063   1.444   4.582   2.966
10388SOL    HW232064   1.599   4.544   2.931
10389SOL     OW32065   0.608   5.448   3.219
10389SOL    HW132066   0.632   5.352   3.206
10389SOL    HW232067   0.689   5.505   3.207
10390SOL     OW32068   1.800   3.168   3.561
10390SOL    HW132069   1.747   3.252   3.566
10390SOL    HW232070   1.847   3.153   3.648
10391SOL     OW32071   3.016   6.773   5.590
10391SOL    HW132072   3.072   6.836   5.536
10391SOL    HW232073   3.006   6.808   5.683
10392SOL     OW32074   6.961   4.882   6.346
10392SOL    HW132075   6.987   4.825   6.425
10392SOL    HW232076   6.880   4.935   6.369
10393SOL     OW32077   1.220   1.269   4.046
10393SOL    HW132078   1.175   1.193   4.000
10393SOL    HW232079   1.151   1.336   4.074
10394SOL     OW32080   2.318   6.407   6.752
10394SOL    HW132081   2.237   6.377   6.703
10394SOL    HW232082   2.380   6.330   6.765
10395SOL     OW32083   1.165   1.151   4.574
10395SOL    HW132084   1.252   1.140   4.622
10395SOL    HW232085   1.150   1.249   4.556
10396SOL     OW32086   0.425   0.096   5.447
10396SOL    HW132087   0.496   0.103   5.377
10396SOL    HW232088   0.397   0.001   5.457
10397SOL     OW32089   4.400   1.788   2.433
10397SOL    HW132090   4.310   1.827   2.453
10397SOL    HW232091   4.452   1.780   2.517
10398SOL     OW32092   6.575   2.807   2.647
10398SOL    HW132093   6.603   2.722   2.602
10398SOL    HW232094   6.514   2.785   2.723
10399SOL     OW32095   6.179   2.060   5.611
10399SOL    HW132096   6.198   2.001   5.532
10399SOL    HW232097   6.163   2.003   5.692
10400SOL     OW32098   2.434   4.164   1.436
10400SOL    HW132099   2.362   4.158   1.367
10400SOL    HW232100   2.397   4.201   1.521
10401SOL     OW32101   0.838   6.437   1.193
10401SOL    HW132102   0.884   6.369   1.250
10401SOL    HW232103   0.876   6.527   1.213
10402SOL     OW32104   0.416   2.763   4.090
10402SOL    HW132105   0.377   2.845   4.132
10402SOL    HW232106   0.430   2.779   3.992
10403SOL     OW32107   4.990   1.560   2.021
10403SOL    HW132108   5.057   1.489   2.001
10403SOL    HW232109   5.009   1.641   1.965
10404SOL     OW32110   0.151   6.414   3.556
10404SOL    HW132111   0.154   6.316   3.578
10404SOL    HW232112   0.245   6.448   3.543
10405SOL     OW32113   1.750   6.725   6.503
10405SOL    HW132114   1.698   6.641   6.490
10405SOL    HW232115   1.839   6.703   6.542
10406SOL     OW32116   2.411   4.988   6.066
10406SOL    HW132117   2.498   4.950   6.037
10406SOL    HW232118   2.357   4.917   6.111
10407SOL     OW32119   1.174   1.209   6.423
10407SOL    HW132120   1.097   1.174   6.477
10407SOL    HW232121   1.242   1.136   6.411
10408SOL     OW32122   4.400   5.406   3.143
10408SOL    HW132123   4.444   5.427   3.230
10408SOL    HW232124   4.430   5.316   3.112
10409SOL     OW32125   6.006   4.549   2.517
10409SOL    HW132126   5.919   4.597   2.501
10409SOL    HW232127   6.082   4.611   2.496
10410SOL     OW32128   5.880   6.848   0.800
10410SOL    HW132129   5.851   6.805   0.714
10410SOL    HW232130   5.965   6.900   0.784
10411SOL     OW32131   1.738   4.444   2.330
10411SOL    HW132132   1.756   4.542   2.323
10411SOL    HW232133   1.757   4.401   2.242
10412SOL     OW32134   0.536   2.124   7.016
10412SOL    HW132135   0.523   2.175   6.931
10412SOL    HW232136   0.576   2.185   0.066
10413SOL     OW32137   0.033   2.213   6.190
10413SOL    HW132138   0.033   2.313   6.193
10413SOL    HW232139   0.033   2.182   6.095
10414SOL     OW32140   5.516   0.265   5.521
10414SOL    HW132141   5.468   0.352   5.534
10414SOL    HW232142   5.493   0.227   5.432
10415SOL     OW32143   0.732   5.899   3.620
10415SOL    HW132144   0.770   5.917   3.711
10415SOL    HW232145   0.718   5.986   3.573
10416SOL     OW32146   4.867   0.279   6.760
10416SOL    HW132147   4.801   0.299   6.688
10416SOL    HW232148   4.927   0.358   6.774
10417SOL     OW32149   3.955   5.032   4.708
10417SOL    HW132150   3.981   4.949   4.659
10417SOL    HW232151   3.877   5.076   4.663
10418SOL     OW32152   6.408   3.603   0.032
10418SOL    HW132153   6.435   3.512   0.000
10418SOL    HW232154   6.345   3.644   6.986
10419SOL     OW32155   2.710   1.467   4.392
10419SOL    HW132156   2.613   1.490   4.388
10419SOL    HW232157   2.764   1.552   4.395
10420SOL     OW32158   5.560   3.124   3.641
10420SOL    HW132159   5.553   3.053   3.711
10420SOL    HW232160   5.627   3.192   3.669
10421SOL     OW32161   0.780   4.820   3.500
10421SOL    HW132162   0.707   4.831   3.568
10421SOL    HW232163   0.839   4.901   3.503
10422SOL     OW32164   6.105   3.327   4.922
10422SOL    HW132165   6.145   3.373   4.843
10422SOL    HW232166   6.151   3.359   5.005
10423SOL     OW32167   2.676   4.965   3.749
10423SOL    HW132168   2.672   4.904   3.829
10423SOL    HW232169   2.661   4.912   3.666
10424SOL     OW32170   3.347   1.559   0.367
10424SOL    HW132171   3.314   1.555   0.461
10424SOL    HW232172   3.298   1.631   0.318
10425SOL     OW32173   1.697   3.141   1.015
10425SOL    HW132174   1.726   3.227   0.972
10425SOL    HW232175   1.604   3.152   1.051
10426SOL     OW32176   6.128   2.155   6.263
10426SOL    HW132177   6.105   2.094   6.339
10426SOL    HW232178   6.220   2.132   6.229
10427SOL     OW32179   5.572   1.235   4.560
10427SOL    HW132180   5.555   1.184   4.644
10427SOL    HW232181   5.639   1.185   4.504
10428SOL     OW32182   1.710   6.945   4.807
10428SOL    HW132183   1.725   6.865   4.750
10428SOL    HW232184   1.688   6.915   4.900
10429SOL     OW32185   1.097   2.880   1.117
10429SOL    HW132186   1.184   2.871   1.165
10429SOL    HW232187   1.092   2.811   1.045
10430SOL     OW32188   3.486   0.426   4.108
10430SOL    HW132189   3.436   0.344   4.136
10430SOL    HW232190   3.488   0.431   4.008
10431SOL     OW32191   3.878   0.959   3.139
10431SOL    HW132192   3.813   0.893   3.103
10431SOL    HW232193   3.936   0.915   3.208
10432SOL     OW32194   0.979   5.710   6.257
10432SOL    HW132195   0.953   5.647   6.184
10432SOL    HW232196   0.941   5.801   6.239
10433SOL     OW32197   3.335   6.759   3.442
10433SOL    HW132198   3.432   6.770   3.420
10433SOL    HW232199   3.302   6.839   3.491
10434SOL     OW32200   5.246   0.988   6.385
10434SOL    HW132201   5.277   1.076   6.419
10434SOL    HW232202   5.317   0.919   6.401
10435SOL     OW32203   2.944   1.708   0.519
10435SOL    HW132204   2.852   1.738   0.544
10435SOL    HW232205   2.966   1.744   0.428
10436SOL     OW32206   0.046   3.987   5.041
10436SOL    HW132207   0.128   4.028   5.082
10436SOL    HW232208   0.063   3.891   5.021
10437SOL     OW32209   5.984   6.338   4.609
10437SOL    HW132210   6.012   6.246   4.583
10437SOL    HW232211   5.889   6.336   4.640
10438SOL     OW32212   6.900   6.006   6.890
10438SOL    HW132213   6.946   5.934   6.839
10438SOL    HW232214   6.810   5.974   6.920
10439SOL     OW32215   6.375   5.284   4.797
10439SOL    HW132216   6.343   5.364   4.847
10439SOL    HW232217   6.354   5.201   4.850
10440SOL     OW32218   6.065   2.668   0.961
10440SOL    HW132219   6.148   2.688   1.013
10440SOL    HW232220   6.045   2.743   0.899
10441SOL     OW32221   4.670   1.699   6.946
10441SOL    HW132222   4.615   1.770   6.990
10441SOL    HW232223   4.757   1.739   6.915
10442SOL     OW32224   2.106   1.503   4.652
10442SOL    HW132225   2.017   1.516   4.694
10442SOL    HW232226   2.101   1.522   4.555
10443SOL     OW32227   1.179   1.052   1.038
10443SOL    HW132228   1.243   0.981   1.069
10443SOL    HW232229   1.125   1.084   1.116
10444SOL     OW32230   3.735   5.031   4.549
10444SOL    HW132231   3.721   5.073   4.459
10444SOL    HW232232   3.655   4.976   4.573
10445SOL     OW32233   1.042   3.366   3.677
10445SOL    HW132234   1.007   3.280   3.638
10445SOL    HW232235   0.968   3.433   3.682
10446SOL     OW32236   2.466   5.020   5.583
10446SOL    HW132237   2.377   5.042   5.624
10446SOL    HW232238   2.539   5.057   5.640
10447SOL     OW32239   0.450   2.257   2.531
10447SOL    HW132240   0.508   2.222   2.457
10447SOL    HW232241   0.391   2.329   2.494
10448SOL     OW32242   2.686   6.610   2.113
10448SOL    HW132243   2.592   6.588   2.087
10448SOL    HW232244   2.712   6.558   2.194
10449SOL     OW32245   3.999   5.241   4.868
10449SOL    HW132246   3.906   5.258   4.901
10449SOL    HW232247   3.999   5.161   4.807
10450SOL     OW32248   6.885   0.667   4.561
10450SOL    HW132249   6.837   0.724   4.494
10450SOL    HW232250   6.820   0.638   4.632
10451SOL     OW32251   3.241   1.665   3.806
10451SOL    HW132252   3.176   1.724   3.855
10451SOL    HW232253   3.254   1.580   3.858
10452SOL     OW32254   6.430   2.969   4.587
10452SOL    HW132255   6.355   3.025   4.623
10452SOL    HW232256   6.400   2.874   4.580
10453SOL     OW32257   4.454   5.901   3.852
10453SOL    HW132258   4.398   5.926   3.931
10453SOL    HW232259   4.532   5.847   3.883
10454SOL     OW32260   6.377   1.489   6.809
10454SOL    HW132261   6.349   1.496   6.904
10454SOL    HW232262   6.344   1.403   6.770
10455SOL     OW32263   0.561   6.042   3.250
10455SOL    HW132264   0.482   5.984   3.269
10455SOL    HW232265   0.593   6.083   3.336
10456SOL     OW32266   1.252   5.524   6.580
10456SOL    HW132267   1.260   5.524   6.680
10456SOL    HW232268   1.188   5.452   6.551
10457SOL     OW32269   3.993   2.244   6.569
10457SOL    HW132270   4.044   2.177   6.514
10457SOL    HW232271   4.019   2.234   6.665
10458SOL     OW32272   0.933   5.930   6.865
10458SOL    HW132273   0.987   5.854   6.902
10458SOL    HW232274   0.838   5.919   6.893
10459SOL     OW32275   5.950   5.197   1.736
10459SOL    HW132276   6.044   5.171   1.715
10459SOL    HW232277   5.937   5.294   1.715
10460SOL     OW32278   6.763   0.510   0.703
10460SOL    HW132279   6.794   0.416   0.717
10460SOL    HW232280   6.664   0.514   0.711
10461SOL     OW32281   0.126   4.513   6.413
10461SOL    HW132282   0.144   4.431   6.469
10461SOL    HW232283   0.197   4.581   6.430
10462SOL     OW32284   3.855   3.075   6.280
10462SOL    HW132285   3.926   3.096   6.212
10462SOL    HW232286   3.822   3.160   6.321
10463SOL     OW32287   4.990   2.392   6.522
10463SOL    HW132288   5.051   2.391   6.443
10463SOL    HW232289   4.899   2.362   6.495
10464SOL     OW32290   6.304   4.463   2.639
10464SOL    HW132291   6.307   4.563   2.635
10464SOL    HW232292   6.351   4.424   2.560
10465SOL     OW32293   5.343   4.988   1.178
10465SOL    HW132294   5.254   5.001   1.222
10465SOL    HW232295   5.393   4.915   1.224
10466SOL     OW32296   6.639   4.196   5.989
10466SOL    HW132297   6.714   4.211   5.925
10466SOL    HW232298   6.654   4.249   6.072
10467SOL     OW32299   0.727   3.005   6.883
10467SOL    HW132300   0.641   2.993   6.932
10467SOL    HW232301   0.801   3.021   6.948
10468SOL     OW32302   1.433   4.462   3.573
10468SOL    HW132303   1.518   4.497   3.611
10468SOL    HW232304   1.356   4.495   3.628
10469SOL     OW32305   0.853   1.263   4.226
10469SOL    HW132306   0.921   1.219   4.286
10469SOL    HW232307   0.844   1.210   4.142
10470SOL     OW32308   1.980   3.362   3.178
10470SOL    HW132309   2.036   3.384   3.258
10470SOL    HW232310   1.934   3.445   3.145
10471SOL     OW32311   2.737   6.357   6.720
10471SOL    HW132312   2.744   6.265   6.757
10471SOL    HW232313   2.814   6.375   6.659
10472SOL     OW32314   3.455   4.820   6.705
10472SOL    HW132315   3.386   4.819   6.632
10472SOL    HW232316   3.546   4.820   6.665
10473SOL     OW32317   5.800   4.924   1.202
10473SOL    HW132318   5.825   4.854   1.135
10473SOL    HW232319   5.773   4.880   1.288
10474SOL     OW32320   5.801   0.549   5.014
10474SOL    HW132321   5.804   0.462   4.965
10474SOL    HW232322   5.712   0.560   5.058
10475SOL     OW32323   0.999   5.125   0.912
10475SOL    HW132324   0.969   5.157   1.002
10475SOL    HW232325   1.093   5.092   0.919
10476SOL     OW32326   4.874   6.685   1.108
10476SOL    HW132327   4.945   6.756   1.114
10476SOL    HW232328   4.906   6.612   1.048
10477SOL     OW32329   0.254   5.687   3.254
10477SOL    HW132330   0.156   5.701   3.263
10477SOL    HW232331   0.293   5.667   3.344
10478SOL     OW32332   6.605   0.824   6.473
10478SOL    HW132333   6.518   0.868   6.452
10478SOL    HW232334   6.625   0.835   6.571
10479SOL     OW32335   0.770   2.953   1.698
10479SOL    HW132336   0.736   3.046   1.712
10479SOL    HW232337   0.865   2.947   1.731
10480SOL     OW32338   2.321   0.662   3.695
10480SOL    HW132339   2.262   0.678   3.774
10480SOL    HW232340   2.336   0.564   3.684
10481SOL     OW32341   6.878   1.327   1.423
10481SOL    HW132342   6.891   1.228   1.425
10481SOL    HW232343   6.810   1.353   1.492
10482SOL     OW32344   5.568   2.734   4.178
10482SOL    HW132345   5.530   2.816   4.221
10482SOL    HW232346   5.597   2.755   4.085
10483SOL     OW32347   6.766   6.379   0.531
10483SOL    HW132348   6.737   6.284   0.532
10483SOL    HW232349   6.739   6.421   0.444
10484SOL     OW32350   6.350   1.199   2.755
10484SOL    HW132351   6.338   1.171   2.850
10484SOL    HW232352   6.280   1.156   2.698
10485SOL     OW32353   5.150   3.557   5.632
10485SOL    HW132354   5.217   3.608   5.579
10485SOL    HW232355   5.063   3.554   5.582
10486SOL     OW32356   5.665   3.083   2.207
10486SOL    HW132357   5.751   3.129   2.183
10486SOL    HW232358   5.614   3.062   2.124
10487SOL     OW32359   5.863   6.830   1.566
10487SOL    HW132360   5.858   6.809   1.469
10487SOL    HW232361   5.934   6.898   1.582
10488SOL     OW32362   2.214   3.221   0.071
10488SOL    HW132363   2.236   3.145   0.010
10488SOL    HW232364   2.260   3.208   0.159
10489SOL     OW32365   1.428   5.679   4.913
10489SOL    HW132366   1.338   5.717   4.937
10489SOL    HW232367   1.416   5.588   4.873
10490SOL     OW32368   6.880   0.173   3.789
10490SOL    HW132369   6.947   0.236   3.749
10490SOL    HW232370   6.817   0.142   3.718
10491SOL     OW32371   0.640   4.426   5.655
10491SOL    HW132372   0.592   4.371   5.587
10491SOL    HW232373   0.629   4.523   5.633
10492SOL     OW32374   3.900   4.083   5.818
10492SOL    HW132375   3.939   4.076   5.726
10492SOL    HW232376   3.856   3.996   5.842
10493SOL     OW32377   3.575   1.011   0.591
10493SOL    HW132378   3.536   0.922   0.613
10493SOL    HW232379   3.673   1.011   0.613
10494SOL     OW32380   5.788   2.690   4.364
10494SOL    HW132381   5.806   2.655   4.456
10494SOL    HW232382   5.695   2.666   4.337
10495SOL     OW32383   1.806   6.849   0.060
10495SOL    HW132384   1.733   6.838   0.127
10495SOL    HW232385   1.839   6.944   0.061
10496SOL     OW32386   6.353   0.485   5.596
10496SOL    HW132387   6.295   0.423   5.543
10496SOL    HW232388   6.443   0.445   5.607
10497SOL     OW32389   1.224   1.132   0.598
10497SOL    HW132390   1.244   1.134   0.500
10497SOL    HW232391   1.156   1.202   0.619
10498SOL     OW32392   2.750   5.320   6.145
10498SOL    HW132393   2.817   5.272   6.088
10498SOL    HW232394   2.658   5.285   6.126
10499SOL     OW32395   3.383   5.320   3.124
10499SOL    HW132396   3.476   5.354   3.138
10499SOL    HW232397   3.367   5.240   3.182
10500SOL     OW32398   1.099   2.502   6.885
10500SOL    HW132399   1.117   2.416   6.933
10500SOL    HW232400   1.010   2.499   6.840
10501SOL     OW32401   1.452   2.493   2.972
10501SOL    HW132402   1.446   2.440   3.056
10501SOL    HW232403   1.434   2.433   2.894
10502SOL     OW32404   3.047   6.444   5.625
10502SOL    HW132405   3.143   6.428   5.646
10502SOL    HW232406   3.016   6.375   5.559
10503SOL     OW32407   2.528   3.340   5.965
10503SOL    HW132408   2.458   3.358   5.896
10503SOL    HW232409   2.594   3.415   5.966
10504SOL     OW32410   3.209   2.879   1.146
10504SOL    HW132411   3.116   2.905   1.122
10504SOL    HW232412   3.209   2.785   1.180
10505SOL     OW32413   0.338   6.847   1.326
10505SOL    HW132414   0.367   6.943   1.327
10505SOL    HW232415   0.405   6.793   1.274
10506SOL     OW32416   0.421   3.919   5.711
10506SOL    HW132417   0.405   3.943   5.615
10506SOL    HW232418   0.505   3.864   5.718
10507SOL     OW32419   0.877   0.241   4.791
10507SOL    HW132420   0.944   0.260   4.720
10507SOL    HW232421   0.912   0.273   4.880
10508SOL     OW32422   5.103   4.566   3.113
10508SOL    HW132423   5.023   4.578   3.055
10508SOL    HW232424   5.186   4.577   3.059
10509SOL     OW32425   1.797   0.402   5.543
10509SOL    HW132426   1.768   0.395   5.639
10509SOL    HW232427   1.860   0.479   5.533
10510SOL     OW32428   6.609   5.987   6.937
10510SOL    HW132429   6.562   6.000   0.005
10510SOL    HW232430   6.601   5.891   6.910
10511SOL     OW32431   5.751   2.392   0.265
10511SOL    HW132432   5.765   2.376   0.362
10511SOL    HW232433   5.654   2.403   0.247
10512SOL     OW32434   3.557   6.173   6.527
10512SOL    HW132435   3.458   6.164   6.532
10512SOL    HW232436   3.597   6.088   6.493
10513SOL     OW32437   6.767   2.653   6.949
10513SOL    HW132438   6.800   2.567   6.989
10513SOL    HW232439   6.680   2.637   6.903
10514SOL     OW32440   6.686   3.787   1.359
10514SOL    HW132441   6.671   3.872   1.309
10514SOL    HW232442   6.783   3.764   1.359
10515SOL     OW32443   6.502   2.345   4.277
10515SOL    HW132444   6.576   2.387   4.330
10515SOL    HW232445   6.434   2.415   4.256
10516SOL     OW32446   3.930   0.079   6.515
10516SOL    HW132447   4.029   0.078   6.500
10516SOL    HW232448   3.900   7.008   6.547
10517SOL     OW32449   0.758   1.493   2.994
10517SOL    HW132450   0.690   1.463   3.060
10517SOL    HW232451   0.848   1.497   3.038
10518SOL     OW32452   0.498   0.066   1.106
10518SOL    HW132453   0.534   7.016   1.044
10518SOL    HW232454   0.524   0.043   1.200
10519SOL     OW32455   3.201   3.925   5.661
10519SOL    HW132456   3.155   3.848   5.617
10519SOL    HW232457   3.217   3.997   5.593
10520SOL     OW32458   4.238   3.286   6.292
10520SOL    HW132459   4.188   3.200   6.293
10520SOL    HW232460   4.173   3.362   6.282
10521SOL     OW32461   6.578   5.325   1.558
10521SOL    HW132462   6.504   5.332   1.625
10521SOL    HW232463   6.608   5.230   1.551
10522SOL     OW32464   6.114   0.628   1.828
10522SOL    HW132465   6.099   0.625   1.927
10522SOL    HW232466   6.185   0.562   1.803
10523SOL     OW32467   6.906   5.760   6.757
10523SOL    HW132468   6.996   5.743   6.796
10523SOL    HW232469   6.915   5.822   6.678
10524SOL     OW32470   3.834   0.959   4.377
10524SOL    HW132471   3.900   0.952   4.451
10524SOL    HW232472   3.861   0.900   4.302
10525SOL     OW32473   2.659   6.186   4.523
10525SOL    HW132474   2.627   6.192   4.429
10525SOL    HW232475   2.632   6.268   4.574
10526SOL     OW32476   5.791   6.883   2.421
10526SOL    HW132477   5.786   6.794   2.376
10526SOL    HW232478   5.766   6.954   2.355
10527SOL     OW32479   1.846   2.459   4.764
10527SOL    HW132480   1.787   2.380   4.746
10527SOL    HW232481   1.940   2.428   4.777
10528SOL     OW32482   6.494   4.922   5.450
10528SOL    HW132483   6.493   5.019   5.478
10528SOL    HW232484   6.473   4.865   5.530
10529SOL     OW32485   6.034   6.432   3.773
10529SOL    HW132486   5.975   6.414   3.694
10529SOL    HW232487   6.022   6.526   3.804
10530SOL     OW32488   2.013   1.807   5.477
10530SOL    HW132489   2.041   1.817   5.573
10530SOL    HW232490   2.034   1.714   5.446
10531SOL     OW32491   2.010   2.764   5.324
10531SOL    HW132492   2.011   2.765   5.424
10531SOL    HW232493   2.051   2.849   5.290
10532SOL     OW32494   3.520   3.022   5.430
10532SOL    HW132495   3.515   2.968   5.346
10532SOL    HW232496   3.428   3.034   5.468
10533SOL     OW32497   2.253   0.936   6.091
10533SOL    HW132498   2.274   0.873   6.165
10533SOL    HW232499   2.232   0.884   6.008
10534SOL     OW32500   5.801   5.752   1.283
10534SOL    HW132501   5.764   5.681   1.342
10534SOL    HW232502   5.868   5.806   1.334
10535SOL     OW32503   0.268   1.052   2.713
10535SOL    HW132504   0.361   1.069   2.680
10535SOL    HW232505   0.248   1.112   2.790
10536SOL     OW32506   4.498   0.160   3.384
10536SOL    HW132507   4.503   0.248   3.431
10536SOL    HW232508   4.518   0.174   3.287
10537SOL     OW32509   0.534   4.690   1.089
10537SOL    HW132510   0.585   4.773   1.065
10537SOL    HW232511   0.595   4.611   1.086
10538SOL     OW32512   5.290   3.472   0.146
10538SOL    HW132513   5.311   3.565   0.116
10538SOL    HW232514   5.293   3.410   0.067
10539SOL     OW32515   0.873   2.969   5.899
10539SOL    HW132516   0.792   2.969   5.957
10539SOL    HW232517   0.885   2.878   5.858
10540SOL     OW32518   2.839   0.545   6.896
10540SOL    HW132519   2.857   0.542   6.797
10540SOL    HW232520   2.840   0.451   6.932
10541SOL     OW32521   4.171   2.628   0.739
10541SOL    HW132522   4.206   2.695   0.673
10541SOL    HW232523   4.149   2.675   0.824
10542SOL     OW32524   0.944   2.546   0.240
10542SOL    HW132525   1.031   2.588   0.214
10542SOL    HW232526   0.890   2.526   0.158
10543SOL     OW32527   2.177   1.094   5.460
10543SOL    HW132528   2.251   1.082   5.526
10543SOL    HW232529   2.092   1.115   5.509
10544SOL     OW32530   0.714   2.332   2.125
10544SOL    HW132531   0.672   2.421   2.142
10544SOL    HW232532   0.680   2.266   2.193
10545SOL     OW32533   5.417   0.487   2.323
10545SOL    HW132534   5.471   0.530   2.250
10545SOL    HW232535   5.427   0.541   2.407
10546SOL     OW32536   3.348   0.932   4.319
10546SOL    HW132537   3.398   0.898   4.398
10546SOL    HW232538   3.345   1.032   4.321
10547SOL     OW32539   4.281   1.320   0.664
10547SOL    HW132540   4.315   1.293   0.574
10547SOL    HW232541   4.264   1.238   0.720
10548SOL     OW32542   4.656   4.283   4.938
10548SOL    HW132543   4.580   4.237   4.892
10548SOL    HW232544   4.642   4.382   4.934
10549SOL     OW32545   1.209   0.926   1.843
10549SOL    HW132546   1.280   0.936   1.913
10549SOL    HW232547   1.123   0.899   1.887
10550SOL     OW32548   4.985   6.866   5.325
10550SOL    HW132549   4.998   6.954   5.371
10550SOL    HW232550   4.902   6.822   5.359
10551SOL     OW32551   1.303   2.396   5.433
10551SOL    HW132552   1.317   2.464   5.361
10551SOL    HW232553   1.279   2.441   5.518
10552SOL     OW32554   3.017   2.094   5.152
10552SOL    HW132555   2.934   2.140   5.183
10552SOL    HW232556   3.071   2.157   5.096
10553SOL     OW32557   2.949   4.464   6.785
10553SOL    HW132558   2.919   4.378   6.744
10553SOL    HW232559   2.870   4.523   6.801
10554SOL     OW32560   6.492   4.326   5.520
10554SOL    HW132561   6.523   4.388   5.593
10554SOL    HW232562   6.410   4.364   5.477
10555SOL     OW32563   3.219   2.193   1.227
10555SOL    HW132564   3.173   2.106   1.212
10555SOL    HW232565   3.317   2.177   1.240
10556SOL     OW32566   2.137   3.283   3.936
10556SOL    HW132567   2.203   3.246   4.001
10556SOL    HW232568   2.128   3.382   3.951
10557SOL     OW32569   6.393   2.180   3.620
10557SOL    HW132570   6.490   2.169   3.600
10557SOL    HW232571   6.348   2.225   3.543
10558SOL     OW32572   5.079   6.375   5.116
10558SOL    HW132573   5.069   6.373   5.016
10558SOL    HW232574   5.019   6.446   5.153
10559SOL     OW32575   4.441   2.947   0.343
10559SOL    HW132576   4.395   2.912   0.261
10559SOL    HW232577   4.538   2.927   0.337
10560SOL     OW32578   0.414   2.545   4.581
10560SOL    HW132579   0.508   2.514   4.597
10560SOL    HW232580   0.360   2.529   4.663
10561SOL     OW32581   2.872   4.216   6.671
10561SOL    HW132582   2.942   4.180   6.609
10561SOL    HW232583   2.781   4.191   6.637
10562SOL     OW32584   3.390   1.254   0.333
10562SOL    HW132585   3.354   1.236   0.424
10562SOL    HW232586   3.426   1.168   0.295
10563SOL     OW32587   1.790   1.535   4.336
10563SOL    HW132588   1.764   1.601   4.266
10563SOL    HW232589   1.773   1.442   4.302
10564SOL     OW32590   6.593   2.217   2.231
10564SOL    HW132591   6.516   2.262   2.275
10564SOL    HW232592   6.602   2.249   2.137
10565SOL     OW32593   5.222   1.881   4.898
10565SOL    HW132594   5.144   1.929   4.940
10565SOL    HW232595   5.202   1.864   4.802
10566SOL     OW32596   3.876   4.439   0.062
10566SOL    HW132597   3.881   4.478   0.154
10566SOL    HW232598   3.850   4.511   7.017
10567SOL     OW32599   1.396   5.058   3.962
10567SOL    HW132600   1.406   5.157   3.967
10567SOL    HW232601   1.436   5.025   3.876
10568SOL     OW32602   4.341   1.633   3.148
10568SOL    HW132603   4.319   1.675   3.236
10568SOL    HW232604   4.440   1.622   3.140
10569SOL     OW32605   6.423   2.850   3.644
10569SOL    HW132606   6.504   2.822   3.594
10569SOL    HW232607   6.444   2.931   3.699
10570SOL     OW32608   1.188   4.209   2.188
10570SOL    HW132609   1.260   4.267   2.150
10570SOL    HW232610   1.224   4.158   2.266
10571SOL     OW32611   5.955   0.053   4.473
10571SOL    HW132612   5.856   0.047   4.464
10571SOL    HW232613   5.984   0.008   4.558
10572SOL     OW32614   6.545   3.431   1.887
10572SOL    HW132615   6.644   3.420   1.893
10572SOL    HW232616   6.512   3.480   1.969
10573SOL     OW32617   6.217   4.519   5.829
10573SOL    HW132618   6.236   4.427   5.795
10573SOL    HW232619   6.119   4.532   5.839
10574SOL     OW32620   0.514   1.612   2.888
10574SOL    HW132621   0.606   1.574   2.887
10574SOL    HW232622   0.450   1.545   2.850
10575SOL     OW32623   1.110   0.198   5.661
10575SOL    HW132624   1.018   0.161   5.674
10575SOL    HW232625   1.136   0.190   5.565
10576SOL     OW32626   1.588   4.834   3.202
10576SOL    HW132627   1.552   4.768   3.268
10576SOL    HW232628   1.522   4.847   3.128
10577SOL     OW32629   0.718   2.694   5.177
10577SOL    HW132630   0.699   2.614   5.120
10577SOL    HW232631   0.637   2.752   5.182
10578SOL     OW32632   5.932   0.859   5.858
10578SOL    HW132633   6.020   0.907   5.861
10578SOL    HW232634   5.944   0.770   5.813
10579SOL     OW32635   4.819   0.690   0.610
10579SOL    HW132636   4.886   0.621   0.635
10579SOL    HW232637   4.760   0.709   0.689
10580SOL     OW32638   6.839   6.042   0.404
10580SOL    HW132639   6.774   6.084   0.468
10580SOL    HW232640   6.932   6.052   0.440
10581SOL     OW32641   4.613   1.400   4.223
10581SOL    HW132642   4.616   1.314   4.172
10581SOL    HW232643   4.656   1.472   4.169
10582SOL     OW32644   3.316   4.439   0.079
10582SOL    HW132645   3.296   4.358   0.023
10582SOL    HW232646   3.281   4.425   0.171
10583SOL     OW32647   4.108   1.943   0.623
10583SOL    HW132648   4.184   2.007   0.634
10583SOL    HW232649   4.023   1.988   0.649
10584SOL     OW32650   6.330   0.471   1.711
10584SOL    HW132651   6.332   0.541   1.639
10584SOL    HW232652   6.320   0.381   1.670
10585SOL     OW32653   1.498   4.069   6.424
10585SOL    HW132654   1.539   4.153   6.389
10585SOL    HW232655   1.571   4.008   6.457
10586SOL     OW32656   3.786   0.924   0.283
10586SOL    HW132657   3.765   0.839   0.332
10586SOL    HW232658   3.756   1.002   0.338
10587SOL     OW32659   6.125   3.650   1.285
10587SOL    HW132660   6.099   3.590   1.209
10587SOL    HW232661   6.210   3.696   1.264
10588SOL     OW32662   0.399   5.162   3.031
10588SOL    HW132663   0.335   5.181   2.957
10588SOL    HW232664   0.353   5.174   3.119
10589SOL     OW32665   6.595   1.947   3.941
10589SOL    HW132666   6.603   2.023   4.006
10589SOL    HW232667   6.596   1.860   3.991
10590SOL     OW32668   1.439   0.823   4.259
10590SOL    HW132669   1.490   0.797   4.177
10590SOL    HW232670   1.358   0.876   4.232
10591SOL     OW32671   1.302   2.627   0.835
10591SOL    HW132672   1.310   2.533   0.866
10591SOL    HW232673   1.210   2.661   0.853
10592SOL     OW32674   6.326   1.811   7.012
10592SOL    HW132675   6.252   1.877   0.004
10592SOL    HW232676   6.365   1.789   0.082
10593SOL     OW32677   2.302   4.785   0.878
10593SOL    HW132678   2.231   4.817   0.941
10593SOL    HW232679   2.374   4.853   0.871
10594SOL     OW32680   1.095   2.014   4.364
10594SOL    HW132681   1.107   2.098   4.312
10594SOL    HW232682   1.030   1.954   4.318
10595SOL     OW32683   2.710   6.174   5.599
10595SOL    HW132684   2.794   6.164   5.652
10595SOL    HW232685   2.673   6.083   5.577
10596SOL     OW32686   3.477   1.228   1.793
10596SOL    HW132687   3.453   1.323   1.772
10596SOL    HW232688   3.423   1.197   1.872
10597SOL     OW32689   1.739   6.957   4.367
10597SOL    HW132690   1.822   6.990   4.411
10597SOL    HW232691   1.695   6.889   4.426
10598SOL     OW32692   1.811   1.940   0.074
10598SOL    HW132693   1.881   1.884   0.118
10598SOL    HW232694   1.855   2.020   0.032
10599SOL     OW32695   4.926   0.544   6.902
10599SOL    HW132696   4.956   0.498   6.986
10599SOL    HW232697   4.952   0.641   6.907
10600SOL     OW32698   1.596   2.649   6.157
10600SOL    HW132699   1.610   2.747   6.138
10600SOL    HW232700   1.555   2.638   6.247
10601SOL     OW32701   3.474   6.420   5.853
10601SOL    HW132702   3.563   6.455   5.824
10601SOL    HW232703   3.422   6.493   5.897
10602SOL     OW32704   4.390   0.769   1.974
10602SOL    HW132705   4.413   0.678   1.941
10602SOL    HW232706   4.345   0.821   1.900
10603SOL     OW32707   1.501   5.479   4.319
10603SOL    HW132708   1.555   5.498   4.401
10603SOL    HW232709   1.481   5.381   4.314
10604SOL     OW32710   0.094   4.549   5.279
10604SOL    HW132711   0.040   4.630   5.256
10604SOL    HW232712   0.078   4.478   5.210
10605SOL     OW32713   1.905   4.396   6.456
10605SOL    HW132714   1.914   4.300   6.483
10605SOL    HW232715   1.819   4.433   6.489
10606SOL     OW32716   0.674   0.661   2.868
10606SOL    HW132717   0.627   0.636   2.783
10606SOL    HW232718   0.741   0.732   2.849
10607SOL     OW32719   5.777   5.079   0.435
10607SOL    HW132720   5.776   4.983   0.465
10607SOL    HW232721   5.826   5.135   0.503
10608SOL     OW32722   6.280   1.384   3.401
10608SOL    HW132723   6.321   1.293   3.391
10608SOL    HW232724   6.289   1.434   3.315
10609SOL     OW32725   4.309   6.472   1.947
10609SOL    HW132726   4.269   6.520   1.869
10609SOL    HW232727   4.328   6.377   1.921
10610SOL     OW32728   1.298   3.371   5.124
10610SOL    HW132729   1.281   3.407   5.216
10610SOL    HW232730   1.390   3.397   5.095
10611SOL     OW32731   4.726   2.323   6.450
10611SOL    HW132732   4.643   2.269   6.467
10611SOL    HW232733   4.779   2.279   6.378
10612SOL     OW32734   1.363   0.035   0.929
10612SOL    HW132735   1.423   0.090   0.872
10612SOL    HW232736   1.418   6.998   0.991
10613SOL     OW32737   0.582   6.937   6.371
10613SOL    HW132738   0.615   0.007   6.339
10613SOL    HW232739   0.628   6.913   6.456
10614SOL     OW32740   6.438   1.249   4.730
10614SOL    HW132741   6.393   1.225   4.644
10614SOL    HW232742   6.480   1.167   4.770
10615SOL     OW32743   6.464   5.637   5.295
10615SOL    HW132744   6.452   5.551   5.245
10615SOL    HW232745   6.530   5.624   5.369
10616SOL     OW32746   3.211   5.959   0.393
10616SOL    HW132747   3.162   6.013   0.325
10616SOL    HW232748   3.190   5.862   0.381
10617SOL     OW32749   0.916   2.236   6.493
10617SOL    HW132750   0.827   2.278   6.479
10617SOL    HW232751   0.909   2.165   6.563
10618SOL     OW32752   5.890   3.790   1.247
10618SOL    HW132753   5.982   3.751   1.240
10618SOL    HW232754   5.881   3.839   1.334
10619SOL     OW32755   1.084   4.488   4.001
10619SOL    HW132756   1.153   4.545   4.046
10619SOL    HW232757   1.019   4.545   3.951
10620SOL     OW32758   1.323   5.623   4.207
10620SOL    HW132759   1.387   5.556   4.245
10620SOL    HW232760   1.357   5.715   4.222
10621SOL     OW32761   2.513   6.673   1.285
10621SOL    HW132762   2.493   6.691   1.381
10621SOL    HW232763   2.590   6.610   1.278
10622SOL     OW32764   4.284   1.418   1.330
10622SOL    HW132765   4.379   1.387   1.328
10622SOL    HW232766   4.280   1.513   1.360
10623SOL     OW32767   6.788   1.358   3.691
10623SOL    HW132768   6.770   1.271   3.646
10623SOL    HW232769   6.736   1.430   3.646
10624SOL     OW32770   2.487   1.022   4.579
10624SOL    HW132771   2.530   1.108   4.551
10624SOL    HW232772   2.391   1.023   4.553
10625SOL     OW32773   0.117   3.498   6.978
10625SOL    HW132774   0.213   3.522   6.966
10625SOL    HW232775   0.062   3.581   6.990
10626SOL     OW32776   6.729   2.225   1.356
10626SOL    HW132777   6.747   2.140   1.308
10626SOL    HW232778   6.630   2.238   1.366
10627SOL     OW32779   6.145   5.086   4.096
10627SOL    HW132780   6.161   5.084   3.997
10627SOL    HW232781   6.114   5.177   4.123
10628SOL     OW32782   6.286   5.761   6.147
10628SOL    HW132783   6.292   5.800   6.055
10628SOL    HW232784   6.296   5.835   6.214
10629SOL     OW32785   2.723   5.610   6.143
10629SOL    HW132786   2.727   5.511   6.158
10629SOL    HW232787   2.697   5.629   6.049
10630SOL     OW32788   6.736   1.407   2.820
10630SOL    HW132789   6.793   1.350   2.761
10630SOL    HW232790   6.776   1.499   2.826
10631SOL     OW32791   0.872   6.847   4.632
10631SOL    HW132792   0.957   6.892   4.605
10631SOL    HW232793   0.810   6.841   4.554
10632SOL     OW32794   0.412   2.683   5.097
10632SOL    HW132795   0.324   2.675   5.049
10632SOL    HW232796   0.396   2.705   5.193
10633SOL     OW32797   0.933   4.941   0.712
10633SOL    HW132798   0.972   5.025   0.749
10633SOL    HW232799   0.911   4.878   0.787
10634SOL     OW32800   3.688   6.964   1.794
10634SOL    HW132801   3.766   0.006   1.809
10634SOL    HW232802   3.631   6.963   1.876
10635SOL     OW32803   1.982   0.936   1.034
10635SOL    HW132804   2.062   0.882   1.062
10635SOL    HW232805   1.998   0.975   0.944
10636SOL     OW32806   6.857   2.016   1.218
10636SOL    HW132807   6.815   1.980   1.135
10636SOL    HW232808   6.822   1.967   1.298
10637SOL     OW32809   4.034   4.872   5.492
10637SOL    HW132810   3.980   4.937   5.440
10637SOL    HW232811   4.053   4.792   5.435
10638SOL     OW32812   6.810   0.071   5.270
10638SOL    HW132813   6.814   0.159   5.316
10638SOL    HW232814   6.809   0.085   5.171
10639SOL     OW32815   3.215   1.247   4.882
10639SOL    HW132816   3.232   1.171   4.820
10639SOL    HW232817   3.128   1.234   4.928
10640SOL     OW32818   3.640   6.838   0.303
10640SOL    HW132819   3.581   6.766   0.266
10640SOL    HW232820   3.715   6.797   0.355
10641SOL     OW32821   4.174   0.802   6.466
10641SOL    HW132822   4.118   0.722   6.488
10641SOL    HW232823   4.265   0.791   6.503
10642SOL     OW32824   0.056   3.743   0.890
10642SOL    HW132825   0.081   3.837   0.913
10642SOL    HW232826   0.119   3.708   0.820
10643SOL     OW32827   4.020   3.755   5.667
10643SOL    HW132828   4.024   3.693   5.588
10643SOL    HW232829   3.938   3.811   5.660
10644SOL     OW32830   3.726   1.445   4.956
10644SOL    HW132831   3.734   1.531   5.006
10644SOL    HW232832   3.758   1.370   5.013
10645SOL     OW32833   2.417   0.150   5.000
10645SOL    HW132834   2.517   0.143   5.002
10645SOL    HW232835   2.379   0.105   5.081
10646SOL     OW32836   0.935   3.685   6.578
10646SOL    HW132837   0.844   3.682   6.620
10646SOL    HW232838   0.935   3.630   6.494
10647SOL     OW32839   6.852   4.936   0.518
10647SOL    HW132840   6.822   5.029   0.494
10647SOL    HW232841   6.942   4.920   0.480
10648SOL     OW32842   4.815   4.051   6.665
10648SOL    HW132843   4.856   3.964   6.692
10648SOL    HW232844   4.862   4.126   6.711
10649SOL     OW32845   0.603   4.383   6.093
10649SOL    HW132846   0.627   4.291   6.126
10649SOL    HW232847   0.539   4.375   6.017
10650SOL     OW32848   2.619   0.118   3.785
10650SOL    HW132849   2.597   0.045   3.720
10650SOL    HW232850   2.696   0.171   3.749
10651SOL     OW32851   3.237   6.930   5.967
10651SOL    HW132852   3.152   6.974   5.997
10651SOL    HW232853   3.283   6.890   6.046
10652SOL     OW32854   3.490   1.030   0.234
10652SOL    HW132855   3.490   0.939   0.275
10652SOL    HW232856   3.514   1.023   0.138
10653SOL     OW32857   5.964   3.011   4.080
10653SOL    HW132858   5.873   3.028   4.042
10653SOL    HW232859   6.006   3.097   4.106
10654SOL     OW32860   4.477   0.961   1.309
10654SOL    HW132861   4.459   1.039   1.249
10654SOL    HW232862   4.392   0.912   1.326
10655SOL     OW32863   3.310   5.957   1.654
10655SOL    HW132864   3.380   5.889   1.675
10655SOL    HW232865   3.325   5.993   1.561
10656SOL     OW32866   6.049   3.342   6.137
10656SOL    HW132867   6.049   3.242   6.141
10656SOL    HW232868   6.061   3.371   6.043
10657SOL     OW32869   5.885   0.714   1.689
10657SOL    HW132870   5.955   0.669   1.746
10657SOL    HW232871   5.905   0.697   1.593
10658SOL     OW32872   0.898   6.038   4.708
10658SOL    HW132873   0.890   6.135   4.687
10658SOL    HW232874   0.808   6.000   4.728
10659SOL     OW32875   5.561   0.902   0.892
10659SOL    HW132876   5.657   0.877   0.903
10659SOL    HW232877   5.515   0.834   0.835
10660SOL     OW32878   5.217   4.968   5.613
10660SOL    HW132879   5.273   4.913   5.675
10660SOL    HW232880   5.271   5.042   5.575
10661SOL     OW32881   0.240   0.346   2.427
10661SOL    HW132882   0.160   0.402   2.407
10661SOL    HW232883   0.287   0.382   2.508
10662SOL     OW32884   5.848   1.647   0.541
10662SOL    HW132885   5.839   1.625   0.444
10662SOL    HW232886   5.943   1.636   0.569
10663SOL     OW32887   0.236   0.651   0.169
10663SOL    HW132888   0.239   0.749   0.151
10663SOL    HW232889   0.292   0.603   0.102
10664SOL     OW32890   1.882   4.561   6.777
10664SOL    HW132891   1.809   4.550   6.710
10664SOL    HW232892   1.930   4.474   6.789
10665SOL     OW32893   6.300   0.745   7.010
10665SOL    HW132894   6.313   0.740   0.089
10665SOL    HW232895   6.357   0.818   6.972
10666SOL     OW32896   1.044   0.304   6.846
10666SOL    HW132897   0.999   0.257   6.922
10666SOL    HW232898   1.076   0.394   6.876
10667SOL     OW32899   3.303   2.201   5.350
10667SOL    HW132900   3.351   2.135   5.291
10667SOL    HW232901   3.261   2.271   5.293
10668SOL     OW32902   2.118   1.121   6.230
10668SOL    HW132903   2.147   1.047   6.169
10668SOL    HW232904   2.024   1.105   6.260
10669SOL     OW32905   1.020   6.570   6.719
10669SOL    HW132906   1.039   6.655   6.768
10669SOL    HW232907   1.024   6.587   6.620
10670SOL     OW32908   0.208   4.998   5.304
10670SOL    HW132909   0.206   4.940   5.222
10670SOL    HW232910   0.259   5.082   5.285
10671SOL     OW32911   1.419   1.846   3.248
10671SOL    HW132912   1.493   1.912   3.235
10671SOL    HW232913   1.452   1.754   3.228
10672SOL     OW32914   0.216   2.798   0.857
10672SOL    HW132915   0.166   2.885   0.858
10672SOL    HW232916   0.314   2.816   0.843
10673SOL     OW32917   3.212   3.529   4.936
10673SOL    HW132918   3.242   3.595   4.868
10673SOL    HW232919   3.290   3.477   4.970
10674SOL     OW32920   4.044   1.881   2.102
10674SOL    HW132921   4.083   1.804   2.051
10674SOL    HW232922   4.109   1.957   2.102
10675SOL     OW32923   0.010   1.025   6.459
10675SOL    HW132924   6.967   1.003   6.534
10675SOL    HW232925   0.039   1.121   6.467
10676SOL     OW32926   6.868   0.354   7.004
10676SOL    HW132927   6.872   0.340   6.905
10676SOL    HW232928   6.831   0.272   0.028
10677SOL     OW32929   6.910   1.041   0.163
10677SOL    HW132930   6.845   1.115   0.147
10677SOL    HW232931   7.003   1.078   0.160
10678SOL     OW32932   2.260   5.660   3.015
10678SOL    HW132933   2.226   5.579   3.062
10678SOL    HW232934   2.308   5.720   3.080
10679SOL     OW32935   5.603   4.926   3.395
10679SOL    HW132936   5.588   4.834   3.431
10679SOL    HW232937   5.699   4.950   3.404
10680SOL     OW32938   1.773   2.140   3.841
10680SOL    HW132939   1.750   2.096   3.928
10680SOL    HW232940   1.690   2.170   3.796
10681SOL     OW32941   0.708   1.922   6.332
10681SOL    HW132942   0.799   1.906   6.371
10681SOL    HW232943   0.677   1.840   6.284
10682SOL     OW32944   6.570   1.787   3.126
10682SOL    HW132945   6.557   1.883   3.150
10682SOL    HW232946   6.531   1.729   3.198
10683SOL     OW32947   1.850   0.912   3.730
10683SOL    HW132948   1.784   0.839   3.746
10683SOL    HW232949   1.936   0.873   3.697
10684SOL     OW32950   6.223   6.164   0.326
10684SOL    HW132951   6.210   6.109   0.409
10684SOL    HW232952   6.299   6.127   0.273
10685SOL     OW32953   6.722   1.958   2.311
10685SOL    HW132954   6.766   1.920   2.230
10685SOL    HW232955   6.712   2.057   2.299
10686SOL     OW32956   3.902   4.450   1.226
10686SOL    HW132957   3.953   4.400   1.296
10686SOL    HW232958   3.873   4.387   1.155
10687SOL     OW32959   0.721   4.677   1.445
10687SOL    HW132960   0.788   4.650   1.376
10687SOL    HW232961   0.682   4.766   1.421
10688SOL     OW32962   6.668   5.981   1.658
10688SOL    HW132963   6.740   5.975   1.590
10688SOL    HW232964   6.598   6.046   1.627
10689SOL     OW32965   0.600   0.511   1.681
10689SOL    HW132966   0.546   0.586   1.643
10689SOL    HW232967   0.686   0.546   1.717
10690SOL     OW32968   4.575   5.976   2.231
10690SOL    HW132969   4.512   6.042   2.273
10690SOL    HW232970   4.611   6.015   2.146
10691SOL     OW32971   6.566   1.666   1.077
10691SOL    HW132972   6.655   1.709   1.065
10691SOL    HW232973   6.577   1.578   1.124
10692SOL     OW32974   5.188   6.124   4.832
10692SOL    HW132975   5.272   6.176   4.815
10692SOL    HW232976   5.205   6.058   4.905
10693SOL     OW32977   5.102   2.415   3.046
10693SOL    HW132978   5.133   2.498   3.093
10693SOL    HW232979   5.155   2.337   3.078
10694SOL     OW32980   3.749   5.968   0.861
10694SOL    HW132981   3.844   5.985   0.834
10694SOL    HW232982   3.689   5.988   0.784
10695SOL     OW32983   6.310   3.051   4.964
10695SOL    HW132984   6.282   3.070   4.870
10695SOL    HW232985   6.305   3.136   5.018
10696SOL     OW32986   6.130   6.887   1.677
10696SOL    HW132987   6.196   6.857   1.746
10696SOL    HW232988   6.112   6.811   1.614
10697SOL     OW32989   2.617   5.733   3.172
10697SOL    HW132990   2.590   5.727   3.076
10697SOL    HW232991   2.606   5.827   3.204
10698SOL     OW32992   2.741   0.890   3.510
10698SOL    HW132993   2.673   0.837   3.459
10698SOL    HW232994   2.701   0.977   3.539
10699SOL     OW32995   2.119   2.276   3.017
10699SOL    HW132996   2.077   2.300   2.930
10699SOL    HW232997   2.058   2.302   3.092
10700SOL     OW32998   6.626   0.818   1.937
10700SOL    HW132999   6.649   0.757   2.013
10700SOL    HW233000   6.584   0.765   1.864
10701SOL     OW33001   3.448   6.555   1.227
10701SOL    HW133002   3.520   6.624   1.236
10701SOL    HW233003   3.378   6.569   1.297
10702SOL     OW33004   5.354   3.557   0.875
10702SOL    HW133005   5.324   3.551   0.780
10702SOL    HW233006   5.277   3.537   0.936
10703SOL     OW33007   3.727   3.263   4.454
10703SOL    HW133008   3.824   3.237   4.463
10703SOL    HW233009   3.684   3.264   4.544
10704SOL     OW33010   5.688   6.323   2.213
10704SOL    HW133011   5.594   6.306   2.242
10704SOL    HW233012   5.707   6.421   2.212
10705SOL     OW33013   1.795   3.414   6.523
10705SOL    HW133014   1.759   3.425   6.616
10705SOL    HW233015   1.894   3.402   6.527
10706SOL     OW33016   3.645   1.996   1.439
10706SOL    HW133017   3.641   2.040   1.528
10706SOL    HW233018   3.740   1.989   1.410
10707SOL     OW33019   6.216   6.895   6.243
10707SOL    HW133020   6.234   6.990   6.215
10707SOL    HW233021   6.260   6.833   6.179
10708SOL     OW33022   4.797   0.978   1.707
10708SOL    HW133023   4.768   1.037   1.631
10708SOL    HW233024   4.826   1.034   1.784
10709SOL     OW33025   0.830   6.743   5.763
10709SOL    HW133026   0.809   6.737   5.861
10709SOL    HW233027   0.745   6.741   5.710
10710SOL     OW33028   6.430   5.661   3.684
10710SOL    HW133029   6.349   5.713   3.658
10710SOL    HW233030   6.441   5.584   3.621
10711SOL     OW33031   2.598   5.851   4.763
10711SOL    HW133032   2.673   5.916   4.755
10711SOL    HW233033   2.610   5.795   4.845
10712SOL     OW33034   4.157   1.292   5.405
10712SOL    HW133035   4.136   1.387   5.383
10712SOL    HW233036   4.089   1.258   5.470
10713SOL     OW33037   1.735   6.069   0.983
10713SOL    HW133038   1.687   6.092   1.067
10713SOL    HW233039   1.730   6.146   0.920
10714SOL     OW33040   6.399   5.561   5.964
10714SOL    HW133041   6.382   5.468   5.996
10714SOL    HW233042   6.367   5.627   6.032
10715SOL     OW33043   5.958   0.963   3.507
10715SOL    HW133044   5.968   1.053   3.464
10715SOL    HW233045   5.950   0.974   3.606
10716SOL     OW33046   6.692   1.065   2.719
10716SOL    HW133047   6.626   1.126   2.764
10716SOL    HW233048   6.767   1.047   2.782
10717SOL     OW33049   6.628   6.488   2.387
10717SOL    HW133050   6.644   6.541   2.470
10717SOL    HW233051   6.571   6.541   2.324
10718SOL     OW33052   1.133   3.960   5.597
10718SOL    HW133053   1.057   3.969   5.660
10718SOL    HW233054   1.204   4.027   5.619
10719SOL     OW33055   3.800   6.887   2.413
10719SOL    HW133056   3.886   6.837   2.399
10719SOL    HW233057   3.821   6.984   2.430
10720SOL     OW33058   0.311   2.968   6.670
10720SOL    HW133059   0.338   3.047   6.726
10720SOL    HW233060   0.246   2.912   6.721
10721SOL     OW33061   4.805   2.612   4.624
10721SOL    HW133062   4.716   2.578   4.653
10721SOL    HW233063   4.833   2.564   4.541
10722SOL     OW33064   0.166   4.467   0.771
10722SOL    HW133065   0.099   4.488   0.843
10722SOL    HW233066   0.257   4.496   0.802
10723SOL     OW33067   6.102   5.011   0.747
10723SOL    HW133068   6.078   4.967   0.661
10723SOL    HW233069   6.117   4.941   0.817
10724SOL     OW33070   3.280   0.022   5.694
10724SOL    HW133071   3.331   0.107   5.705
10724SOL    HW233072   3.271   6.996   5.783
10725SOL     OW33073   6.509   0.120   5.057
10725SOL    HW133074   6.607   0.137   5.051
10725SOL    HW233075   6.461   0.176   4.989
10726SOL     OW33076   5.733   1.548   4.463
10726SOL    HW133077   5.818   1.594   4.489
10726SOL    HW233078   5.690   1.508   4.544
10727SOL     OW33079   3.000   6.548   6.975
10727SOL    HW133080   2.907   6.584   6.973
10727SOL    HW233081   3.041   6.569   0.045
10728SOL     OW33082   5.585   5.857   3.900
10728SOL    HW133083   5.498   5.863   3.850
10728SOL    HW233084   5.587   5.773   3.953
10729SOL     OW33085   5.837   2.809   4.696
10729SOL    HW133086   5.876   2.885   4.747
10729SOL    HW233087   5.874   2.723   4.731
10730SOL     OW33088   1.516   5.447   3.444
10730SOL    HW133089   1.594   5.387   3.463
10730SOL    HW233090   1.484   5.489   3.529
10731SOL     OW33091   5.057   5.804   6.641
10731SOL    HW133092   5.092   5.854   6.720
10731SOL    HW233093   4.988   5.738   6.672
10732SOL     OW33094   6.068   5.894   2.709
10732SOL    HW133095   6.156   5.854   2.735
10732SOL    HW233096   6.084   5.978   2.656
10733SOL     OW33097   0.585   1.647   5.881
10733SOL    HW133098   0.534   1.715   5.829
10733SOL    HW233099   0.683   1.662   5.869
10734SOL     OW33100   1.360   0.285   5.045
10734SOL    HW133101   1.292   0.212   5.041
10734SOL    HW233102   1.451   0.245   5.062
10735SOL     OW33103   6.966   6.882   1.826
10735SOL    HW133104   6.914   6.949   1.879
10735SOL    HW233105   6.952   6.899   1.728
10736SOL     OW33106   5.165   5.940   3.532
10736SOL    HW133107   5.114   5.923   3.448
10736SOL    HW233108   5.103   5.938   3.610
10737SOL     OW33109   6.274   1.076   1.665
10737SOL    HW133110   6.349   1.064   1.729
10737SOL    HW233111   6.193   1.111   1.713
10738SOL     OW33112   2.978   6.969   0.837
10738SOL    HW133113   3.000   0.047   0.829
10738SOL    HW233114   2.947   6.935   0.748
10739SOL     OW33115   5.481   3.015   4.279
10739SOL    HW133116   5.442   2.998   4.370
10739SOL    HW233117   5.422   3.079   4.229
10740SOL     OW33118   3.104   0.296   6.074
10740SOL    HW133119   3.141   0.306   5.981
10740SOL    HW233120   3.033   0.365   6.088
10741SOL     OW33121   1.535   2.239   3.773
10741SOL    HW133122   1.467   2.279   3.835
10741SOL    HW233123   1.494   2.162   3.724
10742SOL     OW33124   6.465   6.668   2.101
10742SOL    HW133125   6.381   6.721   2.114
10742SOL    HW233126   6.530   6.721   2.046
10743SOL     OW33127   3.306   1.798   5.511
10743SOL    HW133128   3.248   1.817   5.431
10743SOL    HW233129   3.258   1.828   5.594
10744SOL     OW33130   2.805   1.051   1.131
10744SOL    HW133131   2.863   1.025   1.053
10744SOL    HW233132   2.801   1.150   1.138
10745SOL     OW33133   2.378   4.665   1.319
10745SOL    HW133134   2.416   4.583   1.276
10745SOL    HW233135   2.323   4.715   1.253
10746SOL     OW33136   2.417   5.645   6.397
10746SOL    HW133137   2.353   5.611   6.328
10746SOL    HW233138   2.366   5.680   6.475
10747SOL     OW33139   6.734   1.410   4.506
10747SOL    HW133140   6.818   1.379   4.549
10747SOL    HW233141   6.755   1.458   4.421
10748SOL     OW33142   3.379   6.816   2.083
10748SOL    HW133143   3.406   6.853   2.172
10748SOL    HW233144   3.316   6.879   2.038
10749SOL     OW33145   6.064   4.532   1.734
10749SOL    HW133146   6.082   4.474   1.813
10749SOL    HW233147   6.092   4.626   1.754
10750SOL     OW33148   4.365   1.960   4.607
10750SOL    HW133149   4.344   1.863   4.598
10750SOL    HW233150   4.281   2.014   4.597
10751SOL     OW33151   7.014   5.497   4.239
10751SOL    HW133152   7.014   5.465   4.334
10751SOL    HW233153   6.960   5.435   4.182
10752SOL     OW33154   6.667   6.123   0.580
10752SOL    HW133155   6.569   6.136   0.567
10752SOL    HW233156   6.683   6.060   0.656
10753SOL     OW33157   4.796   0.102   4.862
10753SOL    HW133158   4.866   0.164   4.827
10753SOL    HW233159   4.794   0.019   4.808
10754SOL     OW33160   0.979   4.780   2.120
10754SOL    HW133161   1.062   4.731   2.146
10754SOL    HW233162   0.916   4.782   2.198
10755SOL     OW33163   0.340   2.467   1.392
10755SOL    HW133164   0.377   2.473   1.299
10755SOL    HW233165   0.253   2.418   1.389
10756SOL     OW33166   1.531   0.736   0.280
10756SOL    HW133167   1.520   0.828   0.241
10756SOL    HW233168   1.542   0.743   0.379
10757SOL     OW33169   0.381   2.654   2.285
10757SOL    HW133170   0.303   2.715   2.272
10757SOL    HW233171   0.401   2.606   2.199
10758SOL     OW33172   0.799   0.723   6.750
10758SOL    HW133173   0.825   0.817   6.777
10758SOL    HW233174   0.704   0.707   6.775
10759SOL     OW33175   2.970   3.035   5.316
10759SOL    HW133176   2.870   3.045   5.314
10759SOL    HW233177   3.012   3.125   5.328
10760SOL     OW33178   0.840   4.430   0.006
10760SOL    HW133179   0.891   4.371   0.068
10760SOL    HW233180   0.827   4.520   0.048
10761SOL     OW33181   1.057   1.524   5.844
10761SOL    HW133182   1.146   1.550   5.883
10761SOL    HW233183   1.032   1.433   5.877
10762SOL     OW33184   2.419   6.165   6.528
10762SOL    HW133185   2.438   6.154   6.625
10762SOL    HW233186   2.379   6.081   6.492
10763SOL     OW33187   4.763   0.675   3.151
10763SOL    HW133188   4.745   0.720   3.239
10763SOL    HW233189   4.677   0.657   3.104
10764SOL     OW33190   5.198   6.517   4.639
10764SOL    HW133191   5.177   6.434   4.587
10764SOL    HW233192   5.208   6.594   4.576
10765SOL     OW33193   0.628   1.820   1.537
10765SOL    HW133194   0.565   1.884   1.494
10765SOL    HW233195   0.718   1.829   1.495
10766SOL     OW33196   2.454   4.876   6.654
10766SOL    HW133197   2.380   4.888   6.589
10766SOL    HW233198   2.504   4.962   6.664
10767SOL     OW33199   1.843   5.168   0.057
10767SOL    HW133200   1.831   5.084   0.003
10767SOL    HW233201   1.758   5.219   0.059
10768SOL     OW33202   5.276   6.209   6.754
10768SOL    HW133203   5.222   6.138   6.708
10768SOL    HW233204   5.371   6.202   6.724
10769SOL     OW33205   3.010   3.133   4.747
10769SOL    HW133206   3.052   3.067   4.685
10769SOL    HW233207   3.022   3.102   4.841
10770SOL     OW33208   5.609   0.162   3.552
10770SOL    HW133209   5.603   0.102   3.472
10770SOL    HW233210   5.691   0.139   3.605
10771SOL     OW33211   4.978   5.915   6.040
10771SOL    HW133212   4.982   5.956   5.949
10771SOL    HW233213   4.882   5.896   6.064
10772SOL     OW33214   5.987   4.938   2.085
10772SOL    HW133215   5.977   4.919   2.183
10772SOL    HW233216   6.083   4.927   2.059
10773SOL     OW33217   0.582   3.956   1.552
10773SOL    HW133218   0.660   4.018   1.559
10773SOL    HW233219   0.602   3.871   1.599
10774SOL     OW33220   0.859   3.241   0.775
10774SOL    HW133221   0.929   3.187   0.822
10774SOL    HW233222   0.886   3.338   0.776
10775SOL     OW33223   1.925   4.178   0.716
10775SOL    HW133224   1.849   4.201   0.656
10775SOL    HW233225   1.952   4.083   0.700
10776SOL     OW33226   0.587   2.692   3.600
10776SOL    HW133227   0.673   2.728   3.565
10776SOL    HW233228   0.513   2.757   3.580
10777SOL     OW33229   1.754   0.336   0.881
10777SOL    HW133230   1.715   0.374   0.798
10777SOL    HW233231   1.683   0.330   0.952
10778SOL     OW33232   4.954   0.463   3.119
10778SOL    HW133233   4.875   0.523   3.123
10778SOL    HW233234   4.970   0.436   3.024
10779SOL     OW33235   5.721   3.364   5.800
10779SOL    HW133236   5.628   3.349   5.765
10779SOL    HW233237   5.777   3.283   5.781
10780SOL     OW33238   2.155   5.113   4.090
10780SOL    HW133239   2.204   5.186   4.042
10780SOL    HW233240   2.128   5.145   4.180
10781SOL     OW33241   5.626   2.194   4.692
10781SOL    HW133242   5.584   2.283   4.673
10781SOL    HW233243   5.662   2.155   4.607
10782SOL     OW33244   0.775   1.962   5.811
10782SOL    HW133245   0.868   1.941   5.781
10782SOL    HW233246   0.778   2.030   5.885
10783SOL     OW33247   1.161   2.687   3.607
10783SOL    HW133248   1.094   2.625   3.649
10783SOL    HW233249   1.174   2.767   3.666
10784SOL     OW33250   4.139   5.841   3.528
10784SOL    HW133251   4.112   5.804   3.439
10784SOL    HW233252   4.057   5.870   3.577
10785SOL     OW33253   1.674   5.491   1.842
10785SOL    HW133254   1.721   5.564   1.891
10785SOL    HW233255   1.741   5.426   1.806
10786SOL     OW33256   4.536   2.057   2.033
10786SOL    HW133257   4.483   1.984   1.989
10786SOL    HW233258   4.543   2.038   2.131
10787SOL     OW33259   3.761   2.180   3.536
10787SOL    HW133260   3.684   2.141   3.587
10787SOL    HW233261   3.831   2.212   3.600
10788SOL     OW33262   1.688   4.225   0.583
10788SOL    HW133263   1.669   4.283   0.504
10788SOL    HW233264   1.625   4.148   0.585
10789SOL     OW33265   6.567   1.501   2.630
10789SOL    HW133266   6.642   1.451   2.674
10789SOL    HW233267   6.496   1.437   2.602
10790SOL     OW33268   6.874   1.882   5.704
10790SOL    HW133269   6.811   1.939   5.757
10790SOL    HW233270   6.966   1.891   5.740
10791SOL     OW33271   2.008   2.169   3.671
10791SOL    HW133272   1.920   2.127   3.692
10791SOL    HW233273   2.050   2.121   3.594
10792SOL     OW33274   3.489   1.663   2.421
10792SOL    HW133275   3.544   1.581   2.437
10792SOL    HW233276   3.496   1.690   2.325
10793SOL     OW33277   3.401   1.801   5.059
10793SOL    HW133278   3.341   1.813   4.980
10793SOL    HW233279   3.441   1.889   5.085
10794SOL     OW33280   5.528   2.449   0.427
10794SOL    HW133281   5.548   2.537   0.384
10794SOL    HW233282   5.546   2.455   0.526
10795SOL     OW33283   0.069   3.623   3.318
10795SOL    HW133284   0.017   3.539   3.329
10795SOL    HW233285   0.079   3.643   3.220
10796SOL     OW33286   6.946   0.227   6.214
10796SOL    HW133287   0.006   0.169   6.232
10796SOL    HW233288   6.867   0.169   6.194
10797SOL     OW33289   4.310   4.698   0.337
10797SOL    HW133290   4.384   4.631   0.339
10797SOL    HW233291   4.237   4.669   0.400
10798SOL     OW33292   2.048   6.184   6.826
10798SOL    HW133293   1.954   6.176   6.857
10798SOL    HW233294   2.054   6.251   6.752
10799SOL     OW33295   2.776   1.274   2.694
10799SOL    HW133296   2.805   1.367   2.716
10799SOL    HW233297   2.787   1.258   2.596
10800SOL     OW33298   2.345   0.000   5.213
10800SOL    HW133299   2.300   0.066   5.273
10800SOL    HW233300   2.283   6.944   5.194
10801SOL     OW33301   2.892   6.502   5.852
10801SOL    HW133302   2.949   6.556   5.913
10801SOL    HW233303   2.935   6.498   5.761
10802SOL     OW33304   0.471   5.303   4.264
10802SOL    HW133305   0.524   5.254   4.334
10802SOL    HW233306   0.532   5.332   4.191
10803SOL     OW33307   0.294   4.618   4.360
10803SOL    HW133308   0.206   4.619   4.313
10803SOL    HW233309   0.328   4.523   4.365
10804SOL     OW33310   4.830   4.425   0.878
10804SOL    HW133311   4.781   4.469   0.953
10804SOL    HW233312   4.824   4.326   0.887
10805SOL     OW33313   3.843   6.455   0.514
10805SOL    HW133314   3.876   6.375   0.565
10805SOL    HW233315   3.746   6.443   0.493
10806SOL     OW33316   6.173   4.181   6.453
10806SOL    HW133317   6.210   4.130   6.375
10806SOL    HW233318   6.093   4.233   6.425
10807SOL     OW33319   4.155   1.407   4.343
10807SOL    HW133320   4.094   1.396   4.265
10807SOL    HW233321   4.114   1.471   4.409
10808SOL     OW33322   6.827   2.110   0.149
10808SOL    HW133323   6.782   2.177   0.089
10808SOL    HW233324   6.926   2.118   0.141
10809SOL     OW33325   2.731   1.609   2.003
10809SOL    HW133326   2.734   1.510   1.993
10809SOL    HW233327   2.657   1.646   1.946
10810SOL     OW33328   1.901   1.331   6.220
10810SOL    HW133329   1.911   1.276   6.304
10810SOL    HW233330   1.990   1.373   6.198
10811SOL     OW33331   4.902   5.100   6.435
10811SOL    HW133332   4.967   5.062   6.369
10811SOL    HW233333   4.830   5.148   6.387
10812SOL     OW33334   6.669   2.698   2.019
10812SOL    HW133335   6.677   2.654   2.109
10812SOL    HW233336   6.744   2.667   1.960
10813SOL     OW33337   3.228   5.971   2.516
10813SOL    HW133338   3.296   6.022   2.569
10813SOL    HW233339   3.246   5.980   2.419
10814SOL     OW33340   2.295   5.357   4.352
10814SOL    HW133341   2.291   5.401   4.262
10814SOL    HW233342   2.209   5.308   4.369
10815SOL     OW33343   4.416   2.222   4.334
10815SOL    HW133344   4.384   2.182   4.420
10815SOL    HW233345   4.507   2.261   4.347
10816SOL     OW33346   2.202   2.235   1.805
10816SOL    HW133347   2.163   2.314   1.758
10816SOL    HW233348   2.249   2.177   1.739
10817SOL     OW33349   4.149   0.571   1.924
10817SOL    HW133350   4.080   0.526   1.981
10817SOL    HW233351   4.113   0.582   1.831
10818SOL     OW33352   4.551   2.852   6.982
10818SOL    HW133353   4.542   2.760   6.944
10818SOL    HW233354   4.617   2.904   6.927
10819SOL     OW33355   0.698   3.730   5.380
10819SOL    HW133356   0.765   3.783   5.328
10819SOL    HW233357   0.719   3.633   5.371
10820SOL     OW33358   0.114   6.980   4.414
10820SOL    HW133359   0.053   6.911   4.374
10820SOL    HW233360   0.173   7.017   4.343
10821SOL     OW33361   0.203   6.906   0.803
10821SOL    HW133362   0.184   6.910   0.705
10821SOL    HW233363   0.274   6.838   0.821
10822SOL     OW33364   0.328   4.088   6.928
10822SOL    HW133365   0.375   4.021   6.872
10822SOL    HW233366   0.251   4.045   6.975
10823SOL     OW33367   1.989   2.022   1.378
10823SOL    HW133368   1.945   2.112   1.382
10823SOL    HW233369   2.088   2.033   1.393
10824SOL     OW33370   5.286   0.795   3.441
10824SOL    HW133371   5.202   0.794   3.388
10824SOL    HW233372   5.299   0.706   3.486
10825SOL     OW33373   3.601   1.082   2.110
10825SOL    HW133374   3.623   1.021   2.035
10825SOL    HW233375   3.618   1.177   2.083
10826SOL     OW33376   6.553   2.988   1.387
10826SOL    HW133377   6.534   2.924   1.313
10826SOL    HW233378   6.643   2.968   1.426
10827SOL     OW33379   1.002   3.353   4.330
10827SOL    HW133380   0.914   3.400   4.336
10827SOL    HW233381   1.072   3.416   4.298
10828SOL     OW33382   1.080   5.763   0.475
10828SOL    HW133383   1.118   5.739   0.385
10828SOL    HW233384   0.989   5.802   0.463
10829SOL     OW33385   2.168   3.359   1.702
10829SOL    HW133386   2.237   3.412   1.752
10829SOL    HW233387   2.092   3.339   1.763
10830SOL     OW33388   4.959   1.334   3.421
10830SOL    HW133389   4.976   1.411   3.360
10830SOL    HW233390   5.045   1.300   3.457
10831SOL     OW33391   5.668   3.412   2.152
10831SOL    HW133392   5.686   3.344   2.224
10831SOL    HW233393   5.608   3.372   2.083
10832SOL     OW33394   0.215   3.420   2.966
10832SOL    HW133395   0.302   3.407   2.917
10832SOL    HW233396   0.181   3.331   2.995
10833SOL     OW33397   2.392   0.045   3.443
10833SOL    HW133398   2.367   6.992   3.379
10833SOL    HW233399   2.458   0.106   3.399
10834SOL     OW33400   6.887   0.993   5.607
10834SOL    HW133401   6.899   0.950   5.517
10834SOL    HW233402   6.790   1.013   5.621
10835SOL     OW33403   0.128   2.960   1.670
10835SOL    HW133404   0.155   2.864   1.666
10835SOL    HW233405   0.096   2.989   1.580
10836SOL     OW33406   2.119   2.955   0.878
10836SOL    HW133407   2.189   2.920   0.816
10836SOL    HW233408   2.147   2.938   0.972
10837SOL     OW33409   1.108   5.856   1.184
10837SOL    HW133410   1.044   5.838   1.259
10837SOL    HW233411   1.060   5.905   1.111
10838SOL     OW33412   6.305   6.939   0.346
10838SOL    HW133413   6.317   6.865   0.279
10838SOL    HW233414   6.383   6.939   0.409
10839SOL     OW33415   1.582   1.547   0.216
10839SOL    HW133416   1.546   1.630   0.173
10839SOL    HW233417   1.649   1.505   0.156
10840SOL     OW33418   3.342   6.316   2.407
10840SOL    HW133419   3.411   6.316   2.335
10840SOL    HW233420   3.255   6.281   2.371
10841SOL     OW33421   5.289   2.735   6.990
10841SOL    HW133422   5.233   2.658   6.959
10841SOL    HW233423   5.306   2.797   6.913
10842SOL     OW33424   6.096   2.871   1.289
10842SOL    HW133425   5.996   2.872   1.279
10842SOL    HW233426   6.120   2.829   1.376
10843SOL     OW33427   0.014   1.333   1.782
10843SOL    HW133428   6.953   1.274   1.777
10843SOL    HW233429   0.097   1.279   1.766
10844SOL     OW33430   3.892   0.381   3.454
10844SOL    HW133431   3.825   0.417   3.520
10844SOL    HW233432   3.860   0.293   3.418
10845SOL     OW33433   2.292   2.996   0.604
10845SOL    HW133434   2.317   3.015   0.699
10845SOL    HW233435   2.334   2.911   0.574
10846SOL     OW33436   3.755   1.666   1.572
10846SOL    HW133437   3.706   1.745   1.609
10846SOL    HW233438   3.706   1.630   1.492
10847SOL     OW33439   4.630   2.790   5.511
10847SOL    HW133440   4.690   2.869   5.524
10847SOL    HW233441   4.608   2.780   5.414
10848SOL     OW33442   1.363   0.976   6.478
10848SOL    HW133443   1.280   0.922   6.472
10848SOL    HW233444   1.416   0.949   6.558
10849SOL     OW33445   2.033   5.441   3.568
10849SOL    HW133446   2.127   5.459   3.599
10849SOL    HW233447   2.014   5.494   3.486
10850SOL     OW33448   5.624   0.611   2.184
10850SOL    HW133449   5.679   0.624   2.102
10850SOL    HW233450   5.583   0.698   2.211
10851SOL     OW33451   4.570   1.849   6.468
10851SOL    HW133452   4.580   1.867   6.566
10851SOL    HW233453   4.564   1.936   6.419
10852SOL     OW33454   6.929   0.640   5.829
10852SOL    HW133455   6.928   0.739   5.837
10852SOL    HW233456   0.004   0.607   5.823
10853SOL     OW33457   2.651   0.686   4.596
10853SOL    HW133458   2.614   0.730   4.514
10853SOL    HW233459   2.697   0.601   4.571
10854SOL     OW33460   0.078   6.543   0.866
10854SOL    HW133461   7.012   6.587   0.893
10854SOL    HW233462   0.149   6.612   0.853
10855SOL     OW33463   0.588   5.387   1.400
10855SOL    HW133464   0.666   5.390   1.463
10855SOL    HW233465   0.596   5.308   1.340
10856SOL     OW33466   5.851   0.304   6.696
10856SOL    HW133467   5.769   0.360   6.683
10856SOL    HW233468   5.884   0.315   6.790
10857SOL     OW33469   6.812   0.380   4.883
10857SOL    HW133470   6.756   0.459   4.857
10857SOL    HW233471   6.883   0.410   4.947
10858SOL     OW33472   1.963   2.067   0.319
10858SOL    HW133473   2.027   2.022   0.257
10858SOL    HW233474   1.904   2.129   0.267
10859SOL     OW33475   1.466   5.798   1.999
10859SOL    HW133476   1.480   5.897   1.996
10859SOL    HW233477   1.441   5.766   1.908
10860SOL     OW33478   6.381   2.851   1.680
10860SOL    HW133479   6.464   2.834   1.627
10860SOL    HW233480   6.316   2.904   1.624
10861SOL     OW33481   2.232   3.862   1.564
10861SOL    HW133482   2.298   3.884   1.492
10861SOL    HW233483   2.280   3.820   1.641
10862SOL     OW33484   3.667   4.309   5.170
10862SOL    HW133485   3.573   4.278   5.163
10862SOL    HW233486   3.705   4.321   5.078
10863SOL     OW33487   2.289   0.557   3.374
10863SOL    HW133488   2.218   0.519   3.316
10863SOL    HW233489   2.304   0.497   3.453
10864SOL     OW33490   3.010   4.234   1.752
10864SOL    HW133491   2.976   4.325   1.776
10864SOL    HW233492   3.101   4.242   1.711
10865SOL     OW33493   3.941   1.611   2.385
10865SOL    HW133494   3.904   1.580   2.473
10865SOL    HW233495   3.941   1.711   2.382
10866SOL     OW33496   0.875   3.569   3.613
10866SOL    HW133497   0.930   3.653   3.611
10866SOL    HW233498   0.795   3.581   3.555
10867SOL     OW33499   4.775   2.542   0.075
10867SOL    HW133500   4.717   2.614   0.113
10867SOL    HW233501   4.718   2.466   0.043
10868SOL     OW33502   1.590   6.890   5.059
10868SOL    HW133503   1.626   6.869   5.150
10868SOL    HW233504   1.495   6.860   5.053
10869NA      NA33505   6.727   1.049   6.142
10870NA      NA33506   4.285   4.646   5.252
10871NA      NA33507   1.411   4.773   2.808
10872NA      NA33508   5.466   3.726   2.838
10873NA      NA33509   3.628   2.630   5.638
10874NA      NA33510   2.531   5.098   0.100
10875NA      NA33511   1.708   5.417   6.523
10876NA      NA33512   4.124   4.820   1.600
10877NA      NA33513   5.266   4.599   0.628
10878NA      NA33514   3.534   1.443   0.445
10879NA      NA33515   5.436   6.854   1.768
10880NA      NA33516   2.571   6.690   4.957
10881NA      NA33517   4.287   4.987   2.332
10882NA      NA33518   4.280   3.920   6.864
   7.01941   7.01941   7.01941
