Generated by trjconv : CNT in water t= 268.00000
33518
    1C        C    1   2.844   2.768   4.745
    1C        C    2   2.902   2.721   4.866
    1C        C    3   2.843   2.773   4.982
    1C        C    4   2.846   2.767   4.256
    1C        C    5   2.902   2.731   4.381
    1C        C    6   2.845   2.770   4.504
    1C        C    7   3.010   2.635   4.623
    1C        C    8   2.895   2.716   4.625
    1C        C    9   3.077   2.605   4.744
    1C        C   10   3.012   2.633   4.865
    1C        C   11   3.181   2.491   4.975
    1C        C   12   3.058   2.557   4.974
    1C        C   13   2.853   2.773   3.770
    1C        C   14   2.901   2.719   3.892
    1C        C   15   2.852   2.772   4.013
    1C        C   16   3.019   2.642   4.134
    1C        C   17   2.900   2.719   4.135
    1C        C   18   3.078   2.607   4.258
    1C        C   19   3.015   2.646   4.378
    1C        C   20   3.205   2.554   4.505
    1C        C   21   3.074   2.607   4.500
    1C        C   22   3.277   2.530   4.624
    1C        C   23   3.206   2.543   4.745
    1C        C   24   3.412   2.476   4.864
    1C        C   25   3.271   2.500   4.864
    1C        C   26   3.489   2.476   4.981
    1C        C   27   2.852   2.769   3.279
    1C        C   28   2.908   2.727   3.401
    1C        C   29   2.852   2.770   3.524
    1C        C   30   3.017   2.638   3.646
    1C        C   31   2.906   2.726   3.647
    1C        C   32   3.078   2.601   3.769
    1C        C   33   3.015   2.636   3.890
    1C        C   34   3.203   2.537   4.015
    1C        C   35   3.078   2.603   4.012
    1C        C   36   3.272   2.524   4.137
    1C        C   37   3.208   2.553   4.260
    1C        C   38   3.413   2.510   4.381
    1C        C   39   3.273   2.531   4.383
    1C        C   40   3.487   2.499   4.501
    1C        C   41   3.415   2.503   4.622
    1C        C   42   3.628   2.481   4.743
    1C        C   43   3.486   2.477   4.742
    1C        C   44   3.701   2.490   4.864
    1C        C   45   3.628   2.472   4.982
    1C        C   46   2.840   2.754   2.790
    1C        C   47   2.899   2.716   2.913
    1C        C   48   2.847   2.764   3.035
    1C        C   49   3.015   2.633   3.159
    1C        C   50   2.903   2.719   3.156
    1C        C   51   3.078   2.600   3.281
    1C        C   52   3.015   2.635   3.403
    1C        C   53   3.206   2.541   3.527
    1C        C   54   3.076   2.598   3.525
    1C        C   55   3.272   2.520   3.650
    1C        C   56   3.208   2.546   3.773
    1C        C   57   3.414   2.496   3.892
    1C        C   58   3.274   2.517   3.894
    1C        C   59   3.482   2.496   4.015
    1C        C   60   3.412   2.500   4.137
    1C        C   61   3.625   2.503   4.257
    1C        C   62   3.484   2.497   4.259
    1C        C   63   3.698   2.510   4.377
    1C        C   64   3.628   2.501   4.500
    1C        C   65   3.833   2.543   4.619
    1C        C   66   3.698   2.502   4.622
    1C        C   67   3.906   2.558   4.739
    1C        C   68   3.836   2.528   4.858
    1C        C   69   4.051   2.582   4.975
    1C        C   70   3.919   2.536   4.971
    1C        C   71   2.826   2.740   2.304
    1C        C   72   2.882   2.697   2.426
    1C        C   73   2.827   2.745   2.547
    1C        C   74   3.006   2.626   2.668
    1C        C   75   2.887   2.702   2.668
    1C        C   76   3.072   2.596   2.789
    1C        C   77   3.014   2.634   2.912
    1C        C   78   3.203   2.541   3.037
    1C        C   79   3.074   2.600   3.035
    1C        C   80   3.273   2.524   3.158
    1C        C   81   3.209   2.547   3.282
    1C        C   82   3.411   2.490   3.399
    1C        C   83   3.272   2.517   3.405
    1C        C   84   3.479   2.488   3.522
    1C        C   85   3.411   2.495   3.646
    1C        C   86   3.623   2.492   3.767
    1C        C   87   3.482   2.485   3.768
    1C        C   88   3.693   2.504   3.889
    1C        C   89   3.624   2.498   4.012
    1C        C   90   3.831   2.543   4.129
    1C        C   91   3.693   2.513   4.134
    1C        C   92   3.899   2.570   4.250
    1C        C   93   3.834   2.547   4.373
    1C        C   94   4.026   2.632   4.498
    1C        C   95   3.898   2.571   4.497
    1C        C   96   4.090   2.668   4.619
    1C        C   97   4.032   2.624   4.740
    1C        C   98   4.187   2.767   4.861
    1C        C   99   4.102   2.652   4.861
    1C        C  100   4.216   2.840   4.977
    1C        C  101   2.821   2.732   2.070
    1C        C  102   2.987   2.587   2.188
    1C        C  103   2.874   2.675   2.187
    1C        C  104   3.060   2.571   2.309
    1C        C  105   2.999   2.618   2.427
    1C        C  106   3.199   2.533   2.546
    1C        C  107   3.070   2.590   2.547
    1C        C  108   3.265   2.517   2.669
    1C        C  109   3.202   2.541   2.793
    1C        C  110   3.409   2.492   2.910
    1C        C  111   3.271   2.519   2.915
    1C        C  112   3.479   2.480   3.032
    1C        C  113   3.411   2.494   3.155
    1C        C  114   3.624   2.500   3.278
    1C        C  115   3.483   2.489   3.277
    1C        C  116   3.692   2.512   3.401
    1C        C  117   3.620   2.503   3.522
    1C        C  118   3.827   2.548   3.645
    1C        C  119   3.690   2.512   3.644
    1C        C  120   3.894   2.575   3.766
    1C        C  121   3.828   2.546   3.888
    1C        C  122   4.021   2.641   4.009
    1C        C  123   3.900   2.569   4.008
    1C        C  124   4.082   2.677   4.131
    1C        C  125   4.024   2.636   4.253
    1C        C  126   4.197   2.756   4.375
    1C        C  127   4.087   2.667   4.376
    1C        C  128   4.243   2.813   4.496
    1C        C  129   4.193   2.764   4.618
    1C        C  130   4.326   2.932   4.738
    1C        C  131   4.243   2.816   4.740
    1C        C  132   4.360   2.996   4.859
    1C        C  133   4.289   2.958   4.974
    1C        C  134   3.169   2.463   2.080
    1C        C  135   3.038   2.512   2.077
    1C        C  136   3.259   2.477   2.187
    1C        C  137   3.192   2.517   2.304
    1C        C  138   3.403   2.480   2.425
    1C        C  139   3.262   2.496   2.425
    1C        C  140   3.477   2.482   2.545
    1C        C  141   3.405   2.495   2.666
    1C        C  142   3.619   2.491   2.787
    1C        C  143   3.478   2.488   2.787
    1C        C  144   3.690   2.501   2.909
    1C        C  145   3.620   2.493   3.032
    1C        C  146   3.828   2.535   3.155
    1C        C  147   3.691   2.500   3.154
    1C        C  148   3.897   2.563   3.275
    1C        C  149   3.830   2.542   3.398
    1C        C  150   4.020   2.631   3.519
    1C        C  151   3.892   2.570   3.521
    1C        C  152   4.078   2.676   3.640
    1C        C  153   4.018   2.642   3.764
    1C        C  154   4.191   2.766   3.887
    1C        C  155   4.079   2.680   3.886
    1C        C  156   4.248   2.810   4.009
    1C        C  157   4.194   2.763   4.131
    1C        C  158   4.337   2.918   4.252
    1C        C  159   4.248   2.808   4.254
    1C        C  160   4.375   2.979   4.374
    1C        C  161   4.329   2.925   4.496
    1C        C  162   4.437   3.112   4.615
    1C        C  163   4.368   2.988   4.616
    1C        C  164   4.465   3.181   4.735
    1C        C  165   4.438   3.113   4.856
    1C        C  166   4.515   3.317   4.969
    1C        C  167   4.481   3.182   4.970
    1C        C  168   3.476   2.431   2.070
    1C        C  169   3.399   2.461   2.183
    1C        C  170   3.614   2.468   2.304
    1C        C  171   3.472   2.464   2.303
    1C        C  172   3.690   2.485   2.422
    1C        C  173   3.618   2.483   2.544
    1C        C  174   3.824   2.544   2.665
    1C        C  175   3.689   2.502   2.665
    1C        C  176   3.893   2.560   2.787
    1C        C  177   3.827   2.535   2.909
    1C        C  178   4.019   2.623   3.030
    1C        C  179   3.892   2.560   3.032
    1C        C  180   4.080   2.665   3.150
    1C        C  181   4.021   2.631   3.274
    1C        C  182   4.192   2.753   3.396
    1C        C  183   4.082   2.664   3.397
    1C        C  184   4.242   2.804   3.518
    1C        C  185   4.190   2.761   3.642
    1C        C  186   4.339   2.914   3.762
    1C        C  187   4.243   2.811   3.764
    1C        C  188   4.376   2.974   3.885
    1C        C  189   4.337   2.920   4.009
    1C        C  190   4.446   3.102   4.129
    1C        C  191   4.380   2.977   4.131
    1C        C  192   4.470   3.167   4.252
    1C        C  193   4.445   3.101   4.375
    1C        C  194   4.502   3.312   4.492
    1C        C  195   4.470   3.174   4.493
    1C        C  196   4.520   3.385   4.611
    1C        C  197   4.508   3.317   4.734
    1C        C  198   4.561   3.533   4.851
    1C        C  199   4.530   3.393   4.852
    1C        C  200   4.586   3.618   4.963
    1C        C  201   3.615   2.416   2.072
    1C        C  202   3.826   2.508   2.179
    1C        C  203   3.691   2.462   2.184
    1C        C  204   3.897   2.533   2.300
    1C        C  205   3.826   2.521   2.421
    1C        C  206   4.020   2.616   2.541
    1C        C  207   3.892   2.556   2.541
    1C        C  208   4.078   2.656   2.663
    1C        C  209   4.020   2.622   2.788
    1C        C  210   4.192   2.748   2.904
    1C        C  211   4.082   2.660   2.909
    1C        C  212   4.246   2.795   3.026
    1C        C  213   4.193   2.750   3.149
    1C        C  214   4.328   2.911   3.271
    1C        C  215   4.243   2.798   3.272
    1C        C  216   4.367   2.971   3.393
    1C        C  217   4.335   2.910   3.517
    1C        C  218   4.435   3.098   3.637
    1C        C  219   4.378   2.969   3.638
    1C        C  220   4.460   3.165   3.759
    1C        C  221   4.445   3.097   3.882
    1C        C  222   4.504   3.301   4.002
    1C        C  223   4.473   3.163   4.004
    1C        C  224   4.515   3.373   4.124
    1C        C  225   4.507   3.303   4.246
    1C        C  226   4.511   3.517   4.363
    1C        C  227   4.515   3.376   4.367
    1C        C  228   4.510   3.593   4.483
    1C        C  229   4.528   3.526   4.605
    1C        C  230   4.501   3.735   4.722
    1C        C  231   4.539   3.598   4.726
    1C        C  232   4.492   3.812   4.840
    1C        C  233   4.545   3.752   4.955
    1C        C  234   4.018   2.609   2.060
    1C        C  235   3.893   2.548   2.063
    1C        C  236   4.081   2.648   2.180
    1C        C  237   4.018   2.608   2.300
    1C        C  238   4.196   2.736   2.417
    1C        C  239   4.082   2.651   2.419
    1C        C  240   4.249   2.781   2.540
    1C        C  241   4.190   2.741   2.662
    1C        C  242   4.338   2.901   2.781
    1C        C  243   4.242   2.797   2.781
    1C        C  244   4.376   2.961   2.904
    1C        C  245   4.337   2.904   3.027
    1C        C  246   4.439   3.090   3.148
    1C        C  247   4.375   2.964   3.149
    1C        C  248   4.461   3.158   3.270
    1C        C  249   4.428   3.098   3.394
    1C        C  250   4.503   3.298   3.511
    1C        C  251   4.462   3.163   3.515
    1C        C  252   4.514   3.368   3.633
    1C        C  253   4.497   3.301   3.756
    1C        C  254   4.512   3.511   3.877
    1C        C  255   4.514   3.370   3.879
    1C        C  256   4.507   3.583   3.999
    1C        C  257   4.513   3.514   4.122
    1C        C  258   4.481   3.727   4.241
    1C        C  259   4.510   3.589   4.241
    1C        C  260   4.461   3.800   4.361
    1C        C  261   4.480   3.731   4.483
    1C        C  262   4.423   3.938   4.604
    1C        C  263   4.470   3.804   4.603
    1C        C  264   4.393   4.006   4.724
    1C        C  265   4.432   3.940   4.843
    1C        C  266   4.317   4.129   4.959
    1C        C  267   4.387   4.009   4.956
    1C        C  268   4.253   2.778   2.060
    1C        C  269   4.194   2.731   2.178
    1C        C  270   4.348   2.887   2.295
    1C        C  271   4.253   2.781   2.296
    1C        C  272   4.380   2.949   2.418
    1C        C  273   4.333   2.895   2.539
    1C        C  274   4.444   3.082   2.659
    1C        C  275   4.376   2.958   2.658
    1C        C  276   4.473   3.150   2.779
    1C        C  277   4.443   3.085   2.902
    1C        C  278   4.505   3.288   3.024
    1C        C  279   4.467   3.151   3.024
    1C        C  280   4.510   3.361   3.145
    1C        C  281   4.500   3.293   3.268
    1C        C  282   4.518   3.508   3.387
    1C        C  283   4.515   3.367   3.388
    1C        C  284   4.514   3.579   3.510
    1C        C  285   4.518   3.510   3.633
    1C        C  286   4.487   3.720   3.752
    1C        C  287   4.515   3.581   3.755
    1C        C  288   4.468   3.790   3.873
    1C        C  289   4.481   3.722   3.996
    1C        C  290   4.417   3.926   4.116
    1C        C  291   4.465   3.793   4.118
    1C        C  292   4.388   3.994   4.237
    1C        C  293   4.415   3.933   4.362
    1C        C  294   4.325   4.127   4.476
    1C        C  295   4.388   4.000   4.483
    1C        C  296   4.284   4.190   4.595
    1C        C  297   4.325   4.131   4.717
    1C        C  298   4.201   4.310   4.832
    1C        C  299   4.283   4.192   4.838
    1C        C  300   4.171   4.396   4.942
    1C        C  301   4.348   2.880   2.057
    1C        C  302   4.474   3.061   2.174
    1C        C  303   4.400   2.938   2.173
    1C        C  304   4.484   3.136   2.294
    1C        C  305   4.452   3.071   2.415
    1C        C  306   4.504   3.281   2.534
    1C        C  307   4.474   3.143   2.535
    1C        C  308   4.511   3.355   2.655
    1C        C  309   4.496   3.289   2.779
    1C        C  310   4.519   3.498   2.896
    1C        C  311   4.509   3.357   2.902
    1C        C  312   4.511   3.571   3.017
    1C        C  313   4.510   3.503   3.141
    1C        C  314   4.480   3.712   3.265
    1C        C  315   4.511   3.574   3.263
    1C        C  316   4.466   3.784   3.385
    1C        C  317   4.490   3.718   3.508
    1C        C  318   4.426   3.922   3.625
    1C        C  319   4.469   3.787   3.629
    1C        C  320   4.394   3.987   3.747
    1C        C  321   4.420   3.923   3.870
    1C        C  322   4.318   4.109   3.987
    1C        C  323   4.389   3.987   3.992
    1C        C  324   4.275   4.167   4.109
    1C        C  325   4.316   4.115   4.234
    1C        C  326   4.182   4.282   4.350
    1C        C  327   4.279   4.180   4.353
    1C        C  328   4.132   4.335   4.472
    1C        C  329   4.185   4.291   4.596
    1C        C  330   4.019   4.434   4.711
    1C        C  331   4.132   4.347   4.714
    1C        C  332   3.968   4.490   4.829
    1C        C  333   4.054   4.474   4.939
    1C        C  334   4.542   3.265   2.059
    1C        C  335   4.536   3.125   2.061
    1C        C  336   4.523   3.348   2.170
    1C        C  337   4.509   3.276   2.291
    1C        C  338   4.523   3.490   2.408
    1C        C  339   4.519   3.349   2.411
    1C        C  340   4.513   3.564   2.529
    1C        C  341   4.516   3.496   2.653
    1C        C  342   4.486   3.708   2.773
    1C        C  343   4.510   3.568   2.774
    1C        C  344   4.470   3.776   2.896
    1C        C  345   4.491   3.711   3.019
    1C        C  346   4.417   3.910   3.137
    1C        C  347   4.465   3.778   3.140
    1C        C  348   4.390   3.979   3.257
    1C        C  349   4.416   3.916   3.381
    1C        C  350   4.320   4.105   3.500
    1C        C  351   4.393   3.984   3.503
    1C        C  352   4.278   4.166   3.620
    1C        C  353   4.318   4.105   3.742
    1C        C  354   4.177   4.265   3.865
    1C        C  355   4.274   4.162   3.864
    1C        C  356   4.125   4.319   3.985
    1C        C  357   4.177   4.269   4.106
    1C        C  358   4.015   4.409   4.226
    1C        C  359   4.129   4.325   4.227
    1C        C  360   3.953   4.451   4.346
    1C        C  361   4.019   4.419   4.466
    1C        C  362   3.829   4.517   4.591
    1C        C  363   3.960   4.465   4.586
    1C        C  364   3.763   4.552   4.711
    1C        C  365   3.838   4.546   4.830
    1C        C  366   3.631   4.594   4.945
    1C        C  367   3.769   4.577   4.948
    1C        C  368   4.509   3.565   2.051
    1C        C  369   4.526   3.489   2.167
    1C        C  370   4.506   3.704   2.284
    1C        C  371   4.522   3.563   2.287
    1C        C  372   4.482   3.774   2.405
    1C        C  373   4.494   3.704   2.527
    1C        C  374   4.420   3.903   2.648
    1C        C  375   4.473   3.772   2.648
    1C        C  376   4.391   3.970   2.769
    1C        C  377   4.423   3.910   2.893
    1C        C  378   4.315   4.093   3.010
    1C        C  379   4.394   3.976   3.014
    1C        C  380   4.268   4.150   3.131
    1C        C  381   4.311   4.096   3.255
    1C        C  382   4.176   4.259   3.377
    1C        C  383   4.271   4.155   3.377
    1C        C  384   4.123   4.309   3.498
    1C        C  385   4.180   4.268   3.620
    1C        C  386   4.011   4.395   3.740
    1C        C  387   4.127   4.315   3.743
    1C        C  388   3.949   4.434   3.861
    1C        C  389   4.011   4.402   3.984
    1C        C  390   3.820   4.496   4.105
    1C        C  391   3.952   4.446   4.105
    1C        C  392   3.751   4.519   4.226
    1C        C  393   3.821   4.503   4.348
    1C        C  394   3.616   4.552   4.470
    1C        C  395   3.755   4.527   4.471
    1C        C  396   3.547   4.567   4.592
    1C        C  397   3.623   4.568   4.711
    1C        C  398   3.410   4.560   4.835
    1C        C  399   3.550   4.576   4.832
    1C        C  400   3.344   4.508   4.947
    1C        C  401   4.507   3.704   2.046
    1C        C  402   4.449   3.911   2.163
    1C        C  403   4.495   3.778   2.165
    1C        C  404   4.412   3.975   2.284
    1C        C  405   4.438   3.908   2.405
    1C        C  406   4.327   4.092   2.524
    1C        C  407   4.397   3.969   2.526
    1C        C  408   4.282   4.150   2.645
    1C        C  409   4.317   4.091   2.768
    1C        C  410   4.173   4.250   2.885
    1C        C  411   4.273   4.151   2.888
    1C        C  412   4.124   4.301   3.007
    1C        C  413   4.172   4.254   3.131
    1C        C  414   4.002   4.379   3.251
    1C        C  415   4.120   4.300   3.254
    1C        C  416   3.946   4.422   3.374
    1C        C  417   4.011   4.395   3.496
    1C        C  418   3.813   4.472   3.615
    1C        C  419   3.944   4.420   3.618
    1C        C  420   3.750   4.506   3.738
    1C        C  421   3.818   4.487   3.860
    1C        C  422   3.613   4.537   3.984
    1C        C  423   3.751   4.509   3.983
    1C        C  424   3.542   4.546   4.106
    1C        C  425   3.612   4.542   4.228
    1C        C  426   3.401   4.547   4.353
    1C        C  427   3.542   4.555   4.350
    1C        C  428   3.332   4.538   4.477
    1C        C  429   3.406   4.557   4.595
    1C        C  430   3.195   4.521   4.718
    1C        C  431   3.333   4.552   4.716
    1C        C  432   3.125   4.494   4.839
    1C        C  433   3.205   4.498   4.953
    1C        C  434   4.381   4.121   2.049
    1C        C  435   4.449   3.998   2.053
    1C        C  436   4.303   4.159   2.162
    1C        C  437   4.331   4.092   2.284
    1C        C  438   4.179   4.247   2.400
    1C        C  439   4.282   4.150   2.403
    1C        C  440   4.121   4.291   2.521
    1C        C  441   4.179   4.246   2.642
    1C        C  442   4.006   4.376   2.763
    1C        C  443   4.123   4.297   2.761
    1C        C  444   3.945   4.412   2.886
    1C        C  445   4.009   4.383   3.009
    1C        C  446   3.815   4.477   3.128
    1C        C  447   3.945   4.420   3.129
    1C        C  448   3.748   4.500   3.250
    1C        C  449   3.815   4.474   3.372
    1C        C  450   3.607   4.526   3.496
    1C        C  451   3.744   4.492   3.493
    1C        C  452   3.538   4.537   3.619
    1C        C  453   3.611   4.528   3.740
    1C        C  454   3.400   4.537   3.863
    1C        C  455   3.541   4.537   3.862
    1C        C  456   3.330   4.530   3.986
    1C        C  457   3.401   4.538   4.108
    1C        C  458   3.195   4.498   4.234
    1C        C  459   3.331   4.536   4.231
    1C        C  460   3.126   4.482   4.356
    1C        C  461   3.195   4.506   4.477
    1C        C  462   2.996   4.434   4.602
    1C        C  463   3.123   4.493   4.599
    1C        C  464   2.935   4.392   4.723
    1C        C  465   2.994   4.437   4.845
    1C        C  466   2.802   4.336   4.958
    1C        C  467   2.908   4.427   4.959
    1C        C  468   4.122   4.279   2.038
    1C        C  469   4.185   4.240   2.157
    1C        C  470   4.008   4.367   2.275
    1C        C  471   4.130   4.294   2.276
    1C        C  472   3.946   4.405   2.396
    1C        C  473   4.006   4.373   2.520
    1C        C  474   3.815   4.466   2.639
    1C        C  475   3.946   4.414   2.641
    1C        C  476   3.746   4.487   2.761
    1C        C  477   3.813   4.463   2.883
    1C        C  478   3.608   4.515   3.004
    1C        C  479   3.747   4.486   3.005
    1C        C  480   3.539   4.524   3.127
    1C        C  481   3.608   4.519   3.251
    1C        C  482   3.396   4.528   3.374
    1C        C  483   3.538   4.527   3.373
    1C        C  484   3.327   4.527   3.497
    1C        C  485   3.397   4.537   3.619
    1C        C  486   3.191   4.493   3.743
    1C        C  487   3.327   4.529   3.742
    1C        C  488   3.127   4.471   3.867
    1C        C  489   3.193   4.495   3.989
    1C        C  490   3.004   4.405   4.114
    1C        C  491   3.129   4.471   4.112
    1C        C  492   2.945   4.372   4.238
    1C        C  493   2.999   4.420   4.359
    1C        C  494   2.834   4.293   4.481
    1C        C  495   2.937   4.390   4.482
    1C        C  496   2.780   4.248   4.604
    1C        C  497   2.822   4.306   4.726
    1C        C  498   2.659   4.165   4.843
    1C        C  499   2.754   4.269   4.844
    1C        C  500   2.592   4.119   4.957
    1C        C  501   4.003   4.352   2.038
    1C        C  502   3.816   4.461   2.151
    1C        C  503   3.944   4.402   2.154
    1C        C  504   3.745   4.477   2.272
    1C        C  505   3.815   4.457   2.393
    1C        C  506   3.608   4.498   2.516
    1C        C  507   3.748   4.479   2.515
    1C        C  508   3.537   4.510   2.637
    1C        C  509   3.607   4.511   2.760
    1C        C  510   3.396   4.516   2.885
    1C        C  511   3.537   4.521   2.882
    1C        C  512   3.327   4.512   3.008
    1C        C  513   3.398   4.527   3.129
    1C        C  514   3.190   4.486   3.253
    1C        C  515   3.328   4.516   3.251
    1C        C  516   3.126   4.459   3.376
    1C        C  517   3.191   4.487   3.498
    1C        C  518   2.997   4.406   3.624
    1C        C  519   3.124   4.466   3.621
    1C        C  520   2.938   4.371   3.748
    1C        C  521   3.001   4.406   3.869
    1C        C  522   2.831   4.280   3.996
    1C        C  523   2.947   4.362   3.992
    1C        C  524   2.780   4.234   4.119
    1C        C  525   2.837   4.281   4.240
    1C        C  526   2.692   4.128   4.366
    1C        C  527   2.782   4.237   4.362
    1C        C  528   2.649   4.073   4.489
    1C        C  529   2.689   4.140   4.606
    1C        C  530   2.573   3.962   4.730
    1C        C  531   2.632   4.091   4.725
    1C        C  532   2.535   3.900   4.852
    1C        C  533   2.533   3.991   4.963
    1C        C  534   3.614   4.554   2.036
    1C        C  535   3.748   4.514   2.040
    1C        C  536   3.534   4.535   2.154
    1C        C  537   3.605   4.503   2.273
    1C        C  538   3.393   4.507   2.396
    1C        C  539   3.535   4.508   2.395
    1C        C  540   3.324   4.504   2.520
    1C        C  541   3.396   4.517   2.641
    1C        C  542   3.187   4.478   2.764
    1C        C  543   3.325   4.507   2.762
    1C        C  544   3.122   4.456   2.887
    1C        C  545   3.190   4.475   3.009
    1C        C  546   2.994   4.399   3.134
    1C        C  547   3.122   4.460   3.132
    1C        C  548   2.938   4.361   3.258
    1C        C  549   2.999   4.397   3.380
    1C        C  550   2.827   4.276   3.505
    1C        C  551   2.937   4.364   3.503
    1C        C  552   2.777   4.229   3.629
    1C        C  553   2.827   4.284   3.749
    1C        C  554   2.695   4.120   3.874
    1C        C  555   2.782   4.232   3.873
    1C        C  556   2.657   4.063   3.997
    1C        C  557   2.693   4.123   4.120
    1C        C  558   2.588   3.943   4.242
    1C        C  559   2.654   4.068   4.244
    1C        C  560   2.564   3.881   4.366
    1C        C  561   2.583   3.948   4.490
    1C        C  562   2.527   3.746   4.613
    1C        C  563   2.565   3.882   4.614
    1C        C  564   2.513   3.680   4.737
    1C        C  565   2.516   3.758   4.856
    1C        C  566   2.526   3.543   4.973
    1C        C  567   2.520   3.682   4.973
    1C        C  568   3.326   4.469   2.041
    1C        C  569   3.394   4.514   2.155
    1C        C  570   3.180   4.479   2.278
    1C        C  571   3.319   4.509   2.276
    1C        C  572   3.116   4.456   2.402
    1C        C  573   3.186   4.477   2.523
    1C        C  574   2.989   4.396   2.645
    1C        C  575   3.116   4.459   2.644
    1C        C  576   2.931   4.358   2.768
    1C        C  577   2.996   4.390   2.890
    1C        C  578   2.827   4.266   3.014
    1C        C  579   2.936   4.357   3.013
    1C        C  580   2.776   4.221   3.137
    1C        C  581   2.827   4.273   3.259
    1C        C  582   2.691   4.114   3.382
    1C        C  583   2.780   4.224   3.383
    1C        C  584   2.657   4.053   3.505
    1C        C  585   2.695   4.114   3.626
    1C        C  586   2.592   3.935   3.755
    1C        C  587   2.659   4.059   3.752
    1C        C  588   2.563   3.871   3.877
    1C        C  589   2.594   3.936   3.998
    1C        C  590   2.535   3.735   4.125
    1C        C  591   2.566   3.873   4.122
    1C        C  592   2.523   3.670   4.250
    1C        C  593   2.533   3.743   4.370
    1C        C  594   2.515   3.533   4.492
    1C        C  595   2.515   3.674   4.492
    1C        C  596   2.516   3.464   4.615
    1C        C  597   2.513   3.538   4.736
    1C        C  598   2.532   3.325   4.859
    1C        C  599   2.525   3.465   4.856
    1C        C  600   2.530   3.246   4.975
    1C        C  601   3.191   4.438   2.044
    1C        C  602   2.978   4.390   2.157
    1C        C  603   3.112   4.441   2.159
    1C        C  604   2.921   4.358   2.283
    1C        C  605   2.989   4.395   2.402
    1C        C  606   2.817   4.270   2.524
    1C        C  607   2.929   4.356   2.524
    1C        C  608   2.772   4.217   2.647
    1C        C  609   2.824   4.266   2.769
    1C        C  610   2.681   4.111   2.892
    1C        C  611   2.774   4.218   2.892
    1C        C  612   2.644   4.055   3.016
    1C        C  613   2.689   4.110   3.138
    1C        C  614   2.588   3.926   3.264
    1C        C  615   2.649   4.054   3.261
    1C        C  616   2.562   3.863   3.388
    1C        C  617   2.595   3.927   3.510
    1C        C  618   2.531   3.729   3.637
    1C        C  619   2.566   3.866   3.634
    1C        C  620   2.519   3.660   3.760
    1C        C  621   2.524   3.735   3.880
    1C        C  622   2.506   3.526   4.009
    1C        C  623   2.515   3.667   4.003
    1C        C  624   2.512   3.455   4.131
    1C        C  625   2.510   3.529   4.252
    1C        C  626   2.537   3.317   4.377
    1C        C  627   2.517   3.457   4.373
    1C        C  628   2.555   3.249   4.499
    1C        C  629   2.534   3.324   4.617
    1C        C  630   2.593   3.118   4.742
    1C        C  631   2.549   3.253   4.738
    1C        C  632   2.616   3.049   4.864
    1C        C  633   2.560   3.109   4.981
    1C        C  634   2.778   4.307   2.051
    1C        C  635   2.889   4.392   2.046
    1C        C  636   2.745   4.233   2.166
    1C        C  637   2.805   4.276   2.286
    1C        C  638   2.671   4.109   2.409
    1C        C  639   2.755   4.222   2.407
    1C        C  640   2.635   4.048   2.532
    1C        C  641   2.682   4.109   2.651
    1C        C  642   2.586   3.919   2.776
    1C        C  643   2.639   4.050   2.772
    1C        C  644   2.563   3.855   2.900
    1C        C  645   2.588   3.925   3.020
    1C        C  646   2.528   3.722   3.147
    1C        C  647   2.563   3.858   3.143
    1C        C  648   2.508   3.656   3.271
    1C        C  649   2.524   3.727   3.391
    1C        C  650   2.510   3.518   3.516
    1C        C  651   2.517   3.659   3.515
    1C        C  652   2.515   3.451   3.640
    1C        C  653   2.509   3.519   3.764
    1C        C  654   2.535   3.313   3.890
    1C        C  655   2.511   3.452   3.889
    1C        C  656   2.557   3.248   4.013
    1C        C  657   2.534   3.316   4.134
    1C        C  658   2.608   3.116   4.255
    1C        C  659   2.553   3.246   4.256
    1C        C  660   2.638   3.053   4.378
    1C        C  661   2.604   3.117   4.500
    1C        C  662   2.711   2.936   4.626
    1C        C  663   2.632   3.053   4.623
    1C        C  664   2.752   2.876   4.747
    1C        C  665   2.698   2.931   4.867
    1C        C  666   2.744   2.871   4.985
    1C        C  667   2.676   4.027   2.054
    1C        C  668   2.678   4.109   2.168
    1C        C  669   2.583   3.915   2.293
    1C        C  670   2.636   4.046   2.287
    1C        C  671   2.551   3.848   2.414
    1C        C  672   2.577   3.919   2.533
    1C        C  673   2.517   3.716   2.660
    1C        C  674   2.554   3.853   2.655
    1C        C  675   2.507   3.648   2.783
    1C        C  676   2.529   3.718   2.904
    1C        C  677   2.504   3.508   3.028
    1C        C  678   2.520   3.649   3.026
    1C        C  679   2.509   3.442   3.152
    1C        C  680   2.502   3.515   3.274
    1C        C  681   2.531   3.305   3.399
    1C        C  682   2.504   3.444   3.396
    1C        C  683   2.550   3.241   3.523
    1C        C  684   2.535   3.311   3.645
    1C        C  685   2.610   3.115   3.766
    1C        C  686   2.550   3.243   3.768
    1C        C  687   2.641   3.055   3.891
    1C        C  688   2.605   3.115   4.014
    1C        C  689   2.722   2.934   4.136
    1C        C  690   2.638   3.049   4.134
    1C        C  691   2.758   2.878   4.260
    1C        C  692   2.710   2.932   4.381
    1C        C  693   2.751   2.876   4.504
    1C        C  694   2.624   3.898   2.056
    1C        C  695   2.527   3.707   2.173
    1C        C  696   2.573   3.840   2.173
    1C        C  697   2.504   3.640   2.296
    1C        C  698   2.517   3.711   2.417
    1C        C  699   2.485   3.503   2.542
    1C        C  700   2.499   3.644   2.539
    1C        C  701   2.495   3.436   2.666
    1C        C  702   2.498   3.507   2.787
    1C        C  703   2.515   3.293   2.910
    1C        C  704   2.497   3.433   2.908
    1C        C  705   2.542   3.229   3.033
    1C        C  706   2.532   3.303   3.153
    1C        C  707   2.596   3.103   3.276
    1C        C  708   2.548   3.236   3.277
    1C        C  709   2.628   3.043   3.399
    1C        C  710   2.603   3.110   3.522
    1C        C  711   2.714   2.930   3.644
    1C        C  712   2.639   3.050   3.644
    1C        C  713   2.759   2.878   3.767
    1C        C  714   2.719   2.937   3.889
    1C        C  715   2.759   2.878   4.012
    1C        C  716   2.451   3.497   2.061
    1C        C  717   2.496   3.630   2.061
    1C        C  718   2.461   3.423   2.183
    1C        C  719   2.481   3.499   2.301
    1C        C  720   2.516   3.289   2.425
    1C        C  721   2.489   3.428   2.423
    1C        C  722   2.533   3.221   2.548
    1C        C  723   2.518   3.296   2.666
    1C        C  724   2.584   3.094   2.788
    1C        C  725   2.530   3.224   2.787
    1C        C  726   2.611   3.028   2.910
    1C        C  727   2.577   3.092   3.032
    1C        C  728   2.706   2.923   3.156
    1C        C  729   2.624   3.038   3.153
    1C        C  730   2.754   2.871   3.278
    1C        C  731   2.709   2.927   3.400
    1C        C  732   2.754   2.871   3.522
    1C        C  733   2.496   3.201   2.068
    1C        C  734   2.490   3.282   2.182
    1C        C  735   2.575   3.086   2.304
    1C        C  736   2.519   3.216   2.304
    1C        C  737   2.607   3.020   2.425
    1C        C  738   2.585   3.090   2.546
    1C        C  739   2.697   2.909   2.670
    1C        C  740   2.619   3.027   2.668
    1C        C  741   2.745   2.859   2.793
    1C        C  742   2.693   2.914   2.913
    1C        C  743   2.745   2.862   3.034
    1C        C  744   2.542   3.069   2.071
    1C        C  745   2.682   2.898   2.183
    1C        C  746   2.603   3.015   2.185
    1C        C  747   2.727   2.843   2.305
    1C        C  748   2.684   2.902   2.425
    1C        C  749   2.731   2.849   2.547
    1C        C  750   2.732   2.839   2.066
    1C        C  751   3.668   2.309   1.983
    1C        O  752   3.676   2.190   2.024
    1C        O  753   3.705   2.340   1.852
    1C        C  754   4.637   3.063   1.973
    1C        O  755   4.597   3.005   1.868
    1C        O  756   4.772   3.046   2.006
    1C        C  757   4.439   4.225   1.962
    1C        O  758   4.526   4.304   2.008
    1C        O  759   4.432   4.213   1.822
    1C        C  760   3.578   4.656   1.934
    1C        O  761   3.595   4.780   1.947
    1C        O  762   3.552   4.622   1.801
    1C        C  763   2.873   4.515   1.965
    1C        O  764   2.919   4.530   1.848
    1C        O  765   2.833   4.637   2.021
    1C        C  766   2.357   3.469   1.950
    1C        O  767   2.409   3.429   1.843
    1C        O  768   2.225   3.513   1.938
    1C        C  769   4.698   3.590   5.056
    1C        O  770   4.670   3.562   5.175
    1C        O  771   4.815   3.665   5.035
    1C        C  772   4.259   4.422   5.058
    1C        O  773   4.226   4.407   5.179
    1C        O  774   4.351   4.526   5.049
    1C        C  775   4.143   2.513   5.068
    1C        O  776   4.220   2.418   5.038
    1C        O  777   4.182   2.589   5.179
    1C        C  778   2.886   4.543   5.048
    1C        O  779   2.821   4.644   5.011
    1C        O  780   2.887   4.533   5.188
    1C        C  781   2.448   3.043   5.053
    1C        O  782   2.339   3.020   4.995
    1C        O  783   2.462   2.974   5.173
    1C        C  784   2.425   3.976   5.062
    1C        O  785   2.311   4.016   5.027
    1C        O  786   2.460   3.995   5.196
    1C        C  787   2.942   2.427   2.003
    1C        O  788   2.930   2.444   1.879
    1C        O  789   2.907   2.299   2.046
    1C        C  790   3.185   2.394   5.087
    1C        O  791   3.207   2.271   5.072
    1C        O  792   3.206   2.440   5.218
    1C        H  793   4.295   3.010   5.067
    1C        H  794   4.180   2.801   5.070
    1C        H  795   4.534   3.127   5.044
    1C        H  796   4.472   3.374   5.050
    1C        H  797   4.567   3.817   5.037
    1C        H  798   4.418   3.974   5.052
    1C        H  799   4.262   4.151   5.049
    1C        H  800   4.026   4.517   5.033
    1C        H  801   3.804   4.545   5.044
    1C        H  802   3.599   4.675   5.007
    1C        H  803   3.391   4.446   5.020
    1C        H  804   3.166   4.557   5.034
    1C        H  805   3.877   2.518   5.068
    1C        H  806   3.670   2.414   5.062
    1C        H  807   3.010   2.569   5.069
    1C        H  808   3.439   2.472   5.075
    1C        H  809   2.854   2.717   5.072
    1C        H  810   2.659   2.842   5.043
    1C        H  811   2.472   3.286   5.055
    1C        H  812   2.567   3.507   5.065
    1C        H  813   2.542   3.730   5.067
    1C        H  814   2.554   4.194   5.023
    1C        H  815   2.736   4.340   5.043
    1C        H  816   2.707   2.879   1.970
    1C        H  817   2.800   2.667   1.988
    1C        H  818   3.187   2.380   2.014
    1C        H  819   3.436   2.452   1.973
    1C        H  820   3.831   2.548   1.976
    1C        H  821   4.080   2.593   1.974
    1C        H  822   4.246   2.714   1.974
    1C        H  823   4.360   2.929   1.963
    1C        H  824   4.609   3.309   1.989
    1C        H  825   4.557   3.520   1.966
    1C        H  826   4.515   3.749   1.949
    1C        H  827   3.805   4.536   1.952
    1C        H  828   3.958   4.367   1.942
    1C        H  829   4.167   4.266   1.942
    1C        H  830   4.509   3.968   1.970
    1C        H  831   2.615   3.843   1.964
    1C        H  832   2.740   4.057   1.973
    1C        H  833   2.706   4.318   1.973
    1C        H  834   3.383   4.420   1.965
    1C        H  835   3.143   4.420   1.950
    1C        H  836   2.485   3.004   2.008
    1C        H  837   2.454   3.239   1.978
    1C        H  838   2.534   3.662   1.966
    2V3OU   H29  839   2.804   3.551   2.501
    2V3OU   C27  840   2.793   3.503   2.602
    2V3OU   H27  841   2.733   3.571   2.666
    2V3OU   H28  842   2.736   3.407   2.595
    2V3OU   O11  843   2.911   3.474   2.679
    2V3OU   C15  844   2.925   3.395   2.791
    2V3OU   C13  845   3.050   3.372   2.851
    2V3OU   C14  846   3.079   3.268   2.941
    2V3OU   C16  847   2.975   3.185   2.981
    2V3OU    H6  848   2.986   3.107   3.057
    2V3OU   C12  849   3.212   3.230   2.994
    2V3OU    O2  850   3.238   3.116   3.038
    2V3OU   C10  851   3.323   3.311   2.942
    2V3OU    C8  852   3.453   3.269   2.969
    2V3OU   O10  853   3.491   3.150   3.024
    2V3OU   H26  854   3.402   3.110   3.028
    2V3OU    C6  855   3.564   3.350   2.931
    2V3OU    C5  856   3.537   3.469   2.863
    2V3OU    C4  857   3.702   3.296   2.929
    2V3OU    H4  858   3.719   3.228   3.017
    2V3OU    H5  859   3.705   3.228   2.839
    2V3OU    C2  860   3.815   3.399   2.924
    2V3OU    O6  861   3.801   3.470   3.048
    2V3OU   H21  862   3.761   3.555   3.024
    2V3OU    C3  863   3.784   3.493   2.808
    2V3OU    H2  864   3.860   3.574   2.791
    2V3OU    H3  865   3.782   3.436   2.712
    2V3OU   C25  866   3.948   3.326   2.908
    2V3OU    O7  867   3.998   3.299   2.799
    2V3OU   C26  868   4.027   3.287   3.032
    2V3OU   H22  869   4.061   3.378   3.089
    2V3OU   H23  870   4.113   3.221   3.006
    2V3OU    O8  871   3.956   3.206   3.123
    2V3OU   H24  872   3.917   3.264   3.190
    2V3OU    C1  873   3.649   3.561   2.825
    2V3OU    H1  874   3.628   3.620   2.731
    2V3OU    O3  875   3.663   3.656   2.931
    2V3OU   C19  876   3.618   3.792   2.927
    2V3OU    H9  877   3.518   3.799   2.874
    2V3OU    O4  878   3.710   3.847   2.836
    2V3OU   C20  879   3.841   3.874   2.888
    2V3OU   H10  880   3.882   3.771   2.908
    2V3OU   C24  881   3.604   3.852   3.066
    2V3OU   H16  882   3.536   3.787   3.127
    2V3OU   H17  883   3.556   3.953   3.060
    2V3OU   C23  884   3.747   3.875   3.117
    2V3OU   H15  885   3.793   3.771   3.132
    2V3OU    N1  886   3.734   3.953   3.239
    2V3OU   H19  887   3.811   3.913   3.289
    2V3OU   H20  888   3.651   3.937   3.293
    2V3OU   C21  889   3.844   3.949   3.021
    2V3OU   H11  890   3.947   3.924   3.061
    2V3OU    O5  891   3.825   4.090   3.022
    2V3OU   H18  892   3.777   4.100   3.106
    2V3OU   C22  893   3.917   3.947   2.778
    2V3OU   H12  894   3.867   4.047   2.767
    2V3OU   H13  895   3.908   3.892   2.681
    2V3OU   H14  896   4.023   3.968   2.805
    2V3OU   C11  897   3.160   3.468   2.829
    2V3OU    O1  898   3.134   3.578   2.776
    2V3OU    C9  899   3.298   3.427   2.864
    2V3OU    C7  900   3.404   3.507   2.825
    2V3OU    O9  901   3.383   3.626   2.758
    2V3OU   H25  902   3.287   3.621   2.748
    2V3OU   C17  903   2.822   3.310   2.838
    2V3OU    H7  904   2.723   3.350   2.816
    2V3OU   C18  905   2.848   3.208   2.929
    2V3OU    H8  906   2.780   3.164   3.003
    3SOL     OW  907   2.259   5.417   6.830
    3SOL    HW1  908   2.247   5.516   6.827
    3SOL    HW2  909   2.250   5.380   6.738
    4SOL     OW  910   6.975   0.558   1.754
    4SOL    HW1  911   6.983   0.530   1.849
    4SOL    HW2  912   6.880   0.550   1.724
    5SOL     OW  913   4.138   1.985   2.250
    5SOL    HW1  914   4.129   1.888   2.272
    5SOL    HW2  915   4.223   1.999   2.198
    6SOL     OW  916   4.216   0.785   1.632
    6SOL    HW1  917   4.130   0.759   1.588
    6SOL    HW2  918   4.221   0.884   1.640
    7SOL     OW  919   0.558   4.081   3.383
    7SOL    HW1  920   0.477   4.118   3.337
    7SOL    HW2  921   0.559   4.111   3.478
    8SOL     OW  922   2.960   0.808   5.710
    8SOL    HW1  923   3.007   0.846   5.790
    8SOL    HW2  924   2.978   0.867   5.631
    9SOL     OW  925   4.754   1.220   5.686
    9SOL    HW1  926   4.775   1.130   5.725
    9SOL    HW2  927   4.663   1.249   5.716
   10SOL     OW  928   1.866   5.081   5.181
   10SOL    HW1  929   1.910   5.108   5.096
   10SOL    HW2  930   1.863   4.982   5.188
   11SOL     OW  931   2.942   0.467   5.456
   11SOL    HW1  932   3.018   0.518   5.497
   11SOL    HW2  933   2.869   0.456   5.523
   12SOL     OW  934   3.001   5.711   3.766
   12SOL    HW1  935   3.030   5.643   3.833
   12SOL    HW2  936   3.009   5.673   3.674
   13SOL     OW  937   3.674   6.377   4.271
   13SOL    HW1  938   3.598   6.432   4.304
   13SOL    HW2  939   3.694   6.401   4.176
   14SOL     OW  940   3.821   5.074   6.131
   14SOL    HW1  941   3.902   5.133   6.128
   14SOL    HW2  942   3.828   5.011   6.209
   15SOL     OW  943   0.921   6.657   1.366
   15SOL    HW1  944   1.011   6.619   1.384
   15SOL    HW2  945   0.854   6.615   1.427
   16SOL     OW  946   5.594   2.608   6.063
   16SOL    HW1  947   5.495   2.606   6.051
   16SOL    HW2  948   5.630   2.695   6.029
   17SOL     OW  949   5.915   6.010   5.969
   17SOL    HW1  950   5.999   5.988   5.919
   17SOL    HW2  951   5.886   6.103   5.945
   18SOL     OW  952   3.660   1.085   5.669
   18SOL    HW1  953   3.711   1.008   5.631
   18SOL    HW2  954   3.627   1.144   5.595
   19SOL     OW  955   0.294   1.178   2.766
   19SOL    HW1  956   0.310   1.259   2.709
   19SOL    HW2  957   0.382   1.137   2.791
   20SOL     OW  958   4.735   1.983   4.378
   20SOL    HW1  959   4.718   2.079   4.356
   20SOL    HW2  960   4.651   1.942   4.414
   21SOL     OW  961   3.309   0.526   2.218
   21SOL    HW1  962   3.209   0.529   2.228
   21SOL    HW2  963   3.346   0.618   2.230
   22SOL     OW  964   1.250   6.453   6.888
   22SOL    HW1  965   1.201   6.388   6.947
   22SOL    HW2  966   1.255   6.416   6.795
   23SOL     OW  967   5.744   5.274   2.370
   23SOL    HW1  968   5.728   5.358   2.318
   23SOL    HW2  969   5.747   5.196   2.307
   24SOL     OW  970   3.802   0.265   3.135
   24SOL    HW1  971   3.800   0.260   3.036
   24SOL    HW2  972   3.764   0.352   3.165
   25SOL     OW  973   3.879   0.530   4.211
   25SOL    HW1  974   3.926   0.575   4.135
   25SOL    HW2  975   3.885   0.588   4.292
   26SOL     OW  976   6.822   1.126   0.503
   26SOL    HW1  977   6.819   1.209   0.560
   26SOL    HW2  978   6.747   1.128   0.437
   27SOL     OW  979   1.806   0.839   2.462
   27SOL    HW1  980   1.882   0.887   2.506
   27SOL    HW2  981   1.834   0.747   2.437
   28SOL     OW  982   2.620   0.823   5.425
   28SOL    HW1  983   2.542   0.886   5.418
   28SOL    HW2  984   2.622   0.783   5.516
   29SOL     OW  985   6.155   1.548   1.925
   29SOL    HW1  986   6.060   1.527   1.949
   29SOL    HW2  987   6.214   1.529   2.004
   30SOL     OW  988   3.999   0.942   3.340
   30SOL    HW1  989   4.064   0.996   3.393
   30SOL    HW2  990   4.027   0.941   3.244
   31SOL     OW  991   0.310   2.337   6.347
   31SOL    HW1  992   0.360   2.264   6.300
   31SOL    HW2  993   0.212   2.315   6.348
   32SOL     OW  994   0.115   1.554   2.992
   32SOL    HW1  995   0.197   1.527   2.940
   32SOL    HW2  996   0.142   1.584   3.083
   33SOL     OW  997   0.782   4.435   5.367
   33SOL    HW1  998   0.774   4.396   5.275
   33SOL    HW2  999   0.717   4.392   5.428
   34SOL     OW 1000   2.452   6.672   5.057
   34SOL    HW1 1001   2.547   6.697   5.034
   34SOL    HW2 1002   2.451   6.622   5.143
   35SOL     OW 1003   4.979   2.789   6.079
   35SOL    HW1 1004   4.901   2.754   6.026
   35SOL    HW2 1005   4.949   2.808   6.172
   36SOL     OW 1006   4.930   1.259   4.843
   36SOL    HW1 1007   5.017   1.306   4.854
   36SOL    HW2 1008   4.908   1.250   4.746
   37SOL     OW 1009   0.992   1.890   5.913
   37SOL    HW1 1010   1.073   1.942   5.939
   37SOL    HW2 1011   0.957   1.841   5.993
   38SOL     OW 1012   0.888   5.078   2.707
   38SOL    HW1 1013   0.813   5.076   2.641
   38SOL    HW2 1014   0.913   5.172   2.726
   39SOL     OW 1015   6.382   4.637   6.360
   39SOL    HW1 1016   6.368   4.686   6.447
   39SOL    HW2 1017   6.453   4.683   6.307
   40SOL     OW 1018   4.828   1.696   0.570
   40SOL    HW1 1019   4.861   1.790   0.558
   40SOL    HW2 1020   4.840   1.668   0.665
   41SOL     OW 1021   0.002   4.767   3.407
   41SOL    HW1 1022   6.991   4.789   3.315
   41SOL    HW2 1023   6.943   4.757   3.468
   42SOL     OW 1024   3.492   4.934   4.439
   42SOL    HW1 1025   3.465   5.028   4.415
   42SOL    HW2 1026   3.586   4.935   4.473
   43SOL     OW 1027   5.123   6.991   5.727
   43SOL    HW1 1028   5.059   7.003   5.803
   43SOL    HW2 1029   5.169   0.058   5.707
   44SOL     OW 1030   4.874   2.270   5.586
   44SOL    HW1 1031   4.898   2.362   5.615
   44SOL    HW2 1032   4.855   2.270   5.488
   45SOL     OW 1033   5.063   5.609   1.316
   45SOL    HW1 1034   4.990   5.639   1.378
   45SOL    HW2 1035   5.152   5.634   1.355
   46SOL     OW 1036   0.705   2.907   3.544
   46SOL    HW1 1037   0.776   2.857   3.594
   46SOL    HW2 1038   0.621   2.853   3.543
   47SOL     OW 1039   4.506   4.279   1.028
   47SOL    HW1 1040   4.567   4.218   0.976
   47SOL    HW2 1041   4.412   4.267   0.996
   48SOL     OW 1042   6.439   2.589   5.911
   48SOL    HW1 1043   6.368   2.548   5.969
   48SOL    HW2 1044   6.424   2.561   5.816
   49SOL     OW 1045   5.778   3.358   2.162
   49SOL    HW1 1046   5.836   3.426   2.209
   49SOL    HW2 1047   5.785   3.271   2.210
   50SOL     OW 1048   5.527   1.377   4.672
   50SOL    HW1 1049   5.529   1.477   4.681
   50SOL    HW2 1050   5.517   1.353   4.576
   51SOL     OW 1051   2.442   6.316   3.057
   51SOL    HW1 1052   2.523   6.270   3.021
   51SOL    HW2 1053   2.376   6.248   3.090
   52SOL     OW 1054   5.923   3.297   2.410
   52SOL    HW1 1055   6.005   3.347   2.438
   52SOL    HW2 1056   5.892   3.239   2.486
   53SOL     OW 1057   4.174   0.554   3.693
   53SOL    HW1 1058   4.081   0.524   3.716
   53SOL    HW2 1059   4.238   0.518   3.760
   54SOL     OW 1060   4.981   5.405   0.931
   54SOL    HW1 1061   4.909   5.352   0.887
   54SOL    HW2 1062   4.942   5.460   1.005
   55SOL     OW 1063   1.854   2.863   5.812
   55SOL    HW1 1064   1.786   2.936   5.803
   55SOL    HW2 1065   1.822   2.796   5.880
   56SOL     OW 1066   0.404   0.911   1.192
   56SOL    HW1 1067   0.478   0.844   1.183
   56SOL    HW2 1068   0.400   0.944   1.286
   57SOL     OW 1069   4.252   1.125   1.327
   57SOL    HW1 1070   4.241   1.222   1.304
   57SOL    HW2 1071   4.274   1.074   1.244
   58SOL     OW 1072   1.100   6.993   5.397
   58SOL    HW1 1073   1.006   7.009   5.426
   58SOL    HW2 1074   1.118   6.894   5.397
   59SOL     OW 1075   0.414   2.776   6.156
   59SOL    HW1 1076   0.362   2.789   6.072
   59SOL    HW2 1077   0.476   2.853   6.170
   60SOL     OW 1078   5.238   2.640   4.356
   60SOL    HW1 1079   5.281   2.675   4.273
   60SOL    HW2 1080   5.142   2.666   4.357
   61SOL     OW 1081   6.412   2.075   4.340
   61SOL    HW1 1082   6.503   2.116   4.347
   61SOL    HW2 1083   6.392   2.054   4.244
   62SOL     OW 1084   1.479   0.710   1.951
   62SOL    HW1 1085   1.398   0.672   1.996
   62SOL    HW2 1086   1.537   0.755   2.020
   63SOL     OW 1087   5.133   1.081   4.093
   63SOL    HW1 1088   5.213   1.040   4.135
   63SOL    HW2 1089   5.140   1.180   4.096
   64SOL     OW 1090   0.142   3.032   6.116
   64SOL    HW1 1091   0.213   2.991   6.059
   64SOL    HW2 1092   0.077   2.962   6.145
   65SOL     OW 1093   0.436   4.336   6.459
   65SOL    HW1 1094   0.403   4.343   6.553
   65SOL    HW2 1095   0.494   4.255   6.450
   66SOL     OW 1096   4.046   0.934   4.491
   66SOL    HW1 1097   4.134   0.918   4.537
   66SOL    HW2 1098   4.063   0.962   4.396
   67SOL     OW 1099   6.928   2.807   5.961
   67SOL    HW1 1100   6.929   2.872   6.037
   67SOL    HW2 1101   6.953   2.854   5.877
   68SOL     OW 1102   6.785   1.293   6.921
   68SOL    HW1 1103   6.710   1.310   6.858
   68SOL    HW2 1104   6.842   1.375   6.927
   69SOL     OW 1105   0.722   3.116   6.435
   69SOL    HW1 1106   0.656   3.129   6.510
   69SOL    HW2 1107   0.775   3.200   6.423
   70SOL     OW 1108   5.443   4.730   4.758
   70SOL    HW1 1109   5.483   4.639   4.771
   70SOL    HW2 1110   5.371   4.744   4.826
   71SOL     OW 1111   4.193   1.924   3.145
   71SOL    HW1 1112   4.115   1.885   3.194
   71SOL    HW2 1113   4.237   1.992   3.203
   72SOL     OW 1114   1.683   1.004   3.744
   72SOL    HW1 1115   1.618   1.006   3.820
   72SOL    HW2 1116   1.693   1.096   3.707
   73SOL     OW 1117   3.763   0.465   1.239
   73SOL    HW1 1118   3.843   0.427   1.191
   73SOL    HW2 1119   3.742   0.408   1.318
   74SOL     OW 1120   3.629   0.669   0.179
   74SOL    HW1 1121   3.570   0.715   0.246
   74SOL    HW2 1122   3.696   0.734   0.143
   75SOL     OW 1123   4.528   0.726   1.230
   75SOL    HW1 1124   4.575   0.801   1.278
   75SOL    HW2 1125   4.435   0.754   1.206
   76SOL     OW 1126   2.685   2.797   0.992
   76SOL    HW1 1127   2.691   2.855   1.074
   76SOL    HW2 1128   2.591   2.799   0.957
   77SOL     OW 1129   0.720   0.471   3.999
   77SOL    HW1 1130   0.805   0.426   3.974
   77SOL    HW2 1131   0.650   0.402   4.017
   78SOL     OW 1132   5.159   1.554   0.177
   78SOL    HW1 1133   5.176   1.459   0.150
   78SOL    HW2 1134   5.211   1.576   0.260
   79SOL     OW 1135   2.953   5.976   1.212
   79SOL    HW1 1136   3.016   6.031   1.157
   79SOL    HW2 1137   3.003   5.904   1.259
   80SOL     OW 1138   4.382   1.088   3.730
   80SOL    HW1 1139   4.431   1.043   3.655
   80SOL    HW2 1140   4.373   1.185   3.711
   81SOL     OW 1141   2.527   0.389   2.474
   81SOL    HW1 1142   2.541   0.488   2.472
   81SOL    HW2 1143   2.558   0.353   2.562
   82SOL     OW 1144   5.962   4.841   0.403
   82SOL    HW1 1145   5.928   4.928   0.439
   82SOL    HW2 1146   5.895   4.803   0.338
   83SOL     OW 1147   6.966   0.244   0.394
   83SOL    HW1 1148   0.025   0.182   0.383
   83SOL    HW2 1149   6.998   0.339   0.392
   84SOL     OW 1150   5.943   3.085   2.589
   84SOL    HW1 1151   6.040   3.068   2.569
   84SOL    HW2 1152   5.896   2.998   2.601
   85SOL     OW 1153   1.575   1.395   4.022
   85SOL    HW1 1154   1.549   1.402   3.926
   85SOL    HW2 1155   1.674   1.378   4.029
   86SOL     OW 1156   0.951   1.548   6.232
   86SOL    HW1 1157   0.885   1.498   6.176
   86SOL    HW2 1158   0.977   1.492   6.311
   87SOL     OW 1159   4.845   4.393   1.124
   87SOL    HW1 1160   4.750   4.422   1.136
   87SOL    HW2 1161   4.862   4.373   1.028
   88SOL     OW 1162   3.071   1.927   6.411
   88SOL    HW1 1163   3.086   1.874   6.327
   88SOL    HW2 1164   3.059   2.023   6.389
   89SOL     OW 1165   2.506   2.368   6.927
   89SOL    HW1 1166   2.517   2.461   6.893
   89SOL    HW2 1167   2.431   2.366   6.994
   90SOL     OW 1168   4.216   5.551   1.823
   90SOL    HW1 1169   4.142   5.502   1.869
   90SOL    HW2 1170   4.237   5.635   1.874
   91SOL     OW 1171   6.293   3.879   6.217
   91SOL    HW1 1172   6.300   3.862   6.118
   91SOL    HW2 1173   6.316   3.974   6.236
   92SOL     OW 1174   4.589   4.528   1.091
   92SOL    HW1 1175   4.570   4.552   1.186
   92SOL    HW2 1176   4.558   4.434   1.075
   93SOL     OW 1177   3.255   3.568   0.713
   93SOL    HW1 1178   3.348   3.577   0.748
   93SOL    HW2 1179   3.206   3.655   0.726
   94SOL     OW 1180   2.997   5.326   6.448
   94SOL    HW1 1181   3.064   5.306   6.377
   94SOL    HW2 1182   2.905   5.316   6.412
   95SOL     OW 1183   1.630   0.408   2.652
   95SOL    HW1 1184   1.560   0.474   2.678
   95SOL    HW2 1185   1.586   0.328   2.611
   96SOL     OW 1186   3.923   6.919   5.460
   96SOL    HW1 1187   3.899   6.826   5.433
   96SOL    HW2 1188   4.016   6.920   5.497
   97SOL     OW 1189   2.190   2.883   5.609
   97SOL    HW1 1190   2.171   2.924   5.698
   97SOL    HW2 1191   2.211   2.956   5.543
   98SOL     OW 1192   1.345   2.663   0.840
   98SOL    HW1 1193   1.385   2.609   0.766
   98SOL    HW2 1194   1.292   2.738   0.801
   99SOL     OW 1195   4.447   2.986   1.481
   99SOL    HW1 1196   4.395   3.035   1.550
   99SOL    HW2 1197   4.411   3.007   1.390
  100SOL     OW 1198   1.126   6.727   3.691
  100SOL    HW1 1199   1.144   6.686   3.780
  100SOL    HW2 1200   1.082   6.660   3.631
  101SOL     OW 1201   1.755   4.190   1.970
  101SOL    HW1 1202   1.772   4.104   2.017
  101SOL    HW2 1203   1.831   4.209   1.907
  102SOL     OW 1204   2.872   5.447   1.728
  102SOL    HW1 1205   2.825   5.391   1.796
  102SOL    HW2 1206   2.967   5.416   1.720
  103SOL     OW 1207   2.632   1.758   2.001
  103SOL    HW1 1208   2.706   1.807   2.047
  103SOL    HW2 1209   2.668   1.673   1.963
  104SOL     OW 1210   1.278   5.426   2.542
  104SOL    HW1 1211   1.376   5.403   2.540
  104SOL    HW2 1212   1.258   5.492   2.470
  105SOL     OW 1213   5.979   0.878   6.364
  105SOL    HW1 1214   6.006   0.926   6.281
  105SOL    HW2 1215   6.011   0.929   6.444
  106SOL     OW 1216   3.598   6.075   4.020
  106SOL    HW1 1217   3.531   6.013   4.061
  106SOL    HW2 1218   3.557   6.165   4.008
  107SOL     OW 1219   1.364   1.273   0.113
  107SOL    HW1 1220   1.266   1.274   0.133
  107SOL    HW2 1221   1.408   1.349   0.161
  108SOL     OW 1222   3.791   0.076   5.986
  108SOL    HW1 1223   3.738   0.160   5.996
  108SOL    HW2 1224   3.734   7.017   6.010
  109SOL     OW 1225   1.915   1.093   2.761
  109SOL    HW1 1226   1.981   1.128   2.828
  109SOL    HW2 1227   1.963   1.057   2.681
  110SOL     OW 1228   3.299   5.384   3.991
  110SOL    HW1 1229   3.298   5.324   4.072
  110SOL    HW2 1230   3.258   5.336   3.914
  111SOL     OW 1231   2.117   1.327   4.012
  111SOL    HW1 1232   2.188   1.274   4.058
  111SOL    HW2 1233   2.063   1.375   4.080
  112SOL     OW 1234   3.120   5.827   0.023
  112SOL    HW1 1235   3.121   5.763   0.100
  112SOL    HW2 1236   3.059   5.904   0.044
  113SOL     OW 1237   1.293   6.162   2.530
  113SOL    HW1 1238   1.309   6.214   2.446
  113SOL    HW2 1239   1.224   6.209   2.585
  114SOL     OW 1240   0.730   6.544   1.512
  114SOL    HW1 1241   0.661   6.504   1.452
  114SOL    HW2 1242   0.734   6.493   1.598
  115SOL     OW 1243   4.665   1.405   2.967
  115SOL    HW1 1244   4.685   1.424   3.063
  115SOL    HW2 1245   4.677   1.488   2.914
  116SOL     OW 1246   6.807   6.052   0.840
  116SOL    HW1 1247   6.804   6.061   0.939
  116SOL    HW2 1248   6.735   5.989   0.810
  117SOL     OW 1249   0.568   1.752   1.163
  117SOL    HW1 1250   0.522   1.805   1.235
  117SOL    HW2 1251   0.640   1.696   1.204
  118SOL     OW 1252   1.653   0.766   2.163
  118SOL    HW1 1253   1.694   0.678   2.140
  118SOL    HW2 1254   1.717   0.820   2.217
  119SOL     OW 1255   0.184   0.378   6.931
  119SOL    HW1 1256   0.170   0.297   6.873
  119SOL    HW2 1257   0.262   0.431   6.897
  120SOL     OW 1258   5.207   1.689   5.742
  120SOL    HW1 1259   5.233   1.713   5.835
  120SOL    HW2 1260   5.136   1.619   5.744
  121SOL     OW 1261   2.102   2.995   0.591
  121SOL    HW1 1262   2.171   3.018   0.522
  121SOL    HW2 1263   2.121   2.903   0.627
  122SOL     OW 1264   1.699   3.468   0.299
  122SOL    HW1 1265   1.653   3.549   0.264
  122SOL    HW2 1266   1.721   3.481   0.395
  123SOL     OW 1267   1.185   1.549   3.003
  123SOL    HW1 1268   1.222   1.638   3.029
  123SOL    HW2 1269   1.148   1.504   3.085
  124SOL     OW 1270   3.556   2.373   0.719
  124SOL    HW1 1271   3.501   2.445   0.677
  124SOL    HW2 1272   3.581   2.400   0.812
  125SOL     OW 1273   4.081   2.454   0.556
  125SOL    HW1 1274   4.152   2.509   0.598
  125SOL    HW2 1275   4.053   2.381   0.620
  126SOL     OW 1276   3.681   3.929   1.712
  126SOL    HW1 1277   3.766   3.896   1.670
  126SOL    HW2 1278   3.702   4.001   1.778
  127SOL     OW 1279   1.005   5.012   6.384
  127SOL    HW1 1280   1.025   5.002   6.286
  127SOL    HW2 1281   0.907   4.998   6.399
  128SOL     OW 1282   4.657   3.220   1.160
  128SOL    HW1 1283   4.659   3.237   1.259
  128SOL    HW2 1284   4.563   3.227   1.127
  129SOL     OW 1285   3.139   3.690   6.542
  129SOL    HW1 1286   3.143   3.788   6.523
  129SOL    HW2 1287   3.222   3.663   6.591
  130SOL     OW 1288   1.357   1.350   4.272
  130SOL    HW1 1289   1.384   1.373   4.178
  130SOL    HW2 1290   1.320   1.431   4.317
  131SOL     OW 1291   4.820   0.423   3.044
  131SOL    HW1 1292   4.757   0.346   3.039
  131SOL    HW2 1293   4.767   0.509   3.040
  132SOL     OW 1294   3.004   2.679   1.774
  132SOL    HW1 1295   3.060   2.740   1.830
  132SOL    HW2 1296   2.986   2.595   1.825
  133SOL     OW 1297   5.615   0.622   4.474
  133SOL    HW1 1298   5.560   0.585   4.399
  133SOL    HW2 1299   5.555   0.651   4.549
  134SOL     OW 1300   0.092   1.068   2.506
  134SOL    HW1 1301   0.167   1.124   2.541
  134SOL    HW2 1302   0.126   1.008   2.434
  135SOL     OW 1303   5.089   3.830   4.031
  135SOL    HW1 1304   4.996   3.794   4.026
  135SOL    HW2 1305   5.150   3.774   3.975
  136SOL     OW 1306   1.668   5.449   5.352
  136SOL    HW1 1307   1.653   5.391   5.432
  136SOL    HW2 1308   1.597   5.520   5.349
  137SOL     OW 1309   4.492   1.785   2.961
  137SOL    HW1 1310   4.491   1.885   2.963
  137SOL    HW2 1311   4.423   1.753   2.897
  138SOL     OW 1312   1.317   3.618   2.961
  138SOL    HW1 1313   1.266   3.575   2.886
  138SOL    HW2 1314   1.327   3.553   3.036
  139SOL     OW 1315   1.933   6.685   5.643
  139SOL    HW1 1316   1.965   6.614   5.706
  139SOL    HW2 1317   1.833   6.694   5.650
  140SOL     OW 1318   2.093   6.758   4.044
  140SOL    HW1 1319   2.058   6.740   3.952
  140SOL    HW2 1320   2.154   6.683   4.071
  141SOL     OW 1321   0.270   2.745   4.684
  141SOL    HW1 1322   0.185   2.703   4.652
  141SOL    HW2 1323   0.251   2.801   4.765
  142SOL     OW 1324   2.028   3.817   2.156
  142SOL    HW1 1325   1.938   3.847   2.126
  142SOL    HW2 1326   2.040   3.720   2.134
  143SOL     OW 1327   5.612   4.714   0.539
  143SOL    HW1 1328   5.710   4.730   0.539
  143SOL    HW2 1329   5.574   4.739   0.450
  144SOL     OW 1330   1.478   4.796   5.945
  144SOL    HW1 1331   1.498   4.792   5.847
  144SOL    HW2 1332   1.390   4.753   5.963
  145SOL     OW 1333   1.856   4.571   1.780
  145SOL    HW1 1334   1.799   4.557   1.862
  145SOL    HW2 1335   1.862   4.485   1.730
  146SOL     OW 1336   5.361   0.215   6.175
  146SOL    HW1 1337   5.404   0.135   6.135
  146SOL    HW2 1338   5.430   0.274   6.217
  147SOL     OW 1339   5.430   2.252   6.308
  147SOL    HW1 1340   5.477   2.230   6.223
  147SOL    HW2 1341   5.409   2.350   6.309
  148SOL     OW 1342   0.014   5.042   0.798
  148SOL    HW1 1343   0.089   4.984   0.767
  148SOL    HW2 1344   7.014   5.111   0.728
  149SOL     OW 1345   3.663   2.120   4.662
  149SOL    HW1 1346   3.607   2.154   4.737
  149SOL    HW2 1347   3.606   2.101   4.582
  150SOL     OW 1348   5.685   6.546   6.835
  150SOL    HW1 1349   5.722   6.465   6.880
  150SOL    HW2 1350   5.688   6.533   6.736
  151SOL     OW 1351   2.983   0.734   1.296
  151SOL    HW1 1352   2.999   0.656   1.235
  151SOL    HW2 1353   2.885   0.749   1.307
  152SOL     OW 1354   0.042   1.029   0.898
  152SOL    HW1 1355   0.100   1.052   0.820
  152SOL    HW2 1356   0.088   1.055   0.983
  153SOL     OW 1357   2.947   0.089   3.712
  153SOL    HW1 1358   3.039   0.058   3.688
  153SOL    HW2 1359   2.881   0.018   3.686
  154SOL     OW 1360   1.076   3.208   0.889
  154SOL    HW1 1361   1.058   3.285   0.950
  154SOL    HW2 1362   1.085   3.242   0.795
  155SOL     OW 1363   0.961   1.335   4.737
  155SOL    HW1 1364   0.866   1.336   4.769
  155SOL    HW2 1365   0.987   1.241   4.716
  156SOL     OW 1366   6.863   0.501   0.629
  156SOL    HW1 1367   6.893   0.527   0.538
  156SOL    HW2 1368   6.836   0.583   0.680
  157SOL     OW 1369   5.964   3.746   0.846
  157SOL    HW1 1370   5.904   3.760   0.767
  157SOL    HW2 1371   5.972   3.831   0.898
  158SOL     OW 1372   1.103   3.159   2.014
  158SOL    HW1 1373   1.112   3.064   2.042
  158SOL    HW2 1374   1.074   3.214   2.093
  159SOL     OW 1375   4.659   5.249   1.807
  159SOL    HW1 1376   4.626   5.337   1.773
  159SOL    HW2 1377   4.759   5.247   1.806
  160SOL     OW 1378   5.668   6.667   0.844
  160SOL    HW1 1379   5.587   6.616   0.812
  160SOL    HW2 1380   5.707   6.622   0.924
  161SOL     OW 1381   1.433   6.905   3.514
  161SOL    HW1 1382   1.427   7.001   3.488
  161SOL    HW2 1383   1.431   6.848   3.432
  162SOL     OW 1384   3.805   6.125   0.121
  162SOL    HW1 1385   3.789   6.090   0.213
  162SOL    HW2 1386   3.754   6.071   0.055
  163SOL     OW 1387   6.753   6.075   2.386
  163SOL    HW1 1388   6.784   6.100   2.478
  163SOL    HW2 1389   6.658   6.102   2.374
  164SOL     OW 1390   0.673   4.183   3.150
  164SOL    HW1 1391   0.653   4.144   3.240
  164SOL    HW2 1392   0.772   4.186   3.137
  165SOL     OW 1393   4.548   4.078   0.837
  165SOL    HW1 1394   4.469   4.065   0.776
  165SOL    HW2 1395   4.631   4.089   0.783
  166SOL     OW 1396   0.882   2.866   2.126
  166SOL    HW1 1397   0.962   2.873   2.066
  166SOL    HW2 1398   0.801   2.841   2.071
  167SOL     OW 1399   5.646   2.407   0.327
  167SOL    HW1 1400   5.566   2.347   0.322
  167SOL    HW2 1401   5.722   2.359   0.372
  168SOL     OW 1402   3.794   1.825   0.428
  168SOL    HW1 1403   3.822   1.908   0.475
  168SOL    HW2 1404   3.716   1.845   0.367
  169SOL     OW 1405   6.375   2.092   1.410
  169SOL    HW1 1406   6.387   2.017   1.345
  169SOL    HW2 1407   6.278   2.102   1.431
  170SOL     OW 1408   6.968   6.988   2.506
  170SOL    HW1 1409   0.025   0.008   2.457
  170SOL    HW2 1410   6.888   6.985   2.446
  171SOL     OW 1411   2.866   4.189   6.944
  171SOL    HW1 1412   2.925   4.154   6.871
  171SOL    HW2 1413   2.903   4.274   6.979
  172SOL     OW 1414   6.119   1.569   3.279
  172SOL    HW1 1415   6.205   1.521   3.296
  172SOL    HW2 1416   6.051   1.503   3.244
  173SOL     OW 1417   6.114   1.212   3.795
  173SOL    HW1 1418   6.167   1.289   3.831
  173SOL    HW2 1419   6.135   1.200   3.698
  174SOL     OW 1420   4.220   5.370   3.989
  174SOL    HW1 1421   4.171   5.432   4.049
  174SOL    HW2 1422   4.263   5.422   3.915
  175SOL     OW 1423   3.033   0.335   1.449
  175SOL    HW1 1424   3.053   0.242   1.418
  175SOL    HW2 1425   3.075   0.350   1.538
  176SOL     OW 1426   6.651   4.781   2.042
  176SOL    HW1 1427   6.622   4.845   1.971
  176SOL    HW2 1428   6.591   4.789   2.122
  177SOL     OW 1429   5.222   3.725   4.429
  177SOL    HW1 1430   5.190   3.797   4.367
  177SOL    HW2 1431   5.174   3.734   4.517
  178SOL     OW 1432   3.117   4.140   5.546
  178SOL    HW1 1433   3.115   4.133   5.446
  178SOL    HW2 1434   3.028   4.170   5.580
  179SOL     OW 1435   4.271   1.302   6.166
  179SOL    HW1 1436   4.202   1.235   6.136
  179SOL    HW2 1437   4.350   1.298   6.105
  180SOL     OW 1438   1.646   6.863   0.996
  180SOL    HW1 1439   1.679   6.803   0.923
  180SOL    HW2 1440   1.670   6.824   1.085
  181SOL     OW 1441   3.471   3.374   6.137
  181SOL    HW1 1442   3.429   3.452   6.091
  181SOL    HW2 1443   3.451   3.378   6.235
  182SOL     OW 1444   4.339   1.926   6.117
  182SOL    HW1 1445   4.426   1.975   6.107
  182SOL    HW2 1446   4.357   1.829   6.129
  183SOL     OW 1447   3.287   1.735   3.536
  183SOL    HW1 1448   3.386   1.743   3.525
  183SOL    HW2 1449   3.266   1.690   3.622
  184SOL     OW 1450   0.855   6.034   3.779
  184SOL    HW1 1451   0.756   6.043   3.775
  184SOL    HW2 1452   0.881   5.942   3.751
  185SOL     OW 1453   1.469   1.263   4.768
  185SOL    HW1 1454   1.425   1.338   4.718
  185SOL    HW2 1455   1.560   1.247   4.730
  186SOL     OW 1456   6.098   1.359   4.348
  186SOL    HW1 1457   6.151   1.275   4.354
  186SOL    HW2 1458   6.096   1.390   4.253
  187SOL     OW 1459   4.913   6.415   2.862
  187SOL    HW1 1460   4.867   6.347   2.805
  187SOL    HW2 1461   4.848   6.485   2.890
  188SOL     OW 1462   1.228   3.199   3.336
  188SOL    HW1 1463   1.193   3.145   3.260
  188SOL    HW2 1464   1.161   3.200   3.411
  189SOL     OW 1465   1.977   5.764   0.421
  189SOL    HW1 1466   2.066   5.753   0.378
  189SOL    HW2 1467   1.952   5.680   0.469
  190SOL     OW 1468   6.141   4.090   5.769
  190SOL    HW1 1469   6.090   4.102   5.684
  190SOL    HW2 1470   6.084   4.117   5.846
  191SOL     OW 1471   6.116   0.431   0.052
  191SOL    HW1 1472   6.161   0.424   0.141
  191SOL    HW2 1473   6.175   0.482   7.009
  192SOL     OW 1474   0.745   5.294   1.643
  192SOL    HW1 1475   0.798   5.228   1.590
  192SOL    HW2 1476   0.731   5.260   1.736
  193SOL     OW 1477   4.443   3.604   5.336
  193SOL    HW1 1478   4.405   3.695   5.349
  193SOL    HW2 1479   4.521   3.609   5.274
  194SOL     OW 1480   4.313   6.639   3.589
  194SOL    HW1 1481   4.220   6.656   3.557
  194SOL    HW2 1482   4.335   6.702   3.663
  195SOL     OW 1483   1.471   0.646   4.133
  195SOL    HW1 1484   1.381   0.641   4.176
  195SOL    HW2 1485   1.541   0.661   4.204
  196SOL     OW 1486   2.496   0.168   0.057
  196SOL    HW1 1487   2.554   0.232   0.107
  196SOL    HW2 1488   2.542   0.079   0.051
  197SOL     OW 1489   2.522   0.138   1.390
  197SOL    HW1 1490   2.522   0.049   1.436
  197SOL    HW2 1491   2.429   0.160   1.360
  198SOL     OW 1492   4.739   6.936   1.986
  198SOL    HW1 1493   4.762   6.878   1.908
  198SOL    HW2 1494   4.760   0.011   1.965
  199SOL     OW 1495   6.231   1.591   3.669
  199SOL    HW1 1496   6.298   1.540   3.615
  199SOL    HW2 1497   6.279   1.657   3.727
  200SOL     OW 1498   1.242   4.036   1.852
  200SOL    HW1 1499   1.209   4.121   1.893
  200SOL    HW2 1500   1.342   4.040   1.846
  201SOL     OW 1501   6.224   0.226   6.238
  201SOL    HW1 1502   6.227   0.326   6.230
  201SOL    HW2 1503   6.133   0.197   6.266
  202SOL     OW 1504   5.213   0.437   5.702
  202SOL    HW1 1505   5.129   0.472   5.660
  202SOL    HW2 1506   5.258   0.510   5.753
  203SOL     OW 1507   4.539   2.511   4.228
  203SOL    HW1 1508   4.587   2.554   4.304
  203SOL    HW2 1509   4.477   2.441   4.264
  204SOL     OW 1510   6.967   0.657   6.252
  204SOL    HW1 1511   0.021   0.723   6.269
  204SOL    HW2 1512   6.909   0.650   6.334
  205SOL     OW 1513   0.731   0.796   3.452
  205SOL    HW1 1514   0.718   0.883   3.500
  205SOL    HW2 1515   0.815   0.752   3.484
  206SOL     OW 1516   0.505   5.150   2.125
  206SOL    HW1 1517   0.466   5.237   2.093
  206SOL    HW2 1518   0.465   5.126   2.214
  207SOL     OW 1519   4.836   0.696   4.167
  207SOL    HW1 1520   4.739   0.711   4.188
  207SOL    HW2 1521   4.868   0.768   4.105
  208SOL     OW 1522   5.598   3.484   5.509
  208SOL    HW1 1523   5.505   3.510   5.480
  208SOL    HW2 1524   5.592   3.418   5.584
  209SOL     OW 1525   0.675   4.904   4.482
  209SOL    HW1 1526   0.587   4.863   4.458
  209SOL    HW2 1527   0.666   4.950   4.570
  210SOL     OW 1528   4.267   2.317   1.205
  210SOL    HW1 1529   4.203   2.340   1.131
  210SOL    HW2 1530   4.249   2.223   1.236
  211SOL     OW 1531   2.127   6.076   3.643
  211SOL    HW1 1532   2.094   6.170   3.659
  211SOL    HW2 1533   2.203   6.057   3.704
  212SOL     OW 1534   1.786   4.460   1.205
  212SOL    HW1 1535   1.723   4.463   1.282
  212SOL    HW2 1536   1.778   4.543   1.151
  213SOL     OW 1537   3.357   0.802   5.764
  213SOL    HW1 1538   3.392   0.726   5.709
  213SOL    HW2 1539   3.286   0.851   5.713
  214SOL     OW 1540   4.504   5.476   1.710
  214SOL    HW1 1541   4.485   5.574   1.707
  214SOL    HW2 1542   4.429   5.426   1.668
  215SOL     OW 1543   2.197   3.914   1.039
  215SOL    HW1 1544   2.275   3.857   1.067
  215SOL    HW2 1545   2.158   3.877   0.954
  216SOL     OW 1546   2.020   5.674   4.393
  216SOL    HW1 1547   2.102   5.728   4.375
  216SOL    HW2 1548   2.046   5.583   4.424
  217SOL     OW 1549   2.285   2.810   3.639
  217SOL    HW1 1550   2.328   2.885   3.588
  217SOL    HW2 1551   2.351   2.736   3.652
  218SOL     OW 1552   1.267   2.673   4.567
  218SOL    HW1 1553   1.173   2.660   4.599
  218SOL    HW2 1554   1.306   2.755   4.610
  219SOL     OW 1555   4.296   6.297   6.133
  219SOL    HW1 1556   4.225   6.338   6.190
  219SOL    HW2 1557   4.381   6.348   6.143
  220SOL     OW 1558   3.626   6.597   0.750
  220SOL    HW1 1559   3.700   6.628   0.690
  220SOL    HW2 1560   3.538   6.629   0.715
  221SOL     OW 1561   6.535   3.521   2.625
  221SOL    HW1 1562   6.518   3.434   2.671
  221SOL    HW2 1563   6.568   3.504   2.532
  222SOL     OW 1564   2.848   4.926   5.769
  222SOL    HW1 1565   2.751   4.913   5.789
  222SOL    HW2 1566   2.865   4.911   5.671
  223SOL     OW 1567   5.937   3.525   1.006
  223SOL    HW1 1568   5.887   3.577   1.075
  223SOL    HW2 1569   5.968   3.586   0.934
  224SOL     OW 1570   2.765   2.161   4.264
  224SOL    HW1 1571   2.728   2.124   4.179
  224SOL    HW2 1572   2.770   2.089   4.333
  225SOL     OW 1573   5.867   2.163   6.244
  225SOL    HW1 1574   5.792   2.164   6.309
  225SOL    HW2 1575   5.853   2.235   6.175
  226SOL     OW 1576   1.805   0.379   6.281
  226SOL    HW1 1577   1.747   0.313   6.329
  226SOL    HW2 1578   1.829   0.453   6.343
  227SOL     OW 1579   1.858   3.519   2.939
  227SOL    HW1 1580   1.949   3.514   2.898
  227SOL    HW2 1581   1.837   3.613   2.965
  228SOL     OW 1582   3.504   6.332   3.293
  228SOL    HW1 1583   3.507   6.289   3.383
  228SOL    HW2 1584   3.473   6.265   3.225
  229SOL     OW 1585   4.755   6.142   0.041
  229SOL    HW1 1586   4.793   6.077   0.108
  229SOL    HW2 1587   4.782   6.235   0.066
  230SOL     OW 1588   3.101   4.876   2.753
  230SOL    HW1 1589   3.068   4.968   2.730
  230SOL    HW2 1590   3.025   4.811   2.748
  231SOL     OW 1591   6.333   1.591   6.371
  231SOL    HW1 1592   6.280   1.537   6.436
  231SOL    HW2 1593   6.318   1.557   6.278
  232SOL     OW 1594   1.285   4.033   5.899
  232SOL    HW1 1595   1.261   4.108   5.961
  232SOL    HW2 1596   1.367   4.058   5.847
  233SOL     OW 1597   2.077   2.289   4.316
  233SOL    HW1 1598   2.111   2.380   4.292
  233SOL    HW2 1599   2.005   2.262   4.252
  234SOL     OW 1600   4.296   6.396   5.101
  234SOL    HW1 1601   4.367   6.360   5.161
  234SOL    HW2 1602   4.206   6.377   5.142
  235SOL     OW 1603   3.441   3.143   1.836
  235SOL    HW1 1604   3.516   3.114   1.776
  235SOL    HW2 1605   3.475   3.207   1.904
  236SOL     OW 1606   5.460   2.930   6.695
  236SOL    HW1 1607   5.542   2.874   6.680
  236SOL    HW2 1608   5.471   2.983   6.779
  237SOL     OW 1609   6.295   5.537   2.053
  237SOL    HW1 1610   6.304   5.627   2.096
  237SOL    HW2 1611   6.340   5.538   1.964
  238SOL     OW 1612   5.808   2.143   0.310
  238SOL    HW1 1613   5.872   2.207   0.267
  238SOL    HW2 1614   5.857   2.081   0.371
  239SOL     OW 1615   0.445   5.483   6.213
  239SOL    HW1 1616   0.348   5.505   6.225
  239SOL    HW2 1617   0.456   5.419   6.137
  240SOL     OW 1618   1.018   2.397   5.291
  240SOL    HW1 1619   1.071   2.471   5.250
  240SOL    HW2 1620   0.929   2.433   5.322
  241SOL     OW 1621   1.919   6.869   4.820
  241SOL    HW1 1622   1.943   6.780   4.781
  241SOL    HW2 1623   1.926   6.939   4.750
  242SOL     OW 1624   2.630   3.534   6.030
  242SOL    HW1 1625   2.606   3.630   6.045
  242SOL    HW2 1626   2.550   3.477   6.049
  243SOL     OW 1627   5.256   1.050   6.036
  243SOL    HW1 1628   5.277   1.115   6.108
  243SOL    HW2 1629   5.327   0.979   6.033
  244SOL     OW 1630   4.972   2.716   4.759
  244SOL    HW1 1631   5.049   2.696   4.697
  244SOL    HW2 1632   5.008   2.747   4.847
  245SOL     OW 1633   6.760   3.607   5.455
  245SOL    HW1 1634   6.735   3.535   5.390
  245SOL    HW2 1635   6.824   3.570   5.522
  246SOL     OW 1636   4.997   2.815   3.164
  246SOL    HW1 1637   4.996   2.786   3.260
  246SOL    HW2 1638   4.969   2.911   3.157
  247SOL     OW 1639   3.092   0.852   1.864
  247SOL    HW1 1640   3.028   0.913   1.816
  247SOL    HW2 1641   3.056   0.832   1.955
  248SOL     OW 1642   3.771   2.105   3.277
  248SOL    HW1 1643   3.784   2.024   3.220
  248SOL    HW2 1644   3.686   2.096   3.328
  249SOL     OW 1645   4.619   0.032   6.023
  249SOL    HW1 1646   4.701   7.013   5.981
  249SOL    HW2 1647   4.546   6.982   6.023
  250SOL     OW 1648   5.780   2.663   1.245
  250SOL    HW1 1649   5.816   2.743   1.294
  250SOL    HW2 1650   5.850   2.592   1.241
  251SOL     OW 1651   4.611   4.313   6.211
  251SOL    HW1 1652   4.543   4.307   6.138
  251SOL    HW2 1653   4.571   4.359   6.290
  252SOL     OW 1654   6.173   0.421   6.554
  252SOL    HW1 1655   6.095   0.483   6.549
  252SOL    HW2 1656   6.144   0.335   6.597
  253SOL     OW 1657   1.818   4.327   6.978
  253SOL    HW1 1658   1.883   4.400   6.997
  253SOL    HW2 1659   1.824   4.300   6.882
  254SOL     OW 1660   5.619   3.525   2.732
  254SOL    HW1 1661   5.703   3.571   2.762
  254SOL    HW2 1662   5.639   3.467   2.654
  255SOL     OW 1663   1.844   3.017   4.205
  255SOL    HW1 1664   1.872   3.099   4.255
  255SOL    HW2 1665   1.758   2.983   4.244
  256SOL     OW 1666   6.089   4.846   6.733
  256SOL    HW1 1667   6.047   4.850   6.642
  256SOL    HW2 1668   6.141   4.761   6.742
  257SOL     OW 1669   4.589   0.039   4.084
  257SOL    HW1 1670   4.525   7.005   4.139
  257SOL    HW2 1671   4.538   0.106   4.030
  258SOL     OW 1672   0.066   4.880   4.825
  258SOL    HW1 1673   0.016   4.806   4.870
  258SOL    HW2 1674   0.003   4.954   4.803
  259SOL     OW 1675   1.358   2.210   2.412
  259SOL    HW1 1676   1.321   2.269   2.340
  259SOL    HW2 1677   1.454   2.190   2.393
  260SOL     OW 1678   4.218   0.963   0.839
  260SOL    HW1 1679   4.202   0.865   0.836
  260SOL    HW2 1680   4.137   1.012   0.805
  261SOL     OW 1681   0.011   3.949   1.211
  261SOL    HW1 1682   7.017   4.047   1.194
  261SOL    HW2 1683   6.963   3.896   1.159
  262SOL     OW 1684   0.276   4.077   1.167
  262SOL    HW1 1685   0.281   3.990   1.217
  262SOL    HW2 1686   0.235   4.061   1.077
  263SOL     OW 1687   0.641   1.502   3.957
  263SOL    HW1 1688   0.667   1.574   4.021
  263SOL    HW2 1689   0.660   1.412   3.997
  264SOL     OW 1690   4.994   3.529   5.952
  264SOL    HW1 1691   5.014   3.473   5.872
  264SOL    HW2 1692   4.932   3.478   6.013
  265SOL     OW 1693   4.670   4.557   3.132
  265SOL    HW1 1694   4.640   4.601   3.217
  265SOL    HW2 1695   4.593   4.555   3.067
  266SOL     OW 1696   4.033   3.795   5.566
  266SOL    HW1 1697   3.995   3.703   5.567
  266SOL    HW2 1698   4.090   3.808   5.647
  267SOL     OW 1699   5.936   2.180   5.868
  267SOL    HW1 1700   5.917   2.116   5.942
  267SOL    HW2 1701   6.021   2.229   5.887
  268SOL     OW 1702   4.444   0.190   5.091
  268SOL    HW1 1703   4.365   0.202   5.030
  268SOL    HW2 1704   4.505   0.120   5.054
  269SOL     OW 1705   1.775   3.304   1.122
  269SOL    HW1 1706   1.795   3.285   1.026
  269SOL    HW2 1707   1.690   3.258   1.149
  270SOL     OW 1708   6.573   0.290   1.282
  270SOL    HW1 1709   6.516   0.343   1.344
  270SOL    HW2 1710   6.591   0.345   1.200
  271SOL     OW 1711   2.970   1.719   0.365
  271SOL    HW1 1712   3.030   1.716   0.285
  271SOL    HW2 1713   2.957   1.626   0.400
  272SOL     OW 1714   3.401   5.256   4.207
  272SOL    HW1 1715   3.478   5.310   4.172
  272SOL    HW2 1716   3.410   5.247   4.306
  273SOL     OW 1717   2.314   4.927   5.287
  273SOL    HW1 1718   2.399   4.950   5.239
  273SOL    HW2 1719   2.290   4.832   5.269
  274SOL     OW 1720   4.723   2.642   3.750
  274SOL    HW1 1721   4.663   2.612   3.824
  274SOL    HW2 1722   4.809   2.591   3.754
  275SOL     OW 1723   6.257   5.786   5.644
  275SOL    HW1 1724   6.218   5.707   5.691
  275SOL    HW2 1725   6.230   5.785   5.548
  276SOL     OW 1726   0.593   5.533   3.395
  276SOL    HW1 1727   0.591   5.433   3.389
  276SOL    HW2 1728   0.532   5.563   3.469
  277SOL     OW 1729   2.400   2.825   0.902
  277SOL    HW1 1730   2.466   2.875   0.845
  277SOL    HW2 1731   2.346   2.890   0.954
  278SOL     OW 1732   0.222   5.329   1.895
  278SOL    HW1 1733   0.143   5.390   1.898
  278SOL    HW2 1734   0.298   5.374   1.848
  279SOL     OW 1735   0.382   3.229   4.173
  279SOL    HW1 1736   0.393   3.142   4.221
  279SOL    HW2 1737   0.469   3.258   4.135
  280SOL     OW 1738   2.048   6.772   2.934
  280SOL    HW1 1739   2.005   6.683   2.919
  280SOL    HW2 1740   2.103   6.769   3.017
  281SOL     OW 1741   3.286   5.013   2.050
  281SOL    HW1 1742   3.359   5.049   1.992
  281SOL    HW2 1743   3.238   4.939   2.003
  282SOL     OW 1744   4.146   2.235   5.636
  282SOL    HW1 1745   4.112   2.143   5.620
  282SOL    HW2 1746   4.103   2.298   5.571
  283SOL     OW 1747   6.613   1.392   6.171
  283SOL    HW1 1748   6.693   1.351   6.126
  283SOL    HW2 1749   6.571   1.325   6.232
  284SOL     OW 1750   0.327   4.328   4.770
  284SOL    HW1 1751   0.288   4.278   4.693
  284SOL    HW2 1752   0.257   4.344   4.839
  285SOL     OW 1753   5.294   5.263   6.460
  285SOL    HW1 1754   5.386   5.298   6.444
  285SOL    HW2 1755   5.286   5.231   6.554
  286SOL     OW 1756   3.254   4.916   5.373
  286SOL    HW1 1757   3.179   4.857   5.346
  286SOL    HW2 1758   3.296   4.880   5.457
  287SOL     OW 1759   0.329   4.696   6.638
  287SOL    HW1 1760   0.406   4.668   6.694
  287SOL    HW2 1761   0.270   4.617   6.620
  288SOL     OW 1762   4.106   2.447   0.026
  288SOL    HW1 1763   4.173   2.512   7.010
  288SOL    HW2 1764   4.100   2.456   0.125
  289SOL     OW 1765   0.360   5.263   5.310
  289SOL    HW1 1766   0.392   5.169   5.324
  289SOL    HW2 1767   0.346   5.280   5.213
  290SOL     OW 1768   4.630   1.333   3.786
  290SOL    HW1 1769   4.643   1.260   3.852
  290SOL    HW2 1770   4.535   1.364   3.788
  291SOL     OW 1771   2.974   0.814   5.039
  291SOL    HW1 1772   2.939   0.825   5.132
  291SOL    HW2 1773   3.019   0.899   5.011
  292SOL     OW 1774   3.298   1.899   2.641
  292SOL    HW1 1775   3.301   1.999   2.647
  292SOL    HW2 1776   3.354   1.869   2.564
  293SOL     OW 1777   4.788   5.142   2.184
  293SOL    HW1 1778   4.696   5.141   2.146
  293SOL    HW2 1779   4.838   5.221   2.149
  294SOL     OW 1780   0.171   5.512   6.173
  294SOL    HW1 1781   0.125   5.431   6.137
  294SOL    HW2 1782   0.140   5.528   6.267
  295SOL     OW 1783   3.332   1.403   4.965
  295SOL    HW1 1784   3.310   1.489   4.919
  295SOL    HW2 1785   3.322   1.327   4.901
  296SOL     OW 1786   5.871   1.690   2.456
  296SOL    HW1 1787   5.843   1.594   2.450
  296SOL    HW2 1788   5.890   1.725   2.364
  297SOL     OW 1789   2.730   4.811   2.463
  297SOL    HW1 1790   2.797   4.803   2.388
  297SOL    HW2 1791   2.778   4.829   2.549
  298SOL     OW 1792   3.582   6.311   0.751
  298SOL    HW1 1793   3.613   6.404   0.731
  298SOL    HW2 1794   3.564   6.302   0.849
  299SOL     OW 1795   4.521   2.884   6.958
  299SOL    HW1 1796   4.591   2.813   6.959
  299SOL    HW2 1797   4.471   2.881   6.872
  300SOL     OW 1798   4.871   1.028   1.473
  300SOL    HW1 1799   4.910   0.966   1.406
  300SOL    HW2 1800   4.798   0.982   1.524
  301SOL     OW 1801   5.603   3.003   0.635
  301SOL    HW1 1802   5.586   3.090   0.589
  301SOL    HW2 1803   5.695   2.971   0.614
  302SOL     OW 1804   0.056   0.915   3.864
  302SOL    HW1 1805   0.046   1.011   3.887
  302SOL    HW2 1806   0.123   0.873   3.925
  303SOL     OW 1807   6.843   6.685   2.304
  303SOL    HW1 1808   6.938   6.714   2.293
  303SOL    HW2 1809   6.798   6.744   2.370
  304SOL     OW 1810   2.098   6.533   5.811
  304SOL    HW1 1811   2.079   6.434   5.812
  304SOL    HW2 1812   2.183   6.551   5.762
  305SOL     OW 1813   1.556   2.679   0.385
  305SOL    HW1 1814   1.584   2.744   0.456
  305SOL    HW2 1815   1.564   2.723   0.295
  306SOL     OW 1816   1.764   0.689   3.408
  306SOL    HW1 1817   1.848   0.685   3.462
  306SOL    HW2 1818   1.725   0.780   3.412
  307SOL     OW 1819   4.940   5.367   0.523
  307SOL    HW1 1820   5.026   5.356   0.573
  307SOL    HW2 1821   4.905   5.460   0.537
  308SOL     OW 1822   5.235   3.172   4.453
  308SOL    HW1 1823   5.162   3.236   4.476
  308SOL    HW2 1824   5.202   3.078   4.462
  309SOL     OW 1825   2.177   5.609   0.209
  309SOL    HW1 1826   2.130   5.520   0.215
  309SOL    HW2 1827   2.267   5.596   0.168
  310SOL     OW 1828   5.480   6.625   5.852
  310SOL    HW1 1829   5.476   6.714   5.807
  310SOL    HW2 1830   5.388   6.598   5.881
  311SOL     OW 1831   4.068   5.132   2.215
  311SOL    HW1 1832   3.981   5.082   2.227
  311SOL    HW2 1833   4.119   5.130   2.301
  312SOL     OW 1834   4.097   0.937   4.215
  312SOL    HW1 1835   3.997   0.943   4.208
  312SOL    HW2 1836   4.123   0.840   4.220
  313SOL     OW 1837   2.992   3.607   2.221
  313SOL    HW1 1838   2.954   3.673   2.286
  313SOL    HW2 1839   3.089   3.626   2.207
  314SOL     OW 1840   2.677   4.448   6.630
  314SOL    HW1 1841   2.622   4.530   6.611
  314SOL    HW2 1842   2.695   4.443   6.729
  315SOL     OW 1843   1.143   3.246   3.957
  315SOL    HW1 1844   1.129   3.152   3.986
  315SOL    HW2 1845   1.199   3.294   4.025
  316SOL     OW 1846   2.923   1.249   4.390
  316SOL    HW1 1847   3.020   1.231   4.374
  316SOL    HW2 1848   2.885   1.295   4.310
  317SOL     OW 1849   6.842   1.198   0.819
  317SOL    HW1 1850   6.904   1.122   0.834
  317SOL    HW2 1851   6.841   1.257   0.900
  318SOL     OW 1852   0.793   5.716   6.485
  318SOL    HW1 1853   0.697   5.699   6.461
  318SOL    HW2 1854   0.850   5.700   6.404
  319SOL     OW 1855   6.360   1.454   3.339
  319SOL    HW1 1856   6.401   1.545   3.344
  319SOL    HW2 1857   6.418   1.395   3.282
  320SOL     OW 1858   6.444   2.271   1.222
  320SOL    HW1 1859   6.381   2.344   1.249
  320SOL    HW2 1860   6.436   2.194   1.285
  321SOL     OW 1861   3.363   1.364   0.348
  321SOL    HW1 1862   3.380   1.445   0.292
  321SOL    HW2 1863   3.308   1.390   0.428
  322SOL     OW 1864   3.106   3.104   3.809
  322SOL    HW1 1865   3.188   3.106   3.867
  322SOL    HW2 1866   3.032   3.151   3.856
  323SOL     OW 1867   1.367   3.162   6.370
  323SOL    HW1 1868   1.325   3.232   6.312
  323SOL    HW2 1869   1.301   3.089   6.388
  324SOL     OW 1870   2.804   0.707   4.171
  324SOL    HW1 1871   2.811   0.792   4.222
  324SOL    HW2 1872   2.736   0.648   4.214
  325SOL     OW 1873   0.466   2.501   1.568
  325SOL    HW1 1874   0.423   2.488   1.478
  325SOL    HW2 1875   0.397   2.493   1.640
  326SOL     OW 1876   1.181   5.208   6.522
  326SOL    HW1 1877   1.148   5.134   6.463
  326SOL    HW2 1878   1.237   5.169   6.595
  327SOL     OW 1879   1.508   4.350   3.085
  327SOL    HW1 1880   1.446   4.427   3.101
  327SOL    HW2 1881   1.488   4.277   3.150
  328SOL     OW 1882   1.479   5.453   1.559
  328SOL    HW1 1883   1.483   5.545   1.519
  328SOL    HW2 1884   1.404   5.449   1.625
  329SOL     OW 1885   3.524   2.867   3.986
  329SOL    HW1 1886   3.500   2.781   3.941
  329SOL    HW2 1887   3.621   2.887   3.970
  330SOL     OW 1888   3.369   6.302   1.492
  330SOL    HW1 1889   3.368   6.397   1.523
  330SOL    HW2 1890   3.326   6.244   1.561
  331SOL     OW 1891   3.850   5.592   0.420
  331SOL    HW1 1892   3.858   5.633   0.511
  331SOL    HW2 1893   3.820   5.662   0.355
  332SOL     OW 1894   4.533   2.226   4.966
  332SOL    HW1 1895   4.602   2.173   4.917
  332SOL    HW2 1896   4.470   2.267   4.901
  333SOL     OW 1897   3.286   0.478   6.472
  333SOL    HW1 1898   3.203   0.530   6.490
  333SOL    HW2 1899   3.267   0.381   6.475
  334SOL     OW 1900   3.222   0.912   1.169
  334SOL    HW1 1901   3.209   0.880   1.263
  334SOL    HW2 1902   3.140   0.962   1.140
  335SOL     OW 1903   4.267   0.115   5.360
  335SOL    HW1 1904   4.240   0.193   5.417
  335SOL    HW2 1905   4.319   0.149   5.281
  336SOL     OW 1906   2.451   1.124   3.697
  336SOL    HW1 1907   2.495   1.118   3.608
  336SOL    HW2 1908   2.354   1.103   3.688
  337SOL     OW 1909   0.543   2.833   6.879
  337SOL    HW1 1910   0.499   2.900   6.938
  337SOL    HW2 1911   0.488   2.749   6.877
  338SOL     OW 1912   3.440   2.783   1.706
  338SOL    HW1 1913   3.477   2.690   1.714
  338SOL    HW2 1914   3.388   2.805   1.789
  339SOL     OW 1915   4.129   6.022   4.024
  339SOL    HW1 1916   4.072   6.051   4.101
  339SOL    HW2 1917   4.074   5.968   3.960
  340SOL     OW 1918   4.857   4.499   5.154
  340SOL    HW1 1919   4.762   4.520   5.127
  340SOL    HW2 1920   4.883   4.410   5.116
  341SOL     OW 1921   6.423   0.428   4.612
  341SOL    HW1 1922   6.381   0.394   4.696
  341SOL    HW2 1923   6.483   0.357   4.574
  342SOL     OW 1924   6.117   3.713   6.939
  342SOL    HW1 1925   6.123   3.794   6.998
  342SOL    HW2 1926   6.139   3.740   6.845
  343SOL     OW 1927   1.692   5.802   0.917
  343SOL    HW1 1928   1.636   5.774   0.839
  343SOL    HW2 1929   1.642   5.781   1.002
  344SOL     OW 1930   1.462   3.483   2.157
  344SOL    HW1 1931   1.428   3.536   2.080
  344SOL    HW2 1932   1.535   3.533   2.203
  345SOL     OW 1933   4.125   1.953   2.868
  345SOL    HW1 1934   4.185   1.894   2.813
  345SOL    HW2 1935   4.158   1.956   2.962
  346SOL     OW 1936   2.218   0.730   2.948
  346SOL    HW1 1937   2.246   0.734   3.044
  346SOL    HW2 1938   2.120   0.744   2.942
  347SOL     OW 1939   2.944   5.656   6.827
  347SOL    HW1 1940   3.004   5.623   6.754
  347SOL    HW2 1941   2.999   5.695   6.901
  348SOL     OW 1942   5.495   4.518   2.179
  348SOL    HW1 1943   5.484   4.470   2.092
  348SOL    HW2 1944   5.590   4.548   2.189
  349SOL     OW 1945   6.693   5.412   1.257
  349SOL    HW1 1946   6.763   5.362   1.307
  349SOL    HW2 1947   6.660   5.357   1.181
  350SOL     OW 1948   3.206   3.039   0.531
  350SOL    HW1 1949   3.131   3.071   0.588
  350SOL    HW2 1950   3.279   3.003   0.588
  351SOL     OW 1951   2.132   2.833   1.554
  351SOL    HW1 1952   2.092   2.768   1.618
  351SOL    HW2 1953   2.111   2.926   1.584
  352SOL     OW 1954   2.832   0.639   4.689
  352SOL    HW1 1955   2.838   0.730   4.730
  352SOL    HW2 1956   2.745   0.629   4.641
  353SOL     OW 1957   1.790   0.368   0.857
  353SOL    HW1 1958   1.757   0.284   0.901
  353SOL    HW2 1959   1.798   0.353   0.758
  354SOL     OW 1960   3.846   2.594   0.856
  354SOL    HW1 1961   3.766   2.560   0.906
  354SOL    HW2 1962   3.914   2.521   0.848
  355SOL     OW 1963   1.059   3.521   2.467
  355SOL    HW1 1964   1.127   3.471   2.413
  355SOL    HW2 1965   0.970   3.518   2.420
  356SOL     OW 1966   3.016   0.201   5.945
  356SOL    HW1 1967   3.115   0.210   5.957
  356SOL    HW2 1968   2.992   0.104   5.948
  357SOL     OW 1969   6.777   6.135   6.212
  357SOL    HW1 1970   6.717   6.061   6.244
  357SOL    HW2 1971   6.848   6.152   6.279
  358SOL     OW 1972   4.047   6.806   0.320
  358SOL    HW1 1973   4.000   6.719   0.330
  358SOL    HW2 1974   3.981   6.881   0.329
  359SOL     OW 1975   1.771   2.743   2.226
  359SOL    HW1 1976   1.842   2.686   2.267
  359SOL    HW2 1977   1.784   2.838   2.254
  360SOL     OW 1978   0.756   4.883   6.057
  360SOL    HW1 1979   0.782   4.795   6.096
  360SOL    HW2 1980   0.688   4.927   6.117
  361SOL     OW 1981   6.043   6.407   2.763
  361SOL    HW1 1982   6.095   6.475   2.815
  361SOL    HW2 1983   6.002   6.341   2.827
  362SOL     OW 1984   3.479   3.340   1.137
  362SOL    HW1 1985   3.414   3.405   1.177
  362SOL    HW2 1986   3.570   3.381   1.137
  363SOL     OW 1987   5.093   4.189   3.263
  363SOL    HW1 1988   5.008   4.236   3.239
  363SOL    HW2 1989   5.130   4.144   3.181
  364SOL     OW 1990   6.715   5.199   6.813
  364SOL    HW1 1991   6.804   5.172   6.851
  364SOL    HW2 1992   6.723   5.289   6.771
  365SOL     OW 1993   6.092   6.173   2.178
  365SOL    HW1 1994   6.039   6.223   2.109
  365SOL    HW2 1995   6.165   6.121   2.133
  366SOL     OW 1996   5.715   0.883   6.364
  366SOL    HW1 1997   5.813   0.868   6.356
  366SOL    HW2 1998   5.676   0.819   6.430
  367SOL     OW 1999   5.686   3.523   0.880
  367SOL    HW1 2000   5.766   3.517   0.940
  367SOL    HW2 2001   5.640   3.434   0.877
  368SOL     OW 2002   0.216   3.760   4.768
  368SOL    HW1 2003   0.288   3.748   4.836
  368SOL    HW2 2004   0.197   3.673   4.723
  369SOL     OW 2005   6.245   4.893   2.339
  369SOL    HW1 2006   6.230   4.991   2.340
  369SOL    HW2 2007   6.183   4.849   2.405
  370SOL     OW 2008   2.507   1.274   5.715
  370SOL    HW1 2009   2.418   1.304   5.680
  370SOL    HW2 2010   2.579   1.333   5.680
  371SOL     OW 2011   2.212   3.717   6.247
  371SOL    HW1 2012   2.263   3.769   6.316
  371SOL    HW2 2013   2.276   3.666   6.190
  372SOL     OW 2014   0.788   6.844   5.973
  372SOL    HW1 2015   0.801   6.905   6.051
  372SOL    HW2 2016   0.742   6.893   5.899
  373SOL     OW 2017   6.392   6.249   4.746
  373SOL    HW1 2018   6.293   6.251   4.755
  373SOL    HW2 2019   6.427   6.162   4.782
  374SOL     OW 2020   2.850   1.782   4.019
  374SOL    HW1 2021   2.899   1.788   4.106
  374SOL    HW2 2022   2.752   1.773   4.037
  375SOL     OW 2023   0.856   3.959   3.989
  375SOL    HW1 2024   0.927   3.924   4.050
  375SOL    HW2 2025   0.788   4.009   4.042
  376SOL     OW 2026   2.569   1.288   5.139
  376SOL    HW1 2027   2.644   1.265   5.201
  376SOL    HW2 2028   2.605   1.330   5.056
  377SOL     OW 2029   1.471   1.901   1.487
  377SOL    HW1 2030   1.534   1.936   1.418
  377SOL    HW2 2031   1.495   1.938   1.577
  378SOL     OW 2032   4.334   2.707   6.567
  378SOL    HW1 2033   4.255   2.718   6.627
  378SOL    HW2 2034   4.312   2.744   6.476
  379SOL     OW 2035   6.247   3.894   1.188
  379SOL    HW1 2036   6.204   3.920   1.101
  379SOL    HW2 2037   6.346   3.901   1.179
  380SOL     OW 2038   2.558   1.304   0.927
  380SOL    HW1 2039   2.483   1.240   0.920
  380SOL    HW2 2040   2.588   1.331   0.836
  381SOL     OW 2041   1.419   3.829   2.699
  381SOL    HW1 2042   1.514   3.845   2.725
  381SOL    HW2 2043   1.360   3.842   2.779
  382SOL     OW 2044   6.071   0.207   6.652
  382SOL    HW1 2045   6.085   0.196   6.750
  382SOL    HW2 2046   5.990   0.156   6.623
  383SOL     OW 2047   4.536   4.037   6.035
  383SOL    HW1 2048   4.634   4.052   6.022
  383SOL    HW2 2049   4.496   4.115   6.083
  384SOL     OW 2050   6.751   5.467   4.144
  384SOL    HW1 2051   6.699   5.440   4.062
  384SOL    HW2 2052   6.701   5.539   4.192
  385SOL     OW 2053   3.946   5.430   5.300
  385SOL    HW1 2054   3.875   5.468   5.240
  385SOL    HW2 2055   3.945   5.331   5.294
  386SOL     OW 2056   2.035   6.645   5.395
  386SOL    HW1 2057   2.105   6.710   5.364
  386SOL    HW2 2058   1.994   6.677   5.479
  387SOL     OW 2059   1.104   6.991   3.620
  387SOL    HW1 2060   1.117   7.000   3.521
  387SOL    HW2 2061   1.123   6.896   3.647
  388SOL     OW 2062   1.688   1.851   4.385
  388SOL    HW1 2063   1.685   1.773   4.447
  388SOL    HW2 2064   1.766   1.842   4.323
  389SOL     OW 2065   3.998   4.528   1.069
  389SOL    HW1 2066   3.941   4.447   1.061
  389SOL    HW2 2067   4.056   4.521   1.150
  390SOL     OW 2068   3.265   1.171   6.977
  390SOL    HW1 2069   3.272   1.072   6.967
  390SOL    HW2 2070   3.259   1.194   0.055
  391SOL     OW 2071   2.319   3.868   5.862
  391SOL    HW1 2072   2.346   3.831   5.773
  391SOL    HW2 2073   2.282   3.794   5.919
  392SOL     OW 2074   1.836   4.034   0.476
  392SOL    HW1 2075   1.809   4.118   0.523
  392SOL    HW2 2076   1.833   4.050   0.377
  393SOL     OW 2077   1.352   4.556   6.433
  393SOL    HW1 2078   1.382   4.473   6.386
  393SOL    HW2 2079   1.311   4.532   6.521
  394SOL     OW 2080   6.610   2.455   0.764
  394SOL    HW1 2081   6.652   2.402   0.689
  394SOL    HW2 2082   6.513   2.467   0.745
  395SOL     OW 2083   5.138   4.499   3.030
  395SOL    HW1 2084   5.174   4.582   3.073
  395SOL    HW2 2085   5.156   4.501   2.932
  396SOL     OW 2086   2.944   3.593   1.917
  396SOL    HW1 2087   3.035   3.561   1.890
  396SOL    HW2 2088   2.916   3.546   2.001
  397SOL     OW 2089   5.602   1.711   6.314
  397SOL    HW1 2090   5.701   1.701   6.303
  397SOL    HW2 2091   5.573   1.796   6.270
  398SOL     OW 2092   1.437   0.127   3.377
  398SOL    HW1 2093   1.338   0.133   3.365
  398SOL    HW2 2094   1.482   0.128   3.287
  399SOL     OW 2095   5.259   6.406   3.191
  399SOL    HW1 2096   5.266   6.384   3.289
  399SOL    HW2 2097   5.163   6.413   3.166
  400SOL     OW 2098   6.209   6.854   5.171
  400SOL    HW1 2099   6.211   6.810   5.082
  400SOL    HW2 2100   6.180   6.788   5.240
  401SOL     OW 2101   5.205   0.065   6.802
  401SOL    HW1 2102   5.111   0.047   6.775
  401SOL    HW2 2103   5.222   0.163   6.805
  402SOL     OW 2104   6.650   0.193   3.740
  402SOL    HW1 2105   6.592   0.148   3.672
  402SOL    HW2 2106   6.673   0.128   3.813
  403SOL     OW 2107   3.914   1.343   4.927
  403SOL    HW1 2108   3.910   1.443   4.921
  403SOL    HW2 2109   3.963   1.306   4.848
  404SOL     OW 2110   1.733   4.851   3.813
  404SOL    HW1 2111   1.809   4.798   3.852
  404SOL    HW2 2112   1.647   4.802   3.830
  405SOL     OW 2113   2.139   3.014   2.780
  405SOL    HW1 2114   2.102   3.086   2.839
  405SOL    HW2 2115   2.144   3.048   2.686
  406SOL     OW 2116   0.621   4.291   4.742
  406SOL    HW1 2117   0.523   4.297   4.761
  406SOL    HW2 2118   0.648   4.195   4.737
  407SOL     OW 2119   0.492   1.324   5.066
  407SOL    HW1 2120   0.543   1.410   5.062
  407SOL    HW2 2121   0.551   1.248   5.041
  408SOL     OW 2122   2.645   1.979   2.998
  408SOL    HW1 2123   2.582   1.904   3.018
  408SOL    HW2 2124   2.665   1.980   2.900
  409SOL     OW 2125   6.186   3.575   2.364
  409SOL    HW1 2126   6.094   3.551   2.335
  409SOL    HW2 2127   6.225   3.642   2.301
  410SOL     OW 2128   1.119   1.466   0.918
  410SOL    HW1 2129   1.066   1.383   0.931
  410SOL    HW2 2130   1.058   1.541   0.890
  411SOL     OW 2131   6.957   0.837   1.214
  411SOL    HW1 2132   6.939   0.891   1.296
  411SOL    HW2 2133   6.886   0.853   1.146
  412SOL     OW 2134   3.175   5.875   3.335
  412SOL    HW1 2135   3.122   5.873   3.250
  412SOL    HW2 2136   3.264   5.831   3.320
  413SOL     OW 2137   5.712   4.148   1.988
  413SOL    HW1 2138   5.724   4.073   1.924
  413SOL    HW2 2139   5.800   4.174   2.027
  414SOL     OW 2140   3.691   5.548   3.468
  414SOL    HW1 2141   3.718   5.459   3.430
  414SOL    HW2 2142   3.620   5.589   3.411
  415SOL     OW 2143   0.440   6.819   6.257
  415SOL    HW1 2144   0.467   6.915   6.244
  415SOL    HW2 2145   0.429   6.775   6.167
  416SOL     OW 2146   4.587   6.407   4.871
  416SOL    HW1 2147   4.643   6.487   4.896
  416SOL    HW2 2148   4.558   6.360   4.955
  417SOL     OW 2149   2.362   6.560   5.679
  417SOL    HW1 2150   2.301   6.502   5.626
  417SOL    HW2 2151   2.414   6.619   5.617
  418SOL     OW 2152   3.705   6.583   6.213
  418SOL    HW1 2153   3.727   6.583   6.311
  418SOL    HW2 2154   3.606   6.582   6.202
  419SOL     OW 2155   1.565   6.135   2.559
  419SOL    HW1 2156   1.611   6.125   2.647
  419SOL    HW2 2157   1.467   6.150   2.574
  420SOL     OW 2158   6.070   1.492   0.085
  420SOL    HW1 2159   6.110   1.401   0.098
  420SOL    HW2 2160   6.089   1.549   0.164
  421SOL     OW 2161   6.556   4.174   5.024
  421SOL    HW1 2162   6.551   4.078   5.052
  421SOL    HW2 2163   6.588   4.180   4.929
  422SOL     OW 2164   5.122   3.827   1.598
  422SOL    HW1 2165   5.098   3.734   1.572
  422SOL    HW2 2166   5.129   3.833   1.698
  423SOL     OW 2167   1.131   2.467   6.401
  423SOL    HW1 2168   1.114   2.559   6.435
  423SOL    HW2 2169   1.045   2.428   6.366
  424SOL     OW 2170   1.818   4.708   1.390
  424SOL    HW1 2171   1.767   4.622   1.395
  424SOL    HW2 2172   1.837   4.740   1.482
  425SOL     OW 2173   5.100   1.994   3.445
  425SOL    HW1 2174   5.042   1.926   3.400
  425SOL    HW2 2175   5.195   1.981   3.418
  426SOL     OW 2176   2.750   2.123   4.712
  426SOL    HW1 2177   2.788   2.053   4.774
  426SOL    HW2 2178   2.652   2.130   4.726
  427SOL     OW 2179   5.888   6.799   3.934
  427SOL    HW1 2180   5.891   6.838   4.026
  427SOL    HW2 2181   5.979   6.803   3.893
  428SOL     OW 2182   3.870   0.020   3.222
  428SOL    HW1 2183   3.830   0.109   3.200
  428SOL    HW2 2184   3.920   7.005   3.143
  429SOL     OW 2185   0.779   5.026   3.280
  429SOL    HW1 2186   0.741   5.044   3.190
  429SOL    HW2 2187   0.720   5.067   3.350
  430SOL     OW 2188   1.563   5.913   4.003
  430SOL    HW1 2189   1.529   5.995   3.958
  430SOL    HW2 2190   1.580   5.933   4.100
  431SOL     OW 2191   3.077   0.414   1.180
  431SOL    HW1 2192   3.005   0.364   1.131
  431SOL    HW2 2193   3.065   0.401   1.278
  432SOL     OW 2194   6.689   1.806   1.346
  432SOL    HW1 2195   6.753   1.880   1.367
  432SOL    HW2 2196   6.628   1.834   1.272
  433SOL     OW 2197   2.385   6.849   5.407
  433SOL    HW1 2198   2.294   6.891   5.401
  433SOL    HW2 2199   2.444   6.887   5.336
  434SOL     OW 2200   3.775   5.576   3.169
  434SOL    HW1 2201   3.850   5.610   3.113
  434SOL    HW2 2202   3.703   5.646   3.174
  435SOL     OW 2203   4.420   2.214   6.396
  435SOL    HW1 2204   4.398   2.262   6.481
  435SOL    HW2 2205   4.385   2.267   6.318
  436SOL     OW 2206   2.972   5.103   1.984
  436SOL    HW1 2207   2.995   5.008   2.001
  436SOL    HW2 2208   3.051   5.151   1.946
  437SOL     OW 2209   0.522   1.044   6.054
  437SOL    HW1 2210   0.544   0.988   6.135
  437SOL    HW2 2211   0.426   1.033   6.031
  438SOL     OW 2212   2.084   4.007   4.290
  438SOL    HW1 2213   2.089   3.939   4.216
  438SOL    HW2 2214   2.132   3.972   4.370
  439SOL     OW 2215   5.980   6.209   2.577
  439SOL    HW1 2216   5.958   6.122   2.621
  439SOL    HW2 2217   5.985   6.282   2.646
  440SOL     OW 2218   2.769   1.956   5.608
  440SOL    HW1 2219   2.769   2.054   5.626
  440SOL    HW2 2220   2.699   1.936   5.539
  441SOL     OW 2221   0.468   3.357   3.457
  441SOL    HW1 2222   0.507   3.449   3.444
  441SOL    HW2 2223   0.542   3.290   3.465
  442SOL     OW 2224   4.028   5.974   5.474
  442SOL    HW1 2225   3.996   5.916   5.549
  442SOL    HW2 2226   3.952   5.994   5.412
  443SOL     OW 2227   5.753   4.338   4.924
  443SOL    HW1 2228   5.745   4.254   4.869
  443SOL    HW2 2229   5.700   4.326   5.009
  444SOL     OW 2230   5.155   0.552   6.343
  444SOL    HW1 2231   5.094   0.612   6.394
  444SOL    HW2 2232   5.127   0.457   6.356
  445SOL     OW 2233   1.780   5.573   2.897
  445SOL    HW1 2234   1.773   5.560   2.996
  445SOL    HW2 2235   1.831   5.498   2.856
  446SOL     OW 2236   4.118   4.990   2.752
  446SOL    HW1 2237   4.067   5.076   2.761
  446SOL    HW2 2238   4.112   4.958   2.657
  447SOL     OW 2239   7.002   3.510   5.916
  447SOL    HW1 2240   6.919   3.518   5.971
  447SOL    HW2 2241   0.002   3.413   5.898
  448SOL     OW 2242   2.709   0.660   2.667
  448SOL    HW1 2243   2.688   0.598   2.742
  448SOL    HW2 2244   2.626   0.679   2.615
  449SOL     OW 2245   3.149   1.120   4.036
  449SOL    HW1 2246   3.192   1.198   3.990
  449SOL    HW2 2247   3.068   1.092   3.984
  450SOL     OW 2248   1.610   4.670   3.591
  450SOL    HW1 2249   1.630   4.767   3.608
  450SOL    HW2 2250   1.513   4.653   3.608
  451SOL     OW 2251   1.385   2.058   4.947
  451SOL    HW1 2252   1.398   2.086   4.852
  451SOL    HW2 2253   1.404   2.135   5.008
  452SOL     OW 2254   4.802   6.710   0.688
  452SOL    HW1 2255   4.762   6.801   0.696
  452SOL    HW2 2256   4.764   6.650   0.758
  453SOL     OW 2257   3.382   0.601   6.693
  453SOL    HW1 2258   3.369   0.519   6.637
  453SOL    HW2 2259   3.476   0.634   6.681
  454SOL     OW 2260   6.888   3.747   6.346
  454SOL    HW1 2261   6.805   3.791   6.312
  454SOL    HW2 2262   6.964   3.811   6.341
  455SOL     OW 2263   5.096   2.807   5.001
  455SOL    HW1 2264   5.089   2.866   5.081
  455SOL    HW2 2265   5.193   2.791   4.980
  456SOL     OW 2266   0.955   0.207   4.276
  456SOL    HW1 2267   1.010   0.125   4.293
  456SOL    HW2 2268   0.904   0.230   4.359
  457SOL     OW 2269   2.035   4.390   4.622
  457SOL    HW1 2270   1.984   4.400   4.537
  457SOL    HW2 2271   2.107   4.323   4.610
  458SOL     OW 2272   2.691   6.294   2.759
  458SOL    HW1 2273   2.696   6.277   2.857
  458SOL    HW2 2274   2.651   6.215   2.713
  459SOL     OW 2275   2.186   6.880   6.144
  459SOL    HW1 2276   2.224   6.919   6.061
  459SOL    HW2 2277   2.185   6.780   6.137
  460SOL     OW 2278   1.579   7.001   4.506
  460SOL    HW1 2279   1.607   6.950   4.425
  460SOL    HW2 2280   1.642   0.059   4.519
  461SOL     OW 2281   6.871   5.275   5.736
  461SOL    HW1 2282   6.773   5.294   5.733
  461SOL    HW2 2283   6.906   5.295   5.828
  462SOL     OW 2284   4.242   3.189   6.254
  462SOL    HW1 2285   4.162   3.223   6.304
  462SOL    HW2 2286   4.322   3.190   6.314
  463SOL     OW 2287   6.495   0.064   4.104
  463SOL    HW1 2288   6.418   0.001   4.111
  463SOL    HW2 2289   6.511   0.107   4.193
  464SOL     OW 2290   3.012   0.582   5.823
  464SOL    HW1 2291   2.995   0.661   5.765
  464SOL    HW2 2292   3.077   0.606   5.895
  465SOL     OW 2293   0.527   2.156   0.175
  465SOL    HW1 2294   0.609   2.179   0.123
  465SOL    HW2 2295   0.453   2.130   0.113
  466SOL     OW 2296   2.478   6.664   3.964
  466SOL    HW1 2297   2.401   6.612   4.000
  466SOL    HW2 2298   2.509   6.623   3.878
  467SOL     OW 2299   1.256   1.464   2.317
  467SOL    HW1 2300   1.190   1.464   2.393
  467SOL    HW2 2301   1.309   1.380   2.319
  468SOL     OW 2302   3.527   5.444   5.147
  468SOL    HW1 2303   3.539   5.533   5.189
  468SOL    HW2 2304   3.431   5.432   5.121
  469SOL     OW 2305   2.886   3.702   6.125
  469SOL    HW1 2306   2.945   3.665   6.054
  469SOL    HW2 2307   2.818   3.763   6.084
  470SOL     OW 2308   4.084   6.131   1.273
  470SOL    HW1 2309   4.089   6.134   1.173
  470SOL    HW2 2310   4.113   6.219   1.311
  471SOL     OW 2311   2.453   2.599   3.737
  471SOL    HW1 2312   2.482   2.590   3.832
  471SOL    HW2 2313   2.513   2.544   3.679
  472SOL     OW 2314   5.304   4.669   6.654
  472SOL    HW1 2315   5.379   4.614   6.691
  472SOL    HW2 2316   5.229   4.609   6.627
  473SOL     OW 2317   1.403   1.989   2.560
  473SOL    HW1 2318   1.387   2.063   2.494
  473SOL    HW2 2319   1.316   1.965   2.604
  474SOL     OW 2320   5.458   5.883   4.670
  474SOL    HW1 2321   5.502   5.914   4.755
  474SOL    HW2 2322   5.473   5.952   4.599
  475SOL     OW 2323   6.339   2.586   0.287
  475SOL    HW1 2324   6.328   2.504   0.343
  475SOL    HW2 2325   6.279   2.580   0.207
  476SOL     OW 2326   6.797   3.983   2.254
  476SOL    HW1 2327   6.877   4.039   2.275
  476SOL    HW2 2328   6.739   3.976   2.336
  477SOL     OW 2329   2.631   5.931   3.194
  477SOL    HW1 2330   2.586   5.961   3.278
  477SOL    HW2 2331   2.564   5.889   3.133
  478SOL     OW 2332   4.245   6.182   2.865
  478SOL    HW1 2333   4.217   6.261   2.920
  478SOL    HW2 2334   4.331   6.203   2.819
  479SOL     OW 2335   4.116   3.434   4.946
  479SOL    HW1 2336   4.182   3.404   5.014
  479SOL    HW2 2337   4.152   3.419   4.855
  480SOL     OW 2338   2.343   0.115   0.853
  480SOL    HW1 2339   2.423   0.060   0.877
  480SOL    HW2 2340   2.259   0.065   0.874
  481SOL     OW 2341   0.967   6.545   1.716
  481SOL    HW1 2342   0.961   6.589   1.626
  481SOL    HW2 2343   0.882   6.497   1.735
  482SOL     OW 2344   4.638   4.937   2.320
  482SOL    HW1 2345   4.566   5.004   2.334
  482SOL    HW2 2346   4.622   4.889   2.234
  483SOL     OW 2347   6.538   2.243   2.666
  483SOL    HW1 2348   6.501   2.262   2.757
  483SOL    HW2 2349   6.476   2.281   2.597
  484SOL     OW 2350   1.441   3.906   4.639
  484SOL    HW1 2351   1.492   3.963   4.704
  484SOL    HW2 2352   1.363   3.864   4.686
  485SOL     OW 2353   4.694   4.766   2.528
  485SOL    HW1 2354   4.641   4.837   2.575
  485SOL    HW2 2355   4.702   4.789   2.431
  486SOL     OW 2356   6.295   1.567   0.604
  486SOL    HW1 2357   6.329   1.555   0.510
  486SOL    HW2 2358   6.282   1.665   0.621
  487SOL     OW 2359   0.506   0.379   3.402
  487SOL    HW1 2360   0.532   0.404   3.495
  487SOL    HW2 2361   0.439   0.305   3.406
  488SOL     OW 2362   0.816   7.003   2.439
  488SOL    HW1 2363   0.729   6.977   2.398
  488SOL    HW2 2364   0.810   6.995   2.539
  489SOL     OW 2365   5.221   6.256   5.941
  489SOL    HW1 2366   5.161   6.177   5.934
  489SOL    HW2 2367   5.254   6.281   5.849
  490SOL     OW 2368   2.028   5.837   3.651
  490SOL    HW1 2369   2.004   5.814   3.745
  490SOL    HW2 2370   2.055   5.933   3.646
  491SOL     OW 2371   1.636   3.092   1.543
  491SOL    HW1 2372   1.556   3.080   1.602
  491SOL    HW2 2373   1.656   3.189   1.533
  492SOL     OW 2374   1.644   0.880   5.828
  492SOL    HW1 2375   1.674   0.814   5.759
  492SOL    HW2 2376   1.554   0.916   5.803
  493SOL     OW 2377   2.995   6.686   5.556
  493SOL    HW1 2378   2.908   6.686   5.606
  493SOL    HW2 2379   2.991   6.751   5.481
  494SOL     OW 2380   1.094   6.785   6.665
  494SOL    HW1 2381   1.019   6.736   6.622
  494SOL    HW2 2382   1.162   6.809   6.597
  495SOL     OW 2383   3.915   5.743   3.559
  495SOL    HW1 2384   3.954   5.831   3.534
  495SOL    HW2 2385   3.827   5.731   3.513
  496SOL     OW 2386   5.658   2.918   1.771
  496SOL    HW1 2387   5.595   2.849   1.806
  496SOL    HW2 2388   5.671   2.905   1.673
  497SOL     OW 2389   3.164   0.991   4.829
  497SOL    HW1 2390   3.158   1.002   4.729
  497SOL    HW2 2391   3.250   0.946   4.852
  498SOL     OW 2392   0.598   4.990   2.402
  498SOL    HW1 2393   0.506   4.952   2.402
  498SOL    HW2 2394   0.599   5.075   2.454
  499SOL     OW 2395   1.818   5.514   4.662
  499SOL    HW1 2396   1.913   5.510   4.632
  499SOL    HW2 2397   1.778   5.422   4.660
  500SOL     OW 2398   6.589   2.625   6.767
  500SOL    HW1 2399   6.587   2.571   6.852
  500SOL    HW2 2400   6.682   2.660   6.752
  501SOL     OW 2401   3.910   6.591   0.547
  501SOL    HW1 2402   3.851   6.669   0.565
  501SOL    HW2 2403   3.951   6.560   0.633
  502SOL     OW 2404   0.837   4.199   6.205
  502SOL    HW1 2405   0.916   4.138   6.193
  502SOL    HW2 2406   0.770   4.155   6.264
  503SOL     OW 2407   0.921   4.538   6.398
  503SOL    HW1 2408   0.985   4.462   6.403
  503SOL    HW2 2409   0.830   4.507   6.428
  504SOL     OW 2410   1.221   5.584   2.323
  504SOL    HW1 2411   1.289   5.561   2.254
  504SOL    HW2 2412   1.192   5.679   2.311
  505SOL     OW 2413   3.930   6.089   5.052
  505SOL    HW1 2414   3.899   6.037   5.132
  505SOL    HW2 2415   3.859   6.087   4.982
  506SOL     OW 2416   3.496   5.811   2.415
  506SOL    HW1 2417   3.497   5.766   2.504
  506SOL    HW2 2418   3.548   5.896   2.419
  507SOL     OW 2419   3.019   6.479   2.989
  507SOL    HW1 2420   2.942   6.465   3.051
  507SOL    HW2 2421   3.071   6.394   2.981
  508SOL     OW 2422   0.224   3.162   2.414
  508SOL    HW1 2423   0.190   3.081   2.463
  508SOL    HW2 2424   0.202   3.244   2.466
  509SOL     OW 2425   3.172   1.576   0.910
  509SOL    HW1 2426   3.130   1.640   0.974
  509SOL    HW2 2427   3.214   1.627   0.835
  510SOL     OW 2428   6.415   4.250   6.664
  510SOL    HW1 2429   6.502   4.201   6.659
  510SOL    HW2 2430   6.361   4.214   6.740
  511SOL     OW 2431   0.312   2.974   6.553
  511SOL    HW1 2432   0.303   3.023   6.466
  511SOL    HW2 2433   0.402   2.990   6.592
  512SOL     OW 2434   6.898   2.196   6.517
  512SOL    HW1 2435   6.818   2.145   6.487
  512SOL    HW2 2436   6.967   2.133   6.553
  513SOL     OW 2437   5.380   6.661   3.238
  513SOL    HW1 2438   5.479   6.659   3.221
  513SOL    HW2 2439   5.346   6.568   3.247
  514SOL     OW 2440   6.072   0.629   4.719
  514SOL    HW1 2441   6.036   0.615   4.627
  514SOL    HW2 2442   6.171   0.614   4.719
  515SOL     OW 2443   1.351   1.235   0.715
  515SOL    HW1 2444   1.292   1.315   0.706
  515SOL    HW2 2445   1.444   1.264   0.737
  516SOL     OW 2446   2.751   4.811   1.834
  516SOL    HW1 2447   2.785   4.741   1.897
  516SOL    HW2 2448   2.694   4.876   1.884
  517SOL     OW 2449   3.323   4.854   1.817
  517SOL    HW1 2450   3.410   4.804   1.813
  517SOL    HW2 2451   3.247   4.789   1.807
  518SOL     OW 2452   2.175   2.482   3.658
  518SOL    HW1 2453   2.206   2.476   3.753
  518SOL    HW2 2454   2.078   2.456   3.653
  519SOL     OW 2455   0.691   6.650   3.075
  519SOL    HW1 2456   0.743   6.721   3.123
  519SOL    HW2 2457   0.742   6.619   2.996
  520SOL     OW 2458   6.361   3.749   6.434
  520SOL    HW1 2459   6.335   3.828   6.378
  520SOL    HW2 2460   6.287   3.682   6.434
  521SOL     OW 2461   6.401   6.170   5.442
  521SOL    HW1 2462   6.350   6.186   5.357
  521SOL    HW2 2463   6.491   6.212   5.435
  522SOL     OW 2464   4.135   3.413   3.368
  522SOL    HW1 2465   4.214   3.385   3.423
  522SOL    HW2 2466   4.138   3.512   3.355
  523SOL     OW 2467   0.339   6.021   1.066
  523SOL    HW1 2468   0.382   6.035   0.977
  523SOL    HW2 2469   0.358   5.928   1.098
  524SOL     OW 2470   1.281   2.706   3.106
  524SOL    HW1 2471   1.293   2.623   3.160
  524SOL    HW2 2472   1.292   2.786   3.165
  525SOL     OW 2473   1.845   4.324   5.731
  525SOL    HW1 2474   1.912   4.317   5.805
  525SOL    HW2 2475   1.892   4.316   5.643
  526SOL     OW 2476   3.624   6.866   4.066
  526SOL    HW1 2477   3.608   6.851   4.164
  526SOL    HW2 2478   3.540   6.901   4.024
  527SOL     OW 2479   0.023   3.044   0.565
  527SOL    HW1 2480   0.042   3.044   0.663
  527SOL    HW2 2481   0.019   2.949   0.532
  528SOL     OW 2482   1.752   2.376   3.403
  528SOL    HW1 2483   1.713   2.443   3.341
  528SOL    HW2 2484   1.827   2.328   3.358
  529SOL     OW 2485   1.903   6.020   5.033
  529SOL    HW1 2486   1.871   5.935   5.073
  529SOL    HW2 2487   1.866   6.097   5.084
  530SOL     OW 2488   4.118   3.670   3.285
  530SOL    HW1 2489   4.112   3.759   3.329
  530SOL    HW2 2490   4.123   3.683   3.186
  531SOL     OW 2491   0.885   1.413   2.951
  531SOL    HW1 2492   0.951   1.487   2.947
  531SOL    HW2 2493   0.926   1.329   2.914
  532SOL     OW 2494   1.380   2.223   0.560
  532SOL    HW1 2495   1.281   2.210   0.557
  532SOL    HW2 2496   1.401   2.317   0.586
  533SOL     OW 2497   4.271   6.978   3.230
  533SOL    HW1 2498   4.215   0.014   3.169
  533SOL    HW2 2499   4.217   6.952   3.310
  534SOL     OW 2500   5.607   5.807   2.526
  534SOL    HW1 2501   5.578   5.771   2.615
  534SOL    HW2 2502   5.570   5.899   2.513
  535SOL     OW 2503   6.340   3.830   3.538
  535SOL    HW1 2504   6.373   3.920   3.568
  535SOL    HW2 2505   6.370   3.813   3.444
  536SOL     OW 2506   6.251   4.553   2.622
  536SOL    HW1 2507   6.257   4.469   2.675
  536SOL    HW2 2508   6.339   4.599   2.621
  537SOL     OW 2509   3.055   6.973   4.551
  537SOL    HW1 2510   3.035   6.889   4.600
  537SOL    HW2 2511   2.971   0.007   4.541
  538SOL     OW 2512   0.586   4.704   4.117
  538SOL    HW1 2513   0.557   4.705   4.213
  538SOL    HW2 2514   0.672   4.755   4.109
  539SOL     OW 2515   2.088   4.369   1.635
  539SOL    HW1 2516   2.112   4.466   1.639
  539SOL    HW2 2517   2.131   4.327   1.555
  540SOL     OW 2518   1.694   1.608   2.735
  540SOL    HW1 2519   1.683   1.514   2.766
  540SOL    HW2 2520   1.789   1.623   2.708
  541SOL     OW 2521   5.670   5.371   4.471
  541SOL    HW1 2522   5.572   5.361   4.487
  541SOL    HW2 2523   5.698   5.464   4.497
  542SOL     OW 2524   4.924   6.704   6.881
  542SOL    HW1 2525   5.004   6.719   6.824
  542SOL    HW2 2526   4.841   6.717   6.826
  543SOL     OW 2527   6.460   3.885   4.432
  543SOL    HW1 2528   6.504   3.907   4.519
  543SOL    HW2 2529   6.460   3.786   4.418
  544SOL     OW 2530   1.109   4.673   6.804
  544SOL    HW1 2531   1.062   4.734   6.867
  544SOL    HW2 2532   1.087   4.700   6.710
  545SOL     OW 2533   3.376   1.178   1.210
  545SOL    HW1 2534   3.297   1.132   1.251
  545SOL    HW2 2535   3.450   1.183   1.277
  546SOL     OW 2536   1.524   3.457   0.893
  546SOL    HW1 2537   1.587   3.381   0.873
  546SOL    HW2 2538   1.525   3.522   0.817
  547SOL     OW 2539   3.760   1.778   6.762
  547SOL    HW1 2540   3.681   1.838   6.775
  547SOL    HW2 2541   3.762   1.709   6.834
  548SOL     OW 2542   3.143   3.407   1.912
  548SOL    HW1 2543   3.140   3.361   1.824
  548SOL    HW2 2544   3.167   3.341   1.983
  549SOL     OW 2545   5.298   2.331   1.855
  549SOL    HW1 2546   5.223   2.282   1.810
  549SOL    HW2 2547   5.320   2.413   1.802
  550SOL     OW 2548   1.411   5.195   3.873
  550SOL    HW1 2549   1.442   5.225   3.783
  550SOL    HW2 2550   1.325   5.241   3.896
  551SOL     OW 2551   0.703   0.131   1.742
  551SOL    HW1 2552   0.678   0.076   1.663
  551SOL    HW2 2553   0.701   0.228   1.717
  552SOL     OW 2554   5.822   4.866   6.885
  552SOL    HW1 2555   5.906   4.878   6.832
  552SOL    HW2 2556   5.770   4.789   6.847
  553SOL     OW 2557   2.511   6.792   4.220
  553SOL    HW1 2558   2.439   6.862   4.211
  553SOL    HW2 2559   2.502   6.726   4.145
  554SOL     OW 2560   5.615   6.840   6.602
  554SOL    HW1 2561   5.697   6.821   6.656
  554SOL    HW2 2562   5.543   6.875   6.662
  555SOL     OW 2563   3.459   4.984   4.783
  555SOL    HW1 2564   3.509   4.906   4.745
  555SOL    HW2 2565   3.390   5.014   4.717
  556SOL     OW 2566   5.098   1.551   3.507
  556SOL    HW1 2567   5.108   1.533   3.409
  556SOL    HW2 2568   5.084   1.464   3.555
  557SOL     OW 2569   6.828   5.451   0.618
  557SOL    HW1 2570   6.817   5.451   0.518
  557SOL    HW2 2571   6.739   5.438   0.661
  558SOL     OW 2572   2.860   3.330   3.344
  558SOL    HW1 2573   2.826   3.243   3.307
  558SOL    HW2 2574   2.942   3.358   3.294
  559SOL     OW 2575   0.526   5.677   6.395
  559SOL    HW1 2576   0.513   5.596   6.337
  559SOL    HW2 2577   0.518   5.759   6.339
  560SOL     OW 2578   6.044   3.889   3.969
  560SOL    HW1 2579   5.979   3.927   3.903
  560SOL    HW2 2580   6.135   3.886   3.928
  561SOL     OW 2581   0.295   2.476   1.008
  561SOL    HW1 2582   0.241   2.395   0.985
  561SOL    HW2 2583   0.327   2.519   0.924
  562SOL     OW 2584   4.597   0.128   6.561
  562SOL    HW1 2585   4.550   0.197   6.616
  562SOL    HW2 2586   4.556   0.124   6.470
  563SOL     OW 2587   2.887   0.349   3.681
  563SOL    HW1 2588   2.824   0.364   3.757
  563SOL    HW2 2589   2.924   0.257   3.686
  564SOL     OW 2590   1.119   2.570   0.114
  564SOL    HW1 2591   1.168   2.647   0.155
  564SOL    HW2 2592   1.033   2.602   0.074
  565SOL     OW 2593   3.851   3.511   4.722
  565SOL    HW1 2594   3.809   3.449   4.656
  565SOL    HW2 2595   3.820   3.605   4.704
  566SOL     OW 2596   0.650   4.464   4.003
  566SOL    HW1 2597   0.627   4.551   4.048
  566SOL    HW2 2598   0.566   4.423   3.967
  567SOL     OW 2599   2.789   2.663   1.577
  567SOL    HW1 2600   2.876   2.699   1.610
  567SOL    HW2 2601   2.774   2.572   1.615
  568SOL     OW 2602   4.639   0.378   0.284
  568SOL    HW1 2603   4.725   0.327   0.290
  568SOL    HW2 2604   4.599   0.388   0.375
  569SOL     OW 2605   1.839   2.704   0.229
  569SOL    HW1 2606   1.793   2.793   0.230
  569SOL    HW2 2607   1.820   2.656   0.315
  570SOL     OW 2608   4.158   6.401   6.342
  570SOL    HW1 2609   4.112   6.346   6.412
  570SOL    HW2 2610   4.127   6.496   6.350
  571SOL     OW 2611   3.201   5.480   2.459
  571SOL    HW1 2612   3.193   5.492   2.557
  571SOL    HW2 2613   3.120   5.518   2.414
  572SOL     OW 2614   2.506   4.730   5.472
  572SOL    HW1 2615   2.499   4.678   5.557
  572SOL    HW2 2616   2.502   4.828   5.493
  573SOL     OW 2617   5.272   1.634   6.038
  573SOL    HW1 2618   5.257   1.538   6.062
  573SOL    HW2 2619   5.362   1.645   5.996
  574SOL     OW 2620   3.611   1.404   4.846
  574SOL    HW1 2621   3.703   1.432   4.875
  574SOL    HW2 2622   3.543   1.448   4.904
  575SOL     OW 2623   5.194   3.948   0.886
  575SOL    HW1 2624   5.251   4.002   0.947
  575SOL    HW2 2625   5.098   3.963   0.907
  576SOL     OW 2626   1.502   2.200   3.054
  576SOL    HW1 2627   1.505   2.296   3.026
  576SOL    HW2 2628   1.438   2.190   3.130
  577SOL     OW 2629   1.679   1.264   3.060
  577SOL    HW1 2630   1.734   1.212   3.126
  577SOL    HW2 2631   1.601   1.305   3.107
  578SOL     OW 2632   6.734   5.290   4.339
  578SOL    HW1 2633   6.644   5.246   4.342
  578SOL    HW2 2634   6.742   5.344   4.255
  579SOL     OW 2635   1.709   3.275   3.753
  579SOL    HW1 2636   1.611   3.251   3.755
  579SOL    HW2 2637   1.754   3.238   3.834
  580SOL     OW 2638   4.808   5.477   5.537
  580SOL    HW1 2639   4.793   5.413   5.463
  580SOL    HW2 2640   4.766   5.565   5.515
  581SOL     OW 2641   1.874   2.931   1.791
  581SOL    HW1 2642   1.830   2.851   1.750
  581SOL    HW2 2643   1.836   2.946   1.882
  582SOL     OW 2644   4.555   5.916   2.444
  582SOL    HW1 2645   4.498   5.998   2.453
  582SOL    HW2 2646   4.529   5.866   2.361
  583SOL     OW 2647   2.751   6.718   5.348
  583SOL    HW1 2648   2.733   6.815   5.368
  583SOL    HW2 2649   2.675   6.663   5.381
  584SOL     OW 2650   2.914   5.060   6.519
  584SOL    HW1 2651   2.932   5.158   6.507
  584SOL    HW2 2652   2.933   5.034   6.613
  585SOL     OW 2653   4.852   2.086   6.784
  585SOL    HW1 2654   4.830   2.000   6.738
  585SOL    HW2 2655   4.895   2.067   6.872
  586SOL     OW 2656   3.515   0.601   6.354
  586SOL    HW1 2657   3.465   0.672   6.304
  586SOL    HW2 2658   3.450   0.548   6.409
  587SOL     OW 2659   4.342   1.884   4.109
  587SOL    HW1 2660   4.351   1.958   4.042
  587SOL    HW2 2661   4.271   1.820   4.080
  588SOL     OW 2662   2.412   4.747   1.466
  588SOL    HW1 2663   2.437   4.689   1.388
  588SOL    HW2 2664   2.339   4.809   1.439
  589SOL     OW 2665   3.355   4.517   1.647
  589SOL    HW1 2666   3.270   4.566   1.664
  589SOL    HW2 2667   3.426   4.550   1.709
  590SOL     OW 2668   5.407   2.661   2.222
  590SOL    HW1 2669   5.333   2.662   2.155
  590SOL    HW2 2670   5.487   2.617   2.183
  591SOL     OW 2671   3.001   5.697   3.480
  591SOL    HW1 2672   3.077   5.756   3.457
  591SOL    HW2 2673   3.000   5.618   3.418
  592SOL     OW 2674   3.734   1.394   1.038
  592SOL    HW1 2675   3.818   1.438   1.070
  592SOL    HW2 2676   3.673   1.463   0.999
  593SOL     OW 2677   3.969   2.172   4.510
  593SOL    HW1 2678   3.906   2.129   4.575
  593SOL    HW2 2679   4.049   2.207   4.559
  594SOL     OW 2680   6.703   1.027   6.958
  594SOL    HW1 2681   6.752   0.960   6.903
  594SOL    HW2 2682   6.730   1.120   6.930
  595SOL     OW 2683   5.628   0.637   3.737
  595SOL    HW1 2684   5.543   0.608   3.782
  595SOL    HW2 2685   5.650   0.730   3.765
  596SOL     OW 2686   1.197   5.407   3.505
  596SOL    HW1 2687   1.165   5.358   3.424
  596SOL    HW2 2688   1.222   5.342   3.576
  597SOL     OW 2689   2.246   0.079   0.263
  597SOL    HW1 2690   2.220   7.004   0.283
  597SOL    HW2 2691   2.345   0.086   0.254
  598SOL     OW 2692   3.943   3.888   5.310
  598SOL    HW1 2693   3.982   3.814   5.256
  598SOL    HW2 2694   3.965   3.874   5.407
  599SOL     OW 2695   2.521   6.233   1.755
  599SOL    HW1 2696   2.470   6.317   1.773
  599SOL    HW2 2697   2.611   6.256   1.717
  600SOL     OW 2698   6.626   1.381   0.133
  600SOL    HW1 2699   6.530   1.382   0.105
  600SOL    HW2 2700   6.683   1.357   0.055
  601SOL     OW 2701   1.485   0.490   4.829
  601SOL    HW1 2702   1.471   0.392   4.810
  601SOL    HW2 2703   1.440   0.513   4.916
  602SOL     OW 2704   1.246   1.561   6.118
  602SOL    HW1 2705   1.153   1.590   6.142
  602SOL    HW2 2706   1.260   1.570   6.020
  603SOL     OW 2707   2.749   2.179   5.137
  603SOL    HW1 2708   2.834   2.180   5.191
  603SOL    HW2 2709   2.749   2.257   5.074
  604SOL     OW 2710   0.857   2.207   1.891
  604SOL    HW1 2711   0.818   2.161   1.972
  604SOL    HW2 2712   0.858   2.306   1.907
  605SOL     OW 2713   6.743   5.803   0.496
  605SOL    HW1 2714   6.685   5.791   0.576
  605SOL    HW2 2715   6.743   5.718   0.442
  606SOL     OW 2716   5.050   6.424   6.952
  606SOL    HW1 2717   5.029   6.520   6.971
  606SOL    HW2 2718   4.985   6.388   6.885
  607SOL     OW 2719   6.208   5.885   5.343
  607SOL    HW1 2720   6.167   5.961   5.392
  607SOL    HW2 2721   6.175   5.884   5.249
  608SOL     OW 2722   4.248   6.490   6.738
  608SOL    HW1 2723   4.156   6.463   6.710
  608SOL    HW2 2724   4.294   6.412   6.781
  609SOL     OW 2725   3.715   2.990   2.517
  609SOL    HW1 2726   3.808   3.008   2.547
  609SOL    HW2 2727   3.658   2.968   2.596
  610SOL     OW 2728   5.844   4.374   1.729
  610SOL    HW1 2729   5.920   4.331   1.681
  610SOL    HW2 2730   5.823   4.321   1.812
  611SOL     OW 2731   4.378   6.408   1.743
  611SOL    HW1 2732   4.440   6.476   1.781
  611SOL    HW2 2733   4.288   6.417   1.787
  612SOL     OW 2734   4.091   6.214   4.720
  612SOL    HW1 2735   4.086   6.290   4.784
  612SOL    HW2 2736   4.114   6.130   4.770
  613SOL     OW 2737   4.379   6.502   5.517
  613SOL    HW1 2738   4.330   6.444   5.582
  613SOL    HW2 2739   4.314   6.563   5.471
  614SOL     OW 2740   5.326   5.597   0.459
  614SOL    HW1 2741   5.239   5.548   0.463
  614SOL    HW2 2742   5.309   5.695   0.455
  615SOL     OW 2743   6.539   2.416   1.991
  615SOL    HW1 2744   6.613   2.369   1.943
  615SOL    HW2 2745   6.578   2.478   2.059
  616SOL     OW 2746   0.477   2.764   3.525
  616SOL    HW1 2747   0.383   2.793   3.507
  616SOL    HW2 2748   0.478   2.702   3.604
  617SOL     OW 2749   0.083   4.640   5.680
  617SOL    HW1 2750   0.126   4.722   5.642
  617SOL    HW2 2751   0.111   4.627   5.775
  618SOL     OW 2752   6.777   2.538   0.410
  618SOL    HW1 2753   6.848   2.485   0.364
  618SOL    HW2 2754   6.752   2.617   0.353
  619SOL     OW 2755   4.006   1.136   0.239
  619SOL    HW1 2756   4.036   1.042   0.253
  619SOL    HW2 2757   3.969   1.173   0.325
  620SOL     OW 2758   4.295   3.022   1.179
  620SOL    HW1 2759   4.210   3.069   1.204
  620SOL    HW2 2760   4.363   3.089   1.152
  621SOL     OW 2761   2.529   6.601   0.039
  621SOL    HW1 2762   2.610   6.632   7.009
  621SOL    HW2 2763   2.550   6.598   0.137
  622SOL     OW 2764   1.049   0.142   6.152
  622SOL    HW1 2765   1.056   0.213   6.221
  622SOL    HW2 2766   0.969   0.085   6.170
  623SOL     OW 2767   0.724   5.650   4.927
  623SOL    HW1 2768   0.777   5.612   4.851
  623SOL    HW2 2769   0.781   5.658   5.008
  624SOL     OW 2770   6.737   2.649   1.084
  624SOL    HW1 2771   6.762   2.650   0.987
  624SOL    HW2 2772   6.790   2.718   1.133
  625SOL     OW 2773   1.902   1.943   1.907
  625SOL    HW1 2774   1.994   1.908   1.925
  625SOL    HW2 2775   1.835   1.891   1.960
  626SOL     OW 2776   2.299   5.755   3.573
  626SOL    HW1 2777   2.329   5.843   3.608
  626SOL    HW2 2778   2.203   5.740   3.596
  627SOL     OW 2779   5.487   6.362   0.214
  627SOL    HW1 2780   5.579   6.365   0.174
  627SOL    HW2 2781   5.428   6.426   0.166
  628SOL     OW 2782   5.775   5.632   6.079
  628SOL    HW1 2783   5.873   5.622   6.060
  628SOL    HW2 2784   5.760   5.619   6.177
  629SOL     OW 2785   6.603   6.549   6.858
  629SOL    HW1 2786   6.699   6.540   6.832
  629SOL    HW2 2787   6.553   6.468   6.830
  630SOL     OW 2788   6.758   1.690   2.066
  630SOL    HW1 2789   6.846   1.684   2.113
  630SOL    HW2 2790   6.686   1.714   2.131
  631SOL     OW 2791   3.364   6.870   5.266
  631SOL    HW1 2792   3.407   6.903   5.182
  631SOL    HW2 2793   3.268   6.848   5.248
  632SOL     OW 2794   2.372   1.074   0.747
  632SOL    HW1 2795   2.457   1.022   0.749
  632SOL    HW2 2796   2.314   1.039   0.673
  633SOL     OW 2797   4.203   3.863   0.401
  633SOL    HW1 2798   4.194   3.947   0.347
  633SOL    HW2 2799   4.111   3.829   0.424
  634SOL     OW 2800   3.877   4.286   1.047
  634SOL    HW1 2801   3.853   4.226   0.971
  634SOL    HW2 2802   3.956   4.249   1.095
  635SOL     OW 2803   4.752   5.178   0.808
  635SOL    HW1 2804   4.670   5.179   0.866
  635SOL    HW2 2805   4.728   5.142   0.718
  636SOL     OW 2806   4.149   5.686   6.787
  636SOL    HW1 2807   4.130   5.592   6.814
  636SOL    HW2 2808   4.189   5.736   6.864
  637SOL     OW 2809   6.412   3.413   3.069
  637SOL    HW1 2810   6.333   3.381   3.121
  637SOL    HW2 2811   6.407   3.512   3.057
  638SOL     OW 2812   5.344   2.413   3.504
  638SOL    HW1 2813   5.316   2.508   3.521
  638SOL    HW2 2814   5.297   2.353   3.568
  639SOL     OW 2815   5.022   3.843   2.371
  639SOL    HW1 2816   4.970   3.773   2.323
  639SOL    HW2 2817   4.983   3.933   2.351
  640SOL     OW 2818   6.997   5.198   4.074
  640SOL    HW1 2819   7.006   5.297   4.077
  640SOL    HW2 2820   6.903   5.172   4.097
  641SOL     OW 2821   6.421   5.941   4.890
  641SOL    HW1 2822   6.506   5.930   4.839
  641SOL    HW2 2823   6.368   5.857   4.885
  642SOL     OW 2824   6.846   3.115   4.679
  642SOL    HW1 2825   6.842   3.073   4.769
  642SOL    HW2 2826   6.936   3.101   4.639
  643SOL     OW 2827   5.543   5.889   4.986
  643SOL    HW1 2828   5.490   5.951   5.044
  643SOL    HW2 2829   5.500   5.798   4.988
  644SOL     OW 2830   1.576   5.633   4.640
  644SOL    HW1 2831   1.662   5.583   4.638
  644SOL    HW2 2832   1.528   5.621   4.552
  645SOL     OW 2833   4.029   1.433   3.990
  645SOL    HW1 2834   4.079   1.520   3.994
  645SOL    HW2 2835   4.090   1.361   3.956
  646SOL     OW 2836   2.559   1.452   4.680
  646SOL    HW1 2837   2.525   1.498   4.598
  646SOL    HW2 2838   2.652   1.419   4.663
  647SOL     OW 2839   5.186   2.047   4.491
  647SOL    HW1 2840   5.105   1.991   4.475
  647SOL    HW2 2841   5.225   2.026   4.581
  648SOL     OW 2842   0.156   3.661   3.955
  648SOL    HW1 2843   0.135   3.563   3.962
  648SOL    HW2 2844   0.145   3.691   3.860
  649SOL     OW 2845   2.977   3.379   0.833
  649SOL    HW1 2846   2.967   3.339   0.924
  649SOL    HW2 2847   3.021   3.313   0.772
  650SOL     OW 2848   5.918   4.687   0.659
  650SOL    HW1 2849   5.906   4.653   0.752
  650SOL    HW2 2850   5.984   4.629   0.611
  651SOL     OW 2851   6.192   6.282   6.054
  651SOL    HW1 2852   6.217   6.186   6.040
  651SOL    HW2 2853   6.103   6.299   6.012
  652SOL     OW 2854   4.949   6.278   3.722
  652SOL    HW1 2855   4.874   6.341   3.743
  652SOL    HW2 2856   5.034   6.313   3.760
  653SOL     OW 2857   2.581   5.783   5.279
  653SOL    HW1 2858   2.490   5.823   5.289
  653SOL    HW2 2859   2.594   5.754   5.184
  654SOL     OW 2860   6.968   4.215   6.059
  654SOL    HW1 2861   6.898   4.192   6.126
  654SOL    HW2 2862   6.926   4.221   5.968
  655SOL     OW 2863   0.695   6.036   2.179
  655SOL    HW1 2864   0.659   5.947   2.151
  655SOL    HW2 2865   0.717   6.090   2.097
  656SOL     OW 2866   1.945   5.219   1.445
  656SOL    HW1 2867   2.037   5.184   1.425
  656SOL    HW2 2868   1.944   5.318   1.436
  657SOL     OW 2869   1.614   2.489   1.607
  657SOL    HW1 2870   1.555   2.412   1.584
  657SOL    HW2 2871   1.691   2.457   1.662
  658SOL     OW 2872   2.958   3.914   6.627
  658SOL    HW1 2873   2.967   4.009   6.656
  658SOL    HW2 2874   3.013   3.898   6.544
  659SOL     OW 2875   2.257   6.050   6.180
  659SOL    HW1 2876   2.307   6.003   6.106
  659SOL    HW2 2877   2.323   6.085   6.247
  660SOL     OW 2878   5.559   4.903   2.505
  660SOL    HW1 2879   5.626   4.964   2.548
  660SOL    HW2 2880   5.523   4.947   2.423
  661SOL     OW 2881   4.270   5.323   3.092
  661SOL    HW1 2882   4.247   5.227   3.075
  661SOL    HW2 2883   4.343   5.352   3.030
  662SOL     OW 2884   3.923   0.061   5.754
  662SOL    HW1 2885   3.888   0.092   5.665
  662SOL    HW2 2886   3.864   0.093   5.827
  663SOL     OW 2887   2.254   4.024   6.392
  663SOL    HW1 2888   2.212   4.076   6.318
  663SOL    HW2 2889   2.191   4.021   6.470
  664SOL     OW 2890   0.336   5.140   6.498
  664SOL    HW1 2891   0.324   5.180   6.407
  664SOL    HW2 2892   0.424   5.167   6.536
  665SOL     OW 2893   5.090   4.740   1.361
  665SOL    HW1 2894   5.025   4.760   1.287
  665SOL    HW2 2895   5.039   4.726   1.446
  666SOL     OW 2896   4.766   2.284   2.412
  666SOL    HW1 2897   4.671   2.256   2.408
  666SOL    HW2 2898   4.825   2.203   2.417
  667SOL     OW 2899   0.833   4.728   3.535
  667SOL    HW1 2900   0.784   4.768   3.457
  667SOL    HW2 2901   0.828   4.629   3.530
  668SOL     OW 2902   5.317   6.551   6.466
  668SOL    HW1 2903   5.321   6.548   6.566
  668SOL    HW2 2904   5.403   6.587   6.430
  669SOL     OW 2905   4.394   0.216   2.879
  669SOL    HW1 2906   4.472   0.176   2.831
  669SOL    HW2 2907   4.328   0.249   2.812
  670SOL     OW 2908   3.318   2.602   1.026
  670SOL    HW1 2909   3.226   2.564   1.029
  670SOL    HW2 2910   3.354   2.609   1.119
  671SOL     OW 2911   1.719   6.613   0.221
  671SOL    HW1 2912   1.632   6.641   0.180
  671SOL    HW2 2913   1.759   6.691   0.270
  672SOL     OW 2914   1.040   5.069   2.379
  672SOL    HW1 2915   1.022   5.156   2.333
  672SOL    HW2 2916   1.044   4.996   2.312
  673SOL     OW 2917   0.021   6.958   1.547
  673SOL    HW1 2918   0.020   7.012   1.631
  673SOL    HW2 2919   6.949   6.923   1.529
  674SOL     OW 2920   0.649   1.535   5.097
  674SOL    HW1 2921   0.639   1.594   5.176
  674SOL    HW2 2922   0.723   1.569   5.039
  675SOL     OW 2923   0.686   1.044   3.146
  675SOL    HW1 2924   0.634   0.959   3.149
  675SOL    HW2 2925   0.629   1.119   3.179
  676SOL     OW 2926   3.207   6.052   2.697
  676SOL    HW1 2927   3.206   5.967   2.645
  676SOL    HW2 2928   3.160   6.124   2.645
  677SOL     OW 2929   5.745   2.236   0.707
  677SOL    HW1 2930   5.698   2.255   0.794
  677SOL    HW2 2931   5.772   2.140   0.704
  678SOL     OW 2932   1.896   0.960   5.446
  678SOL    HW1 2933   1.947   0.980   5.362
  678SOL    HW2 2934   1.902   0.863   5.467
  679SOL     OW 2935   4.153   1.862   3.817
  679SOL    HW1 2936   4.158   1.819   3.727
  679SOL    HW2 2937   4.232   1.921   3.831
  680SOL     OW 2938   5.385   6.055   5.545
  680SOL    HW1 2939   5.389   5.963   5.506
  680SOL    HW2 2940   5.437   6.118   5.486
  681SOL     OW 2941   5.651   5.119   1.583
  681SOL    HW1 2942   5.606   5.040   1.542
  681SOL    HW2 2943   5.696   5.092   1.668
  682SOL     OW 2944   0.285   1.003   0.732
  682SOL    HW1 2945   0.340   0.920   0.721
  682SOL    HW2 2946   0.347   1.081   0.746
  683SOL     OW 2947   4.400   3.450   0.275
  683SOL    HW1 2948   4.456   3.436   0.357
  683SOL    HW2 2949   4.386   3.363   0.229
  684SOL     OW 2950   0.350   0.786   0.010
  684SOL    HW1 2951   0.348   0.766   0.108
  684SOL    HW2 2952   0.445   0.787   6.999
  685SOL     OW 2953   3.845   1.348   3.081
  685SOL    HW1 2954   3.876   1.381   3.170
  685SOL    HW2 2955   3.796   1.421   3.034
  686SOL     OW 2956   4.870   3.112   3.446
  686SOL    HW1 2957   4.880   3.150   3.354
  686SOL    HW2 2958   4.833   3.019   3.440
  687SOL     OW 2959   0.659   2.316   5.000
  687SOL    HW1 2960   0.584   2.380   5.019
  687SOL    HW2 2961   0.624   2.239   4.946
  688SOL     OW 2962   1.122   1.770   0.332
  688SOL    HW1 2963   1.177   1.851   0.312
  688SOL    HW2 2964   1.037   1.797   0.377
  689SOL     OW 2965   6.763   4.557   6.485
  689SOL    HW1 2966   6.665   4.539   6.488
  689SOL    HW2 2967   6.784   4.618   6.408
  690SOL     OW 2968   0.174   4.084   2.809
  690SOL    HW1 2969   0.271   4.062   2.820
  690SOL    HW2 2970   0.132   4.093   2.899
  691SOL     OW 2971   2.398   6.869   0.526
  691SOL    HW1 2972   2.399   6.969   0.528
  691SOL    HW2 2973   2.361   6.838   0.438
  692SOL     OW 2974   3.594   0.192   3.859
  692SOL    HW1 2975   3.689   0.204   3.890
  692SOL    HW2 2976   3.557   0.109   3.900
  693SOL     OW 2977   5.765   0.856   3.554
  693SOL    HW1 2978   5.702   0.878   3.480
  693SOL    HW2 2979   5.770   0.757   3.567
  694SOL     OW 2980   4.357   6.147   3.429
  694SOL    HW1 2981   4.365   6.231   3.484
  694SOL    HW2 2982   4.363   6.171   3.332
  695SOL     OW 2983   4.256   0.043   4.042
  695SOL    HW1 2984   4.164   0.004   4.052
  695SOL    HW2 2985   4.288   0.029   3.948
  696SOL     OW 2986   3.933   4.869   2.351
  696SOL    HW1 2987   3.892   4.819   2.275
  696SOL    HW2 2988   4.022   4.829   2.372
  697SOL     OW 2989   2.158   3.488   3.738
  697SOL    HW1 2990   2.155   3.587   3.722
  697SOL    HW2 2991   2.239   3.466   3.793
  698SOL     OW 2992   5.058   6.708   0.551
  698SOL    HW1 2993   5.096   6.627   0.595
  698SOL    HW2 2994   4.971   6.732   0.594
  699SOL     OW 2995   2.063   3.415   6.149
  699SOL    HW1 2996   2.007   3.493   6.178
  699SOL    HW2 2997   2.051   3.339   6.213
  700SOL     OW 2998   2.870   0.165   2.365
  700SOL    HW1 2999   2.775   0.135   2.379
  700SOL    HW2 3000   2.922   0.149   2.448
  701SOL     OW 3001   6.653   3.820   5.831
  701SOL    HW1 3002   6.650   3.771   5.918
  701SOL    HW2 3003   6.560   3.836   5.799
  702SOL     OW 3004   1.748   6.341   4.512
  702SOL    HW1 3005   1.786   6.431   4.491
  702SOL    HW2 3006   1.776   6.312   4.603
  703SOL     OW 3007   3.677   3.648   6.181
  703SOL    HW1 3008   3.610   3.617   6.249
  703SOL    HW2 3009   3.764   3.668   6.226
  704SOL     OW 3010   1.812   2.417   0.171
  704SOL    HW1 3011   1.886   2.466   0.125
  704SOL    HW2 3012   1.828   2.417   0.270
  705SOL     OW 3013   5.749   5.363   3.233
  705SOL    HW1 3014   5.838   5.385   3.194
  705SOL    HW2 3015   5.761   5.327   3.326
  706SOL     OW 3016   4.154   2.283   4.686
  706SOL    HW1 3017   4.186   2.255   4.776
  706SOL    HW2 3018   4.166   2.382   4.676
  707SOL     OW 3019   4.404   5.425   2.435
  707SOL    HW1 3020   4.477   5.485   2.466
  707SOL    HW2 3021   4.355   5.469   2.359
  708SOL     OW 3022   4.477   7.011   1.898
  708SOL    HW1 3023   4.563   7.009   1.949
  708SOL    HW2 3024   4.421   0.068   1.930
  709SOL     OW 3025   0.566   6.135   0.893
  709SOL    HW1 3026   0.633   6.102   0.960
  709SOL    HW2 3027   0.569   6.234   0.889
  710SOL     OW 3028   3.886   3.014   1.260
  710SOL    HW1 3029   3.819   3.012   1.334
  710SOL    HW2 3030   3.926   2.924   1.248
  711SOL     OW 3031   6.945   3.530   5.633
  711SOL    HW1 3032   6.904   3.514   5.723
  711SOL    HW2 3033   0.012   3.579   5.643
  712SOL     OW 3034   4.843   2.775   0.944
  712SOL    HW1 3035   4.816   2.861   0.988
  712SOL    HW2 3036   4.910   2.794   0.872
  713SOL     OW 3037   4.293   2.679   5.746
  713SOL    HW1 3038   4.387   2.658   5.719
  713SOL    HW2 3039   4.282   2.664   5.845
  714SOL     OW 3040   0.200   4.562   3.439
  714SOL    HW1 3041   0.127   4.630   3.451
  714SOL    HW2 3042   0.270   4.576   3.508
  715SOL     OW 3043   5.191   6.008   6.897
  715SOL    HW1 3044   5.170   5.928   6.953
  715SOL    HW2 3045   5.187   6.090   6.953
  716SOL     OW 3046   0.634   0.704   1.886
  716SOL    HW1 3047   0.591   0.714   1.796
  716SOL    HW2 3048   0.658   0.609   1.902
  717SOL     OW 3049   6.522   4.308   4.601
  717SOL    HW1 3050   6.434   4.266   4.628
  717SOL    HW2 3051   6.596   4.260   4.647
  718SOL     OW 3052   4.719   2.680   6.038
  718SOL    HW1 3053   4.629   2.722   6.037
  718SOL    HW2 3054   4.725   2.613   6.112
  719SOL     OW 3055   6.415   0.935   2.677
  719SOL    HW1 3056   6.448   0.842   2.661
  719SOL    HW2 3057   6.318   0.941   2.652
  720SOL     OW 3058   2.551   0.608   6.357
  720SOL    HW1 3059   2.529   0.705   6.369
  720SOL    HW2 3060   2.476   0.552   6.393
  721SOL     OW 3061   2.577   1.685   3.223
  721SOL    HW1 3062   2.536   1.718   3.138
  721SOL    HW2 3063   2.512   1.625   3.270
  722SOL     OW 3064   3.352   0.184   5.587
  722SOL    HW1 3065   3.293   0.127   5.643
  722SOL    HW2 3066   3.361   0.274   5.629
  723SOL     OW 3067   1.709   4.462   3.316
  723SOL    HW1 3068   1.795   4.499   3.282
  723SOL    HW2 3069   1.664   4.531   3.374
  724SOL     OW 3070   1.170   2.751   4.195
  724SOL    HW1 3071   1.225   2.713   4.269
  724SOL    HW2 3072   1.113   2.678   4.156
  725SOL     OW 3073   2.096   5.419   1.020
  725SOL    HW1 3074   2.158   5.341   1.028
  725SOL    HW2 3075   2.082   5.441   0.923
  726SOL     OW 3076   3.421   4.968   1.182
  726SOL    HW1 3077   3.418   5.046   1.244
  726SOL    HW2 3078   3.384   4.994   1.093
  727SOL     OW 3079   5.738   5.327   5.534
  727SOL    HW1 3080   5.694   5.303   5.447
  727SOL    HW2 3081   5.832   5.293   5.533
  728SOL     OW 3082   6.269   2.981   4.459
  728SOL    HW1 3083   6.233   2.938   4.377
  728SOL    HW2 3084   6.338   2.922   4.500
  729SOL     OW 3085   0.455   2.076   1.635
  729SOL    HW1 3086   0.445   2.004   1.704
  729SOL    HW2 3087   0.533   2.134   1.658
  730SOL     OW 3088   5.718   0.200   4.676
  730SOL    HW1 3089   5.724   0.161   4.583
  730SOL    HW2 3090   5.676   0.133   4.737
  731SOL     OW 3091   4.860   4.620   6.641
  731SOL    HW1 3092   4.860   4.611   6.740
  731SOL    HW2 3093   4.897   4.709   6.615
  732SOL     OW 3094   6.250   3.480   1.487
  732SOL    HW1 3095   6.187   3.527   1.549
  732SOL    HW2 3096   6.265   3.386   1.518
  733SOL     OW 3097   5.190   6.844   5.103
  733SOL    HW1 3098   5.230   6.879   5.187
  733SOL    HW2 3099   5.207   6.746   5.095
  734SOL     OW 3100   6.511   4.682   2.635
  734SOL    HW1 3101   6.542   4.604   2.690
  734SOL    HW2 3102   6.576   4.700   2.562
  735SOL     OW 3103   4.656   1.639   0.153
  735SOL    HW1 3104   4.666   1.583   0.236
  735SOL    HW2 3105   4.746   1.657   0.114
  736SOL     OW 3106   6.634   1.577   3.838
  736SOL    HW1 3107   6.598   1.619   3.922
  736SOL    HW2 3108   6.734   1.575   3.842
  737SOL     OW 3109   5.029   1.795   4.747
  737SOL    HW1 3110   5.102   1.863   4.744
  737SOL    HW2 3111   5.015   1.766   4.841
  738SOL     OW 3112   1.999   3.890   1.213
  738SOL    HW1 3113   2.065   3.896   1.139
  738SOL    HW2 3114   2.027   3.819   1.278
  739SOL     OW 3115   5.068   0.991   3.606
  739SOL    HW1 3116   5.160   0.959   3.582
  739SOL    HW2 3117   5.010   0.912   3.628
  740SOL     OW 3118   6.300   1.036   1.482
  740SOL    HW1 3119   6.305   1.095   1.402
  740SOL    HW2 3120   6.301   0.941   1.454
  741SOL     OW 3121   1.787   0.254   3.491
  741SOL    HW1 3122   1.748   0.346   3.492
  741SOL    HW2 3123   1.881   0.258   3.455
  742SOL     OW 3124   2.639   6.638   1.729
  742SOL    HW1 3125   2.667   6.639   1.825
  742SOL    HW2 3126   2.541   6.660   1.723
  743SOL     OW 3127   0.376   4.812   3.535
  743SOL    HW1 3128   0.340   4.742   3.597
  743SOL    HW2 3129   0.461   4.780   3.493
  744SOL     OW 3130   5.291   0.545   0.744
  744SOL    HW1 3131   5.214   0.537   0.680
  744SOL    HW2 3132   5.377   0.533   0.694
  745SOL     OW 3133   1.695   5.266   4.681
  745SOL    HW1 3134   1.678   5.180   4.730
  745SOL    HW2 3135   1.652   5.262   4.591
  746SOL     OW 3136   6.767   3.893   6.984
  746SOL    HW1 3137   6.679   3.845   6.991
  746SOL    HW2 3138   6.752   3.991   6.986
  747SOL     OW 3139   3.610   6.764   4.352
  747SOL    HW1 3140   3.548   6.842   4.360
  747SOL    HW2 3141   3.557   6.681   4.333
  748SOL     OW 3142   4.008   4.923   1.841
  748SOL    HW1 3143   4.043   4.830   1.847
  748SOL    HW2 3144   4.084   4.988   1.840
  749SOL     OW 3145   6.152   3.831   4.929
  749SOL    HW1 3146   6.113   3.912   4.884
  749SOL    HW2 3147   6.151   3.844   5.028
  750SOL     OW 3148   2.769   1.931   1.678
  750SOL    HW1 3149   2.788   2.019   1.634
  750SOL    HW2 3150   2.829   1.920   1.757
  751SOL     OW 3151   3.788   2.100   0.121
  751SOL    HW1 3152   3.751   2.193   0.108
  751SOL    HW2 3153   3.886   2.101   0.105
  752SOL     OW 3154   3.498   1.180   2.160
  752SOL    HW1 3155   3.455   1.106   2.109
  752SOL    HW2 3156   3.548   1.240   2.096
  753SOL     OW 3157   1.446   3.553   5.531
  753SOL    HW1 3158   1.434   3.651   5.514
  753SOL    HW2 3159   1.494   3.511   5.455
  754SOL     OW 3160   4.870   2.320   5.050
  754SOL    HW1 3161   4.838   2.237   5.003
  754SOL    HW2 3162   4.792   2.378   5.073
  755SOL     OW 3163   1.331   4.406   5.002
  755SOL    HW1 3164   1.410   4.375   5.055
  755SOL    HW2 3165   1.362   4.436   4.911
  756SOL     OW 3166   2.943   6.624   6.630
  756SOL    HW1 3167   2.898   6.571   6.558
  756SOL    HW2 3168   2.972   6.712   6.593
  757SOL     OW 3169   0.433   0.312   4.387
  757SOL    HW1 3170   0.470   0.326   4.295
  757SOL    HW2 3171   0.505   0.330   4.454
  758SOL     OW 3172   3.280   0.005   2.773
  758SOL    HW1 3173   3.343   7.018   2.695
  758SOL    HW2 3174   3.246   0.099   2.780
  759SOL     OW 3175   0.365   1.725   2.218
  759SOL    HW1 3176   0.435   1.673   2.170
  759SOL    HW2 3177   0.292   1.751   2.155
  760SOL     OW 3178   6.150   0.064   4.343
  760SOL    HW1 3179   6.152   6.989   4.376
  760SOL    HW2 3180   6.202   0.122   4.405
  761SOL     OW 3181   5.223   4.138   6.124
  761SOL    HW1 3182   5.306   4.193   6.137
  761SOL    HW2 3183   5.249   4.047   6.091
  762SOL     OW 3184   2.050   6.647   4.723
  762SOL    HW1 3185   2.072   6.576   4.656
  762SOL    HW2 3186   2.132   6.672   4.774
  763SOL     OW 3187   4.357   5.129   6.108
  763SOL    HW1 3188   4.319   5.221   6.115
  763SOL    HW2 3189   4.283   5.063   6.093
  764SOL     OW 3190   5.575   0.948   5.261
  764SOL    HW1 3191   5.498   0.911   5.313
  764SOL    HW2 3192   5.657   0.947   5.319
  765SOL     OW 3193   1.826   5.159   1.691
  765SOL    HW1 3194   1.875   5.165   1.604
  765SOL    HW2 3195   1.891   5.170   1.766
  766SOL     OW 3196   2.380   2.299   6.128
  766SOL    HW1 3197   2.314   2.252   6.070
  766SOL    HW2 3198   2.467   2.307   6.079
  767SOL     OW 3199   6.500   6.153   2.375
  767SOL    HW1 3200   6.417   6.121   2.420
  767SOL    HW2 3201   6.481   6.239   2.327
  768SOL     OW 3202   2.632   6.042   2.512
  768SOL    HW1 3203   2.579   5.991   2.579
  768SOL    HW2 3204   2.664   5.980   2.440
  769SOL     OW 3205   2.206   0.756   5.581
  769SOL    HW1 3206   2.226   0.853   5.566
  769SOL    HW2 3207   2.257   0.702   5.514
  770SOL     OW 3208   1.763   4.300   3.006
  770SOL    HW1 3209   1.679   4.344   3.037
  770SOL    HW2 3210   1.804   4.354   2.933
  771SOL     OW 3211   1.014   4.914   2.863
  771SOL    HW1 3212   0.969   4.979   2.801
  771SOL    HW2 3213   1.113   4.920   2.849
  772SOL     OW 3214   5.334   5.161   6.723
  772SOL    HW1 3215   5.386   5.232   6.769
  772SOL    HW2 3216   5.394   5.084   6.702
  773SOL     OW 3217   0.434   4.369   3.912
  773SOL    HW1 3218   0.401   4.274   3.904
  773SOL    HW2 3219   0.358   4.427   3.942
  774SOL     OW 3220   1.978   1.448   1.789
  774SOL    HW1 3221   1.938   1.360   1.763
  774SOL    HW2 3222   1.911   1.501   1.840
  775SOL     OW 3223   1.735   2.569   3.836
  775SOL    HW1 3224   1.806   2.577   3.907
  775SOL    HW2 3225   1.711   2.660   3.804
  776SOL     OW 3226   1.469   0.103   5.667
  776SOL    HW1 3227   1.451   0.105   5.568
  776SOL    HW2 3228   1.458   0.195   5.704
  777SOL     OW 3229   2.031   4.236   1.868
  777SOL    HW1 3230   2.042   4.288   1.784
  777SOL    HW2 3231   2.100   4.163   1.872
  778SOL     OW 3232   2.472   1.229   2.135
  778SOL    HW1 3233   2.530   1.159   2.095
  778SOL    HW2 3234   2.525   1.287   2.196
  779SOL     OW 3235   6.262   2.491   2.273
  779SOL    HW1 3236   6.304   2.471   2.362
  779SOL    HW2 3237   6.274   2.588   2.251
  780SOL     OW 3238   0.578   3.623   3.959
  780SOL    HW1 3239   0.640   3.604   4.035
  780SOL    HW2 3240   0.575   3.544   3.898
  781SOL     OW 3241   6.262   0.010   0.142
  781SOL    HW1 3242   6.200   0.019   0.220
  781SOL    HW2 3243   6.290   6.934   0.132
  782SOL     OW 3244   1.386   3.860   6.673
  782SOL    HW1 3245   1.441   3.942   6.689
  782SOL    HW2 3246   1.362   3.854   6.576
  783SOL     OW 3247   4.980   4.833   2.318
  783SOL    HW1 3248   4.972   4.820   2.219
  783SOL    HW2 3249   5.025   4.754   2.359
  784SOL     OW 3250   4.644   5.067   0.564
  784SOL    HW1 3251   4.723   5.077   0.504
  784SOL    HW2 3252   4.612   4.972   0.562
  785SOL     OW 3253   0.193   2.102   3.667
  785SOL    HW1 3254   0.180   2.124   3.570
  785SOL    HW2 3255   0.274   2.044   3.678
  786SOL     OW 3256   0.992   0.468   3.055
  786SOL    HW1 3257   0.973   0.546   3.114
  786SOL    HW2 3258   0.963   0.490   2.961
  787SOL     OW 3259   1.662   0.235   6.797
  787SOL    HW1 3260   1.705   0.157   6.843
  787SOL    HW2 3261   1.673   0.316   6.854
  788SOL     OW 3262   3.883   1.446   0.289
  788SOL    HW1 3263   3.935   1.510   0.233
  788SOL    HW2 3264   3.866   1.362   0.237
  789SOL     OW 3265   4.516   4.139   1.283
  789SOL    HW1 3266   4.591   4.072   1.283
  789SOL    HW2 3267   4.522   4.195   1.200
  790SOL     OW 3268   2.064   1.209   2.965
  790SOL    HW1 3269   2.063   1.308   2.951
  790SOL    HW2 3270   2.120   1.186   3.044
  791SOL     OW 3271   1.481   5.607   4.381
  791SOL    HW1 3272   1.522   5.540   4.319
  791SOL    HW2 3273   1.495   5.699   4.346
  792SOL     OW 3274   0.806   1.095   1.038
  792SOL    HW1 3275   0.851   1.008   1.059
  792SOL    HW2 3276   0.710   1.078   1.017
  793SOL     OW 3277   4.938   4.931   3.735
  793SOL    HW1 3278   4.977   4.994   3.802
  793SOL    HW2 3279   4.892   4.856   3.783
  794SOL     OW 3280   3.183   3.866   5.969
  794SOL    HW1 3281   3.184   3.867   5.869
  794SOL    HW2 3282   3.164   3.773   6.001
  795SOL     OW 3283   3.494   6.685   4.783
  795SOL    HW1 3284   3.553   6.728   4.714
  795SOL    HW2 3285   3.544   6.678   4.869
  796SOL     OW 3286   6.795   2.456   6.055
  796SOL    HW1 3287   6.726   2.507   6.004
  796SOL    HW2 3288   6.884   2.467   6.011
  797SOL     OW 3289   5.938   2.445   1.279
  797SOL    HW1 3290   5.988   2.417   1.361
  797SOL    HW2 3291   5.912   2.365   1.227
  798SOL     OW 3292   3.066   6.275   2.125
  798SOL    HW1 3293   3.153   6.290   2.078
  798SOL    HW2 3294   2.991   6.309   2.068
  799SOL     OW 3295   0.070   0.145   6.144
  799SOL    HW1 3296   0.123   0.153   6.060
  799SOL    HW2 3297   0.009   0.224   6.153
  800SOL     OW 3298   5.289   1.639   2.788
  800SOL    HW1 3299   5.296   1.544   2.817
  800SOL    HW2 3300   5.343   1.697   2.849
  801SOL     OW 3301   2.155   4.597   4.710
  801SOL    HW1 3302   2.167   4.652   4.627
  801SOL    HW2 3303   2.116   4.509   4.685
  802SOL     OW 3304   2.883   1.839   1.202
  802SOL    HW1 3305   2.801   1.890   1.175
  802SOL    HW2 3306   2.857   1.748   1.234
  803SOL     OW 3307   1.049   0.202   5.874
  803SOL    HW1 3308   1.052   0.176   5.971
  803SOL    HW2 3309   0.955   0.226   5.849
  804SOL     OW 3310   5.751   6.375   0.152
  804SOL    HW1 3311   5.817   6.388   0.079
  804SOL    HW2 3312   5.778   6.297   0.209
  805SOL     OW 3313   3.142   0.923   3.529
  805SOL    HW1 3314   3.076   0.856   3.495
  805SOL    HW2 3315   3.202   0.950   3.454
  806SOL     OW 3316   4.949   1.366   4.051
  806SOL    HW1 3317   4.909   1.434   3.990
  806SOL    HW2 3318   4.901   1.367   4.139
  807SOL     OW 3319   1.532   0.746   5.402
  807SOL    HW1 3320   1.483   0.691   5.334
  807SOL    HW2 3321   1.472   0.818   5.436
  808SOL     OW 3322   4.040   3.961   6.330
  808SOL    HW1 3323   4.033   3.951   6.230
  808SOL    HW2 3324   4.120   3.912   6.362
  809SOL     OW 3325   0.877   4.536   1.531
  809SOL    HW1 3326   0.879   4.511   1.434
  809SOL    HW2 3327   0.788   4.576   1.552
  810SOL     OW 3328   3.148   4.043   1.281
  810SOL    HW1 3329   3.083   4.039   1.357
  810SOL    HW2 3330   3.166   3.951   1.247
  811SOL     OW 3331   5.246   5.803   5.455
  811SOL    HW1 3332   5.221   5.774   5.548
  811SOL    HW2 3333   5.184   5.875   5.425
  812SOL     OW 3334   0.308   0.632   2.515
  812SOL    HW1 3335   0.316   0.566   2.440
  812SOL    HW2 3336   0.212   0.639   2.543
  813SOL     OW 3337   4.281   0.251   4.266
  813SOL    HW1 3338   4.281   0.195   4.349
  813SOL    HW2 3339   4.288   0.191   4.185
  814SOL     OW 3340   5.629   6.286   2.642
  814SOL    HW1 3341   5.674   6.345   2.575
  814SOL    HW2 3342   5.583   6.343   2.711
  815SOL     OW 3343   0.321   3.495   3.661
  815SOL    HW1 3344   0.269   3.421   3.703
  815SOL    HW2 3345   0.321   3.484   3.562
  816SOL     OW 3346   6.202   6.060   0.552
  816SOL    HW1 3347   6.284   6.117   0.551
  816SOL    HW2 3348   6.184   6.026   0.459
  817SOL     OW 3349   1.936   4.934   1.299
  817SOL    HW1 3350   1.902   5.024   1.328
  817SOL    HW2 3351   1.885   4.862   1.346
  818SOL     OW 3352   5.974   2.495   2.890
  818SOL    HW1 3353   5.955   2.504   2.792
  818SOL    HW2 3354   5.924   2.416   2.926
  819SOL     OW 3355   5.999   2.517   2.503
  819SOL    HW1 3356   5.933   2.480   2.569
  819SOL    HW2 3357   5.992   2.466   2.417
  820SOL     OW 3358   3.998   2.098   5.068
  820SOL    HW1 3359   3.927   2.151   5.114
  820SOL    HW2 3360   3.956   2.029   5.009
  821SOL     OW 3361   0.248   3.621   0.740
  821SOL    HW1 3362   0.230   3.718   0.727
  821SOL    HW2 3363   0.347   3.606   0.748
  822SOL     OW 3364   0.791   3.730   3.552
  822SOL    HW1 3365   0.836   3.644   3.573
  822SOL    HW2 3366   0.764   3.775   3.638
  823SOL     OW 3367   5.361   4.002   6.410
  823SOL    HW1 3368   5.391   3.934   6.343
  823SOL    HW2 3369   5.277   3.970   6.454
  824SOL     OW 3370   4.844   1.555   6.361
  824SOL    HW1 3371   4.789   1.617   6.418
  824SOL    HW2 3372   4.842   1.587   6.267
  825SOL     OW 3373   6.797   5.193   1.489
  825SOL    HW1 3374   6.825   5.195   1.585
  825SOL    HW2 3375   6.877   5.205   1.430
  826SOL     OW 3376   3.912   2.502   6.014
  826SOL    HW1 3377   3.948   2.536   6.100
  826SOL    HW2 3378   3.975   2.435   5.974
  827SOL     OW 3379   2.763   4.470   5.436
  827SOL    HW1 3380   2.804   4.487   5.346
  827SOL    HW2 3381   2.816   4.518   5.506
  828SOL     OW 3382   5.200   6.230   0.048
  828SOL    HW1 3383   5.187   6.239   0.146
  828SOL    HW2 3384   5.168   6.312   0.001
  829SOL     OW 3385   4.038   3.785   2.378
  829SOL    HW1 3386   4.083   3.696   2.386
  829SOL    HW2 3387   3.942   3.776   2.403
  830SOL     OW 3388   5.550   4.975   6.702
  830SOL    HW1 3389   5.615   4.974   6.626
  830SOL    HW2 3390   5.571   4.899   6.763
  831SOL     OW 3391   6.395   0.402   0.192
  831SOL    HW1 3392   6.441   0.471   0.136
  831SOL    HW2 3393   6.377   0.320   0.136
  832SOL     OW 3394   4.452   1.074   2.694
  832SOL    HW1 3395   4.378   1.082   2.627
  832SOL    HW2 3396   4.440   1.143   2.766
  833SOL     OW 3397   0.922   3.626   6.701
  833SOL    HW1 3398   0.866   3.623   6.618
  833SOL    HW2 3399   1.017   3.605   6.677
  834SOL     OW 3400   3.823   3.986   1.136
  834SOL    HW1 3401   3.842   4.018   1.229
  834SOL    HW2 3402   3.727   4.000   1.115
  835SOL     OW 3403   3.587   0.059   5.757
  835SOL    HW1 3404   3.487   0.067   5.766
  835SOL    HW2 3405   3.620   7.005   5.816
  836SOL     OW 3406   3.978   6.505   5.438
  836SOL    HW1 3407   3.942   6.542   5.524
  836SOL    HW2 3408   3.997   6.407   5.449
  837SOL     OW 3409   5.571   0.211   1.267
  837SOL    HW1 3410   5.558   0.310   1.269
  837SOL    HW2 3411   5.486   0.167   1.238
  838SOL     OW 3412   1.927   1.057   4.433
  838SOL    HW1 3413   1.908   1.137   4.376
  838SOL    HW2 3414   1.911   1.079   4.529
  839SOL     OW 3415   1.285   1.753   2.298
  839SOL    HW1 3416   1.276   1.660   2.335
  839SOL    HW2 3417   1.202   1.805   2.319
  840SOL     OW 3418   6.871   5.659   0.249
  840SOL    HW1 3419   6.860   5.709   0.163
  840SOL    HW2 3420   6.960   5.614   0.251
  841SOL     OW 3421   3.283   5.099   6.513
  841SOL    HW1 3422   3.331   5.155   6.447
  841SOL    HW2 3423   3.191   5.078   6.479
  842SOL     OW 3424   3.682   0.298   4.614
  842SOL    HW1 3425   3.635   0.357   4.548
  842SOL    HW2 3426   3.621   0.223   4.641
  843SOL     OW 3427   1.058   1.119   1.253
  843SOL    HW1 3428   1.011   1.044   1.301
  843SOL    HW2 3429   1.147   1.135   1.296
  844SOL     OW 3430   5.837   0.374   0.823
  844SOL    HW1 3431   5.818   0.456   0.877
  844SOL    HW2 3432   5.800   0.293   0.869
  845SOL     OW 3433   4.760   4.131   4.307
  845SOL    HW1 3434   4.790   4.042   4.341
  845SOL    HW2 3435   4.747   4.193   4.385
  846SOL     OW 3436   2.223   1.558   5.898
  846SOL    HW1 3437   2.267   1.468   5.900
  846SOL    HW2 3438   2.271   1.617   5.834
  847SOL     OW 3439   1.563   3.194   1.216
  847SOL    HW1 3440   1.538   3.104   1.183
  847SOL    HW2 3441   1.480   3.246   1.237
  848SOL     OW 3442   6.636   0.344   5.639
  848SOL    HW1 3443   6.724   0.338   5.687
  848SOL    HW2 3444   6.578   0.268   5.668
  849SOL     OW 3445   6.544   4.049   5.535
  849SOL    HW1 3446   6.615   4.099   5.586
  849SOL    HW2 3447   6.540   4.085   5.441
  850SOL     OW 3448   4.996   1.316   3.616
  850SOL    HW1 3449   4.975   1.257   3.694
  850SOL    HW2 3450   4.960   1.275   3.532
  851SOL     OW 3451   6.678   2.563   2.166
  851SOL    HW1 3452   6.640   2.611   2.245
  851SOL    HW2 3453   6.700   2.629   2.095
  852SOL     OW 3454   1.332   3.510   0.206
  852SOL    HW1 3455   1.355   3.482   0.299
  852SOL    HW2 3456   1.290   3.434   0.157
  853SOL     OW 3457   1.069   4.422   0.925
  853SOL    HW1 3458   1.000   4.350   0.925
  853SOL    HW2 3459   1.105   4.433   1.017
  854SOL     OW 3460   5.651   4.867   0.766
  854SOL    HW1 3461   5.613   4.854   0.675
  854SOL    HW2 3462   5.723   4.936   0.763
  855SOL     OW 3463   6.638   0.047   1.585
  855SOL    HW1 3464   6.688   0.133   1.576
  855SOL    HW2 3465   6.689   6.994   1.538
  856SOL     OW 3466   1.280   2.428   5.731
  856SOL    HW1 3467   1.181   2.421   5.728
  856SOL    HW2 3468   1.307   2.523   5.715
  857SOL     OW 3469   6.331   4.756   1.990
  857SOL    HW1 3470   6.235   4.756   1.963
  857SOL    HW2 3471   6.341   4.710   2.078
  858SOL     OW 3472   2.855   3.517   1.276
  858SOL    HW1 3473   2.855   3.603   1.327
  858SOL    HW2 3474   2.761   3.483   1.268
  859SOL     OW 3475   5.466   6.470   4.788
  859SOL    HW1 3476   5.377   6.500   4.756
  859SOL    HW2 3477   5.538   6.514   4.733
  860SOL     OW 3478   5.879   2.854   0.603
  860SOL    HW1 3479   5.945   2.925   0.578
  860SOL    HW2 3480   5.887   2.833   0.700
  861SOL     OW 3481   2.594   5.813   3.771
  861SOL    HW1 3482   2.575   5.862   3.856
  861SOL    HW2 3483   2.549   5.860   3.695
  862SOL     OW 3484   1.498   3.663   4.510
  862SOL    HW1 3485   1.505   3.760   4.534
  862SOL    HW2 3486   1.577   3.637   4.455
  863SOL     OW 3487   5.916   1.570   0.767
  863SOL    HW1 3488   6.001   1.581   0.716
  863SOL    HW2 3489   5.840   1.607   0.714
  864SOL     OW 3490   4.300   5.728   4.178
  864SOL    HW1 3491   4.328   5.639   4.213
  864SOL    HW2 3492   4.222   5.717   4.117
  865SOL     OW 3493   1.743   6.183   5.855
  865SOL    HW1 3494   1.776   6.094   5.885
  865SOL    HW2 3495   1.722   6.239   5.936
  866SOL     OW 3496   2.173   1.759   1.867
  866SOL    HW1 3497   2.202   1.790   1.958
  866SOL    HW2 3498   2.220   1.813   1.797
  867SOL     OW 3499   4.782   3.684   0.443
  867SOL    HW1 3500   4.796   3.763   0.504
  867SOL    HW2 3501   4.742   3.609   0.495
  868SOL     OW 3502   5.796   1.406   0.454
  868SOL    HW1 3503   5.717   1.428   0.512
  868SOL    HW2 3504   5.783   1.446   0.364
  869SOL     OW 3505   0.491   4.210   2.745
  869SOL    HW1 3506   0.463   4.209   2.841
  869SOL    HW2 3507   0.410   4.222   2.687
  870SOL     OW 3508   3.904   3.233   0.235
  870SOL    HW1 3509   3.818   3.206   0.191
  870SOL    HW2 3510   3.906   3.198   0.328
  871SOL     OW 3511   4.642   2.138   2.706
  871SOL    HW1 3512   4.625   2.119   2.610
  871SOL    HW2 3513   4.740   2.130   2.725
  872SOL     OW 3514   5.132   3.533   3.913
  872SOL    HW1 3515   5.151   3.529   4.011
  872SOL    HW2 3516   5.217   3.552   3.863
  873SOL     OW 3517   5.640   6.568   4.616
  873SOL    HW1 3518   5.604   6.602   4.529
  873SOL    HW2 3519   5.710   6.630   4.650
  874SOL     OW 3520   0.878   3.984   5.816
  874SOL    HW1 3521   0.922   4.071   5.839
  874SOL    HW2 3522   0.783   3.987   5.845
  875SOL     OW 3523   4.806   3.514   0.817
  875SOL    HW1 3524   4.774   3.582   0.751
  875SOL    HW2 3525   4.897   3.538   0.849
  876SOL     OW 3526   1.006   4.169   2.180
  876SOL    HW1 3527   1.022   4.223   2.097
  876SOL    HW2 3528   0.921   4.118   2.171
  877SOL     OW 3529   3.603   4.291   5.905
  877SOL    HW1 3530   3.651   4.233   5.971
  877SOL    HW2 3531   3.542   4.353   5.954
  878SOL     OW 3532   3.552   5.897   5.178
  878SOL    HW1 3533   3.603   5.818   5.212
  878SOL    HW2 3534   3.456   5.872   5.166
  879SOL     OW 3535   3.536   1.711   0.651
  879SOL    HW1 3536   3.561   1.634   0.593
  879SOL    HW2 3537   3.561   1.797   0.607
  880SOL     OW 3538   2.995   3.563   4.231
  880SOL    HW1 3539   2.982   3.465   4.214
  880SOL    HW2 3540   3.089   3.588   4.209
  881SOL     OW 3541   5.360   3.802   5.423
  881SOL    HW1 3542   5.398   3.765   5.507
  881SOL    HW2 3543   5.272   3.759   5.404
  882SOL     OW 3544   0.722   2.578   4.570
  882SOL    HW1 3545   0.682   2.496   4.529
  882SOL    HW2 3546   0.656   2.653   4.565
  883SOL     OW 3547   3.599   0.300   0.422
  883SOL    HW1 3548   3.590   0.275   0.519
  883SOL    HW2 3549   3.522   0.263   0.371
  884SOL     OW 3550   0.078   4.112   0.211
  884SOL    HW1 3551   0.039   4.025   0.179
  884SOL    HW2 3552   0.096   4.105   0.309
  885SOL     OW 3553   4.823   6.482   5.601
  885SOL    HW1 3554   4.774   6.550   5.546
  885SOL    HW2 3555   4.847   6.523   5.689
  886SOL     OW 3556   4.009   1.240   1.101
  886SOL    HW1 3557   3.987   1.324   1.151
  886SOL    HW2 3558   4.013   1.260   1.003
  887SOL     OW 3559   4.161   5.484   3.699
  887SOL    HW1 3560   4.192   5.396   3.663
  887SOL    HW2 3561   4.236   5.550   3.695
  888SOL     OW 3562   6.658   6.949   2.679
  888SOL    HW1 3563   6.731   6.906   2.732
  888SOL    HW2 3564   6.569   6.923   2.717
  889SOL     OW 3565   0.272   0.938   6.028
  889SOL    HW1 3566   0.228   0.903   5.946
  889SOL    HW2 3567   0.292   0.862   6.090
  890SOL     OW 3568   2.274   4.909   2.050
  890SOL    HW1 3569   2.180   4.875   2.049
  890SOL    HW2 3570   2.332   4.846   1.998
  891SOL     OW 3571   6.578   3.786   0.727
  891SOL    HW1 3572   6.500   3.843   0.703
  891SOL    HW2 3573   6.552   3.689   0.720
  892SOL     OW 3574   3.662   3.886   5.254
  892SOL    HW1 3575   3.761   3.887   5.267
  892SOL    HW2 3576   3.617   3.914   5.339
  893SOL     OW 3577   1.558   0.316   2.927
  893SOL    HW1 3578   1.559   0.321   2.827
  893SOL    HW2 3579   1.518   0.400   2.964
  894SOL     OW 3580   0.917   2.897   3.229
  894SOL    HW1 3581   0.917   2.829   3.303
  894SOL    HW2 3582   0.847   2.965   3.246
  895SOL     OW 3583   1.495   5.317   3.636
  895SOL    HW1 3584   1.563   5.385   3.662
  895SOL    HW2 3585   1.470   5.329   3.539
  896SOL     OW 3586   6.406   5.778   1.876
  896SOL    HW1 3587   6.381   5.801   1.781
  896SOL    HW2 3588   6.485   5.832   1.903
  897SOL     OW 3589   4.407   0.458   6.870
  897SOL    HW1 3590   4.373   0.400   6.796
  897SOL    HW2 3591   4.357   0.545   6.870
  898SOL     OW 3592   3.585   5.873   2.053
  898SOL    HW1 3593   3.616   5.784   2.087
  898SOL    HW2 3594   3.486   5.873   2.044
  899SOL     OW 3595   0.632   5.600   0.407
  899SOL    HW1 3596   0.664   5.522   0.353
  899SOL    HW2 3597   0.582   5.663   0.348
  900SOL     OW 3598   4.807   6.298   6.797
  900SOL    HW1 3599   4.754   6.274   6.716
  900SOL    HW2 3600   4.821   6.215   6.853
  901SOL     OW 3601   1.478   0.897   4.396
  901SOL    HW1 3602   1.381   0.885   4.415
  901SOL    HW2 3603   1.496   0.993   4.374
  902SOL     OW 3604   1.181   2.665   1.168
  902SOL    HW1 3605   1.238   2.657   1.250
  902SOL    HW2 3606   1.182   2.578   1.118
  903SOL     OW 3607   0.120   3.018   6.746
  903SOL    HW1 3608   0.160   3.069   6.670
  903SOL    HW2 3609   0.109   2.922   6.720
  904SOL     OW 3610   2.263   2.826   2.463
  904SOL    HW1 3611   2.279   2.744   2.409
  904SOL    HW2 3612   2.270   2.804   2.560
  905SOL     OW 3613   5.175   4.752   6.013
  905SOL    HW1 3614   5.091   4.806   6.013
  905SOL    HW2 3615   5.222   4.762   5.925
  906SOL     OW 3616   0.613   2.787   6.559
  906SOL    HW1 3617   0.697   2.757   6.605
  906SOL    HW2 3618   0.592   2.881   6.585
  907SOL     OW 3619   4.945   2.445   1.887
  907SOL    HW1 3620   5.008   2.483   1.954
  907SOL    HW2 3621   4.968   2.481   1.796
  908SOL     OW 3622   2.597   5.130   2.914
  908SOL    HW1 3623   2.690   5.094   2.906
  908SOL    HW2 3624   2.563   5.155   2.824
  909SOL     OW 3625   3.574   5.623   2.228
  909SOL    HW1 3626   3.674   5.614   2.232
  909SOL    HW2 3627   3.547   5.712   2.263
  910SOL     OW 3628   2.971   0.784   0.865
  910SOL    HW1 3629   3.019   0.867   0.834
  910SOL    HW2 3630   3.026   0.737   0.933
  911SOL     OW 3631   0.661   5.552   6.821
  911SOL    HW1 3632   0.737   5.615   6.836
  911SOL    HW2 3633   0.591   5.597   6.766
  912SOL     OW 3634   5.019   0.564   3.556
  912SOL    HW1 3635   4.993   0.512   3.638
  912SOL    HW2 3636   5.037   0.501   3.481
  913SOL     OW 3637   2.302   1.156   4.155
  913SOL    HW1 3638   2.338   1.063   4.153
  913SOL    HW2 3639   2.332   1.202   4.238
  914SOL     OW 3640   3.053   5.754   5.286
  914SOL    HW1 3641   3.032   5.656   5.279
  914SOL    HW2 3642   2.993   5.804   5.223
  915SOL     OW 3643   0.808   3.196   0.818
  915SOL    HW1 3644   0.893   3.194   0.871
  915SOL    HW2 3645   0.809   3.121   0.751
  916SOL     OW 3646   2.162   3.060   2.493
  916SOL    HW1 3647   2.137   3.112   2.412
  916SOL    HW2 3648   2.215   2.980   2.466
  917SOL     OW 3649   6.151   1.223   2.526
  917SOL    HW1 3650   6.162   1.173   2.613
  917SOL    HW2 3651   6.213   1.301   2.524
  918SOL     OW 3652   3.373   0.228   1.046
  918SOL    HW1 3653   3.380   0.304   1.112
  918SOL    HW2 3654   3.309   0.160   1.081
  919SOL     OW 3655   6.800   6.414   3.552
  919SOL    HW1 3656   6.854   6.357   3.490
  919SOL    HW2 3657   6.703   6.394   3.538
  920SOL     OW 3658   2.220   4.643   2.353
  920SOL    HW1 3659   2.132   4.602   2.333
  920SOL    HW2 3660   2.293   4.578   2.331
  921SOL     OW 3661   4.263   5.070   3.019
  921SOL    HW1 3662   4.333   5.004   3.048
  921SOL    HW2 3663   4.234   5.048   2.925
  922SOL     OW 3664   2.966   3.646   5.170
  922SOL    HW1 3665   3.065   3.636   5.182
  922SOL    HW2 3666   2.941   3.743   5.176
  923SOL     OW 3667   2.866   4.392   5.909
  923SOL    HW1 3668   2.827   4.484   5.900
  923SOL    HW2 3669   2.865   4.347   5.819
  924SOL     OW 3670   5.730   2.717   3.003
  924SOL    HW1 3671   5.752   2.652   2.931
  924SOL    HW2 3672   5.634   2.706   3.030
  925SOL     OW 3673   0.176   1.578   6.739
  925SOL    HW1 3674   0.255   1.559   6.681
  925SOL    HW2 3675   0.135   1.492   6.769
  926SOL     OW 3676   5.884   1.401   1.236
  926SOL    HW1 3677   5.960   1.385   1.298
  926SOL    HW2 3678   5.909   1.471   1.169
  927SOL     OW 3679   5.830   3.919   3.184
  927SOL    HW1 3680   5.786   3.834   3.154
  927SOL    HW2 3681   5.761   3.982   3.220
  928SOL     OW 3682   1.003   6.348   0.468
  928SOL    HW1 3683   1.021   6.394   0.555
  928SOL    HW2 3684   0.905   6.350   0.449
  929SOL     OW 3685   0.416   0.721   0.763
  929SOL    HW1 3686   0.357   0.667   0.823
  929SOL    HW2 3687   0.511   0.690   0.774
  930SOL     OW 3688   5.716   6.025   4.083
  930SOL    HW1 3689   5.616   6.018   4.089
  930SOL    HW2 3690   5.755   5.933   4.072
  931SOL     OW 3691   6.038   1.936   3.938
  931SOL    HW1 3692   5.992   1.982   4.015
  931SOL    HW2 3693   5.989   1.956   3.853
  932SOL     OW 3694   2.943   6.691   3.917
  932SOL    HW1 3695   2.909   6.663   3.827
  932SOL    HW2 3696   2.876   6.752   3.960
  933SOL     OW 3697   2.088   5.517   3.727
  933SOL    HW1 3698   2.140   5.482   3.806
  933SOL    HW2 3699   1.990   5.511   3.746
  934SOL     OW 3700   1.411   0.052   6.440
  934SOL    HW1 3701   1.366   0.136   6.470
  934SOL    HW2 3702   1.390   0.036   6.343
  935SOL     OW 3703   4.647   4.633   4.098
  935SOL    HW1 3704   4.674   4.541   4.128
  935SOL    HW2 3705   4.548   4.637   4.090
  936SOL     OW 3706   1.080   0.380   6.300
  936SOL    HW1 3707   1.125   0.359   6.386
  936SOL    HW2 3708   0.982   0.363   6.308
  937SOL     OW 3709   5.275   1.518   5.106
  937SOL    HW1 3710   5.361   1.484   5.067
  937SOL    HW2 3711   5.281   1.515   5.206
  938SOL     OW 3712   6.555   5.433   6.394
  938SOL    HW1 3713   6.619   5.492   6.345
  938SOL    HW2 3714   6.492   5.490   6.447
  939SOL     OW 3715   6.800   6.558   5.407
  939SOL    HW1 3716   6.796   6.492   5.331
  939SOL    HW2 3717   6.726   6.624   5.398
  940SOL     OW 3718   0.722   3.299   1.715
  940SOL    HW1 3719   0.742   3.298   1.813
  940SOL    HW2 3720   0.663   3.377   1.694
  941SOL     OW 3721   5.369   1.253   6.274
  941SOL    HW1 3722   5.414   1.171   6.309
  941SOL    HW2 3723   5.349   1.315   6.350
  942SOL     OW 3724   4.799   6.963   2.938
  942SOL    HW1 3725   4.801   0.016   3.006
  942SOL    HW2 3726   4.832   6.878   2.979
  943SOL     OW 3727   2.075   3.486   4.015
  943SOL    HW1 3728   2.078   3.533   3.927
  943SOL    HW2 3729   2.052   3.550   4.088
  944SOL     OW 3730   0.516   4.709   6.149
  944SOL    HW1 3731   0.540   4.612   6.145
  944SOL    HW2 3732   0.466   4.727   6.234
  945SOL     OW 3733   6.709   4.681   5.498
  945SOL    HW1 3734   6.698   4.588   5.463
  945SOL    HW2 3735   6.620   4.727   5.498
  946SOL     OW 3736   4.705   2.985   5.963
  946SOL    HW1 3737   4.631   2.936   5.919
  946SOL    HW2 3738   4.728   2.941   6.050
  947SOL     OW 3739   3.608   2.915   3.445
  947SOL    HW1 3740   3.559   2.879   3.524
  947SOL    HW2 3741   3.705   2.889   3.452
  948SOL     OW 3742   3.927   0.207   2.604
  948SOL    HW1 3743   3.983   0.286   2.580
  948SOL    HW2 3744   3.871   0.181   2.525
  949SOL     OW 3745   0.986   5.796   5.897
  949SOL    HW1 3746   1.070   5.758   5.858
  949SOL    HW2 3747   0.932   5.838   5.823
  950SOL     OW 3748   4.896   5.359   2.054
  950SOL    HW1 3749   4.917   5.350   1.957
  950SOL    HW2 3750   4.920   5.451   2.086
  951SOL     OW 3751   2.221   0.813   3.798
  951SOL    HW1 3752   2.228   0.747   3.723
  951SOL    HW2 3753   2.157   0.779   3.867
  952SOL     OW 3754   4.354   1.697   3.183
  952SOL    HW1 3755   4.416   1.685   3.105
  952SOL    HW2 3756   4.297   1.777   3.167
  953SOL     OW 3757   5.369   4.530   3.963
  953SOL    HW1 3758   5.424   4.614   3.966
  953SOL    HW2 3759   5.425   4.452   3.992
  954SOL     OW 3760   3.785   5.321   1.305
  954SOL    HW1 3761   3.820   5.360   1.391
  954SOL    HW2 3762   3.685   5.322   1.307
  955SOL     OW 3763   0.234   3.646   2.650
  955SOL    HW1 3764   0.235   3.699   2.566
  955SOL    HW2 3765   0.146   3.659   2.697
  956SOL     OW 3766   6.708   1.436   2.891
  956SOL    HW1 3767   6.781   1.368   2.890
  956SOL    HW2 3768   6.747   1.528   2.882
  957SOL     OW 3769   6.261   4.029   5.435
  957SOL    HW1 3770   6.179   4.080   5.463
  957SOL    HW2 3771   6.311   4.001   5.517
  958SOL     OW 3772   4.187   1.966   1.627
  958SOL    HW1 3773   4.115   1.965   1.558
  958SOL    HW2 3774   4.156   1.918   1.709
  959SOL     OW 3775   4.631   5.982   2.799
  959SOL    HW1 3776   4.628   5.937   2.888
  959SOL    HW2 3777   4.573   5.933   2.734
  960SOL     OW 3778   1.054   6.249   1.745
  960SOL    HW1 3779   0.999   6.227   1.665
  960SOL    HW2 3780   1.136   6.298   1.717
  961SOL     OW 3781   4.739   0.176   3.763
  961SOL    HW1 3782   4.759   0.189   3.666
  961SOL    HW2 3783   4.691   0.089   3.776
  962SOL     OW 3784   0.121   1.366   5.296
  962SOL    HW1 3785   0.080   1.406   5.378
  962SOL    HW2 3786   0.218   1.350   5.311
  963SOL     OW 3787   6.253   1.448   6.610
  963SOL    HW1 3788   6.266   1.351   6.631
  963SOL    HW2 3789   6.284   1.504   6.686
  964SOL     OW 3790   5.264   4.417   0.458
  964SOL    HW1 3791   5.334   4.347   0.449
  964SOL    HW2 3792   5.262   4.451   0.553
  965SOL     OW 3793   5.120   2.186   1.714
  965SOL    HW1 3794   5.028   2.163   1.745
  965SOL    HW2 3795   5.140   2.135   1.630
  966SOL     OW 3796   5.755   2.552   2.309
  966SOL    HW1 3797   5.713   2.472   2.352
  966SOL    HW2 3798   5.849   2.530   2.284
  967SOL     OW 3799   2.392   4.248   0.337
  967SOL    HW1 3800   2.376   4.149   0.338
  967SOL    HW2 3801   2.316   4.294   0.381
  968SOL     OW 3802   3.547   0.819   1.613
  968SOL    HW1 3803   3.521   0.722   1.608
  968SOL    HW2 3804   3.464   0.875   1.612
  969SOL     OW 3805   2.860   6.035   6.351
  969SOL    HW1 3806   2.941   5.977   6.345
  969SOL    HW2 3807   2.779   5.979   6.368
  970SOL     OW 3808   5.489   1.092   6.581
  970SOL    HW1 3809   5.458   1.056   6.493
  970SOL    HW2 3810   5.410   1.103   6.642
  971SOL     OW 3811   6.836   2.353   3.081
  971SOL    HW1 3812   6.925   2.383   3.117
  971SOL    HW2 3813   6.847   2.265   3.035
  972SOL     OW 3814   5.554   3.409   2.496
  972SOL    HW1 3815   5.512   3.387   2.408
  972SOL    HW2 3816   5.502   3.365   2.569
  973SOL     OW 3817   0.186   5.012   6.726
  973SOL    HW1 3818   0.224   5.042   6.638
  973SOL    HW2 3819   0.257   5.018   6.797
  974SOL     OW 3820   5.262   6.188   2.064
  974SOL    HW1 3821   5.223   6.096   2.071
  974SOL    HW2 3822   5.241   6.240   2.146
  975SOL     OW 3823   1.666   0.190   6.434
  975SOL    HW1 3824   1.678   0.276   6.485
  975SOL    HW2 3825   1.593   0.136   6.476
  976SOL     OW 3826   6.492   3.307   2.784
  976SOL    HW1 3827   6.497   3.350   2.874
  976SOL    HW2 3828   6.438   3.223   2.790
  977SOL     OW 3829   0.997   0.173   2.322
  977SOL    HW1 3830   0.961   0.262   2.292
  977SOL    HW2 3831   0.923   0.120   2.363
  978SOL     OW 3832   5.188   3.199   5.876
  978SOL    HW1 3833   5.266   3.195   5.813
  978SOL    HW2 3834   5.103   3.193   5.823
  979SOL     OW 3835   0.059   2.339   0.903
  979SOL    HW1 3836   0.074   2.404   0.828
  979SOL    HW2 3837   0.011   2.259   0.868
  980SOL     OW 3838   4.338   2.448   3.825
  980SOL    HW1 3839   4.302   2.490   3.742
  980SOL    HW2 3840   4.421   2.397   3.802
  981SOL     OW 3841   0.193   1.335   4.597
  981SOL    HW1 3842   0.176   1.433   4.585
  981SOL    HW2 3843   0.261   1.321   4.668
  982SOL     OW 3844   2.042   1.940   4.882
  982SOL    HW1 3845   1.991   1.862   4.919
  982SOL    HW2 3846   1.978   2.007   4.844
  983SOL     OW 3847   6.161   3.253   4.393
  983SOL    HW1 3848   6.087   3.253   4.326
  983SOL    HW2 3849   6.198   3.160   4.403
  984SOL     OW 3850   2.852   1.920   4.875
  984SOL    HW1 3851   2.813   1.850   4.816
  984SOL    HW2 3852   2.952   1.919   4.868
  985SOL     OW 3853   5.572   3.927   4.968
  985SOL    HW1 3854   5.615   3.844   4.933
  985SOL    HW2 3855   5.622   4.007   4.936
  986SOL     OW 3856   6.118   4.911   1.001
  986SOL    HW1 3857   6.168   4.916   0.914
  986SOL    HW2 3858   6.039   4.850   0.990
  987SOL     OW 3859   4.359   6.764   2.272
  987SOL    HW1 3860   4.441   6.821   2.257
  987SOL    HW2 3861   4.286   6.821   2.310
  988SOL     OW 3862   3.529   3.462   1.802
  988SOL    HW1 3863   3.560   3.376   1.843
  988SOL    HW2 3864   3.462   3.506   1.861
  989SOL     OW 3865   6.043   1.305   6.157
  989SOL    HW1 3866   6.046   1.339   6.251
  989SOL    HW2 3867   6.102   1.360   6.099
  990SOL     OW 3868   4.550   1.328   2.024
  990SOL    HW1 3869   4.577   1.410   1.975
  990SOL    HW2 3870   4.535   1.350   2.120
  991SOL     OW 3871   0.708   3.524   4.958
  991SOL    HW1 3872   0.744   3.596   4.898
  991SOL    HW2 3873   0.617   3.496   4.927
  992SOL     OW 3874   0.036   2.811   1.818
  992SOL    HW1 3875   0.056   2.745   1.746
  992SOL    HW2 3876   7.011   2.765   1.894
  993SOL     OW 3877   0.597   4.777   1.001
  993SOL    HW1 3878   0.502   4.749   0.987
  993SOL    HW2 3879   0.654   4.742   0.927
  994SOL     OW 3880   4.153   4.852   0.971
  994SOL    HW1 3881   4.178   4.831   1.066
  994SOL    HW2 3882   4.236   4.850   0.915
  995SOL     OW 3883   3.701   2.760   5.205
  995SOL    HW1 3884   3.754   2.779   5.287
  995SOL    HW2 3885   3.753   2.791   5.124
  996SOL     OW 3886   3.715   4.904   4.686
  996SOL    HW1 3887   3.765   4.901   4.773
  996SOL    HW2 3888   3.700   4.811   4.653
  997SOL     OW 3889   1.096   0.059   3.870
  997SOL    HW1 3890   1.130   6.993   3.910
  997SOL    HW2 3891   1.092   0.049   3.770
  998SOL     OW 3892   5.194   0.820   5.216
  998SOL    HW1 3893   5.217   0.740   5.161
  998SOL    HW2 3894   5.125   0.874   5.169
  999SOL     OW 3895   5.045   4.227   2.782
  999SOL    HW1 3896   5.008   4.299   2.841
  999SOL    HW2 3897   5.130   4.259   2.741
 1000SOL     OW 3898   2.596   1.085   1.229
 1000SOL    HW1 3899   2.607   1.184   1.220
 1000SOL    HW2 3900   2.502   1.059   1.205
 1001SOL     OW 3901   4.827   5.653   0.823
 1001SOL    HW1 3902   4.756   5.585   0.804
 1001SOL    HW2 3903   4.789   5.744   0.814
 1002SOL     OW 3904   5.970   1.565   1.577
 1002SOL    HW1 3905   5.882   1.519   1.589
 1002SOL    HW2 3906   6.044   1.503   1.603
 1003SOL     OW 3907   1.964   6.520   2.328
 1003SOL    HW1 3908   1.875   6.562   2.347
 1003SOL    HW2 3909   1.960   6.475   2.239
 1004SOL     OW 3910   0.174   0.100   1.939
 1004SOL    HW1 3911   0.164   0.177   2.001
 1004SOL    HW2 3912   0.145   0.127   1.847
 1005SOL     OW 3913   2.255   2.922   4.160
 1005SOL    HW1 3914   2.248   3.021   4.154
 1005SOL    HW2 3915   2.270   2.884   4.068
 1006SOL     OW 3916   0.889   4.420   1.294
 1006SOL    HW1 3917   0.790   4.426   1.280
 1006SOL    HW2 3918   0.911   4.331   1.334
 1007SOL     OW 3919   4.765   0.512   5.503
 1007SOL    HW1 3920   4.667   0.517   5.484
 1007SOL    HW2 3921   4.798   0.602   5.534
 1008SOL     OW 3922   0.686   3.044   5.826
 1008SOL    HW1 3923   0.623   3.095   5.885
 1008SOL    HW2 3924   0.754   3.107   5.787
 1009SOL     OW 3925   0.409   5.305   4.721
 1009SOL    HW1 3926   0.433   5.221   4.769
 1009SOL    HW2 3927   0.424   5.383   4.782
 1010SOL     OW 3928   3.528   2.132   6.436
 1010SOL    HW1 3929   3.603   2.066   6.429
 1010SOL    HW2 3930   3.452   2.091   6.487
 1011SOL     OW 3931   1.888   4.639   2.481
 1011SOL    HW1 3932   1.914   4.546   2.506
 1011SOL    HW2 3933   1.789   4.650   2.495
 1012SOL     OW 3934   6.615   6.761   2.098
 1012SOL    HW1 3935   6.627   6.776   2.000
 1012SOL    HW2 3936   6.699   6.725   2.138
 1013SOL     OW 3937   1.331   1.224   5.869
 1013SOL    HW1 3938   1.412   1.282   5.863
 1013SOL    HW2 3939   1.349   1.135   5.827
 1014SOL     OW 3940   6.404   5.303   5.850
 1014SOL    HW1 3941   6.443   5.310   5.942
 1014SOL    HW2 3942   6.477   5.314   5.782
 1015SOL     OW 3943   2.544   6.710   5.870
 1015SOL    HW1 3944   2.484   6.700   5.949
 1015SOL    HW2 3945   2.498   6.763   5.799
 1016SOL     OW 3946   4.223   3.507   6.797
 1016SOL    HW1 3947   4.242   3.519   6.895
 1016SOL    HW2 3948   4.181   3.590   6.761
 1017SOL     OW 3949   4.092   3.182   1.218
 1017SOL    HW1 3950   4.136   3.214   1.302
 1017SOL    HW2 3951   4.016   3.122   1.242
 1018SOL     OW 3952   0.500   4.428   4.473
 1018SOL    HW1 3953   0.502   4.348   4.533
 1018SOL    HW2 3954   0.441   4.409   4.395
 1019SOL     OW 3955   6.725   6.850   0.952
 1019SOL    HW1 3956   6.734   6.918   1.025
 1019SOL    HW2 3957   6.726   6.759   0.992
 1020SOL     OW 3958   6.630   0.990   0.779
 1020SOL    HW1 3959   6.691   1.066   0.799
 1020SOL    HW2 3960   6.543   1.024   0.745
 1021SOL     OW 3961   5.899   7.005   1.639
 1021SOL    HW1 3962   5.810   0.025   1.616
 1021SOL    HW2 3963   5.932   6.951   1.562
 1022SOL     OW 3964   3.269   4.451   5.313
 1022SOL    HW1 3965   3.193   4.386   5.311
 1022SOL    HW2 3966   3.355   4.405   5.293
 1023SOL     OW 3967   0.679   0.254   3.219
 1023SOL    HW1 3968   0.635   0.310   3.288
 1023SOL    HW2 3969   0.654   0.286   3.128
 1024SOL     OW 3970   0.654   2.818   4.069
 1024SOL    HW1 3971   0.595   2.737   4.067
 1024SOL    HW2 3972   0.724   2.809   3.998
 1025SOL     OW 3973   3.720   3.678   1.592
 1025SOL    HW1 3974   3.706   3.755   1.655
 1025SOL    HW2 3975   3.631   3.639   1.568
 1026SOL     OW 3976   2.472   2.299   1.046
 1026SOL    HW1 3977   2.469   2.352   1.130
 1026SOL    HW2 3978   2.565   2.301   1.008
 1027SOL     OW 3979   3.342   6.175   1.824
 1027SOL    HW1 3980   3.335   6.261   1.875
 1027SOL    HW2 3981   3.261   6.162   1.767
 1028SOL     OW 3982   2.567   6.162   1.070
 1028SOL    HW1 3983   2.485   6.217   1.084
 1028SOL    HW2 3984   2.645   6.206   1.114
 1029SOL     OW 3985   1.889   0.005   6.397
 1029SOL    HW1 3986   1.818   6.965   6.434
 1029SOL    HW2 3987   1.864   0.101   6.415
 1030SOL     OW 3988   3.106   2.891   1.974
 1030SOL    HW1 3989   3.192   2.940   1.965
 1030SOL    HW2 3990   3.082   2.882   2.071
 1031SOL     OW 3991   4.767   4.018   1.306
 1031SOL    HW1 3992   4.762   3.980   1.398
 1031SOL    HW2 3993   4.858   4.055   1.290
 1032SOL     OW 3994   2.362   2.124   5.471
 1032SOL    HW1 3995   2.317   2.115   5.382
 1032SOL    HW2 3996   2.429   2.050   5.482
 1033SOL     OW 3997   1.430   6.736   2.087
 1033SOL    HW1 3998   1.507   6.761   2.029
 1033SOL    HW2 3999   1.385   6.655   2.049
 1034SOL     OW 4000   0.237   5.128   4.412
 1034SOL    HW1 4001   0.182   5.068   4.353
 1034SOL    HW2 4002   0.177   5.173   4.478
 1035SOL     OW 4003   0.146   1.387   5.023
 1035SOL    HW1 4004   0.150   1.374   5.123
 1035SOL    HW2 4005   0.237   1.378   4.985
 1036SOL     OW 4006   3.624   0.682   1.348
 1036SOL    HW1 4007   3.689   0.693   1.423
 1036SOL    HW2 4008   3.645   0.598   1.298
 1037SOL     OW 4009   1.608   1.301   2.210
 1037SOL    HW1 4010   1.565   1.377   2.161
 1037SOL    HW2 4011   1.557   1.284   2.295
 1038SOL     OW 4012   1.679   0.930   5.267
 1038SOL    HW1 4013   1.629   0.848   5.298
 1038SOL    HW2 4014   1.747   0.954   5.336
 1039SOL     OW 4015   3.615   3.817   4.379
 1039SOL    HW1 4016   3.666   3.892   4.422
 1039SOL    HW2 4017   3.523   3.848   4.354
 1040SOL     OW 4018   4.729   1.150   2.604
 1040SOL    HW1 4019   4.775   1.063   2.622
 1040SOL    HW2 4020   4.635   1.145   2.638
 1041SOL     OW 4021   0.010   6.390   4.126
 1041SOL    HW1 4022   6.982   6.422   4.208
 1041SOL    HW2 4023   6.972   6.408   4.046
 1042SOL     OW 4024   4.231   5.234   2.017
 1042SOL    HW1 4025   4.202   5.171   2.089
 1042SOL    HW2 4026   4.151   5.280   1.979
 1043SOL     OW 4027   3.124   1.876   4.869
 1043SOL    HW1 4028   3.161   1.846   4.957
 1043SOL    HW2 4029   3.129   1.976   4.862
 1044SOL     OW 4030   5.588   5.248   3.017
 1044SOL    HW1 4031   5.617   5.285   2.929
 1044SOL    HW2 4032   5.638   5.293   3.090
 1045SOL     OW 4033   4.366   0.114   2.358
 1045SOL    HW1 4034   4.359   0.074   2.449
 1045SOL    HW2 4035   4.279   0.105   2.310
 1046SOL     OW 4036   1.700   0.467   0.407
 1046SOL    HW1 4037   1.780   0.420   0.369
 1046SOL    HW2 4038   1.729   0.541   0.467
 1047SOL     OW 4039   1.934   0.698   3.629
 1047SOL    HW1 4040   2.013   0.640   3.647
 1047SOL    HW2 4041   1.875   0.701   3.710
 1048SOL     OW 4042   3.795   6.343   3.724
 1048SOL    HW1 4043   3.861   6.268   3.733
 1048SOL    HW2 4044   3.731   6.340   3.801
 1049SOL     OW 4045   6.597   6.411   3.859
 1049SOL    HW1 4046   6.559   6.441   3.946
 1049SOL    HW2 4047   6.694   6.434   3.854
 1050SOL     OW 4048   4.168   4.826   1.233
 1050SOL    HW1 4049   4.166   4.730   1.260
 1050SOL    HW2 4050   4.077   4.866   1.248
 1051SOL     OW 4051   1.268   5.758   0.607
 1051SOL    HW1 4052   1.366   5.777   0.610
 1051SOL    HW2 4053   1.249   5.674   0.659
 1052SOL     OW 4054   4.134   0.775   4.886
 1052SOL    HW1 4055   4.103   0.683   4.861
 1052SOL    HW2 4056   4.076   0.843   4.840
 1053SOL     OW 4057   6.372   5.401   2.739
 1053SOL    HW1 4058   6.350   5.314   2.785
 1053SOL    HW2 4059   6.446   5.386   2.674
 1054SOL     OW 4060   3.272   3.508   6.718
 1054SOL    HW1 4061   3.249   3.418   6.680
 1054SOL    HW2 4062   3.188   3.553   6.749
 1055SOL     OW 4063   3.530   6.094   4.527
 1055SOL    HW1 4064   3.519   6.002   4.489
 1055SOL    HW2 4065   3.612   6.097   4.584
 1056SOL     OW 4066   2.530   4.376   6.350
 1056SOL    HW1 4067   2.619   4.363   6.393
 1056SOL    HW2 4068   2.512   4.474   6.340
 1057SOL     OW 4069   2.815   3.351   2.027
 1057SOL    HW1 4070   2.741   3.305   2.076
 1057SOL    HW2 4071   2.864   3.284   1.971
 1058SOL     OW 4072   4.940   1.792   3.363
 1058SOL    HW1 4073   4.883   1.760   3.288
 1058SOL    HW2 4074   4.999   1.717   3.394
 1059SOL     OW 4075   3.134   0.372   1.955
 1059SOL    HW1 4076   3.233   0.376   1.965
 1059SOL    HW2 4077   3.094   0.335   2.039
 1060SOL     OW 4078   0.119   4.717   4.196
 1060SOL    HW1 4079   0.040   4.689   4.250
 1060SOL    HW2 4080   0.099   4.802   4.148
 1061SOL     OW 4081   6.610   2.883   0.263
 1061SOL    HW1 4082   6.628   2.895   0.361
 1061SOL    HW2 4083   6.679   2.933   0.210
 1062SOL     OW 4084   5.145   5.041   5.890
 1062SOL    HW1 4085   5.147   5.078   5.797
 1062SOL    HW2 4086   5.213   5.089   5.946
 1063SOL     OW 4087   1.425   4.760   1.376
 1063SOL    HW1 4088   1.372   4.840   1.404
 1063SOL    HW2 4089   1.487   4.733   1.450
 1064SOL     OW 4090   1.348   3.948   2.415
 1064SOL    HW1 4091   1.330   3.892   2.496
 1064SOL    HW2 4092   1.270   3.944   2.353
 1065SOL     OW 4093   3.896   0.647   3.582
 1065SOL    HW1 4094   3.925   0.607   3.495
 1065SOL    HW2 4095   3.920   0.744   3.583
 1066SOL     OW 4096   4.737   6.712   3.482
 1066SOL    HW1 4097   4.811   6.760   3.530
 1066SOL    HW2 4098   4.739   6.615   3.507
 1067SOL     OW 4099   0.606   3.312   1.040
 1067SOL    HW1 4100   0.619   3.221   0.999
 1067SOL    HW2 4101   0.651   3.381   0.983
 1068SOL     OW 4102   6.334   5.139   2.877
 1068SOL    HW1 4103   6.399   5.066   2.858
 1068SOL    HW2 4104   6.252   5.100   2.919
 1069SOL     OW 4105   4.296   5.118   0.774
 1069SOL    HW1 4106   4.208   5.151   0.809
 1069SOL    HW2 4107   4.286   5.024   0.741
 1070SOL     OW 4108   7.005   0.757   2.264
 1070SOL    HW1 4109   0.036   0.834   2.225
 1070SOL    HW2 4110   6.959   0.786   2.348
 1071SOL     OW 4111   1.227   0.608   4.238
 1071SOL    HW1 4112   1.224   0.515   4.274
 1071SOL    HW2 4113   1.176   0.612   4.152
 1072SOL     OW 4114   1.860   0.880   0.981
 1072SOL    HW1 4115   1.881   0.971   1.015
 1072SOL    HW2 4116   1.883   0.875   0.884
 1073SOL     OW 4117   4.996   0.066   2.251
 1073SOL    HW1 4118   4.941   7.003   2.236
 1073SOL    HW2 4119   5.026   0.103   2.163
 1074SOL     OW 4120   2.283   5.187   1.035
 1074SOL    HW1 4121   2.372   5.178   1.080
 1074SOL    HW2 4122   2.228   5.105   1.054
 1075SOL     OW 4123   4.989   0.408   3.769
 1075SOL    HW1 4124   4.965   0.311   3.781
 1075SOL    HW2 4125   5.040   0.440   3.849
 1076SOL     OW 4126   6.887   1.846   5.476
 1076SOL    HW1 4127   6.958   1.873   5.541
 1076SOL    HW2 4128   6.833   1.771   5.515
 1077SOL     OW 4129   5.743   0.454   1.099
 1077SOL    HW1 4130   5.840   0.430   1.089
 1077SOL    HW2 4131   5.736   0.544   1.143
 1078SOL     OW 4132   1.158   0.964   2.678
 1078SOL    HW1 4133   1.241   1.019   2.686
 1078SOL    HW2 4134   1.180   0.868   2.696
 1079SOL     OW 4135   1.565   6.532   2.200
 1079SOL    HW1 4136   1.591   6.466   2.130
 1079SOL    HW2 4137   1.522   6.611   2.157
 1080SOL     OW 4138   2.341   4.863   3.072
 1080SOL    HW1 4139   2.344   4.960   3.046
 1080SOL    HW2 4140   2.415   4.844   3.137
 1081SOL     OW 4141   0.355   5.757   5.486
 1081SOL    HW1 4142   0.402   5.678   5.447
 1081SOL    HW2 4143   0.395   5.841   5.449
 1082SOL     OW 4144   4.660   2.006   4.709
 1082SOL    HW1 4145   4.591   2.075   4.690
 1082SOL    HW2 4146   4.720   1.995   4.630
 1083SOL     OW 4147   4.125   3.975   0.778
 1083SOL    HW1 4148   4.070   4.058   0.789
 1083SOL    HW2 4149   4.084   3.918   0.706
 1084SOL     OW 4150   6.149   6.132   0.006
 1084SOL    HW1 4151   6.154   6.226   0.038
 1084SOL    HW2 4152   6.081   6.125   6.953
 1085SOL     OW 4153   1.909   3.322   4.259
 1085SOL    HW1 4154   1.817   3.320   4.298
 1085SOL    HW2 4155   1.904   3.317   4.159
 1086SOL     OW 4156   0.541   5.399   0.608
 1086SOL    HW1 4157   0.466   5.432   0.665
 1086SOL    HW2 4158   0.561   5.467   0.537
 1087SOL     OW 4159   5.869   1.871   4.945
 1087SOL    HW1 4160   5.862   1.956   4.997
 1087SOL    HW2 4161   5.938   1.812   4.987
 1088SOL     OW 4162   0.713   3.924   2.952
 1088SOL    HW1 4163   0.759   4.010   2.930
 1088SOL    HW2 4164   0.708   3.913   3.051
 1089SOL     OW 4165   0.877   6.592   4.278
 1089SOL    HW1 4166   0.934   6.606   4.359
 1089SOL    HW2 4167   0.783   6.575   4.306
 1090SOL     OW 4168   2.791   2.291   3.489
 1090SOL    HW1 4169   2.851   2.306   3.567
 1090SOL    HW2 4170   2.803   2.197   3.455
 1091SOL     OW 4171   3.380   2.080   5.029
 1091SOL    HW1 4172   3.342   2.029   5.106
 1091SOL    HW2 4173   3.344   2.173   5.030
 1092SOL     OW 4174   1.459   3.873   1.238
 1092SOL    HW1 4175   1.458   3.936   1.159
 1092SOL    HW2 4176   1.474   3.780   1.205
 1093SOL     OW 4177   1.869   1.326   2.206
 1093SOL    HW1 4178   1.775   1.304   2.233
 1093SOL    HW2 4179   1.907   1.251   2.151
 1094SOL     OW 4180   0.055   6.878   2.901
 1094SOL    HW1 4181   0.066   6.805   2.969
 1094SOL    HW2 4182   7.019   6.845   2.825
 1095SOL     OW 4183   0.858   2.863   6.354
 1095SOL    HW1 4184   0.804   2.939   6.390
 1095SOL    HW2 4185   0.801   2.809   6.292
 1096SOL     OW 4186   3.672   4.424   1.666
 1096SOL    HW1 4187   3.629   4.504   1.707
 1096SOL    HW2 4188   3.636   4.341   1.711
 1097SOL     OW 4189   2.193   4.632   4.434
 1097SOL    HW1 4190   2.107   4.590   4.406
 1097SOL    HW2 4191   2.234   4.679   4.357
 1098SOL     OW 4192   4.497   3.574   6.727
 1098SOL    HW1 4193   4.567   3.539   6.790
 1098SOL    HW2 4194   4.419   3.512   6.726
 1099SOL     OW 4195   3.856   0.899   5.550
 1099SOL    HW1 4196   3.912   0.952   5.486
 1099SOL    HW2 4197   3.900   0.900   5.641
 1100SOL     OW 4198   3.670   1.798   4.652
 1100SOL    HW1 4199   3.692   1.885   4.695
 1100SOL    HW2 4200   3.704   1.798   4.558
 1101SOL     OW 4201   6.048   2.884   6.336
 1101SOL    HW1 4202   6.005   2.822   6.403
 1101SOL    HW2 4203   6.068   2.833   6.252
 1102SOL     OW 4204   0.451   7.010   4.613
 1102SOL    HW1 4205   0.363   6.997   4.567
 1102SOL    HW2 4206   0.441   0.058   4.685
 1103SOL     OW 4207   4.329   1.723   0.176
 1103SOL    HW1 4208   4.316   1.713   0.274
 1103SOL    HW2 4209   4.424   1.705   0.153
 1104SOL     OW 4210   2.032   3.248   5.936
 1104SOL    HW1 4211   1.962   3.185   5.969
 1104SOL    HW2 4212   2.036   3.328   5.995
 1105SOL     OW 4213   6.401   3.480   5.097
 1105SOL    HW1 4214   6.414   3.471   4.998
 1105SOL    HW2 4215   6.307   3.458   5.120
 1106SOL     OW 4216   6.975   2.535   1.696
 1106SOL    HW1 4217   6.966   2.475   1.775
 1106SOL    HW2 4218   0.019   2.494   1.630
 1107SOL     OW 4219   0.695   0.708   6.710
 1107SOL    HW1 4220   0.599   0.731   6.719
 1107SOL    HW2 4221   0.744   0.782   6.665
 1108SOL     OW 4222   3.575   0.204   5.110
 1108SOL    HW1 4223   3.630   0.122   5.097
 1108SOL    HW2 4224   3.527   0.226   5.025
 1109SOL     OW 4225   4.599   1.320   4.108
 1109SOL    HW1 4226   4.643   1.382   4.173
 1109SOL    HW2 4227   4.550   1.374   4.039
 1110SOL     OW 4228   3.639   1.818   3.439
 1110SOL    HW1 4229   3.585   1.901   3.448
 1110SOL    HW2 4230   3.716   1.821   3.504
 1111SOL     OW 4231   4.912   5.404   6.414
 1111SOL    HW1 4232   4.893   5.346   6.334
 1111SOL    HW2 4233   5.011   5.416   6.423
 1112SOL     OW 4234   4.929   1.496   2.033
 1112SOL    HW1 4235   4.888   1.587   2.026
 1112SOL    HW2 4236   5.022   1.504   2.068
 1113SOL     OW 4237   6.096   4.705   1.625
 1113SOL    HW1 4238   6.148   4.624   1.650
 1113SOL    HW2 4239   6.054   4.692   1.535
 1114SOL     OW 4240   3.581   1.555   6.100
 1114SOL    HW1 4241   3.567   1.630   6.164
 1114SOL    HW2 4242   3.493   1.511   6.081
 1115SOL     OW 4243   4.288   3.100   5.987
 1115SOL    HW1 4244   4.279   3.134   6.080
 1115SOL    HW2 4245   4.197   3.094   5.945
 1116SOL     OW 4246   5.121   7.012   6.099
 1116SOL    HW1 4247   5.191   6.941   6.105
 1116SOL    HW2 4248   5.158   0.073   6.052
 1117SOL     OW 4249   2.517   1.905   2.626
 1117SOL    HW1 4250   2.594   1.872   2.681
 1117SOL    HW2 4251   2.507   2.003   2.637
 1118SOL     OW 4252   2.868   4.174   0.367
 1118SOL    HW1 4253   2.887   4.078   0.390
 1118SOL    HW2 4254   2.842   4.181   0.271
 1119SOL     OW 4255   4.038   4.972   1.546
 1119SOL    HW1 4256   3.986   4.963   1.461
 1119SOL    HW2 4257   4.107   4.901   1.550
 1120SOL     OW 4258   6.116   6.430   0.056
 1120SOL    HW1 4259   6.211   6.462   0.053
 1120SOL    HW2 4260   6.068   6.475   0.131
 1121SOL     OW 4261   5.840   4.687   4.848
 1121SOL    HW1 4262   5.840   4.613   4.780
 1121SOL    HW2 4263   5.768   4.671   4.915
 1122SOL     OW 4264   5.910   2.675   0.402
 1122SOL    HW1 4265   5.893   2.587   0.446
 1122SOL    HW2 4266   5.909   2.747   0.471
 1123SOL     OW 4267   4.991   1.735   3.036
 1123SOL    HW1 4268   4.899   1.753   3.070
 1123SOL    HW2 4269   4.993   1.645   2.993
 1124SOL     OW 4270   0.375   3.241   5.297
 1124SOL    HW1 4271   0.303   3.181   5.332
 1124SOL    HW2 4272   0.444   3.256   5.368
 1125SOL     OW 4273   2.698   2.001   4.027
 1125SOL    HW1 4274   2.761   1.927   4.001
 1125SOL    HW2 4275   2.631   2.014   3.955
 1126SOL     OW 4276   5.480   4.790   0.299
 1126SOL    HW1 4277   5.389   4.780   0.340
 1126SOL    HW2 4278   5.470   4.801   0.200
 1127SOL     OW 4279   5.457   5.412   4.796
 1127SOL    HW1 4280   5.434   5.402   4.699
 1127SOL    HW2 4281   5.426   5.331   4.846
 1128SOL     OW 4282   5.810   1.845   5.251
 1128SOL    HW1 4283   5.832   1.919   5.188
 1128SOL    HW2 4284   5.748   1.780   5.206
 1129SOL     OW 4285   1.467   0.433   0.538
 1129SOL    HW1 4286   1.548   0.455   0.484
 1129SOL    HW2 4287   1.493   0.372   0.613
 1130SOL     OW 4288   2.955   5.257   0.697
 1130SOL    HW1 4289   2.933   5.201   0.776
 1130SOL    HW2 4290   3.054   5.256   0.682
 1131SOL     OW 4291   0.895   5.592   5.404
 1131SOL    HW1 4292   0.981   5.631   5.438
 1131SOL    HW2 4293   0.846   5.548   5.478
 1132SOL     OW 4294   5.259   6.859   2.520
 1132SOL    HW1 4295   5.268   6.776   2.575
 1132SOL    HW2 4296   5.207   6.840   2.437
 1133SOL     OW 4297   1.352   0.963   1.179
 1133SOL    HW1 4298   1.339   1.015   1.264
 1133SOL    HW2 4299   1.296   1.004   1.107
 1134SOL     OW 4300   5.509   0.447   1.951
 1134SOL    HW1 4301   5.531   0.455   2.048
 1134SOL    HW2 4302   5.411   0.455   1.938
 1135SOL     OW 4303   2.846   0.343   2.855
 1135SOL    HW1 4304   2.896   0.386   2.780
 1135SOL    HW2 4305   2.763   0.396   2.873
 1136SOL     OW 4306   4.348   4.666   2.770
 1136SOL    HW1 4307   4.269   4.682   2.828
 1136SOL    HW2 4308   4.324   4.684   2.674
 1137SOL     OW 4309   1.119   0.168   6.723
 1137SOL    HW1 4310   1.102   0.092   6.787
 1137SOL    HW2 4311   1.099   0.255   6.770
 1138SOL     OW 4312   0.019   0.563   5.780
 1138SOL    HW1 4313   0.011   0.634   5.851
 1138SOL    HW2 4314   0.062   0.603   5.699
 1139SOL     OW 4315   3.165   4.863   2.273
 1139SOL    HW1 4316   3.201   4.864   2.367
 1139SOL    HW2 4317   3.238   4.890   2.210
 1140SOL     OW 4318   3.339   1.007   1.586
 1140SOL    HW1 4319   3.312   0.953   1.506
 1140SOL    HW2 4320   3.270   1.077   1.604
 1141SOL     OW 4321   0.522   6.336   6.814
 1141SOL    HW1 4322   0.439   6.367   6.769
 1141SOL    HW2 4323   0.502   6.254   6.868
 1142SOL     OW 4324   3.217   6.716   4.686
 1142SOL    HW1 4325   3.308   6.701   4.725
 1142SOL    HW2 4326   3.215   6.685   4.591
 1143SOL     OW 4327   1.513   3.081   3.215
 1143SOL    HW1 4328   1.517   3.039   3.124
 1143SOL    HW2 4329   1.556   3.171   3.212
 1144SOL     OW 4330   6.283   4.667   4.426
 1144SOL    HW1 4331   6.231   4.752   4.431
 1144SOL    HW2 4332   6.311   4.652   4.331
 1145SOL     OW 4333   6.597   3.478   2.033
 1145SOL    HW1 4334   6.690   3.450   2.058
 1145SOL    HW2 4335   6.573   3.563   2.079
 1146SOL     OW 4336   0.060   0.682   2.609
 1146SOL    HW1 4337   0.052   0.633   2.696
 1146SOL    HW2 4338   6.988   0.708   2.577
 1147SOL     OW 4339   2.895   5.297   1.368
 1147SOL    HW1 4340   2.978   5.246   1.347
 1147SOL    HW2 4341   2.841   5.247   1.437
 1148SOL     OW 4342   4.476   6.060   0.466
 1148SOL    HW1 4343   4.443   6.133   0.407
 1148SOL    HW2 4344   4.409   6.042   0.538
 1149SOL     OW 4345   6.456   3.673   2.928
 1149SOL    HW1 4346   6.459   3.638   2.834
 1149SOL    HW2 4347   6.530   3.739   2.941
 1150SOL     OW 4348   2.074   3.509   0.261
 1150SOL    HW1 4349   2.014   3.546   0.331
 1150SOL    HW2 4350   2.044   3.417   0.236
 1151SOL     OW 4351   4.611   4.400   0.171
 1151SOL    HW1 4352   4.622   4.492   0.133
 1151SOL    HW2 4353   4.682   4.340   0.133
 1152SOL     OW 4354   5.367   4.874   6.490
 1152SOL    HW1 4355   5.367   4.810   6.566
 1152SOL    HW2 4356   5.312   4.838   6.415
 1153SOL     OW 4357   1.225   0.483   1.817
 1153SOL    HW1 4358   1.325   0.483   1.826
 1153SOL    HW2 4359   1.197   0.400   1.769
 1154SOL     OW 4360   6.774   4.700   1.399
 1154SOL    HW1 4361   6.698   4.721   1.459
 1154SOL    HW2 4362   6.825   4.783   1.377
 1155SOL     OW 4363   2.536   5.025   6.232
 1155SOL    HW1 4364   2.449   4.997   6.272
 1155SOL    HW2 4365   2.520   5.081   6.151
 1156SOL     OW 4366   4.247   1.429   4.789
 1156SOL    HW1 4367   4.240   1.447   4.887
 1156SOL    HW2 4368   4.341   1.405   4.767
 1157SOL     OW 4369   5.374   1.955   5.911
 1157SOL    HW1 4370   5.294   1.993   5.863
 1157SOL    HW2 4371   5.420   1.890   5.851
 1158SOL     OW 4372   0.512   5.020   5.378
 1158SOL    HW1 4373   0.552   4.990   5.464
 1158SOL    HW2 4374   0.583   5.062   5.322
 1159SOL     OW 4375   6.491   6.667   3.472
 1159SOL    HW1 4376   6.436   6.751   3.473
 1159SOL    HW2 4377   6.543   6.661   3.558
 1160SOL     OW 4378   5.128   4.699   1.067
 1160SOL    HW1 4379   5.158   4.610   1.033
 1160SOL    HW2 4380   5.205   4.747   1.110
 1161SOL     OW 4381   6.061   0.317   5.876
 1161SOL    HW1 4382   6.074   0.220   5.898
 1161SOL    HW2 4383   6.051   0.369   5.961
 1162SOL     OW 4384   3.414   2.373   6.886
 1162SOL    HW1 4385   3.394   2.470   6.875
 1162SOL    HW2 4386   3.363   2.337   6.964
 1163SOL     OW 4387   6.834   4.197   1.716
 1163SOL    HW1 4388   6.926   4.206   1.755
 1163SOL    HW2 4389   6.808   4.101   1.715
 1164SOL     OW 4390   6.011   3.532   4.893
 1164SOL    HW1 4391   6.028   3.630   4.900
 1164SOL    HW2 4392   6.031   3.502   4.800
 1165SOL     OW 4393   3.702   4.974   3.493
 1165SOL    HW1 4394   3.770   5.039   3.458
 1165SOL    HW2 4395   3.716   4.962   3.592
 1166SOL     OW 4396   3.998   0.280   6.916
 1166SOL    HW1 4397   3.942   0.350   6.871
 1166SOL    HW2 4398   3.941   0.200   6.935
 1167SOL     OW 4399   4.582   6.393   6.902
 1167SOL    HW1 4400   4.669   6.349   6.881
 1167SOL    HW2 4401   4.516   6.370   6.831
 1168SOL     OW 4402   4.892   2.550   2.834
 1168SOL    HW1 4403   4.980   2.503   2.828
 1168SOL    HW2 4404   4.850   2.556   2.744
 1169SOL     OW 4405   4.703   2.515   6.242
 1169SOL    HW1 4406   4.710   2.498   6.340
 1169SOL    HW2 4407   4.624   2.465   6.206
 1170SOL     OW 4408   5.056   0.325   3.167
 1170SOL    HW1 4409   5.137   0.347   3.112
 1170SOL    HW2 4410   4.974   0.348   3.115
 1171SOL     OW 4411   2.411   5.868   6.916
 1171SOL    HW1 4412   2.351   5.826   6.983
 1171SOL    HW2 4413   2.468   5.798   6.873
 1172SOL     OW 4414   3.219   4.273   1.691
 1172SOL    HW1 4415   3.127   4.306   1.668
 1172SOL    HW2 4416   3.285   4.347   1.677
 1173SOL     OW 4417   2.834   0.783   0.013
 1173SOL    HW1 4418   2.789   0.740   0.091
 1173SOL    HW2 4419   2.824   0.883   0.019
 1174SOL     OW 4420   2.954   4.778   1.454
 1174SOL    HW1 4421   2.952   4.857   1.514
 1174SOL    HW2 4422   2.907   4.701   1.498
 1175SOL     OW 4423   4.150   4.264   6.840
 1175SOL    HW1 4424   4.218   4.247   6.768
 1175SOL    HW2 4425   4.186   4.333   6.903
 1176SOL     OW 4426   6.042   4.080   6.608
 1176SOL    HW1 4427   5.999   4.150   6.666
 1176SOL    HW2 4428   5.978   4.053   6.536
 1177SOL     OW 4429   0.458   3.076   5.071
 1177SOL    HW1 4430   0.432   3.131   5.150
 1177SOL    HW2 4431   0.544   3.028   5.090
 1178SOL     OW 4432   3.123   4.424   1.025
 1178SOL    HW1 4433   3.150   4.338   0.982
 1178SOL    HW2 4434   3.140   4.500   0.963
 1179SOL     OW 4435   2.428   6.045   0.638
 1179SOL    HW1 4436   2.427   5.977   0.711
 1179SOL    HW2 4437   2.344   6.039   0.585
 1180SOL     OW 4438   2.712   6.075   4.649
 1180SOL    HW1 4439   2.809   6.096   4.656
 1180SOL    HW2 4440   2.695   5.981   4.676
 1181SOL     OW 4441   6.904   4.363   6.355
 1181SOL    HW1 4442   6.832   4.420   6.396
 1181SOL    HW2 4443   6.863   4.286   6.307
 1182SOL     OW 4444   3.586   5.160   2.853
 1182SOL    HW1 4445   3.662   5.108   2.813
 1182SOL    HW2 4446   3.612   5.256   2.862
 1183SOL     OW 4447   3.168   5.113   1.390
 1183SOL    HW1 4448   3.107   5.054   1.337
 1183SOL    HW2 4449   3.235   5.057   1.439
 1184SOL     OW 4450   6.689   1.132   5.309
 1184SOL    HW1 4451   6.787   1.152   5.315
 1184SOL    HW2 4452   6.658   1.091   5.395
 1185SOL     OW 4453   1.386   0.880   0.335
 1185SOL    HW1 4454   1.319   0.857   0.265
 1185SOL    HW2 4455   1.362   0.968   0.377
 1186SOL     OW 4456   5.309   6.193   5.040
 1186SOL    HW1 4457   5.232   6.160   5.094
 1186SOL    HW2 4458   5.276   6.255   4.969
 1187SOL     OW 4459   5.272   6.899   5.370
 1187SOL    HW1 4460   5.315   6.810   5.375
 1187SOL    HW2 4461   5.338   6.970   5.393
 1188SOL     OW 4462   2.695   5.454   6.490
 1188SOL    HW1 4463   2.757   5.452   6.568
 1188SOL    HW2 4464   2.650   5.365   6.482
 1189SOL     OW 4465   6.339   1.130   1.729
 1189SOL    HW1 4466   6.269   1.111   1.799
 1189SOL    HW2 4467   6.311   1.090   1.642
 1190SOL     OW 4468   2.638   5.512   2.622
 1190SOL    HW1 4469   2.657   5.414   2.617
 1190SOL    HW2 4470   2.559   5.527   2.682
 1191SOL     OW 4471   3.353   6.338   4.111
 1191SOL    HW1 4472   3.381   6.300   4.199
 1191SOL    HW2 4473   3.339   6.263   4.045
 1192SOL     OW 4474   5.591   5.737   3.698
 1192SOL    HW1 4475   5.527   5.742   3.775
 1192SOL    HW2 4476   5.605   5.828   3.661
 1193SOL     OW 4477   6.969   1.517   5.463
 1193SOL    HW1 4478   6.921   1.459   5.530
 1193SOL    HW2 4479   6.908   1.534   5.385
 1194SOL     OW 4480   6.807   1.173   1.606
 1194SOL    HW1 4481   6.732   1.219   1.654
 1194SOL    HW2 4482   6.775   1.087   1.568
 1195SOL     OW 4483   0.440   3.441   0.445
 1195SOL    HW1 4484   0.478   3.520   0.493
 1195SOL    HW2 4485   0.447   3.360   0.503
 1196SOL     OW 4486   6.733   4.563   3.456
 1196SOL    HW1 4487   6.704   4.656   3.479
 1196SOL    HW2 4488   6.780   4.565   3.367
 1197SOL     OW 4489   4.591   6.171   3.964
 1197SOL    HW1 4490   4.672   6.115   3.946
 1197SOL    HW2 4491   4.514   6.111   3.989
 1198SOL     OW 4492   1.373   3.612   1.938
 1198SOL    HW1 4493   1.283   3.650   1.961
 1198SOL    HW2 4494   1.374   3.581   1.843
 1199SOL     OW 4495   3.339   4.152   3.470
 1199SOL    HW1 4496   3.319   4.127   3.376
 1199SOL    HW2 4497   3.276   4.224   3.500
 1200SOL     OW 4498   3.304   4.163   4.449
 1200SOL    HW1 4499   3.346   4.125   4.532
 1200SOL    HW2 4500   3.205   4.150   4.453
 1201SOL     OW 4501   6.956   1.251   4.471
 1201SOL    HW1 4502   0.025   1.247   4.518
 1201SOL    HW2 4503   6.965   1.305   4.387
 1202SOL     OW 4504   0.742   6.024   5.279
 1202SOL    HW1 4505   0.817   6.062   5.333
 1202SOL    HW2 4506   0.752   6.052   5.184
 1203SOL     OW 4507   0.896   5.476   0.652
 1203SOL    HW1 4508   0.863   5.538   0.580
 1203SOL    HW2 4509   0.904   5.383   0.615
 1204SOL     OW 4510   4.374   1.535   1.497
 1204SOL    HW1 4511   4.337   1.524   1.589
 1204SOL    HW2 4512   4.311   1.495   1.430
 1205SOL     OW 4513   3.583   3.508   0.413
 1205SOL    HW1 4514   3.620   3.517   0.506
 1205SOL    HW2 4515   3.545   3.597   0.384
 1206SOL     OW 4516   1.703   3.021   5.038
 1206SOL    HW1 4517   1.654   3.091   5.090
 1206SOL    HW2 4518   1.641   2.980   4.971
 1207SOL     OW 4519   0.712   0.374   0.826
 1207SOL    HW1 4520   0.787   0.308   0.822
 1207SOL    HW2 4521   0.641   0.340   0.888
 1208SOL     OW 4522   3.097   3.639   1.636
 1208SOL    HW1 4523   3.180   3.657   1.690
 1208SOL    HW2 4524   3.072   3.721   1.585
 1209SOL     OW 4525   5.405   0.676   4.131
 1209SOL    HW1 4526   5.503   0.689   4.113
 1209SOL    HW2 4527   5.392   0.600   4.195
 1210SOL     OW 4528   4.033   6.662   3.524
 1210SOL    HW1 4529   3.996   6.716   3.600
 1210SOL    HW2 4530   4.006   6.566   3.535
 1211SOL     OW 4531   1.093   3.088   3.116
 1211SOL    HW1 4532   1.029   3.025   3.160
 1211SOL    HW2 4533   1.149   3.038   3.050
 1212SOL     OW 4534   6.329   0.377   5.824
 1212SOL    HW1 4535   6.347   0.471   5.793
 1212SOL    HW2 4536   6.230   0.363   5.829
 1213SOL     OW 4537   6.038   2.615   1.565
 1213SOL    HW1 4538   5.948   2.592   1.603
 1213SOL    HW2 4539   6.079   2.687   1.621
 1214SOL     OW 4540   0.959   2.452   0.395
 1214SOL    HW1 4541   0.994   2.524   0.335
 1214SOL    HW2 4542   0.872   2.418   0.357
 1215SOL     OW 4543   1.148   4.776   3.386
 1215SOL    HW1 4544   1.239   4.737   3.373
 1215SOL    HW2 4545   1.080   4.719   3.339
 1216SOL     OW 4546   5.329   1.567   0.417
 1216SOL    HW1 4547   5.278   1.610   0.491
 1216SOL    HW2 4548   5.380   1.637   0.367
 1217SOL     OW 4549   2.895   4.836   0.682
 1217SOL    HW1 4550   2.871   4.910   0.745
 1217SOL    HW2 4551   2.838   4.756   0.700
 1218SOL     OW 4552   1.649   3.262   5.180
 1218SOL    HW1 4553   1.627   3.235   5.273
 1218SOL    HW2 4554   1.721   3.332   5.181
 1219SOL     OW 4555   6.085   5.846   1.943
 1219SOL    HW1 4556   6.089   5.851   2.042
 1219SOL    HW2 4557   6.168   5.884   1.903
 1220SOL     OW 4558   0.616   4.378   2.344
 1220SOL    HW1 4559   0.640   4.361   2.440
 1220SOL    HW2 4560   0.605   4.291   2.297
 1221SOL     OW 4561   4.430   3.167   6.446
 1221SOL    HW1 4562   4.399   3.240   6.507
 1221SOL    HW2 4563   4.530   3.164   6.446
 1222SOL     OW 4564   0.036   0.809   6.621
 1222SOL    HW1 4565   6.991   0.736   6.600
 1222SOL    HW2 4566   0.128   0.780   6.594
 1223SOL     OW 4567   3.976   1.499   0.565
 1223SOL    HW1 4568   3.965   1.457   0.475
 1223SOL    HW2 4569   3.995   1.597   0.553
 1224SOL     OW 4570   3.207   6.482   0.053
 1224SOL    HW1 4571   3.199   6.499   6.975
 1224SOL    HW2 4572   3.302   6.459   0.076
 1225SOL     OW 4573   3.261   2.831   6.704
 1225SOL    HW1 4574   3.227   2.798   6.616
 1225SOL    HW2 4575   3.186   2.874   6.754
 1226SOL     OW 4576   3.197   6.745   1.445
 1226SOL    HW1 4577   3.241   6.662   1.481
 1226SOL    HW2 4578   3.105   6.722   1.414
 1227SOL     OW 4579   4.902   4.586   5.911
 1227SOL    HW1 4580   4.832   4.515   5.917
 1227SOL    HW2 4581   4.905   4.638   5.996
 1228SOL     OW 4582   2.660   2.274   6.068
 1228SOL    HW1 4583   2.670   2.298   6.164
 1228SOL    HW2 4584   2.750   2.274   6.024
 1229SOL     OW 4585   3.078   5.492   6.667
 1229SOL    HW1 4586   3.038   5.439   6.592
 1229SOL    HW2 4587   3.171   5.520   6.643
 1230SOL     OW 4588   4.897   6.460   2.111
 1230SOL    HW1 4589   4.972   6.402   2.142
 1230SOL    HW2 4590   4.811   6.428   2.153
 1231SOL     OW 4591   1.648   2.216   5.537
 1231SOL    HW1 4592   1.580   2.237   5.607
 1231SOL    HW2 4593   1.727   2.172   5.580
 1232SOL     OW 4594   6.823   1.648   5.273
 1232SOL    HW1 4595   6.728   1.650   5.302
 1232SOL    HW2 4596   6.871   1.727   5.310
 1233SOL     OW 4597   0.801   5.255   4.848
 1233SOL    HW1 4598   0.822   5.168   4.893
 1233SOL    HW2 4599   0.736   5.307   4.904
 1234SOL     OW 4600   5.739   2.893   5.511
 1234SOL    HW1 4601   5.807   2.928   5.577
 1234SOL    HW2 4602   5.773   2.907   5.418
 1235SOL     OW 4603   5.914   5.961   2.745
 1235SOL    HW1 4604   5.993   5.940   2.804
 1235SOL    HW2 4605   5.916   5.901   2.665
 1236SOL     OW 4606   4.676   0.507   0.608
 1236SOL    HW1 4607   4.771   0.530   0.588
 1236SOL    HW2 4608   4.616   0.546   0.538
 1237SOL     OW 4609   1.728   4.562   6.216
 1237SOL    HW1 4610   1.700   4.654   6.188
 1237SOL    HW2 4611   1.727   4.502   6.136
 1238SOL     OW 4612   0.872   0.895   6.604
 1238SOL    HW1 4613   0.920   0.964   6.549
 1238SOL    HW2 4614   0.940   0.835   6.647
 1239SOL     OW 4615   6.275   6.538   6.620
 1239SOL    HW1 4616   6.335   6.467   6.583
 1239SOL    HW2 4617   6.217   6.499   6.692
 1240SOL     OW 4618   5.539   6.072   0.672
 1240SOL    HW1 4619   5.446   6.104   0.685
 1240SOL    HW2 4620   5.591   6.082   0.757
 1241SOL     OW 4621   5.189   4.188   4.452
 1241SOL    HW1 4622   5.136   4.109   4.482
 1241SOL    HW2 4623   5.286   4.167   4.456
 1242SOL     OW 4624   0.665   3.851   1.464
 1242SOL    HW1 4625   0.722   3.871   1.384
 1242SOL    HW2 4626   0.634   3.756   1.459
 1243SOL     OW 4627   0.820   0.564   5.116
 1243SOL    HW1 4628   0.885   0.638   5.098
 1243SOL    HW2 4629   0.727   0.598   5.104
 1244SOL     OW 4630   6.122   6.689   4.153
 1244SOL    HW1 4631   6.118   6.600   4.109
 1244SOL    HW2 4632   6.032   6.732   4.152
 1245SOL     OW 4633   6.153   4.218   0.881
 1245SOL    HW1 4634   6.215   4.291   0.853
 1245SOL    HW2 4635   6.109   4.244   0.967
 1246SOL     OW 4636   2.390   0.279   1.072
 1246SOL    HW1 4637   2.464   0.284   1.005
 1246SOL    HW2 4638   2.313   0.229   1.033
 1247SOL     OW 4639   0.462   6.659   6.490
 1247SOL    HW1 4640   0.465   6.714   6.407
 1247SOL    HW2 4641   0.467   6.562   6.467
 1248SOL     OW 4642   2.199   0.344   5.082
 1248SOL    HW1 4643   2.266   0.312   5.150
 1248SOL    HW2 4644   2.180   0.269   5.017
 1249SOL     OW 4645   6.557   2.095   2.265
 1249SOL    HW1 4646   6.464   2.120   2.236
 1249SOL    HW2 4647   6.580   2.144   2.349
 1250SOL     OW 4648   5.847   5.574   3.670
 1250SOL    HW1 4649   5.771   5.632   3.700
 1250SOL    HW2 4650   5.908   5.626   3.611
 1251SOL     OW 4651   2.723   0.436   3.479
 1251SOL    HW1 4652   2.771   0.460   3.394
 1251SOL    HW2 4653   2.787   0.392   3.542
 1252SOL     OW 4654   4.860   3.412   6.188
 1252SOL    HW1 4655   4.784   3.366   6.142
 1252SOL    HW2 4656   4.934   3.347   6.203
 1253SOL     OW 4657   3.043   5.895   1.951
 1253SOL    HW1 4658   3.059   5.974   2.011
 1253SOL    HW2 4659   3.023   5.815   2.007
 1254SOL     OW 4660   1.019   2.857   2.698
 1254SOL    HW1 4661   0.972   2.789   2.754
 1254SOL    HW2 4662   1.026   2.823   2.604
 1255SOL     OW 4663   5.804   1.397   6.570
 1255SOL    HW1 4664   5.713   1.419   6.535
 1255SOL    HW2 4665   5.837   1.473   6.627
 1256SOL     OW 4666   6.673   6.186   3.105
 1256SOL    HW1 4667   6.720   6.261   3.058
 1256SOL    HW2 4668   6.670   6.204   3.203
 1257SOL     OW 4669   6.863   5.938   4.933
 1257SOL    HW1 4670   6.873   5.914   4.836
 1257SOL    HW2 4671   6.783   5.892   4.971
 1258SOL     OW 4672   1.619   4.805   3.281
 1258SOL    HW1 4673   1.707   4.852   3.281
 1258SOL    HW2 4674   1.545   4.872   3.281
 1259SOL     OW 4675   3.707   0.911   3.959
 1259SOL    HW1 4676   3.691   0.840   3.889
 1259SOL    HW2 4677   3.632   0.909   4.025
 1260SOL     OW 4678   2.448   2.407   0.249
 1260SOL    HW1 4679   2.490   2.333   0.195
 1260SOL    HW2 4680   2.433   2.375   0.342
 1261SOL     OW 4681   0.181   5.926   6.660
 1261SOL    HW1 4682   0.248   5.980   6.611
 1261SOL    HW2 4683   0.174   5.958   6.754
 1262SOL     OW 4684   5.532   4.167   1.279
 1262SOL    HW1 4685   5.480   4.249   1.259
 1262SOL    HW2 4686   5.562   4.124   1.194
 1263SOL     OW 4687   6.999   2.390   1.970
 1263SOL    HW1 4688   6.955   2.374   2.058
 1263SOL    HW2 4689   0.019   2.305   1.936
 1264SOL     OW 4690   0.144   4.181   1.523
 1264SOL    HW1 4691   0.160   4.198   1.620
 1264SOL    HW2 4692   0.210   4.113   1.490
 1265SOL     OW 4693   5.090   5.029   3.965
 1265SOL    HW1 4694   5.042   5.097   4.021
 1265SOL    HW2 4695   5.121   4.954   4.023
 1266SOL     OW 4696   0.250   1.594   4.330
 1266SOL    HW1 4697   0.310   1.665   4.293
 1266SOL    HW2 4698   0.237   1.609   4.428
 1267SOL     OW 4699   4.715   6.816   1.043
 1267SOL    HW1 4700   4.702   6.733   0.989
 1267SOL    HW2 4701   4.798   6.862   1.014
 1268SOL     OW 4702   2.717   2.496   0.330
 1268SOL    HW1 4703   2.772   2.465   0.252
 1268SOL    HW2 4704   2.626   2.453   0.326
 1269SOL     OW 4705   6.034   5.268   5.102
 1269SOL    HW1 4706   5.967   5.198   5.078
 1269SOL    HW2 4707   5.987   5.351   5.131
 1270SOL     OW 4708   1.103   2.915   3.509
 1270SOL    HW1 4709   1.043   2.873   3.578
 1270SOL    HW2 4710   1.047   2.961   3.441
 1271SOL     OW 4711   2.680   2.095   3.719
 1271SOL    HW1 4712   2.757   2.047   3.763
 1271SOL    HW2 4713   2.699   2.193   3.718
 1272SOL     OW 4714   5.522   4.797   6.995
 1272SOL    HW1 4715   5.612   4.833   0.001
 1272SOL    HW2 4716   5.520   4.698   7.011
 1273SOL     OW 4717   0.471   3.000   0.072
 1273SOL    HW1 4718   0.556   3.031   0.030
 1273SOL    HW2 4719   0.491   2.958   0.160
 1274SOL     OW 4720   6.814   4.874   1.650
 1274SOL    HW1 4721   6.877   4.898   1.576
 1274SOL    HW2 4722   6.786   4.957   1.698
 1275SOL     OW 4723   3.694   1.793   4.382
 1275SOL    HW1 4724   3.618   1.837   4.335
 1275SOL    HW2 4725   3.710   1.702   4.344
 1276SOL     OW 4726   6.617   6.208   5.122
 1276SOL    HW1 4727   6.669   6.215   5.037
 1276SOL    HW2 4728   6.520   6.194   5.101
 1277SOL     OW 4729   0.826   5.578   5.952
 1277SOL    HW1 4730   0.891   5.654   5.957
 1277SOL    HW2 4731   0.860   5.501   6.005
 1278SOL     OW 4732   0.853   6.975   5.033
 1278SOL    HW1 4733   0.816   6.932   4.950
 1278SOL    HW2 4734   0.939   6.931   5.058
 1279SOL     OW 4735   1.829   5.235   0.648
 1279SOL    HW1 4736   1.828   5.180   0.731
 1279SOL    HW2 4737   1.922   5.245   0.615
 1280SOL     OW 4738   3.814   6.178   4.449
 1280SOL    HW1 4739   3.739   6.204   4.387
 1280SOL    HW2 4740   3.890   6.242   4.438
 1281SOL     OW 4741   1.894   6.039   3.457
 1281SOL    HW1 4742   1.984   6.043   3.501
 1281SOL    HW2 4743   1.823   6.061   3.525
 1282SOL     OW 4744   6.627   2.474   6.974
 1282SOL    HW1 4745   6.612   2.542   0.026
 1282SOL    HW2 4746   6.715   2.428   6.990
 1283SOL     OW 4747   0.290   3.369   5.871
 1283SOL    HW1 4748   0.236   3.408   5.945
 1283SOL    HW2 4749   0.323   3.443   5.811
 1284SOL     OW 4750   4.982   2.426   1.248
 1284SOL    HW1 4751   4.885   2.451   1.256
 1284SOL    HW2 4752   5.028   2.443   1.336
 1285SOL     OW 4753   4.275   2.381   6.221
 1285SOL    HW1 4754   4.189   2.331   6.215
 1285SOL    HW2 4755   4.339   2.346   6.153
 1286SOL     OW 4756   4.532   3.721   1.386
 1286SOL    HW1 4757   4.585   3.717   1.301
 1286SOL    HW2 4758   4.556   3.804   1.436
 1287SOL     OW 4759   6.094   5.583   5.325
 1287SOL    HW1 4760   6.042   5.630   5.396
 1287SOL    HW2 4761   6.148   5.509   5.365
 1288SOL     OW 4762   3.983   3.304   6.342
 1288SOL    HW1 4763   3.941   3.394   6.356
 1288SOL    HW2 4764   3.911   3.234   6.340
 1289SOL     OW 4765   6.636   6.818   1.260
 1289SOL    HW1 4766   6.543   6.834   1.226
 1289SOL    HW2 4767   6.653   6.720   1.263
 1290SOL     OW 4768   0.909   6.733   0.075
 1290SOL    HW1 4769   0.925   6.698   7.002
 1290SOL    HW2 4770   0.812   6.726   0.096
 1291SOL     OW 4771   0.039   4.050   4.529
 1291SOL    HW1 4772   6.986   4.113   4.504
 1291SOL    HW2 4773   0.059   3.990   4.452
 1292SOL     OW 4774   0.927   6.086   2.303
 1292SOL    HW1 4775   0.932   6.166   2.363
 1292SOL    HW2 4776   0.833   6.073   2.274
 1293SOL     OW 4777   0.881   1.937   6.630
 1293SOL    HW1 4778   0.936   1.907   6.708
 1293SOL    HW2 4779   0.930   2.008   6.580
 1294SOL     OW 4780   0.758   3.860   6.198
 1294SOL    HW1 4781   0.815   3.788   6.158
 1294SOL    HW2 4782   0.796   3.888   6.286
 1295SOL     OW 4783   0.198   3.407   1.682
 1295SOL    HW1 4784   0.165   3.315   1.665
 1295SOL    HW2 4785   0.239   3.411   1.774
 1296SOL     OW 4786   4.232   6.565   5.931
 1296SOL    HW1 4787   4.204   6.639   5.871
 1296SOL    HW2 4788   4.156   6.501   5.943
 1297SOL     OW 4789   0.112   0.540   1.260
 1297SOL    HW1 4790   0.121   0.628   1.215
 1297SOL    HW2 4791   0.201   0.494   1.261
 1298SOL     OW 4792   5.563   5.103   3.324
 1298SOL    HW1 4793   5.650   5.077   3.281
 1298SOL    HW2 4794   5.581   5.133   3.418
 1299SOL     OW 4795   1.799   3.346   3.318
 1299SOL    HW1 4796   1.794   3.442   3.344
 1299SOL    HW2 4797   1.714   3.319   3.272
 1300SOL     OW 4798   2.380   2.953   1.149
 1300SOL    HW1 4799   2.354   2.940   1.245
 1300SOL    HW2 4800   2.334   3.034   1.113
 1301SOL     OW 4801   0.065   0.255   1.022
 1301SOL    HW1 4802   0.049   0.326   0.953
 1301SOL    HW2 4803   0.064   0.165   0.977
 1302SOL     OW 4804   4.140   0.639   5.899
 1302SOL    HW1 4805   4.114   0.617   5.993
 1302SOL    HW2 4806   4.205   0.571   5.865
 1303SOL     OW 4807   3.936   2.203   1.543
 1303SOL    HW1 4808   3.955   2.215   1.640
 1303SOL    HW2 4809   3.975   2.279   1.491
 1304SOL     OW 4810   2.191   0.649   6.761
 1304SOL    HW1 4811   2.202   0.550   6.763
 1304SOL    HW2 4812   2.177   0.680   6.667
 1305SOL     OW 4813   5.581   3.771   0.898
 1305SOL    HW1 4814   5.605   3.675   0.905
 1305SOL    HW2 4815   5.580   3.798   0.802
 1306SOL     OW 4816   1.135   5.278   3.869
 1306SOL    HW1 4817   1.166   5.368   3.838
 1306SOL    HW2 4818   1.091   5.230   3.793
 1307SOL     OW 4819   1.730   4.116   4.118
 1307SOL    HW1 4820   1.805   4.180   4.132
 1307SOL    HW2 4821   1.644   4.158   4.148
 1308SOL     OW 4822   6.549   6.972   5.272
 1308SOL    HW1 4823   6.460   7.013   5.252
 1308SOL    HW2 4824   6.620   0.024   5.268
 1309SOL     OW 4825   5.444   4.561   5.423
 1309SOL    HW1 4826   5.390   4.500   5.365
 1309SOL    HW2 4827   5.449   4.651   5.380
 1310SOL     OW 4828   6.256   4.213   3.989
 1310SOL    HW1 4829   6.234   4.119   3.963
 1310SOL    HW2 4830   6.355   4.227   3.985
 1311SOL     OW 4831   0.492   5.962   5.343
 1311SOL    HW1 4832   0.585   5.989   5.320
 1311SOL    HW2 4833   0.455   6.025   5.411
 1312SOL     OW 4834   0.888   6.563   6.893
 1312SOL    HW1 4835   0.909   6.498   6.820
 1312SOL    HW2 4836   0.882   6.515   6.980
 1313SOL     OW 4837   0.520   5.030   2.824
 1313SOL    HW1 4838   0.601   5.056   2.772
 1313SOL    HW2 4839   0.547   5.003   2.917
 1314SOL     OW 4840   4.470   1.287   5.762
 1314SOL    HW1 4841   4.468   1.286   5.862
 1314SOL    HW2 4842   4.431   1.374   5.730
 1315SOL     OW 4843   0.640   1.535   2.309
 1315SOL    HW1 4844   0.634   1.454   2.250
 1315SOL    HW2 4845   0.664   1.615   2.254
 1316SOL     OW 4846   2.896   6.229   5.666
 1316SOL    HW1 4847   2.875   6.222   5.763
 1316SOL    HW2 4848   2.980   6.283   5.654
 1317SOL     OW 4849   1.992   4.262   5.973
 1317SOL    HW1 4850   1.918   4.213   6.020
 1317SOL    HW2 4851   2.079   4.240   6.016
 1318SOL     OW 4852   0.817   1.772   0.851
 1318SOL    HW1 4853   0.847   1.808   0.939
 1318SOL    HW2 4854   0.717   1.774   0.846
 1319SOL     OW 4855   6.378   6.497   0.001
 1319SOL    HW1 4856   6.351   6.434   6.947
 1319SOL    HW2 4857   6.452   6.556   6.988
 1320SOL     OW 4858   4.091   4.659   6.899
 1320SOL    HW1 4859   4.026   4.627   6.969
 1320SOL    HW2 4860   4.042   4.717   6.834
 1321SOL     OW 4861   5.576   1.961   6.596
 1321SOL    HW1 4862   5.544   1.902   6.670
 1321SOL    HW2 4863   5.646   1.914   6.544
 1322SOL     OW 4864   3.750   1.093   3.171
 1322SOL    HW1 4865   3.789   1.181   3.144
 1322SOL    HW2 4866   3.724   1.097   3.268
 1323SOL     OW 4867   4.325   0.346   6.365
 1323SOL    HW1 4868   4.252   0.334   6.298
 1323SOL    HW2 4869   4.359   0.440   6.361
 1324SOL     OW 4870   0.646   3.809   6.694
 1324SOL    HW1 4871   0.576   3.873   6.662
 1324SOL    HW2 4872   0.655   3.816   6.793
 1325SOL     OW 4873   2.196   0.003   3.485
 1325SOL    HW1 4874   2.267   7.016   3.555
 1325SOL    HW2 4875   2.167   6.931   3.458
 1326SOL     OW 4876   4.709   3.830   5.487
 1326SOL    HW1 4877   4.646   3.896   5.526
 1326SOL    HW2 4878   4.729   3.854   5.392
 1327SOL     OW 4879   0.764   5.946   1.635
 1327SOL    HW1 4880   0.774   5.985   1.727
 1327SOL    HW2 4881   0.792   6.014   1.568
 1328SOL     OW 4882   2.024   3.111   1.611
 1328SOL    HW1 4883   2.077   3.188   1.645
 1328SOL    HW2 4884   1.982   3.135   1.523
 1329SOL     OW 4885   0.839   2.466   1.913
 1329SOL    HW1 4886   0.789   2.500   1.834
 1329SOL    HW2 4887   0.820   2.524   1.992
 1330SOL     OW 4888   0.837   0.966   2.163
 1330SOL    HW1 4889   0.739   0.979   2.147
 1330SOL    HW2 4890   0.883   0.953   2.075
 1331SOL     OW 4891   4.843   3.048   2.522
 1331SOL    HW1 4892   4.796   2.985   2.583
 1331SOL    HW2 4893   4.858   3.004   2.433
 1332SOL     OW 4894   2.810   0.125   6.952
 1332SOL    HW1 4895   2.714   0.144   6.929
 1332SOL    HW2 4896   2.841   0.045   6.902
 1333SOL     OW 4897   2.980   3.282   4.009
 1333SOL    HW1 4898   2.904   3.338   3.976
 1333SOL    HW2 4899   2.992   3.296   4.107
 1334SOL     OW 4900   6.125   1.690   3.995
 1334SOL    HW1 4901   6.223   1.703   3.979
 1334SOL    HW2 4902   6.075   1.770   3.963
 1335SOL     OW 4903   2.067   1.711   2.395
 1335SOL    HW1 4904   1.973   1.743   2.409
 1335SOL    HW2 4905   2.080   1.686   2.299
 1336SOL     OW 4906   2.145   2.627   5.116
 1336SOL    HW1 4907   2.059   2.677   5.116
 1336SOL    HW2 4908   2.213   2.678   5.169
 1337SOL     OW 4909   1.488   2.184   4.701
 1337SOL    HW1 4910   1.539   2.166   4.617
 1337SOL    HW2 4911   1.396   2.217   4.678
 1338SOL     OW 4912   5.479   2.223   4.716
 1338SOL    HW1 4913   5.488   2.146   4.653
 1338SOL    HW2 4914   5.482   2.309   4.665
 1339SOL     OW 4915   6.279   2.187   6.466
 1339SOL    HW1 4916   6.290   2.095   6.429
 1339SOL    HW2 4917   6.195   2.193   6.520
 1340SOL     OW 4918   6.116   1.802   2.508
 1340SOL    HW1 4919   6.026   1.764   2.486
 1340SOL    HW2 4920   6.171   1.805   2.424
 1341SOL     OW 4921   5.105   6.669   6.664
 1341SOL    HW1 4922   5.184   6.626   6.707
 1341SOL    HW2 4923   5.128   6.697   6.571
 1342SOL     OW 4924   2.831   5.793   6.068
 1342SOL    HW1 4925   2.802   5.792   6.164
 1342SOL    HW2 4926   2.913   5.736   6.058
 1343SOL     OW 4927   5.324   5.436   2.557
 1343SOL    HW1 4928   5.230   5.439   2.591
 1343SOL    HW2 4929   5.330   5.487   2.471
 1344SOL     OW 4930   6.924   5.809   4.701
 1344SOL    HW1 4931   7.006   5.865   4.698
 1344SOL    HW2 4932   6.911   5.764   4.612
 1345SOL     OW 4933   1.264   6.935   3.201
 1345SOL    HW1 4934   1.306   6.850   3.234
 1345SOL    HW2 4935   1.335   6.995   3.164
 1346SOL     OW 4936   0.875   5.492   4.734
 1346SOL    HW1 4937   0.879   5.515   4.637
 1346SOL    HW2 4938   0.859   5.393   4.744
 1347SOL     OW 4939   0.177   6.369   5.330
 1347SOL    HW1 4940   0.086   6.351   5.293
 1347SOL    HW2 4941   0.195   6.467   5.326
 1348SOL     OW 4942   5.586   5.969   3.540
 1348SOL    HW1 4943   5.521   5.967   3.464
 1348SOL    HW2 4944   5.671   5.924   3.512
 1349SOL     OW 4945   4.533   2.610   5.603
 1349SOL    HW1 4946   4.589   2.660   5.535
 1349SOL    HW2 4947   4.592   2.550   5.656
 1350SOL     OW 4948   5.379   5.164   5.288
 1350SOL    HW1 4949   5.360   5.073   5.325
 1350SOL    HW2 4950   5.304   5.226   5.312
 1351SOL     OW 4951   5.716   2.013   2.816
 1351SOL    HW1 4952   5.816   2.022   2.821
 1351SOL    HW2 4953   5.693   1.936   2.757
 1352SOL     OW 4954   6.944   6.363   2.516
 1352SOL    HW1 4955   6.871   6.417   2.474
 1352SOL    HW2 4956   6.906   6.275   2.547
 1353SOL     OW 4957   7.017   2.249   0.568
 1353SOL    HW1 4958   6.965   2.328   0.536
 1353SOL    HW2 4959   6.953   2.174   0.589
 1354SOL     OW 4960   1.093   4.286   1.961
 1354SOL    HW1 4961   1.183   4.295   2.003
 1354SOL    HW2 4962   1.064   4.375   1.926
 1355SOL     OW 4963   6.156   2.869   4.014
 1355SOL    HW1 4964   6.136   2.790   3.956
 1355SOL    HW2 4965   6.222   2.843   4.084
 1356SOL     OW 4966   3.308   3.185   2.469
 1356SOL    HW1 4967   3.376   3.189   2.543
 1356SOL    HW2 4968   3.301   3.092   2.435
 1357SOL     OW 4969   0.639   3.539   6.188
 1357SOL    HW1 4970   0.734   3.546   6.217
 1357SOL    HW2 4971   0.636   3.514   6.091
 1358SOL     OW 4972   4.224   6.980   6.296
 1358SOL    HW1 4973   4.158   7.004   6.225
 1358SOL    HW2 4974   4.313   0.000   6.274
 1359SOL     OW 4975   5.954   5.321   2.141
 1359SOL    HW1 4976   5.914   5.409   2.166
 1359SOL    HW2 4977   6.013   5.333   2.061
 1360SOL     OW 4978   3.062   2.951   6.843
 1360SOL    HW1 4979   2.983   2.891   6.855
 1360SOL    HW2 4980   3.094   2.980   6.933
 1361SOL     OW 4981   6.977   5.346   5.475
 1361SOL    HW1 4982   0.047   5.389   5.485
 1361SOL    HW2 4983   6.934   5.336   5.565
 1362SOL     OW 4984   3.351   4.120   3.790
 1362SOL    HW1 4985   3.275   4.159   3.738
 1362SOL    HW2 4986   3.410   4.068   3.729
 1363SOL     OW 4987   0.295   5.640   2.896
 1363SOL    HW1 4988   0.386   5.624   2.858
 1363SOL    HW2 4989   0.265   5.558   2.944
 1364SOL     OW 4990   6.486   3.358   1.225
 1364SOL    HW1 4991   6.503   3.403   1.313
 1364SOL    HW2 4992   6.389   3.334   1.218
 1365SOL     OW 4993   0.365   3.489   6.738
 1365SOL    HW1 4994   0.339   3.567   6.681
 1365SOL    HW2 4995   0.294   3.472   6.806
 1366SOL     OW 4996   0.946   4.822   6.998
 1366SOL    HW1 4997   0.887   4.850   6.923
 1366SOL    HW2 4998   0.897   4.759   0.038
 1367SOL     OW 4999   2.052   0.222   3.423
 1367SOL    HW1 5000   2.109   0.141   3.436
 1367SOL    HW2 5001   2.059   0.252   3.328
 1368SOL     OW 5002   5.587   0.500   2.978
 1368SOL    HW1 5003   5.577   0.598   2.996
 1368SOL    HW2 5004   5.539   0.476   2.894
 1369SOL     OW 5005   2.535   6.719   1.214
 1369SOL    HW1 5006   2.595   6.656   1.166
 1369SOL    HW2 5007   2.588   6.799   1.244
 1370SOL     OW 5008   3.733   1.197   0.850
 1370SOL    HW1 5009   3.672   1.118   0.843
 1370SOL    HW2 5010   3.715   1.245   0.936
 1371SOL     OW 5011   6.034   1.853   4.478
 1371SOL    HW1 5012   6.086   1.930   4.440
 1371SOL    HW2 5013   6.000   1.796   4.403
 1372SOL     OW 5014   1.348   3.003   0.141
 1372SOL    HW1 5015   1.265   3.024   0.089
 1372SOL    HW2 5016   1.378   3.085   0.190
 1373SOL     OW 5017   5.213   2.922   0.547
 1373SOL    HW1 5018   5.167   3.010   0.537
 1373SOL    HW2 5019   5.283   2.912   0.476
 1374SOL     OW 5020   5.215   1.788   0.036
 1374SOL    HW1 5021   5.189   1.716   0.101
 1374SOL    HW2 5022   5.137   1.811   6.998
 1375SOL     OW 5023   0.336   4.189   6.079
 1375SOL    HW1 5024   0.386   4.236   6.007
 1375SOL    HW2 5025   0.384   4.105   6.104
 1376SOL     OW 5026   4.372   4.690   4.276
 1376SOL    HW1 5027   4.373   4.788   4.255
 1376SOL    HW2 5028   4.337   4.639   4.198
 1377SOL     OW 5029   6.725   4.128   5.968
 1377SOL    HW1 5030   6.755   4.034   5.950
 1377SOL    HW2 5031   6.626   4.134   5.954
 1378SOL     OW 5032   5.951   1.281   4.675
 1378SOL    HW1 5033   6.032   1.279   4.617
 1378SOL    HW2 5034   5.909   1.372   4.670
 1379SOL     OW 5035   3.203   6.630   2.483
 1379SOL    HW1 5036   3.124   6.674   2.526
 1379SOL    HW2 5037   3.280   6.632   2.547
 1380SOL     OW 5038   0.213   0.509   2.808
 1380SOL    HW1 5039   0.295   0.557   2.841
 1380SOL    HW2 5040   0.235   0.412   2.793
 1381SOL     OW 5041   6.240   2.361   0.452
 1381SOL    HW1 5042   6.186   2.359   0.536
 1381SOL    HW2 5043   6.297   2.278   0.448
 1382SOL     OW 5044   4.246   4.622   0.618
 1382SOL    HW1 5045   4.244   4.570   0.533
 1382SOL    HW2 5046   4.213   4.564   0.693
 1383SOL     OW 5047   1.150   0.322   1.583
 1383SOL    HW1 5048   1.236   0.291   1.542
 1383SOL    HW2 5049   1.139   0.420   1.566
 1384SOL     OW 5050   4.379   0.430   1.851
 1384SOL    HW1 5051   4.409   0.390   1.764
 1384SOL    HW2 5052   4.367   0.357   1.919
 1385SOL     OW 5053   1.030   3.621   3.800
 1385SOL    HW1 5054   1.050   3.647   3.895
 1385SOL    HW2 5055   0.957   3.554   3.798
 1386SOL     OW 5056   2.547   1.158   4.712
 1386SOL    HW1 5057   2.643   1.148   4.687
 1386SOL    HW2 5058   2.497   1.201   4.637
 1387SOL     OW 5059   3.757   6.177   2.567
 1387SOL    HW1 5060   3.765   6.202   2.470
 1387SOL    HW2 5061   3.696   6.240   2.613
 1388SOL     OW 5062   0.287   6.682   3.440
 1388SOL    HW1 5063   0.193   6.648   3.447
 1388SOL    HW2 5064   0.309   6.698   3.344
 1389SOL     OW 5065   0.439   1.088   3.786
 1389SOL    HW1 5066   0.385   1.083   3.870
 1389SOL    HW2 5067   0.434   1.181   3.749
 1390SOL     OW 5068   5.317   2.528   5.950
 1390SOL    HW1 5069   5.376   2.447   5.955
 1390SOL    HW2 5070   5.259   2.532   6.032
 1391SOL     OW 5071   6.314   0.832   4.945
 1391SOL    HW1 5072   6.341   0.778   4.866
 1391SOL    HW2 5073   6.233   0.793   4.987
 1392SOL     OW 5074   5.218   6.126   6.477
 1392SOL    HW1 5075   5.274   6.108   6.558
 1392SOL    HW2 5076   5.241   6.060   6.405
 1393SOL     OW 5077   6.086   3.490   6.173
 1393SOL    HW1 5078   6.083   3.392   6.152
 1393SOL    HW2 5079   6.065   3.542   6.090
 1394SOL     OW 5080   4.124   6.351   4.033
 1394SOL    HW1 5081   4.154   6.324   4.124
 1394SOL    HW2 5082   4.024   6.355   4.031
 1395SOL     OW 5083   1.285   4.143   3.998
 1395SOL    HW1 5084   1.244   4.122   3.909
 1395SOL    HW2 5085   1.260   4.235   4.026
 1396SOL     OW 5086   1.636   0.433   3.769
 1396SOL    HW1 5087   1.603   0.440   3.675
 1396SOL    HW2 5088   1.562   0.403   3.829
 1397SOL     OW 5089   0.843   6.049   4.500
 1397SOL    HW1 5090   0.771   6.119   4.496
 1397SOL    HW2 5091   0.871   6.024   4.407
 1398SOL     OW 5092   1.310   1.812   6.525
 1398SOL    HW1 5093   1.387   1.859   6.569
 1398SOL    HW2 5094   1.345   1.749   6.456
 1399SOL     OW 5095   4.122   0.521   0.045
 1399SOL    HW1 5096   4.057   0.560   0.111
 1399SOL    HW2 5097   4.083   0.438   0.004
 1400SOL     OW 5098   6.962   2.239   4.309
 1400SOL    HW1 5099   6.992   2.168   4.373
 1400SOL    HW2 5100   6.945   2.324   4.359
 1401SOL     OW 5101   6.168   6.795   4.392
 1401SOL    HW1 5102   6.121   6.731   4.452
 1401SOL    HW2 5103   6.163   6.763   4.297
 1402SOL     OW 5104   5.876   4.358   6.839
 1402SOL    HW1 5105   5.791   4.350   6.786
 1402SOL    HW2 5106   5.861   4.320   6.930
 1403SOL     OW 5107   1.899   2.005   1.345
 1403SOL    HW1 5108   1.885   2.095   1.386
 1403SOL    HW2 5109   1.908   1.936   1.417
 1404SOL     OW 5110   5.835   6.808   0.207
 1404SOL    HW1 5111   5.769   6.733   0.197
 1404SOL    HW2 5112   5.809   6.865   0.286
 1405SOL     OW 5113   2.849   3.309   0.590
 1405SOL    HW1 5114   2.758   3.343   0.564
 1405SOL    HW2 5115   2.893   3.376   0.650
 1406SOL     OW 5116   2.773   4.597   0.784
 1406SOL    HW1 5117   2.818   4.536   0.850
 1406SOL    HW2 5118   2.730   4.543   0.712
 1407SOL     OW 5119   1.742   3.966   3.322
 1407SOL    HW1 5120   1.718   3.908   3.244
 1407SOL    HW2 5121   1.689   4.051   3.318
 1408SOL     OW 5122   5.370   6.547   6.709
 1408SOL    HW1 5123   5.398   6.607   6.784
 1408SOL    HW2 5124   5.395   6.453   6.730
 1409SOL     OW 5125   6.693   0.767   4.777
 1409SOL    HW1 5126   6.652   0.848   4.819
 1409SOL    HW2 5127   6.786   0.755   4.811
 1410SOL     OW 5128   3.346   4.288   0.400
 1410SOL    HW1 5129   3.300   4.374   0.379
 1410SOL    HW2 5130   3.445   4.303   0.403
 1411SOL     OW 5131   3.575   5.860   6.144
 1411SOL    HW1 5132   3.583   5.819   6.053
 1411SOL    HW2 5133   3.644   5.820   6.204
 1412SOL     OW 5134   0.650   4.228   1.451
 1412SOL    HW1 5135   0.581   4.285   1.496
 1412SOL    HW2 5136   0.729   4.219   1.511
 1413SOL     OW 5137   1.395   1.642   4.375
 1413SOL    HW1 5138   1.479   1.643   4.321
 1413SOL    HW2 5139   1.399   1.714   4.444
 1414SOL     OW 5140   1.690   2.033   2.116
 1414SOL    HW1 5141   1.677   2.078   2.204
 1414SOL    HW2 5142   1.730   1.942   2.130
 1415SOL     OW 5143   3.039   1.377   4.759
 1415SOL    HW1 5144   3.004   1.443   4.825
 1415SOL    HW2 5145   3.138   1.367   4.770
 1416SOL     OW 5146   3.536   0.857   4.184
 1416SOL    HW1 5147   3.547   0.821   4.277
 1416SOL    HW2 5148   3.443   0.892   4.172
 1417SOL     OW 5149   2.979   2.818   5.806
 1417SOL    HW1 5150   2.932   2.905   5.789
 1417SOL    HW2 5151   2.917   2.742   5.787
 1418SOL     OW 5152   3.006   3.427   6.948
 1418SOL    HW1 5153   2.971   3.512   6.987
 1418SOL    HW2 5154   2.984   3.423   6.850
 1419SOL     OW 5155   2.660   5.295   4.014
 1419SOL    HW1 5156   2.605   5.214   3.991
 1419SOL    HW2 5157   2.677   5.297   4.112
 1420SOL     OW 5158   3.572   5.731   2.701
 1420SOL    HW1 5159   3.496   5.704   2.762
 1420SOL    HW2 5160   3.567   5.829   2.683
 1421SOL     OW 5161   1.063   3.953   4.158
 1421SOL    HW1 5162   1.163   3.944   4.152
 1421SOL    HW2 5163   1.040   4.032   4.215
 1422SOL     OW 5164   3.468   4.093   5.778
 1422SOL    HW1 5165   3.377   4.125   5.753
 1422SOL    HW2 5166   3.517   4.166   5.826
 1423SOL     OW 5167   3.259   0.868   5.271
 1423SOL    HW1 5168   3.278   0.787   5.216
 1423SOL    HW2 5169   3.336   0.884   5.334
 1424SOL     OW 5170   6.566   3.611   6.570
 1424SOL    HW1 5171   6.482   3.656   6.539
 1424SOL    HW2 5172   6.553   3.578   6.663
 1425SOL     OW 5173   2.122   5.488   5.639
 1425SOL    HW1 5174   2.170   5.568   5.602
 1425SOL    HW2 5175   2.124   5.414   5.572
 1426SOL     OW 5176   1.475   1.853   6.174
 1426SOL    HW1 5177   1.569   1.859   6.207
 1426SOL    HW2 5178   1.429   1.941   6.186
 1427SOL     OW 5179   0.238   0.102   3.876
 1427SOL    HW1 5180   0.181   0.024   3.852
 1427SOL    HW2 5181   0.213   0.181   3.819
 1428SOL     OW 5182   0.177   2.055   2.060
 1428SOL    HW1 5183   0.151   2.127   2.125
 1428SOL    HW2 5184   0.157   2.086   1.967
 1429SOL     OW 5185   6.372   1.333   6.979
 1429SOL    HW1 5186   6.282   1.305   7.015
 1429SOL    HW2 5187   6.364   1.351   6.881
 1430SOL     OW 5188   2.364   4.406   3.913
 1430SOL    HW1 5189   2.309   4.366   3.987
 1430SOL    HW2 5190   2.332   4.371   3.825
 1431SOL     OW 5191   2.301   2.439   6.345
 1431SOL    HW1 5192   2.335   2.377   6.275
 1431SOL    HW2 5193   2.309   2.395   6.435
 1432SOL     OW 5194   2.180   0.936   1.621
 1432SOL    HW1 5195   2.157   1.029   1.594
 1432SOL    HW2 5196   2.231   0.939   1.707
 1433SOL     OW 5197   4.271   0.166   4.540
 1433SOL    HW1 5198   4.172   0.183   4.541
 1433SOL    HW2 5199   4.289   0.080   4.491
 1434SOL     OW 5200   6.644   0.808   6.432
 1434SOL    HW1 5201   6.615   0.827   6.526
 1434SOL    HW2 5202   6.645   0.709   6.417
 1435SOL     OW 5203   6.843   0.873   3.198
 1435SOL    HW1 5204   6.869   0.838   3.288
 1435SOL    HW2 5205   6.757   0.924   3.206
 1436SOL     OW 5206   6.108   4.014   0.047
 1436SOL    HW1 5207   6.136   4.025   0.142
 1436SOL    HW2 5208   6.017   4.052   0.034
 1437SOL     OW 5209   3.405   0.466   5.648
 1437SOL    HW1 5210   3.487   0.504   5.606
 1437SOL    HW2 5211   3.426   0.432   5.739
 1438SOL     OW 5212   2.809   0.443   1.550
 1438SOL    HW1 5213   2.828   0.461   1.646
 1438SOL    HW2 5214   2.895   0.435   1.499
 1439SOL     OW 5215   0.431   5.149   0.900
 1439SOL    HW1 5216   0.445   5.093   0.982
 1439SOL    HW2 5217   0.354   5.211   0.915
 1440SOL     OW 5218   3.631   3.300   5.113
 1440SOL    HW1 5219   3.706   3.349   5.068
 1440SOL    HW2 5220   3.659   3.274   5.205
 1441SOL     OW 5221   6.568   3.622   4.432
 1441SOL    HW1 5222   6.654   3.651   4.389
 1441SOL    HW2 5223   6.536   3.538   4.387
 1442SOL     OW 5224   0.028   4.755   0.293
 1442SOL    HW1 5225   0.009   4.676   0.235
 1442SOL    HW2 5226   0.121   4.748   0.329
 1443SOL     OW 5227   0.830   2.450   4.818
 1443SOL    HW1 5228   0.787   2.490   4.737
 1443SOL    HW2 5229   0.760   2.407   4.875
 1444SOL     OW 5230   4.526   6.062   1.235
 1444SOL    HW1 5231   4.585   6.102   1.305
 1444SOL    HW2 5232   4.446   6.120   1.220
 1445SOL     OW 5233   0.481   2.693   2.607
 1445SOL    HW1 5234   0.476   2.594   2.596
 1445SOL    HW2 5235   0.423   2.721   2.684
 1446SOL     OW 5236   5.001   2.509   6.939
 1446SOL    HW1 5237   4.992   2.438   6.870
 1446SOL    HW2 5238   5.098   2.523   6.959
 1447SOL     OW 5239   6.527   6.746   4.877
 1447SOL    HW1 5240   6.585   6.815   4.921
 1447SOL    HW2 5241   6.433   6.781   4.871
 1448SOL     OW 5242   6.566   2.327   0.338
 1448SOL    HW1 5243   6.575   2.269   0.257
 1448SOL    HW2 5244   6.574   2.423   0.311
 1449SOL     OW 5245   5.871   0.507   6.919
 1449SOL    HW1 5246   5.945   0.459   6.966
 1449SOL    HW2 5247   5.784   0.466   6.946
 1450SOL     OW 5248   0.943   2.462   2.372
 1450SOL    HW1 5249   0.872   2.393   2.387
 1450SOL    HW2 5250   0.981   2.492   2.460
 1451SOL     OW 5251   3.487   0.731   2.154
 1451SOL    HW1 5252   3.436   0.797   2.210
 1451SOL    HW2 5253   3.483   0.760   2.058
 1452SOL     OW 5254   4.343   1.875   4.689
 1452SOL    HW1 5255   4.353   1.923   4.776
 1452SOL    HW2 5256   4.245   1.865   4.667
 1453SOL     OW 5257   0.039   3.299   5.171
 1453SOL    HW1 5258   7.006   3.224   5.212
 1453SOL    HW2 5259   0.073   3.359   5.243
 1454SOL     OW 5260   6.349   2.423   2.535
 1454SOL    HW1 5261   6.403   2.436   2.618
 1454SOL    HW2 5262   6.277   2.356   2.552
 1455SOL     OW 5263   2.079   0.304   2.191
 1455SOL    HW1 5264   2.142   0.227   2.186
 1455SOL    HW2 5265   2.098   0.367   2.115
 1456SOL     OW 5266   6.511   0.166   5.032
 1456SOL    HW1 5267   6.428   0.118   5.061
 1456SOL    HW2 5268   6.558   0.202   5.111
 1457SOL     OW 5269   1.454   6.615   1.533
 1457SOL    HW1 5270   1.510   6.673   1.474
 1457SOL    HW2 5271   1.363   6.655   1.542
 1458SOL     OW 5272   5.173   6.397   3.831
 1458SOL    HW1 5273   5.167   6.496   3.838
 1458SOL    HW2 5274   5.265   6.371   3.802
 1459SOL     OW 5275   3.173   4.580   6.269
 1459SOL    HW1 5276   3.122   4.505   6.227
 1459SOL    HW2 5277   3.176   4.658   6.207
 1460SOL     OW 5278   0.477   5.325   5.998
 1460SOL    HW1 5279   0.570   5.318   5.962
 1460SOL    HW2 5280   0.412   5.302   5.926
 1461SOL     OW 5281   0.310   5.051   3.404
 1461SOL    HW1 5282   0.329   4.973   3.464
 1461SOL    HW2 5283   0.285   5.017   3.313
 1462SOL     OW 5284   7.014   0.759   5.979
 1462SOL    HW1 5285   7.018   0.859   5.987
 1462SOL    HW2 5286   6.988   0.719   6.066
 1463SOL     OW 5287   0.473   5.830   6.128
 1463SOL    HW1 5288   0.509   5.764   6.062
 1463SOL    HW2 5289   0.493   5.923   6.096
 1464SOL     OW 5290   6.423   6.965   0.898
 1464SOL    HW1 5291   6.475   6.928   0.975
 1464SOL    HW2 5292   6.478   0.013   0.849
 1465SOL     OW 5293   1.971   1.932   3.343
 1465SOL    HW1 5294   1.879   1.893   3.337
 1465SOL    HW2 5295   2.030   1.890   3.274
 1466SOL     OW 5296   1.470   0.626   2.750
 1466SOL    HW1 5297   1.479   0.660   2.843
 1466SOL    HW2 5298   1.503   0.695   2.685
 1467SOL     OW 5299   2.618   1.038   2.002
 1467SOL    HW1 5300   2.610   1.043   1.903
 1467SOL    HW2 5301   2.649   0.946   2.028
 1468SOL     OW 5302   5.065   5.785   3.217
 1468SOL    HW1 5303   5.059   5.687   3.236
 1468SOL    HW2 5304   5.110   5.799   3.129
 1469SOL     OW 5305   0.946   0.468   2.214
 1469SOL    HW1 5306   1.030   0.448   2.164
 1469SOL    HW2 5307   0.962   0.544   2.277
 1470SOL     OW 5308   1.738   0.815   2.974
 1470SOL    HW1 5309   1.698   0.906   2.964
 1470SOL    HW2 5310   1.668   0.746   2.956
 1471SOL     OW 5311   0.661   0.633   0.798
 1471SOL    HW1 5312   0.745   0.685   0.780
 1471SOL    HW2 5313   0.683   0.536   0.803
 1472SOL     OW 5314   4.381   5.866   4.584
 1472SOL    HW1 5315   4.385   5.831   4.490
 1472SOL    HW2 5316   4.291   5.848   4.622
 1473SOL     OW 5317   5.888   5.474   3.917
 1473SOL    HW1 5318   5.874   5.500   3.822
 1473SOL    HW2 5319   5.979   5.503   3.947
 1474SOL     OW 5320   6.295   6.061   3.457
 1474SOL    HW1 5321   6.209   6.109   3.440
 1474SOL    HW2 5322   6.279   5.962   3.451
 1475SOL     OW 5323   6.217   0.227   1.427
 1475SOL    HW1 5324   6.186   0.319   1.401
 1475SOL    HW2 5325   6.240   0.175   1.345
 1476SOL     OW 5326   1.975   1.532   1.532
 1476SOL    HW1 5327   2.066   1.556   1.497
 1476SOL    HW2 5328   1.984   1.488   1.621
 1477SOL     OW 5329   2.252   0.359   6.800
 1477SOL    HW1 5330   2.271   0.390   6.894
 1477SOL    HW2 5331   2.331   0.310   6.764
 1478SOL     OW 5332   5.041   4.349   0.645
 1478SOL    HW1 5333   5.109   4.421   0.652
 1478SOL    HW2 5334   4.955   4.387   0.613
 1479SOL     OW 5335   1.712   3.375   6.852
 1479SOL    HW1 5336   1.796   3.402   6.901
 1479SOL    HW2 5337   1.701   3.276   6.857
 1480SOL     OW 5338   2.711   7.013   6.302
 1480SOL    HW1 5339   2.636   7.004   6.367
 1480SOL    HW2 5340   2.723   0.090   6.278
 1481SOL     OW 5341   0.283   1.915   5.564
 1481SOL    HW1 5342   0.272   1.976   5.486
 1481SOL    HW2 5343   0.218   1.839   5.557
 1482SOL     OW 5344   5.346   2.560   1.142
 1482SOL    HW1 5345   5.320   2.620   1.067
 1482SOL    HW2 5346   5.273   2.494   1.159
 1483SOL     OW 5347   6.414   2.130   6.034
 1483SOL    HW1 5348   6.509   2.152   6.053
 1483SOL    HW2 5349   6.396   2.035   6.060
 1484SOL     OW 5350   5.992   4.483   4.244
 1484SOL    HW1 5351   6.045   4.512   4.163
 1484SOL    HW2 5352   5.991   4.557   4.311
 1485SOL     OW 5353   3.748   2.061   2.714
 1485SOL    HW1 5354   3.782   2.019   2.630
 1485SOL    HW2 5355   3.821   2.114   2.757
 1486SOL     OW 5356   4.582   2.401   2.679
 1486SOL    HW1 5357   4.604   2.304   2.693
 1486SOL    HW2 5358   4.557   2.415   2.583
 1487SOL     OW 5359   0.083   2.737   6.777
 1487SOL    HW1 5360   0.108   2.643   6.752
 1487SOL    HW2 5361   0.121   2.758   6.867
 1488SOL     OW 5362   5.565   2.370   3.039
 1488SOL    HW1 5363   5.653   2.371   3.085
 1488SOL    HW2 5364   5.492   2.354   3.106
 1489SOL     OW 5365   3.998   5.204   4.051
 1489SOL    HW1 5366   3.960   5.166   3.966
 1489SOL    HW2 5367   4.085   5.248   4.031
 1490SOL     OW 5368   1.777   2.924   1.387
 1490SOL    HW1 5369   1.805   2.856   1.455
 1490SOL    HW2 5370   1.728   2.998   1.433
 1491SOL     OW 5371   6.028   3.519   4.163
 1491SOL    HW1 5372   6.011   3.555   4.255
 1491SOL    HW2 5373   5.961   3.558   4.099
 1492SOL     OW 5374   5.559   1.912   2.460
 1492SOL    HW1 5375   5.586   1.881   2.368
 1492SOL    HW2 5376   5.460   1.909   2.468
 1493SOL     OW 5377   4.976   0.158   3.919
 1493SOL    HW1 5378   5.043   0.114   3.858
 1493SOL    HW2 5379   4.887   0.159   3.875
 1494SOL     OW 5380   5.015   2.315   6.010
 1494SOL    HW1 5381   5.059   2.266   6.085
 1494SOL    HW2 5382   4.918   2.292   6.007
 1495SOL     OW 5383   6.814   2.858   4.422
 1495SOL    HW1 5384   6.851   2.852   4.329
 1495SOL    HW2 5385   6.719   2.888   4.418
 1496SOL     OW 5386   1.112   1.434   2.564
 1496SOL    HW1 5387   1.184   1.404   2.627
 1496SOL    HW2 5388   1.049   1.494   2.613
 1497SOL     OW 5389   0.411   3.514   2.808
 1497SOL    HW1 5390   0.363   3.569   2.739
 1497SOL    HW2 5391   0.464   3.443   2.762
 1498SOL     OW 5392   1.907   4.339   6.502
 1498SOL    HW1 5393   1.957   4.380   6.578
 1498SOL    HW2 5394   1.925   4.391   6.419
 1499SOL     OW 5395   1.286   3.874   5.449
 1499SOL    HW1 5396   1.191   3.845   5.439
 1499SOL    HW2 5397   1.321   3.842   5.538
 1500SOL     OW 5398   6.280   6.760   0.146
 1500SOL    HW1 5399   6.188   6.749   0.184
 1500SOL    HW2 5400   6.296   6.689   0.078
 1501SOL     OW 5401   4.994   1.317   6.365
 1501SOL    HW1 5402   5.088   1.335   6.396
 1501SOL    HW2 5403   4.944   1.403   6.357
 1502SOL     OW 5404   5.665   6.811   1.155
 1502SOL    HW1 5405   5.716   6.724   1.157
 1502SOL    HW2 5406   5.653   6.840   1.060
 1503SOL     OW 5407   2.923   1.062   2.240
 1503SOL    HW1 5408   2.876   1.125   2.179
 1503SOL    HW2 5409   3.016   1.094   2.256
 1504SOL     OW 5410   1.083   1.532   4.612
 1504SOL    HW1 5411   1.034   1.450   4.641
 1504SOL    HW2 5412   1.040   1.613   4.650
 1505SOL     OW 5413   5.603   0.664   6.493
 1505SOL    HW1 5414   5.519   0.651   6.544
 1505SOL    HW2 5415   5.665   0.587   6.509
 1506SOL     OW 5416   1.777   4.969   1.964
 1506SOL    HW1 5417   1.851   5.018   1.918
 1506SOL    HW2 5418   1.772   4.997   2.059
 1507SOL     OW 5419   0.804   2.389   5.795
 1507SOL    HW1 5420   0.756   2.409   5.881
 1507SOL    HW2 5421   0.838   2.295   5.797
 1508SOL     OW 5422   6.502   0.663   1.771
 1508SOL    HW1 5423   6.492   0.675   1.870
 1508SOL    HW2 5424   6.419   0.621   1.734
 1509SOL     OW 5425   4.767   2.397   6.566
 1509SOL    HW1 5426   4.678   2.444   6.568
 1509SOL    HW2 5427   4.803   2.389   6.659
 1510SOL     OW 5428   5.963   2.524   4.028
 1510SOL    HW1 5429   5.993   2.449   4.086
 1510SOL    HW2 5430   6.042   2.565   3.982
 1511SOL     OW 5431   3.443   2.645   1.273
 1511SOL    HW1 5432   3.404   2.726   1.317
 1511SOL    HW2 5433   3.460   2.574   1.341
 1512SOL     OW 5434   0.024   6.500   2.065
 1512SOL    HW1 5435   0.048   6.449   1.983
 1512SOL    HW2 5436   0.094   6.487   2.135
 1513SOL     OW 5437   3.915   0.681   3.948
 1513SOL    HW1 5438   3.821   0.699   3.919
 1513SOL    HW2 5439   3.946   0.593   3.909
 1514SOL     OW 5440   5.058   2.777   5.736
 1514SOL    HW1 5441   5.091   2.812   5.824
 1514SOL    HW2 5442   5.130   2.724   5.692
 1515SOL     OW 5443   6.638   3.436   5.246
 1515SOL    HW1 5444   6.547   3.440   5.205
 1515SOL    HW2 5445   6.706   3.415   5.176
 1516SOL     OW 5446   0.568   0.467   1.160
 1516SOL    HW1 5447   0.517   0.403   1.102
 1516SOL    HW2 5448   0.553   0.560   1.128
 1517SOL     OW 5449   3.852   5.938   3.312
 1517SOL    HW1 5450   3.933   5.907   3.264
 1517SOL    HW2 5451   3.795   5.992   3.250
 1518SOL     OW 5452   0.725   3.106   0.414
 1518SOL    HW1 5453   0.685   3.190   0.452
 1518SOL    HW2 5454   0.653   3.036   0.408
 1519SOL     OW 5455   6.992   4.682   2.518
 1519SOL    HW1 5456   6.980   4.654   2.613
 1519SOL    HW2 5457   0.002   4.603   2.464
 1520SOL     OW 5458   1.110   3.190   2.454
 1520SOL    HW1 5459   1.168   3.229   2.525
 1520SOL    HW2 5460   1.015   3.190   2.484
 1521SOL     OW 5461   3.043   3.657   0.142
 1521SOL    HW1 5462   3.022   3.753   0.122
 1521SOL    HW2 5463   3.130   3.633   0.098
 1522SOL     OW 5464   6.326   1.096   4.825
 1522SOL    HW1 5465   6.360   1.012   4.868
 1522SOL    HW2 5466   6.275   1.072   4.742
 1523SOL     OW 5467   5.150   4.119   0.538
 1523SOL    HW1 5468   5.246   4.137   0.561
 1523SOL    HW2 5469   5.092   4.188   0.581
 1524SOL     OW 5470   1.052   1.945   2.214
 1524SOL    HW1 5471   1.127   2.009   2.198
 1524SOL    HW2 5472   0.972   1.974   2.162
 1525SOL     OW 5473   6.186   2.154   6.948
 1525SOL    HW1 5474   6.113   2.222   6.941
 1525SOL    HW2 5475   6.170   2.082   6.882
 1526SOL     OW 5476   1.462   0.522   0.109
 1526SOL    HW1 5477   1.540   0.581   0.130
 1526SOL    HW2 5478   1.446   0.522   0.010
 1527SOL     OW 5479   3.729   0.673   5.870
 1527SOL    HW1 5480   3.800   0.743   5.886
 1527SOL    HW2 5481   3.681   0.694   5.785
 1528SOL     OW 5482   5.256   5.808   1.654
 1528SOL    HW1 5483   5.203   5.877   1.704
 1528SOL    HW2 5484   5.221   5.799   1.561
 1529SOL     OW 5485   3.401   0.919   6.930
 1529SOL    HW1 5486   3.348   0.838   6.907
 1529SOL    HW2 5487   3.422   0.970   6.847
 1530SOL     OW 5488   2.642   0.735   1.694
 1530SOL    HW1 5489   2.662   0.665   1.763
 1530SOL    HW2 5490   2.634   0.692   1.604
 1531SOL     OW 5491   5.684   1.635   4.390
 1531SOL    HW1 5492   5.603   1.661   4.443
 1531SOL    HW2 5493   5.717   1.546   4.421
 1532SOL     OW 5494   2.528   2.984   5.898
 1532SOL    HW1 5495   2.434   2.974   5.932
 1532SOL    HW2 5496   2.527   2.984   5.798
 1533SOL     OW 5497   0.152   3.378   6.893
 1533SOL    HW1 5498   0.120   3.423   6.976
 1533SOL    HW2 5499   0.075   3.328   6.851
 1534SOL     OW 5500   1.027   4.760   6.563
 1534SOL    HW1 5501   1.012   4.676   6.510
 1534SOL    HW2 5502   1.066   4.830   6.503
 1535SOL     OW 5503   5.148   6.052   4.163
 1535SOL    HW1 5504   5.072   6.034   4.226
 1535SOL    HW2 5505   5.123   6.021   4.071
 1536SOL     OW 5506   3.939   4.533   5.498
 1536SOL    HW1 5507   3.845   4.540   5.465
 1536SOL    HW2 5508   3.964   4.618   5.544
 1537SOL     OW 5509   4.045   5.771   2.795
 1537SOL    HW1 5510   3.969   5.743   2.736
 1537SOL    HW2 5511   4.056   5.870   2.789
 1538SOL     OW 5512   3.149   5.573   6.388
 1538SOL    HW1 5513   3.226   5.579   6.451
 1538SOL    HW2 5514   3.126   5.476   6.373
 1539SOL     OW 5515   4.391   4.344   1.421
 1539SOL    HW1 5516   4.469   4.404   1.405
 1539SOL    HW2 5517   4.416   4.250   1.396
 1540SOL     OW 5518   1.118   0.205   5.206
 1540SOL    HW1 5519   1.151   0.127   5.259
 1540SOL    HW2 5520   1.099   0.176   5.112
 1541SOL     OW 5521   3.455   3.337   2.108
 1541SOL    HW1 5522   3.357   3.319   2.109
 1541SOL    HW2 5523   3.500   3.285   2.181
 1542SOL     OW 5524   0.415   5.382   1.438
 1542SOL    HW1 5525   0.455   5.345   1.354
 1542SOL    HW2 5526   0.485   5.434   1.488
 1543SOL     OW 5527   2.860   3.544   3.870
 1543SOL    HW1 5528   2.850   3.618   3.936
 1543SOL    HW2 5529   2.921   3.574   3.796
 1544SOL     OW 5530   2.982   3.884   1.983
 1544SOL    HW1 5531   2.987   3.927   2.073
 1544SOL    HW2 5532   2.951   3.790   1.992
 1545SOL     OW 5533   5.331   0.755   4.712
 1545SOL    HW1 5534   5.290   0.814   4.781
 1545SOL    HW2 5535   5.290   0.774   4.623
 1546SOL     OW 5536   5.522   0.656   6.212
 1546SOL    HW1 5537   5.425   0.676   6.200
 1546SOL    HW2 5538   5.546   0.660   6.309
 1547SOL     OW 5539   2.573   4.560   2.498
 1547SOL    HW1 5540   2.617   4.647   2.473
 1547SOL    HW2 5541   2.533   4.569   2.590
 1548SOL     OW 5542   5.142   3.833   5.817
 1548SOL    HW1 5543   5.199   3.755   5.792
 1548SOL    HW2 5544   5.081   3.808   5.891
 1549SOL     OW 5545   5.079   1.846   2.414
 1549SOL    HW1 5546   5.085   1.879   2.319
 1549SOL    HW2 5547   5.161   1.793   2.436
 1550SOL     OW 5548   3.071   5.661   6.117
 1550SOL    HW1 5549   3.101   5.594   6.050
 1550SOL    HW2 5550   3.090   5.627   6.209
 1551SOL     OW 5551   2.291   3.298   0.459
 1551SOL    HW1 5552   2.212   3.238   0.444
 1551SOL    HW2 5553   2.327   3.328   0.371
 1552SOL     OW 5554   0.089   0.201   1.714
 1552SOL    HW1 5555   7.014   0.216   1.743
 1552SOL    HW2 5556   0.121   0.280   1.662
 1553SOL     OW 5557   6.310   1.292   5.965
 1553SOL    HW1 5558   6.326   1.384   5.999
 1553SOL    HW2 5559   6.384   1.232   5.995
 1554SOL     OW 5560   3.211   2.178   2.676
 1554SOL    HW1 5561   3.173   2.159   2.766
 1554SOL    HW2 5562   3.306   2.209   2.685
 1555SOL     OW 5563   5.196   2.136   5.779
 1555SOL    HW1 5564   5.183   2.225   5.822
 1555SOL    HW2 5565   5.150   2.065   5.833
 1556SOL     OW 5566   3.689   0.911   0.516
 1556SOL    HW1 5567   3.649   0.994   0.477
 1556SOL    HW2 5568   3.780   0.895   0.476
 1557SOL     OW 5569   2.299   1.409   0.103
 1557SOL    HW1 5570   2.317   1.315   0.072
 1557SOL    HW2 5571   2.383   1.463   0.096
 1558SOL     OW 5572   5.385   1.775   4.205
 1558SOL    HW1 5573   5.433   1.691   4.179
 1558SOL    HW2 5574   5.394   1.842   4.131
 1559SOL     OW 5575   0.086   2.548   0.692
 1559SOL    HW1 5576   0.116   2.637   0.726
 1559SOL    HW2 5577   0.118   2.536   0.598
 1560SOL     OW 5578   3.107   1.426   6.549
 1560SOL    HW1 5579   3.037   1.397   6.485
 1560SOL    HW2 5580   3.188   1.367   6.539
 1561SOL     OW 5581   5.963   6.236   2.976
 1561SOL    HW1 5582   6.022   6.157   2.991
 1561SOL    HW2 5583   5.880   6.226   3.032
 1562SOL     OW 5584   3.566   6.238   1.289
 1562SOL    HW1 5585   3.500   6.217   1.362
 1562SOL    HW2 5586   3.656   6.204   1.315
 1563SOL     OW 5587   2.104   1.852   5.831
 1563SOL    HW1 5588   2.009   1.882   5.821
 1563SOL    HW2 5589   2.127   1.844   5.928
 1564SOL     OW 5590   1.417   2.482   2.957
 1564SOL    HW1 5591   1.362   2.558   2.993
 1564SOL    HW2 5592   1.462   2.511   2.873
 1565SOL     OW 5593   4.214   5.458   4.309
 1565SOL    HW1 5594   4.297   5.406   4.329
 1565SOL    HW2 5595   4.141   5.428   4.371
 1566SOL     OW 5596   6.710   5.529   5.047
 1566SOL    HW1 5597   6.789   5.589   5.055
 1566SOL    HW2 5598   6.681   5.524   4.952
 1567SOL     OW 5599   6.390   5.885   0.371
 1567SOL    HW1 5600   6.464   5.951   0.385
 1567SOL    HW2 5601   6.308   5.933   0.341
 1568SOL     OW 5602   2.100   6.302   2.397
 1568SOL    HW1 5603   2.186   6.318   2.446
 1568SOL    HW2 5604   2.045   6.385   2.397
 1569SOL     OW 5605   3.880   6.809   3.692
 1569SOL    HW1 5606   3.867   6.851   3.782
 1569SOL    HW2 5607   3.808   6.840   3.630
 1570SOL     OW 5608   1.908   6.416   0.530
 1570SOL    HW1 5609   1.893   6.329   0.576
 1570SOL    HW2 5610   1.997   6.414   0.483
 1571SOL     OW 5611   6.840   1.781   3.272
 1571SOL    HW1 5612   6.750   1.824   3.270
 1571SOL    HW2 5613   6.864   1.747   3.181
 1572SOL     OW 5614   2.008   5.745   0.887
 1572SOL    HW1 5615   1.982   5.715   0.979
 1572SOL    HW2 5616   2.073   5.680   0.848
 1573SOL     OW 5617   6.452   5.187   2.057
 1573SOL    HW1 5618   6.531   5.248   2.043
 1573SOL    HW2 5619   6.400   5.181   1.972
 1574SOL     OW 5620   6.460   2.221   3.280
 1574SOL    HW1 5621   6.524   2.294   3.258
 1574SOL    HW2 5622   6.367   2.248   3.254
 1575SOL     OW 5623   2.629   1.399   1.701
 1575SOL    HW1 5624   2.583   1.486   1.683
 1575SOL    HW2 5625   2.693   1.410   1.777
 1576SOL     OW 5626   0.660   0.181   3.749
 1576SOL    HW1 5627   0.741   0.200   3.693
 1576SOL    HW2 5628   0.687   0.134   3.833
 1577SOL     OW 5629   2.572   0.583   5.835
 1577SOL    HW1 5630   2.612   0.574   5.926
 1577SOL    HW2 5631   2.472   0.586   5.843
 1578SOL     OW 5632   5.094   1.945   5.328
 1578SOL    HW1 5633   5.117   1.851   5.354
 1578SOL    HW2 5634   5.099   2.004   5.408
 1579SOL     OW 5635   0.144   1.784   2.057
 1579SOL    HW1 5636   0.187   1.740   1.978
 1579SOL    HW2 5637   0.160   1.883   2.052
 1580SOL     OW 5638   3.632   4.164   4.040
 1580SOL    HW1 5639   3.555   4.173   4.103
 1580SOL    HW2 5640   3.629   4.238   3.972
 1581SOL     OW 5641   6.471   4.973   5.291
 1581SOL    HW1 5642   6.543   4.961   5.223
 1581SOL    HW2 5643   6.440   5.068   5.290
 1582SOL     OW 5644   2.663   6.339   4.641
 1582SOL    HW1 5645   2.569   6.357   4.671
 1582SOL    HW2 5646   2.682   6.241   4.647
 1583SOL     OW 5647   0.507   5.806   3.601
 1583SOL    HW1 5648   0.432   5.842   3.545
 1583SOL    HW2 5649   0.593   5.846   3.571
 1584SOL     OW 5650   0.789   5.304   5.621
 1584SOL    HW1 5651   0.712   5.274   5.565
 1584SOL    HW2 5652   0.788   5.404   5.628
 1585SOL     OW 5653   4.249   2.236   2.928
 1585SOL    HW1 5654   4.197   2.227   3.013
 1585SOL    HW2 5655   4.304   2.320   2.932
 1586SOL     OW 5656   2.948   5.081   2.430
 1586SOL    HW1 5657   2.881   5.109   2.361
 1586SOL    HW2 5658   2.976   4.986   2.412
 1587SOL     OW 5659   2.693   5.673   5.881
 1587SOL    HW1 5660   2.721   5.742   5.948
 1587SOL    HW2 5661   2.736   5.692   5.793
 1588SOL     OW 5662   4.491   1.141   1.726
 1588SOL    HW1 5663   4.563   1.210   1.724
 1588SOL    HW2 5664   4.491   1.096   1.815
 1589SOL     OW 5665   6.940   3.350   2.428
 1589SOL    HW1 5666   0.012   3.377   2.458
 1589SOL    HW2 5667   6.927   3.253   2.445
 1590SOL     OW 5668   5.036   0.581   3.990
 1590SOL    HW1 5669   5.036   0.665   3.936
 1590SOL    HW2 5670   4.954   0.577   4.047
 1591SOL     OW 5671   0.308   5.675   1.088
 1591SOL    HW1 5672   0.259   5.724   1.015
 1591SOL    HW2 5673   0.395   5.720   1.105
 1592SOL     OW 5674   2.384   3.748   6.547
 1592SOL    HW1 5675   2.461   3.784   6.495
 1592SOL    HW2 5676   2.376   3.650   6.531
 1593SOL     OW 5677   1.148   0.067   4.922
 1593SOL    HW1 5678   1.061   0.108   4.896
 1593SOL    HW2 5679   1.136   6.987   4.932
 1594SOL     OW 5680   0.408   6.025   1.909
 1594SOL    HW1 5681   0.408   5.939   1.859
 1594SOL    HW2 5682   0.345   6.018   1.987
 1595SOL     OW 5683   0.757   4.941   0.690
 1595SOL    HW1 5684   0.756   5.028   0.740
 1595SOL    HW2 5685   0.836   4.940   0.628
 1596SOL     OW 5686   6.794   3.427   3.679
 1596SOL    HW1 5687   6.843   3.365   3.740
 1596SOL    HW2 5688   6.774   3.512   3.727
 1597SOL     OW 5689   1.271   5.859   1.180
 1597SOL    HW1 5690   1.277   5.760   1.196
 1597SOL    HW2 5691   1.225   5.875   1.093
 1598SOL     OW 5692   0.292   4.523   6.329
 1598SOL    HW1 5693   0.262   4.481   6.243
 1598SOL    HW2 5694   0.348   4.458   6.379
 1599SOL     OW 5695   5.501   5.557   5.036
 1599SOL    HW1 5696   5.586   5.510   5.060
 1599SOL    HW2 5697   5.480   5.541   4.939
 1600SOL     OW 5698   3.023   1.604   3.814
 1600SOL    HW1 5699   2.967   1.686   3.800
 1600SOL    HW2 5700   3.117   1.631   3.835
 1601SOL     OW 5701   6.318   6.886   4.045
 1601SOL    HW1 5702   6.328   6.843   3.955
 1601SOL    HW2 5703   6.263   6.827   4.104
 1602SOL     OW 5704   4.445   4.489   3.746
 1602SOL    HW1 5705   4.386   4.419   3.787
 1602SOL    HW2 5706   4.393   4.543   3.680
 1603SOL     OW 5707   2.008   5.724   3.373
 1603SOL    HW1 5708   1.916   5.725   3.334
 1603SOL    HW2 5709   2.007   5.765   3.464
 1604SOL     OW 5710   5.017   4.371   1.859
 1604SOL    HW1 5711   5.010   4.329   1.768
 1604SOL    HW2 5712   4.941   4.340   1.915
 1605SOL     OW 5713   6.181   5.434   2.298
 1605SOL    HW1 5714   6.172   5.463   2.203
 1605SOL    HW2 5715   6.143   5.343   2.310
 1606SOL     OW 5716   4.067   6.009   5.902
 1606SOL    HW1 5717   4.141   6.076   5.913
 1606SOL    HW2 5718   4.106   5.921   5.873
 1607SOL     OW 5719   3.766   6.827   0.626
 1607SOL    HW1 5720   3.830   6.898   0.655
 1607SOL    HW2 5721   3.673   6.864   0.623
 1608SOL     OW 5722   0.203   1.007   3.648
 1608SOL    HW1 5723   0.279   1.042   3.703
 1608SOL    HW2 5724   0.127   0.983   3.708
 1609SOL     OW 5725   3.902   0.008   0.426
 1609SOL    HW1 5726   3.803   7.017   0.416
 1609SOL    HW2 5727   3.932   0.088   0.375
 1610SOL     OW 5728   5.767   5.351   0.673
 1610SOL    HW1 5729   5.753   5.448   0.689
 1610SOL    HW2 5730   5.768   5.302   0.760
 1611SOL     OW 5731   2.641   3.012   0.329
 1611SOL    HW1 5732   2.667   2.930   0.380
 1611SOL    HW2 5733   2.572   2.988   0.261
 1612SOL     OW 5734   3.049   0.501   0.444
 1612SOL    HW1 5735   3.140   0.534   0.466
 1612SOL    HW2 5736   3.050   0.402   0.435
 1613SOL     OW 5737   1.692   5.017   2.219
 1613SOL    HW1 5738   1.604   5.061   2.199
 1613SOL    HW2 5739   1.736   5.064   2.295
 1614SOL     OW 5740   5.433   1.707   6.639
 1614SOL    HW1 5741   5.339   1.738   6.655
 1614SOL    HW2 5742   5.444   1.679   6.544
 1615SOL     OW 5743   6.463   5.747   0.113
 1615SOL    HW1 5744   6.470   5.771   0.017
 1615SOL    HW2 5745   6.483   5.827   0.169
 1616SOL     OW 5746   3.586   0.671   4.737
 1616SOL    HW1 5747   3.651   0.605   4.773
 1616SOL    HW2 5748   3.493   0.634   4.743
 1617SOL     OW 5749   5.548   6.087   3.110
 1617SOL    HW1 5750   5.602   6.080   3.026
 1617SOL    HW2 5751   5.606   6.124   3.184
 1618SOL     OW 5752   1.802   6.374   3.253
 1618SOL    HW1 5753   1.837   6.294   3.206
 1618SOL    HW2 5754   1.753   6.345   3.335
 1619SOL     OW 5755   0.455   4.403   1.511
 1619SOL    HW1 5756   0.445   4.420   1.609
 1619SOL    HW2 5757   0.370   4.429   1.464
 1620SOL     OW 5758   3.072   4.656   1.261
 1620SOL    HW1 5759   3.019   4.686   1.340
 1620SOL    HW2 5760   3.099   4.560   1.273
 1621SOL     OW 5761   6.132   1.016   0.728
 1621SOL    HW1 5762   6.106   0.924   0.698
 1621SOL    HW2 5763   6.072   1.083   0.685
 1622SOL     OW 5764   0.564   3.252   5.461
 1622SOL    HW1 5765   0.633   3.281   5.527
 1622SOL    HW2 5766   0.571   3.154   5.446
 1623SOL     OW 5767   0.824   2.744   4.976
 1623SOL    HW1 5768   0.888   2.675   5.011
 1623SOL    HW2 5769   0.866   2.793   4.901
 1624SOL     OW 5770   3.726   1.228   5.198
 1624SOL    HW1 5771   3.701   1.153   5.136
 1624SOL    HW2 5772   3.646   1.286   5.213
 1625SOL     OW 5773   1.223   4.691   0.210
 1625SOL    HW1 5774   1.258   4.754   0.142
 1625SOL    HW2 5775   1.295   4.669   0.276
 1626SOL     OW 5776   3.398   1.073   0.962
 1626SOL    HW1 5777   3.357   1.074   1.053
 1626SOL    HW2 5778   3.350   1.009   0.903
 1627SOL     OW 5779   5.806   3.409   3.789
 1627SOL    HW1 5780   5.900   3.378   3.777
 1627SOL    HW2 5781   5.805   3.492   3.846
 1628SOL     OW 5782   4.505   5.283   6.975
 1628SOL    HW1 5783   4.522   5.367   0.007
 1628SOL    HW2 5784   4.515   5.302   6.877
 1629SOL     OW 5785   2.960   1.060   3.797
 1629SOL    HW1 5786   3.052   1.098   3.793
 1629SOL    HW2 5787   2.933   1.028   3.706
 1630SOL     OW 5788   0.389   4.834   6.394
 1630SOL    HW1 5789   0.365   4.750   6.442
 1630SOL    HW2 5790   0.376   4.912   6.455
 1631SOL     OW 5791   0.930   2.501   0.644
 1631SOL    HW1 5792   0.983   2.433   0.695
 1631SOL    HW2 5793   0.937   2.482   0.546
 1632SOL     OW 5794   5.810   2.547   1.719
 1632SOL    HW1 5795   5.782   2.455   1.693
 1632SOL    HW2 5796   5.729   2.600   1.746
 1633SOL     OW 5797   4.902   3.877   4.298
 1633SOL    HW1 5798   4.931   3.782   4.286
 1633SOL    HW2 5799   4.912   3.926   4.211
 1634SOL     OW 5800   5.013   5.839   4.538
 1634SOL    HW1 5801   4.955   5.764   4.567
 1634SOL    HW2 5802   5.024   5.904   4.614
 1635SOL     OW 5803   0.831   5.343   6.789
 1635SOL    HW1 5804   0.906   5.374   6.732
 1635SOL    HW2 5805   0.764   5.416   6.800
 1636SOL     OW 5806   3.011   4.825   0.962
 1636SOL    HW1 5807   3.001   4.781   1.052
 1636SOL    HW2 5808   3.065   4.767   0.902
 1637SOL     OW 5809   6.885   0.321   3.722
 1637SOL    HW1 5810   6.890   0.418   3.745
 1637SOL    HW2 5811   6.798   0.283   3.754
 1638SOL     OW 5812   0.169   3.382   2.560
 1638SOL    HW1 5813   0.130   3.349   2.646
 1638SOL    HW2 5814   0.201   3.476   2.571
 1639SOL     OW 5815   5.396   5.230   1.305
 1639SOL    HW1 5816   5.449   5.267   1.381
 1639SOL    HW2 5817   5.457   5.212   1.227
 1640SOL     OW 5818   5.497   0.079   7.004
 1640SOL    HW1 5819   5.535   0.040   0.068
 1640SOL    HW2 5820   5.443   0.161   0.007
 1641SOL     OW 5821   4.950   2.093   2.448
 1641SOL    HW1 5822   4.986   1.999   2.451
 1641SOL    HW2 5823   4.940   2.128   2.541
 1642SOL     OW 5824   6.900   3.425   0.158
 1642SOL    HW1 5825   6.977   3.365   0.179
 1642SOL    HW2 5826   6.935   3.516   0.132
 1643SOL     OW 5827   2.813   4.758   4.486
 1643SOL    HW1 5828   2.780   4.787   4.576
 1643SOL    HW2 5829   2.788   4.662   4.471
 1644SOL     OW 5830   5.847   4.097   0.014
 1644SOL    HW1 5831   5.781   4.064   0.081
 1644SOL    HW2 5832   5.809   4.087   6.941
 1645SOL     OW 5833   2.822   5.392   6.238
 1645SOL    HW1 5834   2.803   5.483   6.273
 1645SOL    HW2 5835   2.797   5.388   6.141
 1646SOL     OW 5836   1.771   6.708   0.795
 1646SOL    HW1 5837   1.803   6.614   0.802
 1646SOL    HW2 5838   1.849   6.769   0.779
 1647SOL     OW 5839   5.916   2.950   4.444
 1647SOL    HW1 5840   5.998   2.977   4.395
 1647SOL    HW2 5841   5.870   3.032   4.480
 1648SOL     OW 5842   5.007   5.637   0.351
 1648SOL    HW1 5843   4.951   5.635   0.434
 1648SOL    HW2 5844   4.985   5.718   0.298
 1649SOL     OW 5845   3.540   1.316   4.559
 1649SOL    HW1 5846   3.611   1.259   4.519
 1649SOL    HW2 5847   3.558   1.329   4.656
 1650SOL     OW 5848   0.654   5.822   4.734
 1650SOL    HW1 5849   0.742   5.830   4.686
 1650SOL    HW2 5850   0.664   5.759   4.812
 1651SOL     OW 5851   0.115   2.208   1.850
 1651SOL    HW1 5852   0.137   2.267   1.772
 1651SOL    HW2 5853   0.111   2.113   1.819
 1652SOL     OW 5854   1.417   2.867   2.714
 1652SOL    HW1 5855   1.411   2.860   2.615
 1652SOL    HW2 5856   1.490   2.930   2.739
 1653SOL     OW 5857   0.792   6.344   0.144
 1653SOL    HW1 5858   0.887   6.375   0.151
 1653SOL    HW2 5859   0.790   6.256   0.097
 1654SOL     OW 5860   6.946   3.484   1.584
 1654SOL    HW1 5861   0.021   3.476   1.616
 1654SOL    HW2 5862   6.940   3.554   1.513
 1655SOL     OW 5863   0.418   2.469   4.693
 1655SOL    HW1 5864   0.372   2.556   4.707
 1655SOL    HW2 5865   0.468   2.471   4.606
 1656SOL     OW 5866   2.333   5.129   3.012
 1656SOL    HW1 5867   2.339   5.159   3.108
 1656SOL    HW2 5868   2.424   5.130   2.971
 1657SOL     OW 5869   5.777   1.267   4.180
 1657SOL    HW1 5870   5.790   1.176   4.218
 1657SOL    HW2 5871   5.807   1.267   4.084
 1658SOL     OW 5872   5.456   0.765   1.317
 1658SOL    HW1 5873   5.375   0.823   1.323
 1658SOL    HW2 5874   5.494   0.751   1.408
 1659SOL     OW 5875   3.080   0.373   6.854
 1659SOL    HW1 5876   3.030   0.295   6.816
 1659SOL    HW2 5877   3.022   0.454   6.855
 1660SOL     OW 5878   1.921   5.857   3.024
 1660SOL    HW1 5879   2.009   5.822   3.055
 1660SOL    HW2 5880   1.910   5.839   2.926
 1661SOL     OW 5881   2.334   6.373   1.033
 1661SOL    HW1 5882   2.302   6.450   0.977
 1661SOL    HW2 5883   2.289   6.289   1.003
 1662SOL     OW 5884   0.199   1.326   4.035
 1662SOL    HW1 5885   0.240   1.273   4.109
 1662SOL    HW2 5886   0.270   1.352   3.969
 1663SOL     OW 5887   4.245   5.959   3.013
 1663SOL    HW1 5888   4.211   5.872   2.978
 1663SOL    HW2 5889   4.226   6.032   2.947
 1664SOL     OW 5890   2.662   6.275   5.300
 1664SOL    HW1 5891   2.717   6.191   5.302
 1664SOL    HW2 5892   2.636   6.299   5.393
 1665SOL     OW 5893   6.274   2.900   2.503
 1665SOL    HW1 5894   6.247   2.854   2.419
 1665SOL    HW2 5895   6.300   2.832   2.572
 1666SOL     OW 5896   5.057   1.542   6.568
 1666SOL    HW1 5897   4.969   1.499   6.549
 1666SOL    HW2 5898   5.067   1.624   6.512
 1667SOL     OW 5899   0.120   6.917   0.993
 1667SOL    HW1 5900   0.147   6.830   0.953
 1667SOL    HW2 5901   0.093   6.903   1.088
 1668SOL     OW 5902   5.129   5.596   3.917
 1668SOL    HW1 5903   5.205   5.660   3.931
 1668SOL    HW2 5904   5.158   5.523   3.855
 1669SOL     OW 5905   6.561   4.665   5.766
 1669SOL    HW1 5906   6.654   4.701   5.771
 1669SOL    HW2 5907   6.497   4.742   5.755
 1670SOL     OW 5908   6.806   4.364   5.381
 1670SOL    HW1 5909   6.835   4.283   5.332
 1670SOL    HW2 5910   6.858   4.372   5.467
 1671SOL     OW 5911   5.234   1.815   3.122
 1671SOL    HW1 5912   5.159   1.771   3.072
 1671SOL    HW2 5913   5.315   1.819   3.064
 1672SOL     OW 5914   1.512   3.712   1.447
 1672SOL    HW1 5915   1.509   3.788   1.382
 1672SOL    HW2 5916   1.510   3.626   1.396
 1673SOL     OW 5917   1.175   1.498   5.178
 1673SOL    HW1 5918   1.113   1.538   5.245
 1673SOL    HW2 5919   1.269   1.506   5.210
 1674SOL     OW 5920   0.737   2.768   2.524
 1674SOL    HW1 5921   0.805   2.695   2.531
 1674SOL    HW2 5922   0.645   2.729   2.529
 1675SOL     OW 5923   4.855   0.188   0.318
 1675SOL    HW1 5924   4.818   0.134   0.393
 1675SOL    HW2 5925   4.889   0.127   0.246
 1676SOL     OW 5926   2.535   2.109   1.534
 1676SOL    HW1 5927   2.541   2.147   1.626
 1676SOL    HW2 5928   2.486   2.172   1.475
 1677SOL     OW 5929   3.129   3.066   4.150
 1677SOL    HW1 5930   3.188   3.146   4.140
 1677SOL    HW2 5931   3.038   3.086   4.113
 1678SOL     OW 5932   6.434   4.522   2.897
 1678SOL    HW1 5933   6.499   4.476   2.837
 1678SOL    HW2 5934   6.346   4.474   2.894
 1679SOL     OW 5935   2.479   2.187   4.755
 1679SOL    HW1 5936   2.430   2.148   4.677
 1679SOL    HW2 5937   2.529   2.268   4.726
 1680SOL     OW 5938   0.488   2.748   5.511
 1680SOL    HW1 5939   0.539   2.685   5.570
 1680SOL    HW2 5940   0.455   2.699   5.431
 1681SOL     OW 5941   0.597   5.056   0.099
 1681SOL    HW1 5942   0.626   5.036   0.005
 1681SOL    HW2 5943   0.530   4.987   0.128
 1682SOL     OW 5944   2.003   0.937   5.866
 1682SOL    HW1 5945   2.021   1.004   5.794
 1682SOL    HW2 5946   2.038   0.848   5.838
 1683SOL     OW 5947   5.813   5.360   2.613
 1683SOL    HW1 5948   5.910   5.345   2.630
 1683SOL    HW2 5949   5.788   5.323   2.523
 1684SOL     OW 5950   0.851   6.382   2.091
 1684SOL    HW1 5951   0.818   6.383   2.185
 1684SOL    HW2 5952   0.939   6.334   2.087
 1685SOL     OW 5953   1.720   1.141   5.631
 1685SOL    HW1 5954   1.789   1.091   5.579
 1685SOL    HW2 5955   1.757   1.166   5.720
 1686SOL     OW 5956   2.736   6.043   4.354
 1686SOL    HW1 5957   2.697   6.123   4.309
 1686SOL    HW2 5958   2.710   6.043   4.450
 1687SOL     OW 5959   1.326   2.841   1.862
 1687SOL    HW1 5960   1.402   2.906   1.862
 1687SOL    HW2 5961   1.355   2.755   1.903
 1688SOL     OW 5962   2.444   1.955   3.616
 1688SOL    HW1 5963   2.444   1.855   3.607
 1688SOL    HW2 5964   2.538   1.988   3.617
 1689SOL     OW 5965   6.282   0.652   3.280
 1689SOL    HW1 5966   6.363   0.593   3.270
 1689SOL    HW2 5967   6.295   0.713   3.357
 1690SOL     OW 5968   1.429   2.711   4.346
 1690SOL    HW1 5969   1.510   2.652   4.343
 1690SOL    HW2 5970   1.373   2.687   4.425
 1691SOL     OW 5971   5.187   3.067   3.398
 1691SOL    HW1 5972   5.224   3.130   3.466
 1691SOL    HW2 5973   5.099   3.032   3.430
 1692SOL     OW 5974   5.176   6.337   1.066
 1692SOL    HW1 5975   5.147   6.275   1.138
 1692SOL    HW2 5976   5.268   6.371   1.086
 1693SOL     OW 5977   6.206   1.928   2.728
 1693SOL    HW1 5978   6.176   1.879   2.646
 1693SOL    HW2 5979   6.175   1.879   2.809
 1694SOL     OW 5980   5.634   1.713   3.205
 1694SOL    HW1 5981   5.662   1.731   3.111
 1694SOL    HW2 5982   5.570   1.636   3.207
 1695SOL     OW 5983   4.107   0.654   6.174
 1695SOL    HW1 5984   4.196   0.621   6.207
 1695SOL    HW2 5985   4.106   0.754   6.179
 1696SOL     OW 5986   4.159   6.406   1.279
 1696SOL    HW1 5987   4.252   6.370   1.290
 1696SOL    HW2 5988   4.153   6.495   1.324
 1697SOL     OW 5989   6.225   1.309   0.702
 1697SOL    HW1 5990   6.171   1.313   0.786
 1697SOL    HW2 5991   6.256   1.401   0.677
 1698SOL     OW 5992   3.543   6.989   0.600
 1698SOL    HW1 5993   3.540   0.018   0.512
 1698SOL    HW2 5994   3.548   0.036   0.674
 1699SOL     OW 5995   2.380   1.297   6.738
 1699SOL    HW1 5996   2.480   1.302   6.745
 1699SOL    HW2 5997   2.354   1.208   6.700
 1700SOL     OW 5998   6.423   4.575   3.541
 1700SOL    HW1 5999   6.413   4.562   3.640
 1700SOL    HW2 6000   6.401   4.670   3.518
 1701SOL     OW 6001   5.755   5.002   6.004
 1701SOL    HW1 6002   5.669   4.991   5.954
 1701SOL    HW2 6003   5.791   5.094   5.989
 1702SOL     OW 6004   6.325   1.184   1.235
 1702SOL    HW1 6005   6.419   1.217   1.233
 1702SOL    HW2 6006   6.305   1.138   1.148
 1703SOL     OW 6007   3.468   1.562   0.200
 1703SOL    HW1 6008   3.555   1.544   0.247
 1703SOL    HW2 6009   3.421   1.637   0.246
 1704SOL     OW 6010   0.651   1.683   0.455
 1704SOL    HW1 6011   0.721   1.737   0.501
 1704SOL    HW2 6012   0.590   1.743   0.404
 1705SOL     OW 6013   3.091   2.129   2.148
 1705SOL    HW1 6014   3.078   2.084   2.059
 1705SOL    HW2 6015   3.031   2.208   2.154
 1706SOL     OW 6016   5.265   1.320   1.699
 1706SOL    HW1 6017   5.174   1.280   1.689
 1706SOL    HW2 6018   5.307   1.330   1.609
 1707SOL     OW 6019   4.308   2.185   2.662
 1707SOL    HW1 6020   4.320   2.256   2.593
 1707SOL    HW2 6021   4.275   2.227   2.747
 1708SOL     OW 6022   5.060   5.749   1.889
 1708SOL    HW1 6023   5.138   5.713   1.838
 1708SOL    HW2 6024   4.986   5.770   1.825
 1709SOL     OW 6025   3.247   6.628   2.954
 1709SOL    HW1 6026   3.162   6.582   2.979
 1709SOL    HW2 6027   3.324   6.581   2.997
 1710SOL     OW 6028   4.547   4.744   3.365
 1710SOL    HW1 6029   4.497   4.830   3.363
 1710SOL    HW2 6030   4.582   4.728   3.458
 1711SOL     OW 6031   1.949   4.943   4.732
 1711SOL    HW1 6032   1.909   4.902   4.814
 1711SOL    HW2 6033   1.881   4.946   4.660
 1712SOL     OW 6034   6.572   2.995   4.361
 1712SOL    HW1 6035   6.540   2.967   4.270
 1712SOL    HW2 6036   6.522   2.944   4.431
 1713SOL     OW 6037   4.694   2.575   1.901
 1713SOL    HW1 6038   4.771   2.511   1.903
 1713SOL    HW2 6039   4.611   2.526   1.872
 1714SOL     OW 6040   3.592   1.308   6.314
 1714SOL    HW1 6041   3.525   1.349   6.252
 1714SOL    HW2 6042   3.685   1.327   6.281
 1715SOL     OW 6043   2.301   5.254   3.281
 1715SOL    HW1 6044   2.364   5.325   3.251
 1715SOL    HW2 6045   2.238   5.292   3.348
 1716SOL     OW 6046   3.928   0.004   2.931
 1716SOL    HW1 6047   3.957   6.930   2.951
 1716SOL    HW2 6048   3.844   0.002   2.877
 1717SOL     OW 6049   3.040   5.720   4.910
 1717SOL    HW1 6050   3.101   5.758   4.979
 1717SOL    HW2 6051   3.001   5.794   4.854
 1718SOL     OW 6052   3.417   0.990   1.983
 1718SOL    HW1 6053   3.487   0.933   1.939
 1718SOL    HW2 6054   3.334   0.988   1.928
 1719SOL     OW 6055   2.035   2.612   0.957
 1719SOL    HW1 6056   2.069   2.547   0.889
 1719SOL    HW2 6057   2.035   2.569   1.048
 1720SOL     OW 6058   0.123   3.304   0.156
 1720SOL    HW1 6059   0.130   3.261   0.245
 1720SOL    HW2 6060   0.160   3.243   0.086
 1721SOL     OW 6061   1.737   6.558   1.451
 1721SOL    HW1 6062   1.669   6.490   1.477
 1721SOL    HW2 6063   1.824   6.512   1.431
 1722SOL     OW 6064   2.905   1.643   4.287
 1722SOL    HW1 6065   2.903   1.579   4.210
 1722SOL    HW2 6066   2.995   1.639   4.331
 1723SOL     OW 6067   6.293   2.237   0.163
 1723SOL    HW1 6068   6.250   2.180   0.094
 1723SOL    HW2 6069   6.348   2.179   0.225
 1724SOL     OW 6070   0.296   2.931   2.186
 1724SOL    HW1 6071   0.264   2.984   2.107
 1724SOL    HW2 6072   0.395   2.918   2.180
 1725SOL     OW 6073   1.987   4.851   6.269
 1725SOL    HW1 6074   1.902   4.843   6.216
 1725SOL    HW2 6075   2.063   4.815   6.216
 1726SOL     OW 6076   5.724   4.506   5.238
 1726SOL    HW1 6077   5.671   4.421   5.234
 1726SOL    HW2 6078   5.781   4.505   5.320
 1727SOL     OW 6079   3.498   2.849   3.695
 1727SOL    HW1 6080   3.544   2.895   3.771
 1727SOL    HW2 6081   3.407   2.888   3.682
 1728SOL     OW 6082   5.815   5.702   5.182
 1728SOL    HW1 6083   5.856   5.793   5.174
 1728SOL    HW2 6084   5.798   5.682   5.279
 1729SOL     OW 6085   2.167   3.811   3.250
 1729SOL    HW1 6086   2.099   3.868   3.296
 1729SOL    HW2 6087   2.215   3.755   3.317
 1730SOL     OW 6088   2.386   0.258   5.266
 1730SOL    HW1 6089   2.484   0.245   5.256
 1730SOL    HW2 6090   2.355   0.218   5.352
 1731SOL     OW 6091   0.714   4.193   4.063
 1731SOL    HW1 6092   0.751   4.210   3.972
 1731SOL    HW2 6093   0.712   4.278   4.115
 1732SOL     OW 6094   2.285   4.980   5.953
 1732SOL    HW1 6095   2.251   4.898   6.000
 1732SOL    HW2 6096   2.259   5.061   6.006
 1733SOL     OW 6097   1.676   4.083   1.578
 1733SOL    HW1 6098   1.623   4.119   1.501
 1733SOL    HW2 6099   1.767   4.056   1.546
 1734SOL     OW 6100   4.577   2.800   1.192
 1734SOL    HW1 6101   4.594   2.881   1.136
 1734SOL    HW2 6102   4.663   2.750   1.206
 1735SOL     OW 6103   4.394   5.536   6.357
 1735SOL    HW1 6104   4.387   5.630   6.325
 1735SOL    HW2 6105   4.302   5.500   6.374
 1736SOL     OW 6106   3.521   3.703   1.133
 1736SOL    HW1 6107   3.571   3.737   1.212
 1736SOL    HW2 6108   3.464   3.626   1.160
 1737SOL     OW 6109   4.614   0.777   4.733
 1737SOL    HW1 6110   4.604   0.704   4.800
 1737SOL    HW2 6111   4.687   0.754   4.669
 1738SOL     OW 6112   2.017   2.801   4.584
 1738SOL    HW1 6113   1.997   2.711   4.546
 1738SOL    HW2 6114   2.017   2.795   4.684
 1739SOL     OW 6115   0.195   2.026   5.339
 1739SOL    HW1 6116   0.137   2.104   5.361
 1739SOL    HW2 6117   0.269   2.055   5.278
 1740SOL     OW 6118   0.120   2.326   5.119
 1740SOL    HW1 6119   0.151   2.255   5.056
 1740SOL    HW2 6120   0.136   2.296   5.213
 1741SOL     OW 6121   2.501   0.227   4.396
 1741SOL    HW1 6122   2.415   0.218   4.346
 1741SOL    HW2 6123   2.501   0.313   4.448
 1742SOL     OW 6124   6.092   0.736   5.746
 1742SOL    HW1 6125   6.145   0.768   5.668
 1742SOL    HW2 6126   6.044   0.652   5.722
 1743SOL     OW 6127   0.801   2.035   2.137
 1743SOL    HW1 6128   0.776   2.024   2.233
 1743SOL    HW2 6129   0.720   2.022   2.079
 1744SOL     OW 6130   6.256   3.426   3.383
 1744SOL    HW1 6131   6.187   3.498   3.375
 1744SOL    HW2 6132   6.228   3.360   3.452
 1745SOL     OW 6133   5.288   5.777   2.513
 1745SOL    HW1 6134   5.189   5.780   2.500
 1745SOL    HW2 6135   5.314   5.687   2.549
 1746SOL     OW 6136   1.479   4.193   4.194
 1746SOL    HW1 6137   1.446   4.173   4.286
 1746SOL    HW2 6138   1.400   4.196   4.131
 1747SOL     OW 6139   4.385   1.699   2.462
 1747SOL    HW1 6140   4.404   1.632   2.533
 1747SOL    HW2 6141   4.328   1.772   2.500
 1748SOL     OW 6142   0.242   2.120   4.970
 1748SOL    HW1 6143   0.257   2.171   4.885
 1748SOL    HW2 6144   0.206   2.029   4.949
 1749SOL     OW 6145   2.430   6.868   5.689
 1749SOL    HW1 6146   2.410   6.828   5.599
 1749SOL    HW2 6147   2.446   6.966   5.679
 1750SOL     OW 6148   5.179   6.040   3.673
 1750SOL    HW1 6149   5.128   6.124   3.655
 1750SOL    HW2 6150   5.159   5.973   3.601
 1751SOL     OW 6151   4.047   1.694   4.244
 1751SOL    HW1 6152   3.951   1.667   4.254
 1751SOL    HW2 6153   4.060   1.786   4.280
 1752SOL     OW 6154   6.124   1.068   2.305
 1752SOL    HW1 6155   6.104   1.102   2.397
 1752SOL    HW2 6156   6.215   1.028   2.304
 1753SOL     OW 6157   6.898   0.670   1.476
 1753SOL    HW1 6158   6.965   0.626   1.417
 1753SOL    HW2 6159   6.872   0.759   1.437
 1754SOL     OW 6160   1.595   4.712   6.978
 1754SOL    HW1 6161   1.664   4.772   6.938
 1754SOL    HW2 6162   1.513   4.712   6.920
 1755SOL     OW 6163   0.291   5.607   0.414
 1755SOL    HW1 6164   0.341   5.655   0.341
 1755SOL    HW2 6165   0.212   5.560   0.375
 1756SOL     OW 6166   4.073   5.154   5.380
 1756SOL    HW1 6167   4.028   5.076   5.336
 1756SOL    HW2 6168   4.150   5.184   5.324
 1757SOL     OW 6169   2.827   5.250   5.074
 1757SOL    HW1 6170   2.739   5.218   5.109
 1757SOL    HW2 6171   2.830   5.350   5.077
 1758SOL     OW 6172   2.014   1.195   4.686
 1758SOL    HW1 6173   2.039   1.288   4.658
 1758SOL    HW2 6174   2.090   1.154   4.737
 1759SOL     OW 6175   2.615   6.030   5.791
 1759SOL    HW1 6176   2.598   5.940   5.751
 1759SOL    HW2 6177   2.710   6.036   5.822
 1760SOL     OW 6178   5.689   0.689   3.280
 1760SOL    HW1 6179   5.686   0.781   3.243
 1760SOL    HW2 6180   5.607   0.671   3.334
 1761SOL     OW 6181   0.575   0.963   1.512
 1761SOL    HW1 6182   0.479   0.977   1.487
 1761SOL    HW2 6183   0.619   1.051   1.529
 1762SOL     OW 6184   0.392   1.062   4.419
 1762SOL    HW1 6185   0.461   1.031   4.354
 1762SOL    HW2 6186   0.359   0.984   4.472
 1763SOL     OW 6187   0.902   4.368   4.685
 1763SOL    HW1 6188   0.824   4.306   4.686
 1763SOL    HW2 6189   0.906   4.419   4.771
 1764SOL     OW 6190   2.106   3.205   2.233
 1764SOL    HW1 6191   2.118   3.301   2.256
 1764SOL    HW2 6192   2.094   3.195   2.134
 1765SOL     OW 6193   4.086   0.629   1.405
 1765SOL    HW1 6194   4.079   0.692   1.327
 1765SOL    HW2 6195   4.181   0.599   1.414
 1766SOL     OW 6196   5.910   4.948   3.663
 1766SOL    HW1 6197   5.996   4.961   3.614
 1766SOL    HW2 6198   5.911   5.003   3.747
 1767SOL     OW 6199   1.031   4.349   2.910
 1767SOL    HW1 6200   1.105   4.369   2.973
 1767SOL    HW2 6201   0.972   4.429   2.901
 1768SOL     OW 6202   3.351   0.891   6.642
 1768SOL    HW1 6203   3.298   0.906   6.558
 1768SOL    HW2 6204   3.396   0.802   6.637
 1769SOL     OW 6205   5.510   1.213   6.867
 1769SOL    HW1 6206   5.456   1.284   6.821
 1769SOL    HW2 6207   5.606   1.225   6.842
 1770SOL     OW 6208   6.704   4.907   5.133
 1770SOL    HW1 6209   6.683   4.930   5.038
 1770SOL    HW2 6210   6.803   4.915   5.148
 1771SOL     OW 6211   1.523   4.812   0.680
 1771SOL    HW1 6212   1.523   4.892   0.739
 1771SOL    HW2 6213   1.617   4.792   0.651
 1772SOL     OW 6214   3.673   5.969   3.530
 1772SOL    HW1 6215   3.750   5.968   3.465
 1772SOL    HW2 6216   3.703   5.929   3.617
 1773SOL     OW 6217   2.572   2.570   5.719
 1773SOL    HW1 6218   2.533   2.516   5.644
 1773SOL    HW2 6219   2.501   2.592   5.786
 1774SOL     OW 6220   5.316   6.301   1.831
 1774SOL    HW1 6221   5.226   6.309   1.787
 1774SOL    HW2 6222   5.306   6.259   1.921
 1775SOL     OW 6223   1.841   5.027   5.988
 1775SOL    HW1 6224   1.787   5.012   5.906
 1775SOL    HW2 6225   1.938   5.020   5.966
 1776SOL     OW 6226   4.916   0.575   6.501
 1776SOL    HW1 6227   4.878   0.507   6.438
 1776SOL    HW2 6228   4.921   0.664   6.456
 1777SOL     OW 6229   3.278   6.684   6.497
 1777SOL    HW1 6230   3.245   6.712   6.407
 1777SOL    HW2 6231   3.362   6.733   6.518
 1778SOL     OW 6232   4.686   1.687   4.031
 1778SOL    HW1 6233   4.721   1.625   3.960
 1778SOL    HW2 6234   4.758   1.751   4.057
 1779SOL     OW 6235   5.285   1.344   5.421
 1779SOL    HW1 6236   5.345   1.287   5.364
 1779SOL    HW2 6237   5.196   1.353   5.376
 1780SOL     OW 6238   1.916   3.908   5.789
 1780SOL    HW1 6239   1.874   3.934   5.702
 1780SOL    HW2 6240   2.009   3.944   5.794
 1781SOL     OW 6241   5.820   6.065   4.489
 1781SOL    HW1 6242   5.810   6.116   4.404
 1781SOL    HW2 6243   5.745   6.090   4.551
 1782SOL     OW 6244   2.787   0.906   2.427
 1782SOL    HW1 6245   2.827   0.962   2.355
 1782SOL    HW2 6246   2.744   0.966   2.495
 1783SOL     OW 6247   2.971   3.176   6.140
 1783SOL    HW1 6248   2.909   3.241   6.184
 1783SOL    HW2 6249   2.919   3.116   6.080
 1784SOL     OW 6250   2.473   1.549   1.340
 1784SOL    HW1 6251   2.491   1.567   1.243
 1784SOL    HW2 6252   2.531   1.473   1.371
 1785SOL     OW 6253   5.942   6.299   3.627
 1785SOL    HW1 6254   5.871   6.237   3.661
 1785SOL    HW2 6255   5.907   6.348   3.547
 1786SOL     OW 6256   1.816   4.153   0.204
 1786SOL    HW1 6257   1.906   4.188   0.230
 1786SOL    HW2 6258   1.773   4.216   0.140
 1787SOL     OW 6259   2.443   2.086   5.861
 1787SOL    HW1 6260   2.409   2.027   5.788
 1787SOL    HW2 6261   2.501   2.158   5.821
 1788SOL     OW 6262   4.468   4.134   0.013
 1788SOL    HW1 6263   4.486   4.175   6.943
 1788SOL    HW2 6264   4.452   4.206   0.080
 1789SOL     OW 6265   5.767   2.952   2.017
 1789SOL    HW1 6266   5.682   2.947   2.069
 1789SOL    HW2 6267   5.747   2.947   1.919
 1790SOL     OW 6268   2.508   0.814   4.503
 1790SOL    HW1 6269   2.424   0.860   4.476
 1790SOL    HW2 6270   2.517   0.816   4.602
 1791SOL     OW 6271   6.410   1.821   3.825
 1791SOL    HW1 6272   6.407   1.911   3.868
 1791SOL    HW2 6273   6.495   1.812   3.772
 1792SOL     OW 6274   0.047   0.970   4.234
 1792SOL    HW1 6275   7.013   0.905   4.180
 1792SOL    HW2 6276   0.013   1.063   4.216
 1793SOL     OW 6277   6.066   1.548   4.548
 1793SOL    HW1 6278   6.070   1.639   4.507
 1793SOL    HW2 6279   6.076   1.479   4.476
 1794SOL     OW 6280   5.164   6.570   5.131
 1794SOL    HW1 6281   5.144   6.570   5.229
 1794SOL    HW2 6282   5.089   6.526   5.082
 1795SOL     OW 6283   6.785   5.574   2.147
 1795SOL    HW1 6284   6.880   5.547   2.132
 1795SOL    HW2 6285   6.779   5.636   2.225
 1796SOL     OW 6286   2.375   1.710   5.375
 1796SOL    HW1 6287   2.399   1.637   5.438
 1796SOL    HW2 6288   2.362   1.673   5.283
 1797SOL     OW 6289   1.381   0.067   5.411
 1797SOL    HW1 6290   1.307   0.000   5.402
 1797SOL    HW2 6291   1.466   0.028   5.374
 1798SOL     OW 6292   3.672   2.915   4.875
 1798SOL    HW1 6293   3.715   2.925   4.785
 1798SOL    HW2 6294   3.610   2.992   4.890
 1799SOL     OW 6295   5.327   2.900   6.308
 1799SOL    HW1 6296   5.340   2.817   6.362
 1799SOL    HW2 6297   5.390   2.900   6.230
 1800SOL     OW 6298   5.063   5.373   3.375
 1800SOL    HW1 6299   5.044   5.387   3.473
 1800SOL    HW2 6300   5.149   5.324   3.365
 1801SOL     OW 6301   1.484   1.347   2.730
 1801SOL    HW1 6302   1.581   1.365   2.716
 1801SOL    HW2 6303   1.463   1.252   2.708
 1802SOL     OW 6304   6.737   6.024   3.408
 1802SOL    HW1 6305   6.699   5.935   3.386
 1802SOL    HW2 6306   6.675   6.073   3.469
 1803SOL     OW 6307   6.950   6.923   1.906
 1803SOL    HW1 6308   6.914   6.950   1.995
 1803SOL    HW2 6309   0.017   6.971   1.889
 1804SOL     OW 6310   4.273   3.849   5.341
 1804SOL    HW1 6311   4.236   3.801   5.261
 1804SOL    HW2 6312   4.216   3.830   5.421
 1805SOL     OW 6313   0.720   5.260   5.881
 1805SOL    HW1 6314   0.761   5.289   5.967
 1805SOL    HW2 6315   0.762   5.309   5.805
 1806SOL     OW 6316   0.810   2.682   1.669
 1806SOL    HW1 6317   0.836   2.729   1.585
 1806SOL    HW2 6318   0.712   2.695   1.685
 1807SOL     OW 6319   6.310   2.506   6.597
 1807SOL    HW1 6320   6.360   2.420   6.585
 1807SOL    HW2 6321   6.231   2.507   6.536
 1808SOL     OW 6322   6.025   4.117   4.910
 1808SOL    HW1 6323   5.964   4.134   4.987
 1808SOL    HW2 6324   6.083   4.198   4.896
 1809SOL     OW 6325   2.498   2.102   5.051
 1809SOL    HW1 6326   2.481   2.141   4.960
 1809SOL    HW2 6327   2.582   2.140   5.088
 1810SOL     OW 6328   0.898   0.834   4.779
 1810SOL    HW1 6329   0.917   0.837   4.877
 1810SOL    HW2 6330   0.905   0.740   4.747
 1811SOL     OW 6331   5.275   4.443   2.815
 1811SOL    HW1 6332   5.309   4.378   2.747
 1811SOL    HW2 6333   5.316   4.532   2.799
 1812SOL     OW 6334   4.669   0.042   6.939
 1812SOL    HW1 6335   4.615   7.018   6.867
 1812SOL    HW2 6336   4.628   0.130   6.962
 1813SOL     OW 6337   5.232   5.436   2.262
 1813SOL    HW1 6338   5.151   5.493   2.250
 1813SOL    HW2 6339   5.245   5.379   2.181
 1814SOL     OW 6340   6.333   0.532   0.579
 1814SOL    HW1 6341   6.357   0.605   0.514
 1814SOL    HW2 6342   6.271   0.569   0.648
 1815SOL     OW 6343   6.398   0.355   3.035
 1815SOL    HW1 6344   6.468   0.407   2.985
 1815SOL    HW2 6345   6.311   0.362   2.986
 1816SOL     OW 6346   3.364   4.766   6.886
 1816SOL    HW1 6347   3.398   4.672   6.888
 1816SOL    HW2 6348   3.322   4.785   6.798
 1817SOL     OW 6349   3.868   0.311   2.844
 1817SOL    HW1 6350   3.949   0.355   2.883
 1817SOL    HW2 6351   3.895   0.260   2.762
 1818SOL     OW 6352   1.550   6.654   0.591
 1818SOL    HW1 6353   1.602   6.690   0.669
 1818SOL    HW2 6354   1.598   6.575   0.553
 1819SOL     OW 6355   1.222   5.748   1.714
 1819SOL    HW1 6356   1.296   5.755   1.781
 1819SOL    HW2 6357   1.146   5.697   1.753
 1820SOL     OW 6358   3.439   0.311   2.102
 1820SOL    HW1 6359   3.409   0.378   2.169
 1820SOL    HW2 6360   3.538   0.303   2.104
 1821SOL     OW 6361   2.948   0.553   1.820
 1821SOL    HW1 6362   2.999   0.639   1.821
 1821SOL    HW2 6363   3.004   0.480   1.858
 1822SOL     OW 6364   1.206   2.939   1.404
 1822SOL    HW1 6365   1.132   2.928   1.338
 1822SOL    HW2 6366   1.212   3.035   1.432
 1823SOL     OW 6367   2.694   6.195   3.020
 1823SOL    HW1 6368   2.744   6.219   3.102
 1823SOL    HW2 6369   2.729   6.108   2.983
 1824SOL     OW 6370   3.878   4.235   0.321
 1824SOL    HW1 6371   3.869   4.290   0.238
 1824SOL    HW2 6372   3.930   4.286   0.390
 1825SOL     OW 6373   0.453   2.730   4.322
 1825SOL    HW1 6374   0.360   2.700   4.340
 1825SOL    HW2 6375   0.480   2.703   4.230
 1826SOL     OW 6376   2.638   0.641   1.133
 1826SOL    HW1 6377   2.554   0.672   1.090
 1826SOL    HW2 6378   2.631   0.544   1.155
 1827SOL     OW 6379   6.173   5.170   1.095
 1827SOL    HW1 6380   6.169   5.079   1.055
 1827SOL    HW2 6381   6.260   5.181   1.144
 1828SOL     OW 6382   1.620   2.751   6.928
 1828SOL    HW1 6383   1.633   2.785   6.834
 1828SOL    HW2 6384   1.613   2.651   6.925
 1829SOL     OW 6385   3.751   6.793   3.230
 1829SOL    HW1 6386   3.750   6.867   3.297
 1829SOL    HW2 6387   3.691   6.817   3.153
 1830SOL     OW 6388   5.810   6.217   4.274
 1830SOL    HW1 6389   5.780   6.163   4.195
 1830SOL    HW2 6390   5.907   6.239   4.264
 1831SOL     OW 6391   5.459   6.324   2.871
 1831SOL    HW1 6392   5.388   6.394   2.866
 1831SOL    HW2 6393   5.423   6.243   2.918
 1832SOL     OW 6394   3.670   1.587   0.402
 1832SOL    HW1 6395   3.737   1.519   0.371
 1832SOL    HW2 6396   3.709   1.678   0.391
 1833SOL     OW 6397   5.653   0.635   1.814
 1833SOL    HW1 6398   5.663   0.592   1.724
 1833SOL    HW2 6399   5.591   0.580   1.870
 1834SOL     OW 6400   1.764   3.889   1.102
 1834SOL    HW1 6401   1.855   3.893   1.143
 1834SOL    HW2 6402   1.714   3.811   1.140
 1835SOL     OW 6403   0.968   4.621   1.830
 1835SOL    HW1 6404   1.016   4.627   1.742
 1835SOL    HW2 6405   0.871   4.602   1.814
 1836SOL     OW 6406   5.706   2.346   1.992
 1836SOL    HW1 6407   5.649   2.276   1.948
 1836SOL    HW2 6408   5.803   2.325   1.974
 1837SOL     OW 6409   1.389   6.830   5.898
 1837SOL    HW1 6410   1.472   6.855   5.949
 1837SOL    HW2 6411   1.409   6.831   5.800
 1838SOL     OW 6412   5.725   0.965   6.084
 1838SOL    HW1 6413   5.726   0.950   6.183
 1838SOL    HW2 6414   5.652   1.030   6.062
 1839SOL     OW 6415   7.019   1.160   5.675
 1839SOL    HW1 6416   0.090   1.201   5.690
 1839SOL    HW2 6417   6.985   1.185   5.584
 1840SOL     OW 6418   4.149   0.152   2.182
 1840SOL    HW1 6419   4.052   0.137   2.164
 1840SOL    HW2 6420   4.165   0.247   2.207
 1841SOL     OW 6421   2.319   0.231   2.908
 1841SOL    HW1 6422   2.389   0.175   2.953
 1841SOL    HW2 6423   2.358   0.320   2.884
 1842SOL     OW 6424   0.921   5.689   1.233
 1842SOL    HW1 6425   0.981   5.699   1.313
 1842SOL    HW2 6426   0.902   5.779   1.194
 1843SOL     OW 6427   5.776   0.410   4.239
 1843SOL    HW1 6428   5.804   0.490   4.292
 1843SOL    HW2 6429   5.776   0.432   4.142
 1844SOL     OW 6430   4.290   0.415   5.311
 1844SOL    HW1 6431   4.230   0.489   5.280
 1844SOL    HW2 6432   4.335   0.373   5.232
 1845SOL     OW 6433   2.927   6.639   4.264
 1845SOL    HW1 6434   2.985   6.609   4.189
 1845SOL    HW2 6435   2.867   6.713   4.231
 1846SOL     OW 6436   4.309   0.870   3.003
 1846SOL    HW1 6437   4.298   0.869   3.103
 1846SOL    HW2 6438   4.232   0.919   2.962
 1847SOL     OW 6439   1.660   6.980   5.401
 1847SOL    HW1 6440   1.648   0.003   5.491
 1847SOL    HW2 6441   1.757   6.971   5.381
 1848SOL     OW 6442   2.123   6.366   3.919
 1848SOL    HW1 6443   2.126   6.296   3.991
 1848SOL    HW2 6444   2.064   6.334   3.845
 1849SOL     OW 6445   4.324   2.686   1.230
 1849SOL    HW1 6446   4.394   2.757   1.236
 1849SOL    HW2 6447   4.362   2.599   1.260
 1850SOL     OW 6448   6.315   2.240   2.096
 1850SOL    HW1 6449   6.372   2.320   2.082
 1850SOL    HW2 6450   6.222   2.260   2.067
 1851SOL     OW 6451   1.200   3.328   0.073
 1851SOL    HW1 6452   1.210   3.242   0.124
 1851SOL    HW2 6453   1.270   3.332   0.002
 1852SOL     OW 6454   0.335   4.936   2.674
 1852SOL    HW1 6455   0.348   4.937   2.575
 1852SOL    HW2 6456   0.414   4.977   2.719
 1853SOL     OW 6457   6.933   2.760   3.131
 1853SOL    HW1 6458   6.956   2.824   3.058
 1853SOL    HW2 6459   7.015   2.737   3.184
 1854SOL     OW 6460   1.766   4.920   2.606
 1854SOL    HW1 6461   1.733   4.910   2.701
 1854SOL    HW2 6462   1.713   4.859   2.547
 1855SOL     OW 6463   5.040   3.500   5.609
 1855SOL    HW1 6464   5.054   3.412   5.562
 1855SOL    HW2 6465   4.942   3.519   5.614
 1856SOL     OW 6466   4.734   3.120   6.429
 1856SOL    HW1 6467   4.794   3.124   6.509
 1856SOL    HW2 6468   4.788   3.132   6.346
 1857SOL     OW 6469   4.285   1.413   0.383
 1857SOL    HW1 6470   4.281   1.338   0.448
 1857SOL    HW2 6471   4.200   1.416   0.330
 1858SOL     OW 6472   5.166   2.643   3.051
 1858SOL    HW1 6473   5.094   2.694   3.099
 1858SOL    HW2 6474   5.184   2.558   3.101
 1859SOL     OW 6475   4.585   1.750   3.589
 1859SOL    HW1 6476   4.635   1.809   3.527
 1859SOL    HW2 6477   4.625   1.754   3.680
 1860SOL     OW 6478   0.115   1.703   5.626
 1860SOL    HW1 6479   0.043   1.637   5.604
 1860SOL    HW2 6480   0.172   1.665   5.700
 1861SOL     OW 6481   4.874   0.916   2.667
 1861SOL    HW1 6482   4.896   0.821   2.644
 1861SOL    HW2 6483   4.888   0.930   2.765
 1862SOL     OW 6484   2.061   6.498   6.712
 1862SOL    HW1 6485   2.150   6.466   6.679
 1862SOL    HW2 6486   2.029   6.439   6.785
 1863SOL     OW 6487   6.852   2.343   2.172
 1863SOL    HW1 6488   6.808   2.255   2.158
 1863SOL    HW2 6489   6.782   2.414   2.180
 1864SOL     OW 6490   3.649   5.546   4.591
 1864SOL    HW1 6491   3.606   5.490   4.662
 1864SOL    HW2 6492   3.588   5.551   4.511
 1865SOL     OW 6493   3.021   1.098   0.723
 1865SOL    HW1 6494   3.114   1.076   0.751
 1865SOL    HW2 6495   2.991   1.182   0.770
 1866SOL     OW 6496   6.678   4.830   3.555
 1866SOL    HW1 6497   6.730   4.890   3.494
 1866SOL    HW2 6498   6.582   4.858   3.557
 1867SOL     OW 6499   2.023   3.479   1.742
 1867SOL    HW1 6500   2.065   3.431   1.664
 1867SOL    HW2 6501   2.095   3.517   1.800
 1868SOL     OW 6502   5.133   3.614   6.544
 1868SOL    HW1 6503   5.231   3.627   6.533
 1868SOL    HW2 6504   5.089   3.703   6.557
 1869SOL     OW 6505   6.033   3.473   4.619
 1869SOL    HW1 6506   6.086   3.397   4.582
 1869SOL    HW2 6507   6.005   3.534   4.545
 1870SOL     OW 6508   1.314   2.977   5.173
 1870SOL    HW1 6509   1.365   3.041   5.230
 1870SOL    HW2 6510   1.297   3.019   5.083
 1871SOL     OW 6511   6.187   0.120   0.557
 1871SOL    HW1 6512   6.276   0.085   0.586
 1871SOL    HW2 6513   6.156   0.190   0.621
 1872SOL     OW 6514   4.373   2.133   6.882
 1872SOL    HW1 6515   4.353   2.085   6.967
 1872SOL    HW2 6516   4.451   2.088   6.837
 1873SOL     OW 6517   6.962   0.266   5.521
 1873SOL    HW1 6518   6.958   0.347   5.462
 1873SOL    HW2 6519   6.906   0.281   5.602
 1874SOL     OW 6520   1.007   1.051   6.439
 1874SOL    HW1 6521   0.958   1.034   6.354
 1874SOL    HW2 6522   1.101   1.080   6.418
 1875SOL     OW 6523   6.451   0.018   0.548
 1875SOL    HW1 6524   6.505   0.098   0.572
 1875SOL    HW2 6525   6.512   6.961   0.526
 1876SOL     OW 6526   4.330   6.042   6.196
 1876SOL    HW1 6527   4.396   6.032   6.121
 1876SOL    HW2 6528   4.299   6.137   6.200
 1877SOL     OW 6529   0.951   1.706   2.952
 1877SOL    HW1 6530   1.045   1.673   2.941
 1877SOL    HW2 6531   0.920   1.686   3.045
 1878SOL     OW 6532   6.954   4.286   4.034
 1878SOL    HW1 6533   6.910   4.253   4.117
 1878SOL    HW2 6534   0.018   4.233   4.018
 1879SOL     OW 6535   2.555   5.832   4.061
 1879SOL    HW1 6536   2.491   5.900   4.096
 1879SOL    HW2 6537   2.550   5.749   4.116
 1880SOL     OW 6538   0.480   2.011   2.890
 1880SOL    HW1 6539   0.478   1.981   2.985
 1880SOL    HW2 6540   0.498   1.933   2.831
 1881SOL     OW 6541   1.284   1.681   3.612
 1881SOL    HW1 6542   1.250   1.756   3.556
 1881SOL    HW2 6543   1.365   1.711   3.664
 1882SOL     OW 6544   0.678   5.084   6.807
 1882SOL    HW1 6545   0.744   5.024   6.762
 1882SOL    HW2 6546   0.721   5.171   6.829
 1883SOL     OW 6547   0.833   3.580   4.142
 1883SOL    HW1 6548   0.781   3.631   4.210
 1883SOL    HW2 6549   0.903   3.640   4.102
 1884SOL     OW 6550   5.923   2.194   1.076
 1884SOL    HW1 6551   5.824   2.180   1.086
 1884SOL    HW2 6552   5.954   2.150   0.992
 1885SOL     OW 6553   0.163   2.159   1.291
 1885SOL    HW1 6554   0.225   2.146   1.214
 1885SOL    HW2 6555   0.090   2.221   1.265
 1886SOL     OW 6556   2.091   2.004   0.383
 1886SOL    HW1 6557   2.161   2.046   0.440
 1886SOL    HW2 6558   2.126   1.918   0.345
 1887SOL     OW 6559   0.360   4.568   5.537
 1887SOL    HW1 6560   0.348   4.519   5.624
 1887SOL    HW2 6561   0.326   4.662   5.547
 1888SOL     OW 6562   1.891   1.908   6.098
 1888SOL    HW1 6563   1.965   1.955   6.145
 1888SOL    HW2 6564   1.808   1.914   6.153
 1889SOL     OW 6565   4.934   3.144   6.605
 1889SOL    HW1 6566   5.020   3.111   6.568
 1889SOL    HW2 6567   4.938   3.243   6.617
 1890SOL     OW 6568   1.700   6.028   5.610
 1890SOL    HW1 6569   1.732   6.081   5.531
 1890SOL    HW2 6570   1.708   6.083   5.692
 1891SOL     OW 6571   5.261   3.593   4.155
 1891SOL    HW1 6572   5.210   3.627   4.234
 1891SOL    HW2 6573   5.332   3.530   4.185
 1892SOL     OW 6574   3.631   6.772   0.978
 1892SOL    HW1 6575   3.715   6.820   0.954
 1892SOL    HW2 6576   3.609   6.706   0.906
 1893SOL     OW 6577   3.658   1.951   5.492
 1893SOL    HW1 6578   3.580   2.004   5.526
 1893SOL    HW2 6579   3.625   1.868   5.447
 1894SOL     OW 6580   4.304   3.600   1.498
 1894SOL    HW1 6581   4.388   3.648   1.476
 1894SOL    HW2 6582   4.321   3.535   1.572
 1895SOL     OW 6583   5.614   0.691   2.560
 1895SOL    HW1 6584   5.564   0.765   2.514
 1895SOL    HW2 6585   5.651   0.724   2.646
 1896SOL     OW 6586   0.234   0.695   3.677
 1896SOL    HW1 6587   0.208   0.790   3.658
 1896SOL    HW2 6588   0.244   0.645   3.591
 1897SOL     OW 6589   6.987   5.026   2.980
 1897SOL    HW1 6590   6.958   4.966   3.055
 1897SOL    HW2 6591   0.067   5.024   2.973
 1898SOL     OW 6592   3.159   5.368   1.752
 1898SOL    HW1 6593   3.135   5.393   1.845
 1898SOL    HW2 6594   3.186   5.272   1.749
 1899SOL     OW 6595   1.015   2.749   2.962
 1899SOL    HW1 6596   0.977   2.811   3.031
 1899SOL    HW2 6597   1.113   2.740   2.976
 1900SOL     OW 6598   1.071   0.389   5.577
 1900SOL    HW1 6599   0.991   0.374   5.519
 1900SOL    HW2 6600   1.114   0.301   5.598
 1901SOL     OW 6601   2.451   1.590   1.607
 1901SOL    HW1 6602   2.446   1.690   1.616
 1901SOL    HW2 6603   2.419   1.563   1.516
 1902SOL     OW 6604   2.595   2.428   4.691
 1902SOL    HW1 6605   2.636   2.427   4.600
 1902SOL    HW2 6606   2.539   2.510   4.702
 1903SOL     OW 6607   0.069   4.350   3.620
 1903SOL    HW1 6608   0.002   4.364   3.693
 1903SOL    HW2 6609   0.046   4.409   3.542
 1904SOL     OW 6610   6.288   6.958   3.635
 1904SOL    HW1 6611   6.282   6.914   3.545
 1904SOL    HW2 6612   6.374   7.008   3.641
 1905SOL     OW 6613   0.897   2.335   4.167
 1905SOL    HW1 6614   0.985   2.287   4.169
 1905SOL    HW2 6615   0.855   2.324   4.077
 1906SOL     OW 6616   2.870   6.941   5.177
 1906SOL    HW1 6617   2.796   6.990   5.222
 1906SOL    HW2 6618   2.916   7.002   5.112
 1907SOL     OW 6619   3.027   6.476   3.331
 1907SOL    HW1 6620   2.962   6.451   3.404
 1907SOL    HW2 6621   3.120   6.464   3.364
 1908SOL     OW 6622   4.905   0.882   5.053
 1908SOL    HW1 6623   4.974   0.910   4.985
 1908SOL    HW2 6624   4.825   0.941   5.044
 1909SOL     OW 6625   1.708   4.044   3.033
 1909SOL    HW1 6626   1.750   4.134   3.032
 1909SOL    HW2 6627   1.608   4.053   3.031
 1910SOL     OW 6628   6.470   2.129   6.907
 1910SOL    HW1 6629   6.498   2.206   6.850
 1910SOL    HW2 6630   6.371   2.132   6.920
 1911SOL     OW 6631   6.033   2.007   5.682
 1911SOL    HW1 6632   6.073   2.074   5.744
 1911SOL    HW2 6633   5.939   2.032   5.661
 1912SOL     OW 6634   3.949   6.768   1.533
 1912SOL    HW1 6635   3.860   6.779   1.490
 1912SOL    HW2 6636   3.937   6.745   1.630
 1913SOL     OW 6637   2.087   6.164   5.525
 1913SOL    HW1 6638   2.085   6.084   5.465
 1913SOL    HW2 6639   2.076   6.135   5.620
 1914SOL     OW 6640   2.852   2.795   6.839
 1914SOL    HW1 6641   2.827   2.796   6.936
 1914SOL    HW2 6642   2.845   2.702   6.804
 1915SOL     OW 6643   4.187   1.027   5.237
 1915SOL    HW1 6644   4.229   1.065   5.154
 1915SOL    HW2 6645   4.186   1.097   5.308
 1916SOL     OW 6646   3.313   5.851   0.815
 1916SOL    HW1 6647   3.392   5.843   0.876
 1916SOL    HW2 6648   3.323   5.787   0.739
 1917SOL     OW 6649   3.988   3.173   4.853
 1917SOL    HW1 6650   4.014   3.263   4.818
 1917SOL    HW2 6651   4.002   3.104   4.781
 1918SOL     OW 6652   6.956   6.946   6.304
 1918SOL    HW1 6653   6.880   6.983   6.358
 1918SOL    HW2 6654   7.003   0.001   6.258
 1919SOL     OW 6655   2.152   6.517   1.528
 1919SOL    HW1 6656   2.233   6.520   1.470
 1919SOL    HW2 6657   2.153   6.433   1.583
 1920SOL     OW 6658   0.557   5.041   3.117
 1920SOL    HW1 6659   0.524   5.108   3.183
 1920SOL    HW2 6660   0.495   4.962   3.115
 1921SOL     OW 6661   1.111   4.047   6.803
 1921SOL    HW1 6662   1.115   4.028   6.705
 1921SOL    HW2 6663   1.178   4.119   6.826
 1922SOL     OW 6664   3.562   3.989   1.039
 1922SOL    HW1 6665   3.483   4.048   1.054
 1922SOL    HW2 6666   3.532   3.894   1.035
 1923SOL     OW 6667   3.596   0.966   6.169
 1923SOL    HW1 6668   3.558   1.029   6.236
 1923SOL    HW2 6669   3.589   1.005   6.077
 1924SOL     OW 6670   5.894   5.654   1.904
 1924SOL    HW1 6671   5.991   5.669   1.885
 1924SOL    HW2 6672   5.869   5.699   1.990
 1925SOL     OW 6673   3.016   3.933   2.259
 1925SOL    HW1 6674   2.932   3.920   2.312
 1925SOL    HW2 6675   3.088   3.967   2.320
 1926SOL     OW 6676   0.782   0.074   3.963
 1926SOL    HW1 6677   0.827   7.005   3.955
 1926SOL    HW2 6678   0.850   0.147   3.967
 1927SOL     OW 6679   3.550   5.029   6.071
 1927SOL    HW1 6680   3.650   5.029   6.073
 1927SOL    HW2 6681   3.518   4.936   6.052
 1928SOL     OW 6682   6.673   3.830   6.178
 1928SOL    HW1 6683   6.637   3.737   6.165
 1928SOL    HW2 6684   6.747   3.846   6.112
 1929SOL     OW 6685   0.888   5.908   1.055
 1929SOL    HW1 6686   0.834   5.872   0.978
 1929SOL    HW2 6687   0.979   5.934   1.023
 1930SOL     OW 6688   4.023   3.753   0.081
 1930SOL    HW1 6689   3.950   3.689   0.056
 1930SOL    HW2 6690   4.074   3.778   7.019
 1931SOL     OW 6691   0.257   2.517   3.345
 1931SOL    HW1 6692   0.271   2.557   3.435
 1931SOL    HW2 6693   0.219   2.586   3.283
 1932SOL     OW 6694   4.858   3.738   2.736
 1932SOL    HW1 6695   4.869   3.640   2.751
 1932SOL    HW2 6696   4.812   3.754   2.648
 1933SOL     OW 6697   2.893   4.281   0.630
 1933SOL    HW1 6698   2.895   4.213   0.703
 1933SOL    HW2 6699   2.886   4.236   0.541
 1934SOL     OW 6700   0.333   0.457   4.674
 1934SOL    HW1 6701   0.357   0.519   4.600
 1934SOL    HW2 6702   0.410   0.449   4.737
 1935SOL     OW 6703   3.278   0.345   4.581
 1935SOL    HW1 6704   3.235   0.426   4.621
 1935SOL    HW2 6705   3.346   0.374   4.514
 1936SOL     OW 6706   6.347   4.319   4.250
 1936SOL    HW1 6707   6.331   4.297   4.153
 1936SOL    HW2 6708   6.410   4.252   4.289
 1937SOL     OW 6709   5.051   6.464   0.703
 1937SOL    HW1 6710   5.048   6.524   0.783
 1937SOL    HW2 6711   5.090   6.376   0.730
 1938SOL     OW 6712   3.651   1.021   2.339
 1938SOL    HW1 6713   3.606   0.934   2.318
 1938SOL    HW2 6714   3.600   1.096   2.296
 1939SOL     OW 6715   0.644   6.917   5.194
 1939SOL    HW1 6716   0.719   6.964   5.147
 1939SOL    HW2 6717   0.680   6.838   5.244
 1940SOL     OW 6718   4.530   4.800   6.636
 1940SOL    HW1 6719   4.445   4.848   6.616
 1940SOL    HW2 6720   4.568   4.763   6.551
 1941SOL     OW 6721   0.088   4.032   3.073
 1941SOL    HW1 6722   0.085   3.950   3.016
 1941SOL    HW2 6723   0.114   4.008   3.166
 1942SOL     OW 6724   5.827   0.376   2.245
 1942SOL    HW1 6725   5.821   0.412   2.338
 1942SOL    HW2 6726   5.798   0.446   2.180
 1943SOL     OW 6727   2.644   6.142   2.082
 1943SOL    HW1 6728   2.646   6.215   2.014
 1943SOL    HW2 6729   2.549   6.119   2.103
 1944SOL     OW 6730   5.684   1.951   0.159
 1944SOL    HW1 6731   5.704   2.045   0.186
 1944SOL    HW2 6732   5.595   1.924   0.195
 1945SOL     OW 6733   3.643   6.063   2.318
 1945SOL    HW1 6734   3.562   6.046   2.261
 1945SOL    HW2 6735   3.669   6.159   2.310
 1946SOL     OW 6736   6.117   0.626   1.077
 1946SOL    HW1 6737   6.112   0.530   1.104
 1946SOL    HW2 6738   6.089   0.636   0.981
 1947SOL     OW 6739   4.839   6.457   4.011
 1947SOL    HW1 6740   4.920   6.399   4.023
 1947SOL    HW2 6741   4.860   6.549   4.042
 1948SOL     OW 6742   5.716   6.132   3.701
 1948SOL    HW1 6743   5.676   6.080   3.625
 1948SOL    HW2 6744   5.644   6.163   3.762
 1949SOL     OW 6745   4.160   4.271   6.015
 1949SOL    HW1 6746   4.215   4.348   6.047
 1949SOL    HW2 6747   4.211   4.219   5.947
 1950SOL     OW 6748   3.707   4.885   1.183
 1950SOL    HW1 6749   3.746   4.819   1.119
 1950SOL    HW2 6750   3.613   4.905   1.158
 1951SOL     OW 6751   6.268   4.102   0.294
 1951SOL    HW1 6752   6.276   4.012   0.337
 1951SOL    HW2 6753   6.357   4.130   0.259
 1952SOL     OW 6754   3.947   2.248   6.535
 1952SOL    HW1 6755   3.997   2.333   6.523
 1952SOL    HW2 6756   3.911   2.217   6.447
 1953SOL     OW 6757   5.953   3.279   6.841
 1953SOL    HW1 6758   5.884   3.217   6.805
 1953SOL    HW2 6759   5.993   3.241   6.925
 1954SOL     OW 6760   5.511   1.133   4.030
 1954SOL    HW1 6761   5.447   1.204   4.058
 1954SOL    HW2 6762   5.587   1.130   4.095
 1955SOL     OW 6763   1.537   0.785   2.550
 1955SOL    HW1 6764   1.466   0.807   2.482
 1955SOL    HW2 6765   1.626   0.815   2.517
 1956SOL     OW 6766   5.081   6.845   1.996
 1956SOL    HW1 6767   5.164   6.826   2.048
 1956SOL    HW2 6768   5.059   6.942   2.003
 1957SOL     OW 6769   6.164   6.102   5.015
 1957SOL    HW1 6770   6.110   6.115   4.932
 1957SOL    HW2 6771   6.250   6.056   4.993
 1958SOL     OW 6772   5.716   2.826   2.536
 1958SOL    HW1 6773   5.682   2.775   2.457
 1958SOL    HW2 6774   5.815   2.813   2.544
 1959SOL     OW 6775   0.721   1.232   5.260
 1959SOL    HW1 6776   0.747   1.231   5.357
 1959SOL    HW2 6777   0.686   1.322   5.236
 1960SOL     OW 6778   6.855   4.608   1.722
 1960SOL    HW1 6779   6.832   4.704   1.706
 1960SOL    HW2 6780   6.899   4.570   1.641
 1961SOL     OW 6781   5.848   4.633   4.443
 1961SOL    HW1 6782   5.838   4.552   4.500
 1961SOL    HW2 6783   5.830   4.715   4.497
 1962SOL     OW 6784   2.592   6.553   3.746
 1962SOL    HW1 6785   2.550   6.634   3.706
 1962SOL    HW2 6786   2.688   6.570   3.764
 1963SOL     OW 6787   1.021   1.131   1.701
 1963SOL    HW1 6788   1.085   1.061   1.671
 1963SOL    HW2 6789   1.000   1.118   1.798
 1964SOL     OW 6790   4.688   3.785   1.184
 1964SOL    HW1 6791   4.678   3.797   1.085
 1964SOL    HW2 6792   4.715   3.872   1.225
 1965SOL     OW 6793   1.166   3.347   4.425
 1965SOL    HW1 6794   1.171   3.447   4.428
 1965SOL    HW2 6795   1.070   3.319   4.426
 1966SOL     OW 6796   0.038   6.220   6.863
 1966SOL    HW1 6797   6.994   6.225   6.941
 1966SOL    HW2 6798   7.012   6.254   6.781
 1967SOL     OW 6799   4.367   2.459   4.584
 1967SOL    HW1 6800   4.379   2.462   4.683
 1967SOL    HW2 6801   4.378   2.551   4.546
 1968SOL     OW 6802   3.420   6.760   0.663
 1968SOL    HW1 6803   3.472   6.846   0.656
 1968SOL    HW2 6804   3.376   6.741   0.576
 1969SOL     OW 6805   0.805   1.785   1.767
 1969SOL    HW1 6806   0.902   1.800   1.748
 1969SOL    HW2 6807   0.762   1.745   1.686
 1970SOL     OW 6808   2.185   0.396   6.123
 1970SOL    HW1 6809   2.131   0.316   6.148
 1970SOL    HW2 6810   2.278   0.387   6.159
 1971SOL     OW 6811   0.173   0.188   5.883
 1971SOL    HW1 6812   0.197   0.236   5.798
 1971SOL    HW2 6813   0.146   0.094   5.861
 1972SOL     OW 6814   5.699   3.063   2.945
 1972SOL    HW1 6815   5.602   3.062   2.968
 1972SOL    HW2 6816   5.724   2.976   2.903
 1973SOL     OW 6817   2.479   2.793   0.541
 1973SOL    HW1 6818   2.504   2.841   0.625
 1973SOL    HW2 6819   2.440   2.703   0.565
 1974SOL     OW 6820   6.136   6.060   4.047
 1974SOL    HW1 6821   6.106   6.135   4.105
 1974SOL    HW2 6822   6.118   6.082   3.951
 1975SOL     OW 6823   2.478   1.684   3.562
 1975SOL    HW1 6824   2.418   1.604   3.557
 1975SOL    HW2 6825   2.547   1.671   3.633
 1976SOL     OW 6826   0.841   6.114   0.677
 1976SOL    HW1 6827   0.777   6.123   0.601
 1976SOL    HW2 6828   0.849   6.018   0.703
 1977SOL     OW 6829   0.891   3.375   3.878
 1977SOL    HW1 6830   0.980   3.358   3.921
 1977SOL    HW2 6831   0.822   3.388   3.949
 1978SOL     OW 6832   0.761   0.759   3.010
 1978SOL    HW1 6833   0.801   0.744   2.920
 1978SOL    HW2 6834   0.665   0.784   3.001
 1979SOL     OW 6835   6.063   4.762   5.540
 1979SOL    HW1 6836   5.994   4.782   5.609
 1979SOL    HW2 6837   6.113   4.679   5.566
 1980SOL     OW 6838   2.658   0.806   5.701
 1980SOL    HW1 6839   2.755   0.813   5.720
 1980SOL    HW2 6840   2.621   0.724   5.745
 1981SOL     OW 6841   6.266   2.064   2.316
 1981SOL    HW1 6842   6.241   2.131   2.246
 1981SOL    HW2 6843   6.223   2.089   2.403
 1982SOL     OW 6844   0.602   3.676   5.173
 1982SOL    HW1 6845   0.619   3.630   5.086
 1982SOL    HW2 6846   0.687   3.714   5.209
 1983SOL     OW 6847   0.882   0.944   2.720
 1983SOL    HW1 6848   0.979   0.924   2.707
 1983SOL    HW2 6849   0.862   1.035   2.683
 1984SOL     OW 6850   6.724   2.233   4.945
 1984SOL    HW1 6851   6.668   2.155   4.916
 1984SOL    HW2 6852   6.787   2.204   5.017
 1985SOL     OW 6853   1.037   6.591   2.725
 1985SOL    HW1 6854   1.104   6.640   2.782
 1985SOL    HW2 6855   1.006   6.651   2.652
 1986SOL     OW 6856   1.315   0.609   0.321
 1986SOL    HW1 6857   1.364   0.693   0.348
 1986SOL    HW2 6858   1.373   0.556   0.259
 1987SOL     OW 6859   1.506   2.631   1.266
 1987SOL    HW1 6860   1.434   2.631   1.336
 1987SOL    HW2 6861   1.524   2.537   1.238
 1988SOL     OW 6862   5.690   4.363   1.007
 1988SOL    HW1 6863   5.650   4.273   0.986
 1988SOL    HW2 6864   5.619   4.422   1.045
 1989SOL     OW 6865   2.693   6.468   4.390
 1989SOL    HW1 6866   2.699   6.420   4.477
 1989SOL    HW2 6867   2.782   6.508   4.368
 1990SOL     OW 6868   3.244   6.483   0.352
 1990SOL    HW1 6869   3.277   6.398   0.392
 1990SOL    HW2 6870   3.246   6.476   0.252
 1991SOL     OW 6871   4.090   4.669   6.271
 1991SOL    HW1 6872   4.091   4.573   6.244
 1991SOL    HW2 6873   4.117   4.677   6.367
 1992SOL     OW 6874   0.621   0.438   6.486
 1992SOL    HW1 6875   0.686   0.479   6.550
 1992SOL    HW2 6876   0.582   0.356   6.526
 1993SOL     OW 6877   4.068   3.201   4.514
 1993SOL    HW1 6878   4.110   3.278   4.562
 1993SOL    HW2 6879   4.014   3.235   4.437
 1994SOL     OW 6880   1.079   1.118   0.440
 1994SOL    HW1 6881   1.030   1.110   0.527
 1994SOL    HW2 6882   1.178   1.115   0.458
 1995SOL     OW 6883   5.583   2.494   2.791
 1995SOL    HW1 6884   5.498   2.545   2.778
 1995SOL    HW2 6885   5.581   2.450   2.881
 1996SOL     OW 6886   2.274   3.518   0.680
 1996SOL    HW1 6887   2.316   3.595   0.632
 1996SOL    HW2 6888   2.260   3.442   0.617
 1997SOL     OW 6889   4.526   0.769   5.129
 1997SOL    HW1 6890   4.570   0.733   5.046
 1997SOL    HW2 6891   4.434   0.803   5.105
 1998SOL     OW 6892   3.144   3.950   6.455
 1998SOL    HW1 6893   3.239   3.920   6.440
 1998SOL    HW2 6894   3.096   3.952   6.367
 1999SOL     OW 6895   3.356   6.553   1.581
 1999SOL    HW1 6896   3.441   6.605   1.580
 1999SOL    HW2 6897   3.321   6.549   1.675
 2000SOL     OW 6898   4.497   2.356   5.199
 2000SOL    HW1 6899   4.502   2.321   5.105
 2000SOL    HW2 6900   4.506   2.456   5.198
 2001SOL     OW 6901   2.935   1.096   1.678
 2001SOL    HW1 6902   3.003   1.155   1.633
 2001SOL    HW2 6903   2.890   1.039   1.609
 2002SOL     OW 6904   1.085   4.347   6.537
 2002SOL    HW1 6905   1.122   4.256   6.517
 2002SOL    HW2 6906   0.998   4.337   6.585
 2003SOL     OW 6907   5.989   6.423   3.199
 2003SOL    HW1 6908   6.058   6.493   3.214
 2003SOL    HW2 6909   5.978   6.407   3.101
 2004SOL     OW 6910   4.797   1.376   5.451
 2004SOL    HW1 6911   4.788   1.340   5.544
 2004SOL    HW2 6912   4.756   1.311   5.387
 2005SOL     OW 6913   0.773   4.635   0.020
 2005SOL    HW1 6914   0.682   4.624   0.060
 2005SOL    HW2 6915   0.772   4.601   6.945
 2006SOL     OW 6916   4.981   5.196   4.142
 2006SOL    HW1 6917   4.940   5.282   4.111
 2006SOL    HW2 6918   4.927   5.158   4.216
 2007SOL     OW 6919   4.515   5.198   0.977
 2007SOL    HW1 6920   4.449   5.156   0.915
 2007SOL    HW2 6921   4.496   5.168   1.071
 2008SOL     OW 6922   1.730   5.198   3.235
 2008SOL    HW1 6923   1.731   5.126   3.305
 2008SOL    HW2 6924   1.823   5.218   3.206
 2009SOL     OW 6925   6.283   0.176   2.133
 2009SOL    HW1 6926   6.184   0.186   2.136
 2009SOL    HW2 6927   6.306   0.080   2.113
 2010SOL     OW 6928   2.228   1.577   1.128
 2010SOL    HW1 6929   2.172   1.519   1.069
 2010SOL    HW2 6930   2.209   1.673   1.109
 2011SOL     OW 6931   6.755   1.492   4.582
 2011SOL    HW1 6932   6.748   1.392   4.581
 2011SOL    HW2 6933   6.671   1.532   4.619
 2012SOL     OW 6934   1.617   2.637   1.994
 2012SOL    HW1 6935   1.645   2.541   1.995
 2012SOL    HW2 6936   1.671   2.688   2.061
 2013SOL     OW 6937   6.337   1.918   3.407
 2013SOL    HW1 6938   6.267   1.910   3.478
 2013SOL    HW2 6939   6.410   1.978   3.440
 2014SOL     OW 6940   2.013   4.989   2.659
 2014SOL    HW1 6941   2.067   4.905   2.649
 2014SOL    HW2 6942   1.916   4.967   2.649
 2015SOL     OW 6943   1.844   1.444   0.286
 2015SOL    HW1 6944   1.854   1.357   0.335
 2015SOL    HW2 6945   1.772   1.498   0.329
 2016SOL     OW 6946   0.912   5.826   4.639
 2016SOL    HW1 6947   0.871   5.895   4.579
 2016SOL    HW2 6948   0.917   5.739   4.590
 2017SOL     OW 6949   2.479   6.817   4.701
 2017SOL    HW1 6950   2.556   6.870   4.739
 2017SOL    HW2 6951   2.505   6.780   4.612
 2018SOL     OW 6952   5.462   0.019   5.571
 2018SOL    HW1 6953   5.562   0.018   5.573
 2018SOL    HW2 6954   5.429   0.110   5.594
 2019SOL     OW 6955   4.850   2.146   1.795
 2019SOL    HW1 6956   4.877   2.220   1.856
 2019SOL    HW2 6957   4.801   2.183   1.716
 2020SOL     OW 6958   0.697   6.037   4.972
 2020SOL    HW1 6959   0.629   5.996   4.911
 2020SOL    HW2 6960   0.787   5.999   4.952
 2021SOL     OW 6961   1.997   5.478   3.226
 2021SOL    HW1 6962   2.039   5.453   3.313
 2021SOL    HW2 6963   1.991   5.578   3.219
 2022SOL     OW 6964   1.829   3.698   3.527
 2022SOL    HW1 6965   1.799   3.707   3.432
 2022SOL    HW2 6966   1.912   3.643   3.531
 2023SOL     OW 6967   6.277   0.819   6.215
 2023SOL    HW1 6968   6.216   0.812   6.136
 2023SOL    HW2 6969   6.369   0.790   6.189
 2024SOL     OW 6970   0.119   7.007   3.170
 2024SOL    HW1 6971   0.033   0.026   3.204
 2024SOL    HW2 6972   0.103   6.962   3.082
 2025SOL     OW 6973   2.827   2.354   2.836
 2025SOL    HW1 6974   2.885   2.365   2.916
 2025SOL    HW2 6975   2.731   2.363   2.863
 2026SOL     OW 6976   0.284   3.139   6.311
 2026SOL    HW1 6977   0.310   3.235   6.296
 2026SOL    HW2 6978   0.231   3.106   6.232
 2027SOL     OW 6979   0.627   0.493   0.138
 2027SOL    HW1 6980   0.708   0.474   0.193
 2027SOL    HW2 6981   0.557   0.424   0.156
 2028SOL     OW 6982   2.846   0.891   5.280
 2028SOL    HW1 6983   2.931   0.901   5.332
 2028SOL    HW2 6984   2.774   0.855   5.339
 2029SOL     OW 6985   6.141   0.476   1.325
 2029SOL    HW1 6986   6.231   0.475   1.282
 2029SOL    HW2 6987   6.122   0.567   1.362
 2030SOL     OW 6988   2.618   0.525   2.880
 2030SOL    HW1 6989   2.624   0.546   2.978
 2030SOL    HW2 6990   2.527   0.490   2.859
 2031SOL     OW 6991   6.324   6.042   2.133
 2031SOL    HW1 6992   6.356   5.951   2.157
 2031SOL    HW2 6993   6.381   6.111   2.179
 2032SOL     OW 6994   5.048   6.379   1.730
 2032SOL    HW1 6995   5.001   6.440   1.793
 2032SOL    HW2 6996   4.982   6.320   1.684
 2033SOL     OW 6997   3.837   4.017   7.019
 2033SOL    HW1 6998   3.848   3.946   6.949
 2033SOL    HW2 6999   3.924   4.065   0.011
 2034SOL     OW 7000   3.025   6.523   4.983
 2034SOL    HW1 7001   2.959   6.481   5.044
 2034SOL    HW2 7002   3.083   6.452   4.942
 2035SOL     OW 7003   6.740   0.525   1.634
 2035SOL    HW1 7004   6.783   0.577   1.560
 2035SOL    HW2 7005   6.650   0.564   1.654
 2036SOL     OW 7006   1.152   5.235   2.870
 2036SOL    HW1 7007   1.150   5.211   2.773
 2036SOL    HW2 7008   1.245   5.256   2.897
 2037SOL     OW 7009   6.780   3.040   5.788
 2037SOL    HW1 7010   6.775   3.069   5.884
 2037SOL    HW2 7011   6.872   3.008   5.768
 2038SOL     OW 7012   1.058   2.139   6.527
 2038SOL    HW1 7013   1.096   2.160   6.617
 2038SOL    HW2 7014   1.080   2.213   6.463
 2039SOL     OW 7015   1.085   5.608   3.172
 2039SOL    HW1 7016   1.050   5.623   3.080
 2039SOL    HW2 7017   1.017   5.636   3.239
 2040SOL     OW 7018   3.847   2.982   4.649
 2040SOL    HW1 7019   3.896   2.895   4.651
 2040SOL    HW2 7020   3.815   3.000   4.556
 2041SOL     OW 7021   0.287   5.868   5.832
 2041SOL    HW1 7022   0.372   5.917   5.852
 2041SOL    HW2 7023   0.253   5.825   5.916
 2042SOL     OW 7024   4.970   4.762   6.873
 2042SOL    HW1 7025   4.893   4.819   6.902
 2042SOL    HW2 7026   4.977   4.763   6.773
 2043SOL     OW 7027   6.076   3.667   3.258
 2043SOL    HW1 7028   6.098   3.755   3.215
 2043SOL    HW2 7029   6.097   3.592   3.195
 2044SOL     OW 7030   5.180   6.635   1.508
 2044SOL    HW1 7031   5.274   6.668   1.516
 2044SOL    HW2 7032   5.163   6.567   1.578
 2045SOL     OW 7033   3.456   4.976   3.738
 2045SOL    HW1 7034   3.394   4.911   3.783
 2045SOL    HW2 7035   3.550   4.954   3.761
 2046SOL     OW 7036   6.492   2.077   3.900
 2046SOL    HW1 7037   6.485   2.081   3.800
 2046SOL    HW2 7038   6.573   2.026   3.926
 2047SOL     OW 7039   5.824   2.339   0.035
 2047SOL    HW1 7040   5.749   2.403   0.052
 2047SOL    HW2 7041   5.888   2.341   0.111
 2048SOL     OW 7042   1.484   6.260   0.311
 2048SOL    HW1 7043   1.527   6.341   0.351
 2048SOL    HW2 7044   1.391   6.251   0.348
 2049SOL     OW 7045   5.159   2.153   6.207
 2049SOL    HW1 7046   5.119   2.062   6.213
 2049SOL    HW2 7047   5.256   2.150   6.231
 2050SOL     OW 7048   0.597   2.952   3.034
 2050SOL    HW1 7049   0.585   2.973   2.937
 2050SOL    HW2 7050   0.592   2.853   3.047
 2051SOL     OW 7051   1.005   5.732   0.797
 2051SOL    HW1 7052   0.952   5.725   0.712
 2051SOL    HW2 7053   0.950   5.696   0.873
 2052SOL     OW 7054   1.167   3.696   1.000
 2052SOL    HW1 7055   1.215   3.648   0.927
 2052SOL    HW2 7056   1.201   3.790   1.006
 2053SOL     OW 7057   5.845   6.702   4.992
 2053SOL    HW1 7058   5.809   6.783   5.037
 2053SOL    HW2 7059   5.830   6.622   5.050
 2054SOL     OW 7060   3.539   3.516   2.393
 2054SOL    HW1 7061   3.515   3.592   2.453
 2054SOL    HW2 7062   3.456   3.475   2.355
 2055SOL     OW 7063   5.818   3.585   3.275
 2055SOL    HW1 7064   5.907   3.628   3.291
 2055SOL    HW2 7065   5.778   3.622   3.191
 2056SOL     OW 7066   2.571   6.743   2.369
 2056SOL    HW1 7067   2.534   6.769   2.458
 2056SOL    HW2 7068   2.671   6.740   2.374
 2057SOL     OW 7069   5.667   3.619   4.654
 2057SOL    HW1 7070   5.579   3.621   4.702
 2057SOL    HW2 7071   5.733   3.565   4.707
 2058SOL     OW 7072   0.631   1.677   3.167
 2058SOL    HW1 7073   0.729   1.678   3.183
 2058SOL    HW2 7074   0.586   1.629   3.243
 2059SOL     OW 7075   2.272   5.882   6.633
 2059SOL    HW1 7076   2.345   5.910   6.696
 2059SOL    HW2 7077   2.189   5.933   6.654
 2060SOL     OW 7078   6.861   3.849   0.666
 2060SOL    HW1 7079   6.915   3.790   0.726
 2060SOL    HW2 7080   6.765   3.823   0.672
 2061SOL     OW 7081   6.964   1.662   3.750
 2061SOL    HW1 7082   6.954   1.730   3.822
 2061SOL    HW2 7083   6.965   1.708   3.661
 2062SOL     OW 7084   6.372   0.345   3.735
 2062SOL    HW1 7085   6.300   0.385   3.792
 2062SOL    HW2 7086   6.334   0.273   3.678
 2063SOL     OW 7087   1.890   6.938   6.146
 2063SOL    HW1 7088   1.878   6.988   6.232
 2063SOL    HW2 7089   1.987   6.917   6.133
 2064SOL     OW 7090   0.791   2.419   5.467
 2064SOL    HW1 7091   0.781   2.511   5.503
 2064SOL    HW2 7092   0.702   2.384   5.438
 2065SOL     OW 7093   6.994   2.699   4.837
 2065SOL    HW1 7094   6.997   2.761   4.759
 2065SOL    HW2 7095   0.006   2.609   4.809
 2066SOL     OW 7096   1.013   4.887   3.685
 2066SOL    HW1 7097   1.014   4.969   3.628
 2066SOL    HW2 7098   0.963   4.814   3.638
 2067SOL     OW 7099   6.590   5.251   1.052
 2067SOL    HW1 7100   6.504   5.283   1.012
 2067SOL    HW2 7101   6.645   5.206   0.982
 2068SOL     OW 7102   1.732   1.246   4.985
 2068SOL    HW1 7103   1.734   1.156   5.030
 2068SOL    HW2 7104   1.740   1.234   4.886
 2069SOL     OW 7105   0.689   3.067   3.264
 2069SOL    HW1 7106   0.649   3.002   3.328
 2069SOL    HW2 7107   0.659   3.044   3.171
 2070SOL     OW 7108   1.205   0.958   2.163
 2070SOL    HW1 7109   1.183   0.868   2.125
 2070SOL    HW2 7110   1.139   0.982   2.234
 2071SOL     OW 7111   6.441   5.969   5.659
 2071SOL    HW1 7112   6.395   6.035   5.601
 2071SOL    HW2 7113   6.397   5.880   5.651
 2072SOL     OW 7114   4.169   6.239   3.755
 2072SOL    HW1 7115   4.087   6.185   3.737
 2072SOL    HW2 7116   4.195   6.228   3.852
 2073SOL     OW 7117   4.353   0.350   4.728
 2073SOL    HW1 7118   4.348   0.310   4.636
 2073SOL    HW2 7119   4.445   0.384   4.744
 2074SOL     OW 7120   1.545   2.454   0.223
 2074SOL    HW1 7121   1.638   2.452   0.188
 2074SOL    HW2 7122   1.539   2.518   0.300
 2075SOL     OW 7123   5.632   3.188   1.727
 2075SOL    HW1 7124   5.625   3.093   1.758
 2075SOL    HW2 7125   5.708   3.233   1.773
 2076SOL     OW 7126   6.057   0.206   6.920
 2076SOL    HW1 7127   6.053   0.265   7.000
 2076SOL    HW2 7128   6.012   0.119   6.940
 2077SOL     OW 7129   5.050   2.878   2.689
 2077SOL    HW1 7130   5.107   2.936   2.748
 2077SOL    HW2 7131   4.954   2.890   2.714
 2078SOL     OW 7132   1.123   5.766   5.448
 2078SOL    HW1 7133   1.185   5.810   5.382
 2078SOL    HW2 7134   1.177   5.711   5.511
 2079SOL     OW 7135   5.139   1.936   3.947
 2079SOL    HW1 7136   5.141   1.878   3.866
 2079SOL    HW2 7137   5.230   1.972   3.965
 2080SOL     OW 7138   1.734   0.315   4.939
 2080SOL    HW1 7139   1.787   0.292   5.021
 2080SOL    HW2 7140   1.656   0.253   4.931
 2081SOL     OW 7141   1.542   5.176   4.477
 2081SOL    HW1 7142   1.599   5.131   4.407
 2081SOL    HW2 7143   1.461   5.216   4.433
 2082SOL     OW 7144   0.656   0.301   2.956
 2082SOL    HW1 7145   0.591   0.376   2.955
 2082SOL    HW2 7146   0.652   0.252   2.869
 2083SOL     OW 7147   6.461   5.233   6.526
 2083SOL    HW1 7148   6.530   5.166   6.553
 2083SOL    HW2 7149   6.502   5.301   6.465
 2084SOL     OW 7150   1.411   3.656   3.451
 2084SOL    HW1 7151   1.375   3.588   3.515
 2084SOL    HW2 7152   1.335   3.701   3.404
 2085SOL     OW 7153   4.322   0.706   6.944
 2085SOL    HW1 7154   4.386   0.765   6.992
 2085SOL    HW2 7155   4.260   0.663   7.010
 2086SOL     OW 7156   4.433   6.738   5.757
 2086SOL    HW1 7157   4.335   6.759   5.757
 2086SOL    HW2 7158   4.446   6.639   5.764
 2087SOL     OW 7159   5.215   0.217   0.952
 2087SOL    HW1 7160   5.177   0.239   0.863
 2087SOL    HW2 7161   5.308   0.253   0.959
 2088SOL     OW 7162   1.902   5.843   0.141
 2088SOL    HW1 7163   1.809   5.840   0.104
 2088SOL    HW2 7164   1.909   5.780   0.218
 2089SOL     OW 7165   5.318   2.048   6.621
 2089SOL    HW1 7166   5.254   1.978   6.650
 2089SOL    HW2 7167   5.406   2.006   6.597
 2090SOL     OW 7168   3.826   2.657   5.780
 2090SOL    HW1 7169   3.880   2.595   5.837
 2090SOL    HW2 7170   3.748   2.691   5.833
 2091SOL     OW 7171   0.091   5.494   0.256
 2091SOL    HW1 7172   0.115   5.399   0.276
 2091SOL    HW2 7173   0.086   5.507   0.156
 2092SOL     OW 7174   5.487   3.912   6.983
 2092SOL    HW1 7175   5.462   3.839   0.027
 2092SOL    HW2 7176   5.428   3.991   6.999
 2093SOL     OW 7177   2.600   1.974   1.269
 2093SOL    HW1 7178   2.598   1.940   1.363
 2093SOL    HW2 7179   2.623   2.072   1.270
 2094SOL     OW 7180   5.938   1.750   1.838
 2094SOL    HW1 7181   5.872   1.680   1.862
 2094SOL    HW2 7182   6.029   1.722   1.867
 2095SOL     OW 7183   5.643   0.239   5.378
 2095SOL    HW1 7184   5.695   0.256   5.462
 2095SOL    HW2 7185   5.548   0.221   5.401
 2096SOL     OW 7186   4.884   3.716   3.021
 2096SOL    HW1 7187   4.851   3.716   2.927
 2096SOL    HW2 7188   4.924   3.627   3.043
 2097SOL     OW 7189   2.988   3.054   6.601
 2097SOL    HW1 7190   2.979   2.980   6.534
 2097SOL    HW2 7191   3.006   3.015   6.691
 2098SOL     OW 7192   3.843   5.939   1.974
 2098SOL    HW1 7193   3.881   5.926   1.882
 2098SOL    HW2 7194   3.748   5.909   1.976
 2099SOL     OW 7195   3.193   2.773   6.250
 2099SOL    HW1 7196   3.176   2.780   6.152
 2099SOL    HW2 7197   3.226   2.861   6.285
 2100SOL     OW 7198   4.954   2.657   6.561
 2100SOL    HW1 7199   4.962   2.710   6.645
 2100SOL    HW2 7200   4.870   2.602   6.564
 2101SOL     OW 7201   1.151   6.375   2.226
 2101SOL    HW1 7202   1.162   6.300   2.161
 2101SOL    HW2 7203   1.240   6.399   2.264
 2102SOL     OW 7204   6.187   4.316   2.788
 2102SOL    HW1 7205   6.246   4.286   2.863
 2102SOL    HW2 7206   6.114   4.250   2.774
 2103SOL     OW 7207   4.188   4.117   5.566
 2103SOL    HW1 7208   4.095   4.151   5.581
 2103SOL    HW2 7209   4.229   4.166   5.490
 2104SOL     OW 7210   2.492   4.588   1.231
 2104SOL    HW1 7211   2.579   4.631   1.205
 2104SOL    HW2 7212   2.481   4.502   1.181
 2105SOL     OW 7213   4.888   6.446   5.046
 2105SOL    HW1 7214   4.846   6.418   5.132
 2105SOL    HW2 7215   4.850   6.534   5.017
 2106SOL     OW 7216   5.023   4.275   1.599
 2106SOL    HW1 7217   5.026   4.306   1.504
 2106SOL    HW2 7218   5.097   4.210   1.615
 2107SOL     OW 7219   4.807   2.805   5.632
 2107SOL    HW1 7220   4.738   2.857   5.682
 2107SOL    HW2 7221   4.891   2.801   5.685
 2108SOL     OW 7222   6.233   5.696   5.104
 2108SOL    HW1 7223   6.328   5.688   5.134
 2108SOL    HW2 7224   6.175   5.642   5.164
 2109SOL     OW 7225   4.111   6.281   2.477
 2109SOL    HW1 7226   4.022   6.304   2.437
 2109SOL    HW2 7227   4.122   6.329   2.564
 2110SOL     OW 7228   2.048   1.442   0.579
 2110SOL    HW1 7229   1.955   1.474   0.597
 2110SOL    HW2 7230   2.081   1.484   0.494
 2111SOL     OW 7231   1.714   2.311   6.679
 2111SOL    HW1 7232   1.693   2.356   6.765
 2111SOL    HW2 7233   1.787   2.244   6.693
 2112SOL     OW 7234   5.710   3.436   0.588
 2112SOL    HW1 7235   5.695   3.498   0.665
 2112SOL    HW2 7236   5.715   3.489   0.503
 2113SOL     OW 7237   2.273   2.083   5.215
 2113SOL    HW1 7238   2.348   2.044   5.163
 2113SOL    HW2 7239   2.235   2.161   5.165
 2114SOL     OW 7240   1.527   1.946   6.622
 2114SOL    HW1 7241   1.595   1.874   6.626
 2114SOL    HW2 7242   1.568   2.030   6.586
 2115SOL     OW 7243   2.081   3.734   2.921
 2115SOL    HW1 7244   2.116   3.665   2.985
 2115SOL    HW2 7245   2.072   3.822   2.968
 2116SOL     OW 7246   0.937   5.461   2.903
 2116SOL    HW1 7247   1.015   5.402   2.924
 2116SOL    HW2 7248   0.961   5.556   2.923
 2117SOL     OW 7249   0.026   5.280   1.592
 2117SOL    HW1 7250   0.097   5.213   1.613
 2117SOL    HW2 7251   0.001   5.330   1.675
 2118SOL     OW 7252   6.325   3.178   2.485
 2118SOL    HW1 7253   6.422   3.204   2.482
 2118SOL    HW2 7254   6.315   3.086   2.449
 2119SOL     OW 7255   1.310   0.122   1.078
 2119SOL    HW1 7256   1.355   0.192   1.023
 2119SOL    HW2 7257   1.362   0.109   1.163
 2120SOL     OW 7258   6.836   5.122   3.544
 2120SOL    HW1 7259   6.858   5.184   3.469
 2120SOL    HW2 7260   6.919   5.076   3.575
 2121SOL     OW 7261   1.685   4.378   6.000
 2121SOL    HW1 7262   1.726   4.376   5.909
 2121SOL    HW2 7263   1.671   4.285   6.033
 2122SOL     OW 7264   5.811   4.005   5.884
 2122SOL    HW1 7265   5.857   4.093   5.876
 2122SOL    HW2 7266   5.860   3.948   5.950
 2123SOL     OW 7267   0.075   6.036   2.537
 2123SOL    HW1 7268   0.096   6.081   2.450
 2123SOL    HW2 7269   0.139   6.067   2.607
 2124SOL     OW 7270   3.410   2.044   1.075
 2124SOL    HW1 7271   3.483   2.091   1.026
 2124SOL    HW2 7272   3.427   2.047   1.173
 2125SOL     OW 7273   2.203   0.625   2.224
 2125SOL    HW1 7274   2.286   0.585   2.185
 2125SOL    HW2 7275   2.154   0.675   2.152
 2126SOL     OW 7276   3.980   1.643   6.048
 2126SOL    HW1 7277   3.892   1.624   6.004
 2126SOL    HW2 7278   3.981   1.738   6.080
 2127SOL     OW 7279   0.691   2.917   5.160
 2127SOL    HW1 7280   0.763   2.985   5.171
 2127SOL    HW2 7281   0.732   2.826   5.157
 2128SOL     OW 7282   6.226   3.437   3.977
 2128SOL    HW1 7283   6.156   3.460   4.044
 2128SOL    HW2 7284   6.198   3.355   3.926
 2129SOL     OW 7285   4.462   3.287   5.459
 2129SOL    HW1 7286   4.379   3.232   5.444
 2129SOL    HW2 7287   4.438   3.369   5.509
 2130SOL     OW 7288   3.559   0.412   2.385
 2130SOL    HW1 7289   3.633   0.450   2.441
 2130SOL    HW2 7290   3.476   0.465   2.398
 2131SOL     OW 7291   5.347   0.950   0.513
 2131SOL    HW1 7292   5.291   0.991   0.441
 2131SOL    HW2 7293   5.437   0.993   0.514
 2132SOL     OW 7294   3.485   0.370   1.478
 2132SOL    HW1 7295   3.405   0.401   1.427
 2132SOL    HW2 7296   3.504   0.274   1.456
 2133SOL     OW 7297   3.038   2.718   0.182
 2133SOL    HW1 7298   2.958   2.775   0.164
 2133SOL    HW2 7299   3.015   2.649   0.251
 2134SOL     OW 7300   0.186   1.169   6.139
 2134SOL    HW1 7301   0.234   1.085   6.112
 2134SOL    HW2 7302   0.183   1.174   6.239
 2135SOL     OW 7303   1.464   3.479   5.234
 2135SOL    HW1 7304   1.465   3.379   5.226
 2135SOL    HW2 7305   1.513   3.519   5.157
 2136SOL     OW 7306   1.129   4.003   3.796
 2136SOL    HW1 7307   1.076   3.949   3.731
 2136SOL    HW2 7308   1.067   4.050   3.859
 2137SOL     OW 7309   2.965   5.231   4.845
 2137SOL    HW1 7310   2.979   5.327   4.819
 2137SOL    HW2 7311   2.942   5.227   4.943
 2138SOL     OW 7312   6.530   0.664   2.599
 2138SOL    HW1 7313   6.463   0.590   2.591
 2138SOL    HW2 7314   6.599   0.656   2.527
 2139SOL     OW 7315   3.773   0.787   3.289
 2139SOL    HW1 7316   3.722   0.844   3.224
 2139SOL    HW2 7317   3.861   0.831   3.309
 2140SOL     OW 7318   3.890   6.823   4.367
 2140SOL    HW1 7319   3.894   6.887   4.444
 2140SOL    HW2 7320   3.798   6.783   4.362
 2141SOL     OW 7321   6.360   3.700   2.197
 2141SOL    HW1 7322   6.349   3.678   2.101
 2141SOL    HW2 7323   6.352   3.798   2.211
 2142SOL     OW 7324   2.057   2.590   3.048
 2142SOL    HW1 7325   2.022   2.500   3.021
 2142SOL    HW2 7326   1.986   2.659   3.034
 2143SOL     OW 7327   2.785   4.566   1.488
 2143SOL    HW1 7328   2.712   4.578   1.421
 2143SOL    HW2 7329   2.811   4.469   1.492
 2144SOL     OW 7330   1.304   5.252   4.356
 2144SOL    HW1 7331   1.268   5.312   4.427
 2144SOL    HW2 7332   1.243   5.254   4.277
 2145SOL     OW 7333   4.666   6.329   4.184
 2145SOL    HW1 7334   4.733   6.355   4.114
 2145SOL    HW2 7335   4.575   6.324   4.143
 2146SOL     OW 7336   2.664   3.402   1.784
 2146SOL    HW1 7337   2.730   3.418   1.858
 2146SOL    HW2 7338   2.571   3.410   1.820
 2147SOL     OW 7339   6.115   1.846   6.140
 2147SOL    HW1 7340   6.209   1.872   6.119
 2147SOL    HW2 7341   6.092   1.761   6.094
 2148SOL     OW 7342   5.668   2.366   5.469
 2148SOL    HW1 7343   5.643   2.370   5.565
 2148SOL    HW2 7344   5.610   2.299   5.422
 2149SOL     OW 7345   3.703   2.137   1.241
 2149SOL    HW1 7346   3.685   2.045   1.207
 2149SOL    HW2 7347   3.697   2.138   1.340
 2150SOL     OW 7348   2.665   1.863   2.390
 2150SOL    HW1 7349   2.598   1.810   2.339
 2150SOL    HW2 7350   2.623   1.902   2.472
 2151SOL     OW 7351   1.371   0.220   4.913
 2151SOL    HW1 7352   1.293   0.169   4.950
 2151SOL    HW2 7353   1.424   0.161   4.852
 2152SOL     OW 7354   3.280   5.802   1.431
 2152SOL    HW1 7355   3.271   5.871   1.359
 2152SOL    HW2 7356   3.191   5.785   1.473
 2153SOL     OW 7357   3.917   1.214   2.670
 2153SOL    HW1 7358   3.845   1.277   2.700
 2153SOL    HW2 7359   3.895   1.122   2.702
 2154SOL     OW 7360   5.083   0.388   5.099
 2154SOL    HW1 7361   5.013   0.454   5.125
 2154SOL    HW2 7362   5.073   0.305   5.153
 2155SOL     OW 7363   2.642   5.475   0.208
 2155SOL    HW1 7364   2.668   5.424   0.290
 2155SOL    HW2 7365   2.567   5.538   0.230
 2156SOL     OW 7366   1.963   1.660   4.982
 2156SOL    HW1 7367   1.892   1.686   4.917
 2156SOL    HW2 7368   1.921   1.624   5.066
 2157SOL     OW 7369   6.189   1.120   3.289
 2157SOL    HW1 7370   6.176   1.056   3.213
 2157SOL    HW2 7371   6.106   1.173   3.303
 2158SOL     OW 7372   3.814   6.131   1.337
 2158SOL    HW1 7373   3.894   6.190   1.329
 2158SOL    HW2 7374   3.801   6.082   1.250
 2159SOL     OW 7375   1.593   6.589   4.781
 2159SOL    HW1 7376   1.650   6.600   4.862
 2159SOL    HW2 7377   1.650   6.592   4.699
 2160SOL     OW 7378   3.900   3.767   0.522
 2160SOL    HW1 7379   3.849   3.806   0.446
 2160SOL    HW2 7380   3.905   3.668   0.512
 2161SOL     OW 7381   5.385   5.084   3.005
 2161SOL    HW1 7382   5.456   5.154   2.993
 2161SOL    HW2 7383   5.356   5.082   3.100
 2162SOL     OW 7384   1.992   1.170   1.978
 2162SOL    HW1 7385   2.089   1.192   1.964
 2162SOL    HW2 7386   1.950   1.148   1.889
 2163SOL     OW 7387   1.398   4.440   6.022
 2163SOL    HW1 7388   1.366   4.534   6.024
 2163SOL    HW2 7389   1.484   4.434   5.972
 2164SOL     OW 7390   1.553   2.836   0.169
 2164SOL    HW1 7391   1.465   2.882   0.162
 2164SOL    HW2 7392   1.587   2.815   0.077
 2165SOL     OW 7393   0.700   1.931   2.709
 2165SOL    HW1 7394   0.747   1.843   2.707
 2165SOL    HW2 7395   0.732   1.984   2.787
 2166SOL     OW 7396   1.679   2.642   5.043
 2166SOL    HW1 7397   1.690   2.742   5.043
 2166SOL    HW2 7398   1.703   2.606   4.953
 2167SOL     OW 7399   2.112   1.692   3.732
 2167SOL    HW1 7400   2.169   1.754   3.678
 2167SOL    HW2 7401   2.102   1.605   3.683
 2168SOL     OW 7402   0.471   2.270   4.031
 2168SOL    HW1 7403   0.492   2.183   3.986
 2168SOL    HW2 7404   0.389   2.258   4.088
 2169SOL     OW 7405   5.325   0.985   6.951
 2169SOL    HW1 7406   5.417   0.947   6.961
 2169SOL    HW2 7407   5.331   1.082   6.925
 2170SOL     OW 7408   6.613   5.042   5.645
 2170SOL    HW1 7409   6.667   5.085   5.716
 2170SOL    HW2 7410   6.671   5.025   5.565
 2171SOL     OW 7411   0.349   4.732   1.615
 2171SOL    HW1 7412   0.324   4.637   1.632
 2171SOL    HW2 7413   0.325   4.757   1.521
 2172SOL     OW 7414   2.162   2.380   0.489
 2172SOL    HW1 7415   2.101   2.317   0.537
 2172SOL    HW2 7416   2.244   2.331   0.459
 2173SOL     OW 7417   3.620   0.779   5.558
 2173SOL    HW1 7418   3.609   0.701   5.496
 2173SOL    HW2 7419   3.713   0.814   5.550
 2174SOL     OW 7420   5.447   6.559   5.050
 2174SOL    HW1 7421   5.350   6.556   5.071
 2174SOL    HW2 7422   5.461   6.529   4.955
 2175SOL     OW 7423   2.414   2.696   4.276
 2175SOL    HW1 7424   2.406   2.791   4.247
 2175SOL    HW2 7425   2.409   2.691   4.376
 2176SOL     OW 7426   6.642   1.819   0.518
 2176SOL    HW1 7427   6.663   1.770   0.433
 2176SOL    HW2 7428   6.553   1.864   0.509
 2177SOL     OW 7429   6.078   2.087   3.203
 2177SOL    HW1 7430   6.116   1.999   3.177
 2177SOL    HW2 7431   6.017   2.075   3.282
 2178SOL     OW 7432   1.853   1.943   1.092
 2178SOL    HW1 7433   1.887   1.955   1.186
 2178SOL    HW2 7434   1.855   2.031   1.045
 2179SOL     OW 7435   2.226   5.185   5.198
 2179SOL    HW1 7436   2.257   5.092   5.215
 2179SOL    HW2 7437   2.143   5.183   5.142
 2180SOL     OW 7438   1.733   2.383   1.996
 2180SOL    HW1 7439   1.825   2.349   1.978
 2180SOL    HW2 7440   1.695   2.334   2.075
 2181SOL     OW 7441   4.410   4.948   4.257
 2181SOL    HW1 7442   4.408   5.028   4.197
 2181SOL    HW2 7443   4.393   4.977   4.351
 2182SOL     OW 7444   1.367   3.622   4.174
 2182SOL    HW1 7445   1.382   3.627   4.075
 2182SOL    HW2 7446   1.453   3.639   4.222
 2183SOL     OW 7447   2.774   3.921   6.022
 2183SOL    HW1 7448   2.822   3.921   5.935
 2183SOL    HW2 7449   2.740   4.013   6.041
 2184SOL     OW 7450   4.560   1.938   6.807
 2184SOL    HW1 7451   4.491   1.875   6.771
 2184SOL    HW2 7452   4.650   1.913   6.771
 2185SOL     OW 7453   0.880   1.515   0.790
 2185SOL    HW1 7454   0.856   1.611   0.803
 2185SOL    HW2 7455   0.810   1.458   0.831
 2186SOL     OW 7456   0.672   5.720   1.786
 2186SOL    HW1 7457   0.711   5.797   1.735
 2186SOL    HW2 7458   0.637   5.752   1.874
 2187SOL     OW 7459   6.635   0.479   2.935
 2187SOL    HW1 7460   6.695   0.543   2.984
 2187SOL    HW2 7461   6.680   0.450   2.850
 2188SOL     OW 7462   6.885   6.685   5.066
 2188SOL    HW1 7463   6.868   6.591   5.095
 2188SOL    HW2 7464   6.967   6.687   5.009
 2189SOL     OW 7465   1.369   6.913   0.923
 2189SOL    HW1 7466   1.334   6.989   0.977
 2189SOL    HW2 7467   1.453   6.878   0.964
 2190SOL     OW 7468   0.297   2.899   1.745
 2190SOL    HW1 7469   0.321   2.853   1.659
 2190SOL    HW2 7470   0.218   2.853   1.786
 2191SOL     OW 7471   2.990   2.099   6.756
 2191SOL    HW1 7472   2.914   2.049   6.714
 2191SOL    HW2 7473   3.015   2.176   6.697
 2192SOL     OW 7474   4.260   1.034   2.501
 2192SOL    HW1 7475   4.276   0.935   2.498
 2192SOL    HW2 7476   4.258   1.070   2.408
 2193SOL     OW 7477   6.009   6.013   6.436
 2193SOL    HW1 7478   5.959   5.971   6.360
 2193SOL    HW2 7479   5.977   6.106   6.450
 2194SOL     OW 7480   2.891   4.263   5.635
 2194SOL    HW1 7481   2.876   4.335   5.567
 2194SOL    HW2 7482   2.805   4.215   5.653
 2195SOL     OW 7483   0.373   0.633   4.455
 2195SOL    HW1 7484   0.286   0.622   4.407
 2195SOL    HW2 7485   0.442   0.669   4.392
 2196SOL     OW 7486   2.719   6.760   5.016
 2196SOL    HW1 7487   2.769   6.819   5.079
 2196SOL    HW2 7488   2.761   6.669   5.015
 2197SOL     OW 7489   3.203   3.542   1.029
 2197SOL    HW1 7490   3.195   3.556   0.930
 2197SOL    HW2 7491   3.120   3.497   1.062
 2198SOL     OW 7492   5.733   1.685   0.272
 2198SOL    HW1 7493   5.709   1.606   0.217
 2198SOL    HW2 7494   5.725   1.768   0.218
 2199SOL     OW 7495   5.178   0.985   3.308
 2199SOL    HW1 7496   5.147   0.901   3.264
 2199SOL    HW2 7497   5.247   0.962   3.377
 2200SOL     OW 7498   2.475   1.057   5.413
 2200SOL    HW1 7499   2.420   1.031   5.334
 2200SOL    HW2 7500   2.522   1.143   5.395
 2201SOL     OW 7501   6.483   2.861   3.272
 2201SOL    HW1 7502   6.465   2.817   3.184
 2201SOL    HW2 7503   6.399   2.864   3.326
 2202SOL     OW 7504   2.508   5.409   2.006
 2202SOL    HW1 7505   2.520   5.425   2.104
 2202SOL    HW2 7506   2.440   5.473   1.970
 2203SOL     OW 7507   1.923   2.258   1.442
 2203SOL    HW1 7508   2.012   2.289   1.475
 2203SOL    HW2 7509   1.861   2.248   1.519
 2204SOL     OW 7510   3.683   0.942   1.073
 2204SOL    HW1 7511   3.646   1.030   1.105
 2204SOL    HW2 7512   3.662   0.931   0.976
 2205SOL     OW 7513   0.953   0.516   6.040
 2205SOL    HW1 7514   0.869   0.463   6.031
 2205SOL    HW2 7515   1.017   0.467   6.099
 2206SOL     OW 7516   3.408   4.168   6.244
 2206SOL    HW1 7517   3.378   4.107   6.317
 2206SOL    HW2 7518   3.503   4.195   6.260
 2207SOL     OW 7519   3.215   4.092   6.921
 2207SOL    HW1 7520   3.287   4.124   6.860
 2207SOL    HW2 7521   3.224   4.136   7.010
 2208SOL     OW 7522   1.569   6.204   3.095
 2208SOL    HW1 7523   1.666   6.222   3.112
 2208SOL    HW2 7524   1.532   6.149   3.169
 2209SOL     OW 7525   1.747   6.231   5.405
 2209SOL    HW1 7526   1.709   6.282   5.328
 2209SOL    HW2 7527   1.779   6.294   5.475
 2210SOL     OW 7528   6.196   4.795   3.871
 2210SOL    HW1 7529   6.179   4.883   3.915
 2210SOL    HW2 7530   6.112   4.741   3.872
 2211SOL     OW 7531   5.540   0.545   0.626
 2211SOL    HW1 7532   5.563   0.472   0.562
 2211SOL    HW2 7533   5.615   0.557   0.691
 2212SOL     OW 7534   1.466   6.004   6.964
 2212SOL    HW1 7535   1.398   5.981   6.894
 2212SOL    HW2 7536   1.523   6.080   6.933
 2213SOL     OW 7537   3.519   2.575   5.304
 2213SOL    HW1 7538   3.578   2.616   5.235
 2213SOL    HW2 7539   3.423   2.599   5.285
 2214SOL     OW 7540   3.203   2.893   5.075
 2214SOL    HW1 7541   3.241   2.829   5.141
 2214SOL    HW2 7542   3.225   2.863   4.982
 2215SOL     OW 7543   6.051   1.201   0.534
 2215SOL    HW1 7544   6.127   1.250   0.574
 2215SOL    HW2 7545   5.976   1.264   0.515
 2216SOL     OW 7546   1.787   0.407   6.010
 2216SOL    HW1 7547   1.731   0.337   5.966
 2216SOL    HW2 7548   1.804   0.381   6.105
 2217SOL     OW 7549   4.131   6.658   1.370
 2217SOL    HW1 7550   4.186   6.737   1.342
 2217SOL    HW2 7551   4.048   6.690   1.416
 2218SOL     OW 7552   0.268   6.229   0.167
 2218SOL    HW1 7553   0.191   6.294   0.162
 2218SOL    HW2 7554   0.320   6.235   0.082
 2219SOL     OW 7555   5.414   1.956   1.559
 2219SOL    HW1 7556   5.497   2.008   1.538
 2219SOL    HW2 7557   5.416   1.926   1.654
 2220SOL     OW 7558   1.293   0.501   4.614
 2220SOL    HW1 7559   1.324   0.501   4.709
 2220SOL    HW2 7560   1.262   0.593   4.590
 2221SOL     OW 7561   5.865   1.152   5.147
 2221SOL    HW1 7562   5.858   1.203   5.062
 2221SOL    HW2 7563   5.773   1.126   5.179
 2222SOL     OW 7564   4.949   0.722   0.737
 2222SOL    HW1 7565   4.867   0.721   0.795
 2222SOL    HW2 7566   4.996   0.809   0.749
 2223SOL     OW 7567   5.892   1.379   4.976
 2223SOL    HW1 7568   5.980   1.337   4.952
 2223SOL    HW2 7569   5.860   1.436   4.901
 2224SOL     OW 7570   1.377   3.898   0.426
 2224SOL    HW1 7571   1.294   3.939   0.463
 2224SOL    HW2 7572   1.430   3.857   0.500
 2225SOL     OW 7573   6.677   6.620   2.937
 2225SOL    HW1 7574   6.580   6.616   2.958
 2225SOL    HW2 7575   6.718   6.700   2.982
 2226SOL     OW 7576   3.818   4.731   0.996
 2226SOL    HW1 7577   3.868   4.789   0.932
 2226SOL    HW2 7578   3.878   4.658   1.029
 2227SOL     OW 7579   5.534   3.214   0.492
 2227SOL    HW1 7580   5.570   3.293   0.541
 2227SOL    HW2 7581   5.442   3.235   0.459
 2228SOL     OW 7582   2.911   5.062   0.881
 2228SOL    HW1 7583   2.947   4.977   0.918
 2228SOL    HW2 7584   2.858   5.110   0.952
 2229SOL     OW 7585   4.063   1.935   4.388
 2229SOL    HW1 7586   4.033   2.029   4.401
 2229SOL    HW2 7587   4.081   1.893   4.477
 2230SOL     OW 7588   5.907   5.888   6.668
 2230SOL    HW1 7589   5.850   5.950   6.722
 2230SOL    HW2 7590   5.950   5.938   6.593
 2231SOL     OW 7591   0.242   0.704   2.107
 2231SOL    HW1 7592   0.248   0.695   2.007
 2231SOL    HW2 7593   0.155   0.747   2.131
 2232SOL     OW 7594   0.280   3.364   5.060
 2232SOL    HW1 7595   0.199   3.306   5.064
 2232SOL    HW2 7596   0.342   3.340   5.135
 2233SOL     OW 7597   2.559   3.360   0.759
 2233SOL    HW1 7598   2.537   3.296   0.685
 2233SOL    HW2 7599   2.556   3.454   0.724
 2234SOL     OW 7600   3.780   1.910   1.721
 2234SOL    HW1 7601   3.811   1.998   1.758
 2234SOL    HW2 7602   3.820   1.896   1.631
 2235SOL     OW 7603   2.787   0.089   1.430
 2235SOL    HW1 7604   2.697   0.130   1.414
 2235SOL    HW2 7605   2.827   0.129   1.513
 2236SOL     OW 7606   1.270   4.818   6.395
 2236SOL    HW1 7607   1.285   4.836   6.492
 2236SOL    HW2 7608   1.313   4.731   6.370
 2237SOL     OW 7609   6.208   4.922   4.487
 2237SOL    HW1 7610   6.151   4.968   4.419
 2237SOL    HW2 7611   6.188   4.958   4.578
 2238SOL     OW 7612   5.200   4.436   0.967
 2238SOL    HW1 7613   5.126   4.369   0.960
 2238SOL    HW2 7614   5.239   4.453   0.877
 2239SOL     OW 7615   4.062   4.900   3.131
 2239SOL    HW1 7616   3.983   4.948   3.169
 2239SOL    HW2 7617   4.135   4.965   3.112
 2240SOL     OW 7618   5.297   5.790   3.745
 2240SOL    HW1 7619   5.268   5.738   3.665
 2240SOL    HW2 7620   5.318   5.884   3.718
 2241SOL     OW 7621   0.360   6.611   3.144
 2241SOL    HW1 7622   0.396   6.564   3.064
 2241SOL    HW2 7623   0.434   6.661   3.190
 2242SOL     OW 7624   5.160   2.282   3.051
 2242SOL    HW1 7625   5.202   2.316   2.967
 2242SOL    HW2 7626   5.144   2.183   3.042
 2243SOL     OW 7627   2.347   6.347   5.927
 2243SOL    HW1 7628   2.383   6.378   5.839
 2243SOL    HW2 7629   2.422   6.333   5.991
 2244SOL     OW 7630   2.153   6.776   1.595
 2244SOL    HW1 7631   2.162   6.678   1.577
 2244SOL    HW2 7632   2.071   6.792   1.650
 2245SOL     OW 7633   0.456   1.961   1.337
 2245SOL    HW1 7634   0.493   2.034   1.279
 2245SOL    HW2 7635   0.462   1.989   1.433
 2246SOL     OW 7636   0.759   1.957   5.566
 2246SOL    HW1 7637   0.840   1.904   5.589
 2246SOL    HW2 7638   0.751   1.964   5.466
 2247SOL     OW 7639   3.582   3.355   4.623
 2247SOL    HW1 7640   3.583   3.442   4.574
 2247SOL    HW2 7641   3.534   3.365   4.710
 2248SOL     OW 7642   4.816   4.058   5.987
 2248SOL    HW1 7643   4.823   3.960   6.004
 2248SOL    HW2 7644   4.908   4.096   5.973
 2249SOL     OW 7645   6.403   6.214   3.056
 2249SOL    HW1 7646   6.493   6.202   3.096
 2249SOL    HW2 7647   6.412   6.252   2.964
 2250SOL     OW 7648   4.182   3.532   6.453
 2250SOL    HW1 7649   4.215   3.486   6.535
 2250SOL    HW2 7650   4.155   3.465   6.385
 2251SOL     OW 7651   5.014   0.910   6.965
 2251SOL    HW1 7652   4.998   0.839   6.896
 2251SOL    HW2 7653   4.980   0.998   6.932
 2252SOL     OW 7654   5.102   2.762   2.461
 2252SOL    HW1 7655   5.044   2.779   2.382
 2252SOL    HW2 7656   5.057   2.797   2.543
 2253SOL     OW 7657   0.977   3.240   6.622
 2253SOL    HW1 7658   0.964   3.271   6.527
 2253SOL    HW2 7659   0.906   3.280   6.680
 2254SOL     OW 7660   3.860   3.023   5.029
 2254SOL    HW1 7661   3.927   3.068   4.969
 2254SOL    HW2 7662   3.790   2.979   4.973
 2255SOL     OW 7663   4.663   2.282   6.824
 2255SOL    HW1 7664   4.626   2.248   6.911
 2255SOL    HW2 7665   4.746   2.231   6.801
 2256SOL     OW 7666   5.644   5.874   1.382
 2256SOL    HW1 7667   5.688   5.823   1.456
 2256SOL    HW2 7668   5.628   5.812   1.305
 2257SOL     OW 7669   6.931   2.407   4.117
 2257SOL    HW1 7670   6.941   2.341   4.192
 2257SOL    HW2 7671   6.902   2.359   4.034
 2258SOL     OW 7672   1.347   5.598   5.552
 2258SOL    HW1 7673   1.389   5.650   5.477
 2258SOL    HW2 7674   1.415   5.584   5.624
 2259SOL     OW 7675   5.497   3.469   0.169
 2259SOL    HW1 7676   5.497   3.409   0.089
 2259SOL    HW2 7677   5.590   3.475   0.206
 2260SOL     OW 7678   6.129   4.788   2.554
 2260SOL    HW1 7679   6.195   4.717   2.579
 2260SOL    HW2 7680   6.067   4.804   2.631
 2261SOL     OW 7681   6.735   6.167   6.723
 2261SOL    HW1 7682   6.782   6.241   6.675
 2261SOL    HW2 7683   6.640   6.162   6.691
 2262SOL     OW 7684   5.522   1.592   2.382
 2262SOL    HW1 7685   5.605   1.539   2.401
 2262SOL    HW2 7686   5.545   1.671   2.324
 2263SOL     OW 7687   3.370   6.231   6.947
 2263SOL    HW1 7688   3.457   6.230   6.898
 2263SOL    HW2 7689   3.296   6.252   6.883
 2264SOL     OW 7690   3.520   3.827   0.629
 2264SOL    HW1 7691   3.518   3.767   0.708
 2264SOL    HW2 7692   3.453   3.797   0.561
 2265SOL     OW 7693   0.662   1.570   4.744
 2265SOL    HW1 7694   0.658   1.473   4.767
 2265SOL    HW2 7695   0.711   1.582   4.658
 2266SOL     OW 7696   5.818   1.994   0.651
 2266SOL    HW1 7697   5.844   1.970   0.557
 2266SOL    HW2 7698   5.815   1.910   0.706
 2267SOL     OW 7699   4.672   2.397   4.687
 2267SOL    HW1 7700   4.664   2.464   4.761
 2267SOL    HW2 7701   4.767   2.365   4.681
 2268SOL     OW 7702   6.868   3.740   6.621
 2268SOL    HW1 7703   6.783   3.694   6.649
 2268SOL    HW2 7704   6.874   3.741   6.521
 2269SOL     OW 7705   5.680   5.695   4.696
 2269SOL    HW1 7706   5.583   5.715   4.707
 2269SOL    HW2 7707   5.731   5.735   4.773
 2270SOL     OW 7708   3.241   2.319   6.231
 2270SOL    HW1 7709   3.160   2.377   6.229
 2270SOL    HW2 7710   3.321   2.375   6.254
 2271SOL     OW 7711   6.016   4.157   0.373
 2271SOL    HW1 7712   5.991   4.147   0.469
 2271SOL    HW2 7713   6.115   4.167   0.365
 2272SOL     OW 7714   6.039   1.974   6.371
 2272SOL    HW1 7715   6.031   1.939   6.278
 2272SOL    HW2 7716   6.017   2.072   6.372
 2273SOL     OW 7717   2.121   0.157   2.430
 2273SOL    HW1 7718   2.091   0.225   2.363
 2273SOL    HW2 7719   2.048   0.091   2.446
 2274SOL     OW 7720   0.125   3.245   6.570
 2274SOL    HW1 7721   0.134   3.265   6.473
 2274SOL    HW2 7722   0.063   3.311   6.613
 2275SOL     OW 7723   6.006   0.791   3.936
 2275SOL    HW1 7724   6.064   0.871   3.930
 2275SOL    HW2 7725   6.022   0.744   4.023
 2276SOL     OW 7726   2.283   5.299   0.776
 2276SOL    HW1 7727   2.373   5.261   0.754
 2276SOL    HW2 7728   2.252   5.265   0.864
 2277SOL     OW 7729   4.260   3.460   5.186
 2277SOL    HW1 7730   4.241   3.392   5.256
 2277SOL    HW2 7731   4.334   3.520   5.216
 2278SOL     OW 7732   6.476   5.028   3.782
 2278SOL    HW1 7733   6.467   4.950   3.844
 2278SOL    HW2 7734   6.557   5.081   3.807
 2279SOL     OW 7735   5.122   6.009   4.751
 2279SOL    HW1 7736   5.113   6.103   4.782
 2279SOL    HW2 7737   5.161   5.952   4.823
 2280SOL     OW 7738   0.480   6.493   4.325
 2280SOL    HW1 7739   0.489   6.483   4.226
 2280SOL    HW2 7740   0.567   6.525   4.364
 2281SOL     OW 7741   3.146   1.187   2.051
 2281SOL    HW1 7742   3.210   1.256   2.018
 2281SOL    HW2 7743   3.053   1.211   2.023
 2282SOL     OW 7744   4.635   6.998   5.013
 2282SOL    HW1 7745   4.645   6.954   4.923
 2282SOL    HW2 7746   4.592   6.933   5.076
 2283SOL     OW 7747   0.415   4.599   2.142
 2283SOL    HW1 7748   0.513   4.597   2.124
 2283SOL    HW2 7749   0.378   4.689   2.118
 2284SOL     OW 7750   1.708   2.173   0.074
 2284SOL    HW1 7751   1.759   2.249   0.115
 2284SOL    HW2 7752   1.659   2.123   0.145
 2285SOL     OW 7753   2.363   2.084   1.189
 2285SOL    HW1 7754   2.399   2.163   1.139
 2285SOL    HW2 7755   2.439   2.034   1.232
 2286SOL     OW 7756   6.768   0.582   3.996
 2286SOL    HW1 7757   6.687   0.562   3.941
 2286SOL    HW2 7758   6.786   0.506   4.058
 2287SOL     OW 7759   1.692   1.249   3.590
 2287SOL    HW1 7760   1.768   1.273   3.530
 2287SOL    HW2 7761   1.615   1.218   3.536
 2288SOL     OW 7762   6.577   5.579   4.815
 2288SOL    HW1 7763   6.591   5.542   4.723
 2288SOL    HW2 7764   6.481   5.601   4.828
 2289SOL     OW 7765   0.320   4.318   2.566
 2289SOL    HW1 7766   0.330   4.417   2.558
 2289SOL    HW2 7767   0.223   4.294   2.559
 2290SOL     OW 7768   1.490   4.061   1.977
 2290SOL    HW1 7769   1.485   3.973   2.024
 2290SOL    HW2 7770   1.585   4.079   1.949
 2291SOL     OW 7771   2.332   2.308   6.586
 2291SOL    HW1 7772   2.393   2.230   6.572
 2291SOL    HW2 7773   2.249   2.277   6.631
 2292SOL     OW 7774   5.856   2.267   4.349
 2292SOL    HW1 7775   5.769   2.249   4.304
 2292SOL    HW2 7776   5.867   2.205   4.427
 2293SOL     OW 7777   5.246   6.953   1.293
 2293SOL    HW1 7778   5.276   6.875   1.238
 2293SOL    HW2 7779   5.225   6.923   1.386
 2294SOL     OW 7780   3.356   1.295   6.493
 2294SOL    HW1 7781   3.381   1.253   6.581
 2294SOL    HW2 7782   3.436   1.298   6.434
 2295SOL     OW 7783   0.507   1.630   2.561
 2295SOL    HW1 7784   0.530   1.596   2.470
 2295SOL    HW2 7785   0.590   1.660   2.607
 2296SOL     OW 7786   3.607   6.185   1.901
 2296SOL    HW1 7787   3.522   6.178   1.849
 2296SOL    HW2 7788   3.599   6.133   1.986
 2297SOL     OW 7789   4.690   4.486   5.421
 2297SOL    HW1 7790   4.779   4.497   5.377
 2297SOL    HW2 7791   4.644   4.405   5.385
 2298SOL     OW 7792   4.181   3.322   1.891
 2298SOL    HW1 7793   4.153   3.307   1.985
 2298SOL    HW2 7794   4.113   3.284   1.829
 2299SOL     OW 7795   4.869   4.768   4.800
 2299SOL    HW1 7796   4.913   4.786   4.888
 2299SOL    HW2 7797   4.887   4.674   4.772
 2300SOL     OW 7798   2.169   5.795   1.651
 2300SOL    HW1 7799   2.264   5.778   1.624
 2300SOL    HW2 7800   2.151   5.893   1.650
 2301SOL     OW 7801   3.547   2.909   2.772
 2301SOL    HW1 7802   3.457   2.886   2.810
 2301SOL    HW2 7803   3.617   2.894   2.842
 2302SOL     OW 7804   3.419   6.942   1.075
 2302SOL    HW1 7805   3.420   0.012   1.029
 2302SOL    HW2 7806   3.489   6.883   1.035
 2303SOL     OW 7807   1.955   3.298   6.402
 2303SOL    HW1 7808   1.874   3.317   6.458
 2303SOL    HW2 7809   2.030   3.268   6.460
 2304SOL     OW 7810   5.160   6.635   4.041
 2304SOL    HW1 7811   5.229   6.582   4.090
 2304SOL    HW2 7812   5.073   6.630   4.090
 2305SOL     OW 7813   2.330   6.986   2.456
 2305SOL    HW1 7814   2.324   6.994   2.556
 2305SOL    HW2 7815   2.264   0.028   2.414
 2306SOL     OW 7816   2.393   5.015   1.711
 2306SOL    HW1 7817   2.468   5.061   1.663
 2306SOL    HW2 7818   2.407   5.021   1.809
 2307SOL     OW 7819   6.473   3.569   3.887
 2307SOL    HW1 7820   6.418   3.498   3.932
 2307SOL    HW2 7821   6.453   3.570   3.790
 2308SOL     OW 7822   1.588   4.694   1.609
 2308SOL    HW1 7823   1.610   4.787   1.639
 2308SOL    HW2 7824   1.585   4.633   1.688
 2309SOL     OW 7825   1.304   0.808   6.394
 2309SOL    HW1 7826   1.404   0.809   6.388
 2309SOL    HW2 7827   1.269   0.901   6.385
 2310SOL     OW 7828   5.605   5.940   0.296
 2310SOL    HW1 7829   5.640   5.902   0.381
 2310SOL    HW2 7830   5.538   6.012   0.317
 2311SOL     OW 7831   2.013   6.740   1.159
 2311SOL    HW1 7832   2.025   6.649   1.200
 2311SOL    HW2 7833   2.103   6.775   1.131
 2312SOL     OW 7834   3.995   6.034   2.770
 2312SOL    HW1 7835   4.058   6.108   2.795
 2312SOL    HW2 7836   3.914   6.073   2.727
 2313SOL     OW 7837   5.988   5.773   1.326
 2313SOL    HW1 7838   6.087   5.770   1.338
 2313SOL    HW2 7839   5.961   5.864   1.293
 2314SOL     OW 7840   5.633   6.597   3.710
 2314SOL    HW1 7841   5.567   6.585   3.637
 2314SOL    HW2 7842   5.688   6.679   3.692
 2315SOL     OW 7843   5.082   3.255   6.184
 2315SOL    HW1 7844   5.067   3.159   6.159
 2315SOL    HW2 7845   5.155   3.293   6.126
 2316SOL     OW 7846   3.561   1.252   4.243
 2316SOL    HW1 7847   3.619   1.225   4.166
 2316SOL    HW2 7848   3.486   1.187   4.252
 2317SOL     OW 7849   0.796   6.525   2.853
 2317SOL    HW1 7850   0.876   6.566   2.809
 2317SOL    HW2 7851   0.729   6.500   2.783
 2318SOL     OW 7852   1.940   2.662   3.995
 2318SOL    HW1 7853   1.916   2.748   3.949
 2318SOL    HW2 7854   1.947   2.678   4.093
 2319SOL     OW 7855   1.936   4.682   3.913
 2319SOL    HW1 7856   2.028   4.722   3.915
 2319SOL    HW2 7857   1.943   4.583   3.915
 2320SOL     OW 7858   0.899   2.060   4.928
 2320SOL    HW1 7859   0.884   2.094   5.021
 2320SOL    HW2 7860   0.992   2.022   4.922
 2321SOL     OW 7861   2.588   0.555   6.997
 2321SOL    HW1 7862   2.533   0.638   7.007
 2321SOL    HW2 7863   2.634   0.556   6.908
 2322SOL     OW 7864   3.343   1.216   4.776
 2322SOL    HW1 7865   3.409   1.192   4.705
 2322SOL    HW2 7866   3.287   1.137   4.798
 2323SOL     OW 7867   2.754   5.106   1.514
 2323SOL    HW1 7868   2.665   5.069   1.488
 2323SOL    HW2 7869   2.803   5.040   1.570
 2324SOL     OW 7870   6.347   6.251   1.357
 2324SOL    HW1 7871   6.394   6.308   1.289
 2324SOL    HW2 7872   6.265   6.299   1.389
 2325SOL     OW 7873   1.283   4.694   2.511
 2325SOL    HW1 7874   1.185   4.675   2.521
 2325SOL    HW2 7875   1.306   4.698   2.414
 2326SOL     OW 7876   3.233   5.823   5.715
 2326SOL    HW1 7877   3.207   5.741   5.766
 2326SOL    HW2 7878   3.303   5.874   5.765
 2327SOL     OW 7879   6.090   3.013   4.256
 2327SOL    HW1 7880   6.031   3.081   4.215
 2327SOL    HW2 7881   6.064   2.922   4.224
 2328SOL     OW 7882   3.125   1.775   2.477
 2328SOL    HW1 7883   3.185   1.836   2.528
 2328SOL    HW2 7884   3.144   1.784   2.379
 2329SOL     OW 7885   1.754   4.147   5.137
 2329SOL    HW1 7886   1.797   4.207   5.069
 2329SOL    HW2 7887   1.757   4.052   5.103
 2330SOL     OW 7888   0.950   3.524   2.066
 2330SOL    HW1 7889   0.989   3.471   2.141
 2330SOL    HW2 7890   0.991   3.494   1.979
 2331SOL     OW 7891   5.729   4.865   1.254
 2331SOL    HW1 7892   5.786   4.916   1.319
 2331SOL    HW2 7893   5.662   4.810   1.303
 2332SOL     OW 7894   4.605   1.552   5.199
 2332SOL    HW1 7895   4.692   1.599   5.213
 2332SOL    HW2 7896   4.542   1.612   5.150
 2333SOL     OW 7897   0.571   5.693   2.820
 2333SOL    HW1 7898   0.654   5.666   2.869
 2333SOL    HW2 7899   0.597   5.733   2.732
 2334SOL     OW 7900   2.477   0.168   6.777
 2334SOL    HW1 7901   2.454   0.163   6.875
 2334SOL    HW2 7902   2.489   0.076   6.741
 2335SOL     OW 7903   6.169   1.555   2.975
 2335SOL    HW1 7904   6.113   1.526   3.053
 2335SOL    HW2 7905   6.229   1.480   2.947
 2336SOL     OW 7906   4.554   1.399   4.927
 2336SOL    HW1 7907   4.631   1.460   4.947
 2336SOL    HW2 7908   4.548   1.329   4.997
 2337SOL     OW 7909   4.299   1.181   3.267
 2337SOL    HW1 7910   4.394   1.210   3.253
 2337SOL    HW2 7911   4.250   1.184   3.180
 2338SOL     OW 7912   1.064   1.553   5.887
 2338SOL    HW1 7913   1.071   1.459   5.854
 2338SOL    HW2 7914   0.971   1.588   5.869
 2339SOL     OW 7915   4.004   3.940   4.927
 2339SOL    HW1 7916   4.071   3.881   4.973
 2339SOL    HW2 7917   4.005   4.030   4.969
 2340SOL     OW 7918   5.153   4.700   0.075
 2340SOL    HW1 7919   5.161   4.601   0.087
 2340SOL    HW2 7920   5.093   4.719   7.017
 2341SOL     OW 7921   5.616   4.110   0.927
 2341SOL    HW1 7922   5.633   4.033   0.988
 2341SOL    HW2 7923   5.652   4.089   0.836
 2342SOL     OW 7924   0.443   6.410   5.231
 2342SOL    HW1 7925   0.366   6.356   5.265
 2342SOL    HW2 7926   0.490   6.358   5.159
 2343SOL     OW 7927   1.599   6.105   2.044
 2343SOL    HW1 7928   1.644   6.016   2.047
 2343SOL    HW2 7929   1.500   6.092   2.050
 2344SOL     OW 7930   1.730   1.085   1.407
 2344SOL    HW1 7931   1.805   1.019   1.421
 2344SOL    HW2 7932   1.674   1.056   1.330
 2345SOL     OW 7933   3.077   5.198   5.585
 2345SOL    HW1 7934   3.087   5.144   5.668
 2345SOL    HW2 7935   3.133   5.281   5.593
 2346SOL     OW 7936   4.727   2.820   4.672
 2346SOL    HW1 7937   4.816   2.778   4.690
 2346SOL    HW2 7938   4.712   2.894   4.737
 2347SOL     OW 7939   2.301   3.191   1.732
 2347SOL    HW1 7940   2.339   3.280   1.757
 2347SOL    HW2 7941   2.328   3.169   1.638
 2348SOL     OW 7942   3.596   6.246   3.534
 2348SOL    HW1 7943   3.618   6.149   3.537
 2348SOL    HW2 7944   3.677   6.299   3.561
 2349SOL     OW 7945   0.387   4.866   5.938
 2349SOL    HW1 7946   0.425   4.799   6.000
 2349SOL    HW2 7947   0.455   4.937   5.919
 2350SOL     OW 7948   5.290   0.012   6.384
 2350SOL    HW1 7949   5.273   0.110   6.394
 2350SOL    HW2 7950   5.256   7.000   6.295
 2351SOL     OW 7951   3.431   5.247   2.178
 2351SOL    HW1 7952   3.484   5.270   2.260
 2351SOL    HW2 7953   3.356   5.313   2.168
 2352SOL     OW 7954   0.973   3.287   2.236
 2352SOL    HW1 7955   1.029   3.302   2.317
 2352SOL    HW2 7956   0.921   3.202   2.246
 2353SOL     OW 7957   3.094   4.668   5.287
 2353SOL    HW1 7958   3.005   4.635   5.255
 2353SOL    HW2 7959   3.160   4.593   5.286
 2354SOL     OW 7960   3.163   1.796   6.185
 2354SOL    HW1 7961   3.227   1.872   6.191
 2354SOL    HW2 7962   3.167   1.756   6.094
 2355SOL     OW 7963   1.640   5.442   6.443
 2355SOL    HW1 7964   1.640   5.509   6.518
 2355SOL    HW2 7965   1.553   5.393   6.443
 2356SOL     OW 7966   2.424   3.882   0.022
 2356SOL    HW1 7967   2.480   3.804   0.049
 2356SOL    HW2 7968   2.426   3.890   6.941
 2357SOL     OW 7969   4.257   5.178   3.638
 2357SOL    HW1 7970   4.300   5.120   3.568
 2357SOL    HW2 7971   4.262   5.132   3.727
 2358SOL     OW 7972   2.571   5.168   5.369
 2358SOL    HW1 7973   2.651   5.163   5.429
 2358SOL    HW2 7974   2.575   5.095   5.301
 2359SOL     OW 7975   0.174   0.722   5.562
 2359SOL    HW1 7976   0.195   0.820   5.571
 2359SOL    HW2 7977   0.251   0.674   5.521
 2360SOL     OW 7978   5.335   6.156   6.164
 2360SOL    HW1 7979   5.302   6.206   6.084
 2360SOL    HW2 7980   5.374   6.220   6.230
 2361SOL     OW 7981   3.013   0.390   5.192
 2361SOL    HW1 7982   2.972   0.451   5.125
 2361SOL    HW2 7983   3.007   0.430   5.283
 2362SOL     OW 7984   2.729   0.515   5.633
 2362SOL    HW1 7985   2.814   0.529   5.683
 2362SOL    HW2 7986   2.652   0.522   5.697
 2363SOL     OW 7987   4.055   2.667   5.606
 2363SOL    HW1 7988   4.139   2.682   5.659
 2363SOL    HW2 7989   3.978   2.658   5.669
 2364SOL     OW 7990   0.377   2.263   3.347
 2364SOL    HW1 7991   0.372   2.231   3.252
 2364SOL    HW2 7992   0.331   2.352   3.354
 2365SOL     OW 7993   6.282   2.320   6.173
 2365SOL    HW1 7994   6.337   2.248   6.130
 2365SOL    HW2 7995   6.307   2.326   6.270
 2366SOL     OW 7996   1.169   4.634   5.727
 2366SOL    HW1 7997   1.166   4.685   5.641
 2366SOL    HW2 7998   1.105   4.557   5.721
 2367SOL     OW 7999   3.634   3.651   6.973
 2367SOL    HW1 8000   3.683   3.603   0.026
 2367SOL    HW2 8001   3.578   3.723   7.013
 2368SOL     OW 8002   4.855   0.193   3.504
 2368SOL    HW1 8003   4.787   0.224   3.438
 2368SOL    HW2 8004   4.944   0.232   3.481
 2369SOL     OW 8005   1.673   2.386   5.091
 2369SOL    HW1 8006   1.751   2.340   5.049
 2369SOL    HW2 8007   1.688   2.485   5.091
 2370SOL     OW 8008   4.744   3.885   6.714
 2370SOL    HW1 8009   4.807   3.872   6.637
 2370SOL    HW2 8010   4.688   3.802   6.725
 2371SOL     OW 8011   1.213   5.964   1.555
 2371SOL    HW1 8012   1.214   5.891   1.623
 2371SOL    HW2 8013   1.302   5.969   1.510
 2372SOL     OW 8014   0.553   2.554   1.192
 2372SOL    HW1 8015   0.582   2.467   1.231
 2372SOL    HW2 8016   0.458   2.572   1.218
 2373SOL     OW 8017   6.560   6.781   0.182
 2373SOL    HW1 8018   6.596   6.798   0.274
 2373SOL    HW2 8019   6.460   6.782   0.184
 2374SOL     OW 8020   6.202   1.110   4.305
 2374SOL    HW1 8021   6.168   1.068   4.220
 2374SOL    HW2 8022   6.301   1.116   4.301
 2375SOL     OW 8023   2.197   6.692   4.384
 2375SOL    HW1 8024   2.188   6.628   4.460
 2375SOL    HW2 8025   2.261   6.655   4.317
 2376SOL     OW 8026   5.869   2.557   4.386
 2376SOL    HW1 8027   5.934   2.589   4.318
 2376SOL    HW2 8028   5.856   2.458   4.376
 2377SOL     OW 8029   3.582   4.064   3.580
 2377SOL    HW1 8030   3.596   3.972   3.545
 2377SOL    HW2 8031   3.509   4.110   3.529
 2378SOL     OW 8032   5.345   2.472   6.658
 2378SOL    HW1 8033   5.430   2.420   6.663
 2378SOL    HW2 8034   5.279   2.434   6.723
 2379SOL     OW 8035   6.554   1.530   6.544
 2379SOL    HW1 8036   6.482   1.548   6.477
 2379SOL    HW2 8037   6.592   1.617   6.576
 2380SOL     OW 8038   6.406   6.395   6.196
 2380SOL    HW1 8039   6.415   6.491   6.172
 2380SOL    HW2 8040   6.321   6.359   6.159
 2381SOL     OW 8041   2.190   4.041   3.903
 2381SOL    HW1 8042   2.218   4.021   3.809
 2381SOL    HW2 8043   2.154   4.134   3.908
 2382SOL     OW 8044   2.553   4.851   3.244
 2382SOL    HW1 8045   2.632   4.792   3.263
 2382SOL    HW2 8046   2.569   4.942   3.282
 2383SOL     OW 8047   5.132   5.743   6.969
 2383SOL    HW1 8048   5.189   5.677   7.018
 2383SOL    HW2 8049   5.121   5.714   6.874
 2384SOL     OW 8050   0.459   6.629   2.177
 2384SOL    HW1 8051   0.404   6.706   2.147
 2384SOL    HW2 8052   0.541   6.622   2.119
 2385SOL     OW 8053   6.134   6.761   1.325
 2385SOL    HW1 8054   6.212   6.795   1.377
 2385SOL    HW2 8055   6.051   6.809   1.355
 2386SOL     OW 8056   5.127   4.543   4.112
 2386SOL    HW1 8057   5.211   4.574   4.067
 2386SOL    HW2 8058   5.150   4.502   4.200
 2387SOL     OW 8059   6.966   1.805   3.518
 2387SOL    HW1 8060   6.938   1.892   3.557
 2387SOL    HW2 8061   6.962   1.810   3.418
 2388SOL     OW 8062   1.160   1.942   4.077
 2388SOL    HW1 8063   1.159   1.843   4.091
 2388SOL    HW2 8064   1.168   1.963   3.980
 2389SOL     OW 8065   5.374   3.586   3.796
 2389SOL    HW1 8066   5.388   3.587   3.697
 2389SOL    HW2 8067   5.439   3.647   3.840
 2390SOL     OW 8068   3.312   3.523   4.485
 2390SOL    HW1 8069   3.328   3.433   4.526
 2390SOL    HW2 8070   3.253   3.577   4.544
 2391SOL     OW 8071   4.612   4.560   5.696
 2391SOL    HW1 8072   4.618   4.482   5.758
 2391SOL    HW2 8073   4.652   4.535   5.608
 2392SOL     OW 8074   3.767   6.257   5.652
 2392SOL    HW1 8075   3.863   6.243   5.629
 2392SOL    HW2 8076   3.732   6.338   5.605
 2393SOL     OW 8077   3.855   5.264   0.600
 2393SOL    HW1 8078   3.808   5.304   0.522
 2393SOL    HW2 8079   3.951   5.248   0.578
 2394SOL     OW 8080   1.933   3.188   4.979
 2394SOL    HW1 8081   2.007   3.138   5.024
 2394SOL    HW2 8082   1.845   3.147   5.005
 2395SOL     OW 8083   6.192   2.581   6.857
 2395SOL    HW1 8084   6.255   2.542   6.925
 2395SOL    HW2 8085   6.239   2.589   6.769
 2396SOL     OW 8086   4.573   5.983   6.901
 2396SOL    HW1 8087   4.626   6.050   6.953
 2396SOL    HW2 8088   4.621   5.962   6.816
 2397SOL     OW 8089   0.088   3.523   0.538
 2397SOL    HW1 8090   0.099   3.576   0.454
 2397SOL    HW2 8091   0.145   3.562   0.610
 2398SOL     OW 8092   3.018   4.383   6.141
 2398SOL    HW1 8093   2.961   4.389   6.059
 2398SOL    HW2 8094   3.097   4.324   6.123
 2399SOL     OW 8095   4.681   1.394   2.485
 2399SOL    HW1 8096   4.700   1.308   2.533
 2399SOL    HW2 8097   4.610   1.378   2.416
 2400SOL     OW 8098   4.287   5.059   0.417
 2400SOL    HW1 8099   4.331   5.088   0.502
 2400SOL    HW2 8100   4.215   5.123   0.393
 2401SOL     OW 8101   4.203   0.921   6.182
 2401SOL    HW1 8102   4.112   0.960   6.169
 2401SOL    HW2 8103   4.228   0.924   6.279
 2402SOL     OW 8104   0.268   2.485   4.119
 2402SOL    HW1 8105   0.203   2.555   4.147
 2402SOL    HW2 8106   0.280   2.419   4.194
 2403SOL     OW 8107   2.799   2.826   0.118
 2403SOL    HW1 8108   2.732   2.764   0.159
 2403SOL    HW2 8109   2.769   2.920   0.129
 2404SOL     OW 8110   5.854   1.245   2.748
 2404SOL    HW1 8111   5.895   1.335   2.734
 2404SOL    HW2 8112   5.860   1.192   2.664
 2405SOL     OW 8113   3.168   3.652   3.827
 2405SOL    HW1 8114   3.192   3.561   3.862
 2405SOL    HW2 8115   3.101   3.695   3.888
 2406SOL     OW 8116   1.894   0.317   3.783
 2406SOL    HW1 8117   1.868   0.228   3.744
 2406SOL    HW2 8118   1.813   0.375   3.790
 2407SOL     OW 8119   4.774   2.877   2.711
 2407SOL    HW1 8120   4.748   2.891   2.806
 2407SOL    HW2 8121   4.733   2.792   2.678
 2408SOL     OW 8122   3.106   5.242   2.271
 2408SOL    HW1 8123   3.202   5.215   2.281
 2408SOL    HW2 8124   3.047   5.170   2.305
 2409SOL     OW 8125   1.784   2.376   2.318
 2409SOL    HW1 8126   1.835   2.444   2.371
 2409SOL    HW2 8127   1.841   2.344   2.242
 2410SOL     OW 8128   5.674   2.901   6.065
 2410SOL    HW1 8129   5.750   2.942   6.015
 2410SOL    HW2 8130   5.689   2.913   6.163
 2411SOL     OW 8131   4.331   5.362   5.436
 2411SOL    HW1 8132   4.288   5.440   5.391
 2411SOL    HW2 8133   4.351   5.291   5.368
 2412SOL     OW 8134   3.049   3.937   0.127
 2412SOL    HW1 8135   2.952   3.955   0.110
 2412SOL    HW2 8136   3.104   3.973   0.052
 2413SOL     OW 8137   6.438   2.826   6.946
 2413SOL    HW1 8138   6.481   2.770   6.876
 2413SOL    HW2 8139   6.494   2.825   0.010
 2414SOL     OW 8140   5.952   4.199   2.073
 2414SOL    HW1 8141   6.030   4.155   2.030
 2414SOL    HW2 8142   5.983   4.270   2.137
 2415SOL     OW 8143   0.344   0.063   0.978
 2415SOL    HW1 8144   0.417   0.002   0.948
 2415SOL    HW2 8145   0.256   0.028   0.944
 2416SOL     OW 8146   3.315   1.858   5.254
 2416SOL    HW1 8147   3.274   1.857   5.345
 2416SOL    HW2 8148   3.303   1.769   5.211
 2417SOL     OW 8149   4.130   2.740   6.947
 2417SOL    HW1 8150   4.115   2.804   0.003
 2417SOL    HW2 8151   4.226   2.709   6.948
 2418SOL     OW 8152   3.118   3.604   3.454
 2418SOL    HW1 8153   3.070   3.552   3.524
 2418SOL    HW2 8154   3.217   3.596   3.468
 2419SOL     OW 8155   0.808   6.441   3.637
 2419SOL    HW1 8156   0.778   6.537   3.638
 2419SOL    HW2 8157   0.746   6.388   3.580
 2420SOL     OW 8158   4.051   0.450   2.568
 2420SOL    HW1 8159   4.098   0.426   2.483
 2420SOL    HW2 8160   4.077   0.542   2.596
 2421SOL     OW 8161   2.625   0.832   5.028
 2421SOL    HW1 8162   2.708   0.842   5.082
 2421SOL    HW2 8163   2.580   0.921   5.018
 2422SOL     OW 8164   5.828   6.929   1.880
 2422SOL    HW1 8165   5.851   6.983   1.800
 2422SOL    HW2 8166   5.872   6.967   1.961
 2423SOL     OW 8167   1.639   5.883   3.700
 2423SOL    HW1 8168   1.696   5.864   3.780
 2423SOL    HW2 8169   1.654   5.813   3.630
 2424SOL     OW 8170   5.610   6.304   5.927
 2424SOL    HW1 8171   5.534   6.325   5.865
 2424SOL    HW2 8172   5.587   6.336   6.019
 2425SOL     OW 8173   6.111   0.363   4.244
 2425SOL    HW1 8174   6.174   0.400   4.313
 2425SOL    HW2 8175   6.159   0.296   4.188
 2426SOL     OW 8176   0.921   4.540   3.947
 2426SOL    HW1 8177   0.832   4.512   3.981
 2426SOL    HW2 8178   0.976   4.577   4.023
 2427SOL     OW 8179   6.073   5.493   6.709
 2427SOL    HW1 8180   6.144   5.476   6.777
 2427SOL    HW2 8181   6.003   5.421   6.714
 2428SOL     OW 8182   0.325   0.160   3.206
 2428SOL    HW1 8183   0.262   0.082   3.211
 2428SOL    HW2 8184   0.419   0.128   3.203
 2429SOL     OW 8185   6.435   6.080   4.277
 2429SOL    HW1 8186   6.420   5.981   4.272
 2429SOL    HW2 8187   6.363   6.122   4.332
 2430SOL     OW 8188   5.749   2.335   1.568
 2430SOL    HW1 8189   5.849   2.329   1.564
 2430SOL    HW2 8190   5.717   2.399   1.498
 2431SOL     OW 8191   3.910   0.154   1.567
 2431SOL    HW1 8192   3.900   0.180   1.662
 2431SOL    HW2 8193   3.985   0.206   1.526
 2432SOL     OW 8194   4.058   6.798   2.954
 2432SOL    HW1 8195   4.147   6.786   2.910
 2432SOL    HW2 8196   4.059   6.756   3.045
 2433SOL     OW 8197   2.959   6.639   1.076
 2433SOL    HW1 8198   2.952   6.643   1.176
 2433SOL    HW2 8199   3.029   6.703   1.045
 2434SOL     OW 8200   4.189   1.418   3.397
 2434SOL    HW1 8201   4.261   1.481   3.428
 2434SOL    HW2 8202   4.226   1.326   3.391
 2435SOL     OW 8203   4.640   5.630   5.891
 2435SOL    HW1 8204   4.723   5.649   5.839
 2435SOL    HW2 8205   4.560   5.636   5.831
 2436SOL     OW 8206   1.551   0.044   0.720
 2436SOL    HW1 8207   1.517   0.126   0.767
 2436SOL    HW2 8208   1.499   6.984   0.751
 2437SOL     OW 8209   3.981   5.469   0.753
 2437SOL    HW1 8210   3.908   5.432   0.695
 2437SOL    HW2 8211   4.070   5.448   0.711
 2438SOL     OW 8212   3.907   1.313   5.494
 2438SOL    HW1 8213   3.909   1.225   5.446
 2438SOL    HW2 8214   3.985   1.318   5.557
 2439SOL     OW 8215   1.414   4.252   0.167
 2439SOL    HW1 8216   1.473   4.334   0.170
 2439SOL    HW2 8217   1.467   4.172   0.196
 2440SOL     OW 8218   3.664   6.396   5.123
 2440SOL    HW1 8219   3.604   6.316   5.134
 2440SOL    HW2 8220   3.711   6.389   5.035
 2441SOL     OW 8221   5.987   0.798   6.938
 2441SOL    HW1 8222   5.944   0.716   6.976
 2441SOL    HW2 8223   5.917   0.860   6.903
 2442SOL     OW 8224   6.996   5.808   3.998
 2442SOL    HW1 8225   0.074   5.830   4.007
 2442SOL    HW2 8226   6.951   5.878   3.943
 2443SOL     OW 8227   3.551   6.811   6.500
 2443SOL    HW1 8228   3.552   6.833   6.598
 2443SOL    HW2 8229   3.584   6.717   6.487
 2444SOL     OW 8230   3.680   4.096   6.338
 2444SOL    HW1 8231   3.704   4.052   6.424
 2444SOL    HW2 8232   3.762   4.103   6.280
 2445SOL     OW 8233   6.894   1.182   2.330
 2445SOL    HW1 8234   6.964   1.169   2.400
 2445SOL    HW2 8235   6.867   1.094   2.292
 2446SOL     OW 8236   0.475   3.015   4.333
 2446SOL    HW1 8237   0.573   3.017   4.350
 2446SOL    HW2 8238   0.441   2.921   4.341
 2447SOL     OW 8239   2.218   1.172   0.934
 2447SOL    HW1 8240   2.247   1.122   1.016
 2447SOL    HW2 8241   2.273   1.143   0.856
 2448SOL     OW 8242   0.849   0.521   4.426
 2448SOL    HW1 8243   0.766   0.476   4.461
 2448SOL    HW2 8244   0.830   0.564   4.338
 2449SOL     OW 8245   0.014   4.102   2.285
 2449SOL    HW1 8246   0.023   4.075   2.380
 2449SOL    HW2 8247   0.102   4.134   2.251
 2450SOL     OW 8248   2.701   5.139   4.684
 2450SOL    HW1 8249   2.798   5.118   4.686
 2450SOL    HW2 8250   2.657   5.103   4.767
 2451SOL     OW 8251   0.365   6.878   4.012
 2451SOL    HW1 8252   0.304   6.918   3.943
 2451SOL    HW2 8253   0.401   6.950   4.071
 2452SOL     OW 8254   2.806   1.997   3.422
 2452SOL    HW1 8255   2.712   2.003   3.390
 2452SOL    HW2 8256   2.831   1.901   3.434
 2453SOL     OW 8257   6.585   3.437   0.538
 2453SOL    HW1 8258   6.569   3.460   0.634
 2453SOL    HW2 8259   6.627   3.346   0.532
 2454SOL     OW 8260   3.266   0.672   6.930
 2454SOL    HW1 8261   3.321   0.638   6.853
 2454SOL    HW2 8262   3.170   0.649   6.915
 2455SOL     OW 8263   5.320   0.595   1.010
 2455SOL    HW1 8264   5.226   0.629   1.018
 2455SOL    HW2 8265   5.346   0.590   0.914
 2456SOL     OW 8266   5.859   1.240   7.008
 2456SOL    HW1 8267   5.825   1.293   6.931
 2456SOL    HW2 8268   5.827   1.145   7.000
 2457SOL     OW 8269   6.011   6.215   6.707
 2457SOL    HW1 8270   5.930   6.198   6.650
 2457SOL    HW2 8271   6.073   6.137   6.701
 2458SOL     OW 8272   2.153   5.741   3.921
 2458SOL    HW1 8273   2.113   5.653   3.949
 2458SOL    HW2 8274   2.249   5.726   3.897
 2459SOL     OW 8275   2.928   6.361   0.015
 2459SOL    HW1 8276   3.025   6.380   0.026
 2459SOL    HW2 8277   2.875   6.427   0.070
 2460SOL     OW 8278   1.748   1.581   1.909
 2460SOL    HW1 8279   1.668   1.539   1.952
 2460SOL    HW2 8280   1.718   1.650   1.843
 2461SOL     OW 8281   4.642   0.115   2.798
 2461SOL    HW1 8282   4.709   0.090   2.868
 2461SOL    HW2 8283   4.662   0.065   2.714
 2462SOL     OW 8284   2.606   5.196   0.163
 2462SOL    HW1 8285   2.645   5.287   0.178
 2462SOL    HW2 8286   2.567   5.191   0.071
 2463SOL     OW 8287   6.218   2.561   4.439
 2463SOL    HW1 8288   6.233   2.462   4.432
 2463SOL    HW2 8289   6.151   2.579   4.510
 2464SOL     OW 8290   1.623   3.753   1.912
 2464SOL    HW1 8291   1.544   3.700   1.943
 2464SOL    HW2 8292   1.600   3.801   1.828
 2465SOL     OW 8293   0.911   6.957   1.847
 2465SOL    HW1 8294   0.834   7.006   1.807
 2465SOL    HW2 8295   0.904   6.960   1.946
 2466SOL     OW 8296   2.989   1.526   1.550
 2466SOL    HW1 8297   3.015   1.498   1.457
 2466SOL    HW2 8298   2.905   1.581   1.545
 2467SOL     OW 8299   5.483   1.610   4.914
 2467SOL    HW1 8300   5.530   1.675   4.854
 2467SOL    HW2 8301   5.535   1.599   4.998
 2468SOL     OW 8302   5.507   6.050   2.513
 2468SOL    HW1 8303   5.527   6.084   2.421
 2468SOL    HW2 8304   5.547   6.113   2.581
 2469SOL     OW 8305   3.998   4.357   5.298
 2469SOL    HW1 8306   3.984   4.443   5.347
 2469SOL    HW2 8307   4.087   4.359   5.251
 2470SOL     OW 8308   3.746   4.782   5.781
 2470SOL    HW1 8309   3.734   4.684   5.764
 2470SOL    HW2 8310   3.841   4.800   5.808
 2471SOL     OW 8311   2.351   6.405   0.620
 2471SOL    HW1 8312   2.312   6.393   0.529
 2471SOL    HW2 8313   2.422   6.336   0.635
 2472SOL     OW 8314   4.360   2.063   3.912
 2472SOL    HW1 8315   4.318   2.144   3.953
 2472SOL    HW2 8316   4.457   2.061   3.934
 2473SOL     OW 8317   2.004   3.959   5.206
 2473SOL    HW1 8318   2.016   3.994   5.113
 2473SOL    HW2 8319   1.975   3.864   5.202
 2474SOL     OW 8320   0.820   5.754   0.552
 2474SOL    HW1 8321   0.864   5.814   0.485
 2474SOL    HW2 8322   0.738   5.712   0.512
 2475SOL     OW 8323   5.018   0.926   1.078
 2475SOL    HW1 8324   4.955   0.899   1.006
 2475SOL    HW2 8325   5.029   1.026   1.077
 2476SOL     OW 8326   0.438   2.627   3.788
 2476SOL    HW1 8327   0.369   2.699   3.777
 2476SOL    HW2 8328   0.474   2.629   3.881
 2477SOL     OW 8329   5.355   1.036   2.635
 2477SOL    HW1 8330   5.313   1.122   2.665
 2477SOL    HW2 8331   5.332   1.019   2.539
 2478SOL     OW 8332   5.780   0.579   2.052
 2478SOL    HW1 8333   5.739   0.639   2.121
 2478SOL    HW2 8334   5.748   0.606   1.961
 2479SOL     OW 8335   1.245   4.000   1.387
 2479SOL    HW1 8336   1.323   3.984   1.325
 2479SOL    HW2 8337   1.210   3.912   1.420
 2480SOL     OW 8338   5.969   4.301   1.081
 2480SOL    HW1 8339   5.886   4.355   1.069
 2480SOL    HW2 8340   5.975   4.269   1.176
 2481SOL     OW 8341   2.630   0.337   0.260
 2481SOL    HW1 8342   2.574   0.378   0.332
 2481SOL    HW2 8343   2.715   0.390   0.250
 2482SOL     OW 8344   4.926   3.102   5.783
 2482SOL    HW1 8345   4.888   3.068   5.869
 2482SOL    HW2 8346   4.856   3.153   5.734
 2483SOL     OW 8347   2.434   1.581   6.860
 2483SOL    HW1 8348   2.336   1.592   6.879
 2483SOL    HW2 8349   2.445   1.519   6.782
 2484SOL     OW 8350   1.998   0.489   0.240
 2484SOL    HW1 8351   2.022   0.450   0.150
 2484SOL    HW2 8352   2.035   0.430   0.312
 2485SOL     OW 8353   4.849   4.503   2.216
 2485SOL    HW1 8354   4.775   4.437   2.202
 2485SOL    HW2 8355   4.871   4.508   2.313
 2486SOL     OW 8356   3.405   5.224   3.288
 2486SOL    HW1 8357   3.427   5.154   3.355
 2486SOL    HW2 8358   3.417   5.315   3.329
 2487SOL     OW 8359   3.866   5.712   6.740
 2487SOL    HW1 8360   3.833   5.776   6.672
 2487SOL    HW2 8361   3.964   5.725   6.754
 2488SOL     OW 8362   2.223   4.373   2.591
 2488SOL    HW1 8363   2.254   4.364   2.685
 2488SOL    HW2 8364   2.142   4.431   2.587
 2489SOL     OW 8365   2.405   5.632   3.900
 2489SOL    HW1 8366   2.405   5.614   3.802
 2489SOL    HW2 8367   2.470   5.706   3.920
 2490SOL     OW 8368   6.491   5.627   1.226
 2490SOL    HW1 8369   6.498   5.716   1.182
 2490SOL    HW2 8370   6.570   5.571   1.201
 2491SOL     OW 8371   2.431   5.691   0.896
 2491SOL    HW1 8372   2.512   5.727   0.851
 2491SOL    HW2 8373   2.366   5.765   0.912
 2492SOL     OW 8374   4.421   3.024   6.739
 2492SOL    HW1 8375   4.478   3.105   6.726
 2492SOL    HW2 8376   4.329   3.043   6.705
 2493SOL     OW 8377   5.618   0.169   2.803
 2493SOL    HW1 8378   5.673   0.191   2.722
 2493SOL    HW2 8379   5.557   0.246   2.823
 2494SOL     OW 8380   5.812   3.677   2.518
 2494SOL    HW1 8381   5.773   3.645   2.432
 2494SOL    HW2 8382   5.850   3.600   2.569
 2495SOL     OW 8383   5.224   0.598   4.998
 2495SOL    HW1 8384   5.182   0.594   4.908
 2495SOL    HW2 8385   5.206   0.512   5.047
 2496SOL     OW 8386   0.181   4.638   5.921
 2496SOL    HW1 8387   0.163   4.560   5.981
 2496SOL    HW2 8388   0.208   4.717   5.976
 2497SOL     OW 8389   0.240   1.132   1.102
 2497SOL    HW1 8390   0.254   1.203   1.171
 2497SOL    HW2 8391   0.300   1.055   1.121
 2498SOL     OW 8392   3.439   2.124   3.707
 2498SOL    HW1 8393   3.522   2.148   3.757
 2498SOL    HW2 8394   3.362   2.115   3.771
 2499SOL     OW 8395   4.609   1.991   4.034
 2499SOL    HW1 8396   4.667   2.004   4.115
 2499SOL    HW2 8397   4.563   1.903   4.041
 2500SOL     OW 8398   4.452   3.275   5.832
 2500SOL    HW1 8399   4.406   3.349   5.783
 2500SOL    HW2 8400   4.383   3.216   5.875
 2501SOL     OW 8401   0.209   6.011   6.927
 2501SOL    HW1 8402   0.200   5.957   7.011
 2501SOL    HW2 8403   0.132   6.075   6.921
 2502SOL     OW 8404   2.404   5.966   3.346
 2502SOL    HW1 8405   2.354   5.888   3.308
 2502SOL    HW2 8406   2.364   6.051   3.311
 2503SOL     OW 8407   3.498   5.539   6.108
 2503SOL    HW1 8408   3.502   5.460   6.046
 2503SOL    HW2 8409   3.406   5.577   6.108
 2504SOL     OW 8410   3.230   5.287   5.326
 2504SOL    HW1 8411   3.163   5.218   5.351
 2504SOL    HW2 8412   3.278   5.260   5.242
 2505SOL     OW 8413   1.537   6.421   4.374
 2505SOL    HW1 8414   1.604   6.364   4.422
 2505SOL    HW2 8415   1.446   6.403   4.412
 2506SOL     OW 8416   5.769   3.374   6.105
 2506SOL    HW1 8417   5.684   3.364   6.156
 2506SOL    HW2 8418   5.845   3.338   6.159
 2507SOL     OW 8419   0.110   3.899   0.670
 2507SOL    HW1 8420   0.148   3.904   0.578
 2507SOL    HW2 8421   0.010   3.911   0.665
 2508SOL     OW 8422   2.666   1.337   2.296
 2508SOL    HW1 8423   2.702   1.430   2.290
 2508SOL    HW2 8424   2.720   1.284   2.361
 2509SOL     OW 8425   5.953   3.081   3.054
 2509SOL    HW1 8426   5.856   3.077   3.030
 2509SOL    HW2 8427   5.962   3.114   3.148
 2510SOL     OW 8428   3.476   4.547   1.169
 2510SOL    HW1 8429   3.564   4.513   1.135
 2510SOL    HW2 8430   3.410   4.548   1.095
 2511SOL     OW 8431   2.325   2.154   4.242
 2511SOL    HW1 8432   2.238   2.187   4.277
 2511SOL    HW2 8433   2.315   2.059   4.210
 2512SOL     OW 8434   5.112   5.567   5.449
 2512SOL    HW1 8435   5.086   5.660   5.422
 2512SOL    HW2 8436   5.059   5.540   5.529
 2513SOL     OW 8437   1.223   3.210   5.506
 2513SOL    HW1 8438   1.135   3.231   5.463
 2513SOL    HW2 8439   1.226   3.112   5.529
 2514SOL     OW 8440   6.555   4.135   4.376
 2514SOL    HW1 8441   6.516   4.043   4.385
 2514SOL    HW2 8442   6.568   4.174   4.467
 2515SOL     OW 8443   1.130   0.085   0.534
 2515SOL    HW1 8444   1.030   0.089   0.530
 2515SOL    HW2 8445   1.158   0.015   0.600
 2516SOL     OW 8446   5.460   6.962   2.707
 2516SOL    HW1 8447   5.492   0.037   2.709
 2516SOL    HW2 8448   5.418   6.942   2.619
 2517SOL     OW 8449   1.964   5.692   5.424
 2517SOL    HW1 8450   1.928   5.772   5.376
 2517SOL    HW2 8451   1.968   5.614   5.360
 2518SOL     OW 8452   2.493   2.966   6.856
 2518SOL    HW1 8453   2.565   2.960   6.786
 2518SOL    HW2 8454   2.408   2.928   6.819
 2519SOL     OW 8455   5.020   5.469   4.436
 2519SOL    HW1 8456   5.024   5.472   4.536
 2519SOL    HW2 8457   5.062   5.384   4.403
 2520SOL     OW 8458   1.272   2.461   0.994
 2520SOL    HW1 8459   1.274   2.534   0.926
 2520SOL    HW2 8460   1.350   2.401   0.981
 2521SOL     OW 8461   0.843   6.528   5.731
 2521SOL    HW1 8462   0.911   6.512   5.802
 2521SOL    HW2 8463   0.808   6.441   5.697
 2522SOL     OW 8464   0.539   3.195   5.994
 2522SOL    HW1 8465   0.592   3.279   6.009
 2522SOL    HW2 8466   0.451   3.218   5.953
 2523SOL     OW 8467   0.343   3.402   1.075
 2523SOL    HW1 8468   0.329   3.398   0.976
 2523SOL    HW2 8469   0.439   3.384   1.096
 2524SOL     OW 8470   0.973   5.944   4.155
 2524SOL    HW1 8471   0.902   6.013   4.169
 2524SOL    HW2 8472   0.936   5.868   4.102
 2525SOL     OW 8473   1.149   2.350   4.799
 2525SOL    HW1 8474   1.195   2.340   4.888
 2525SOL    HW2 8475   1.063   2.399   4.812
 2526SOL     OW 8476   1.290   3.789   6.075
 2526SOL    HW1 8477   1.317   3.885   6.063
 2526SOL    HW2 8478   1.371   3.733   6.093
 2527SOL     OW 8479   4.884   0.187   4.917
 2527SOL    HW1 8480   4.983   0.173   4.926
 2527SOL    HW2 8481   4.836   0.104   4.945
 2528SOL     OW 8482   6.210   4.535   0.953
 2528SOL    HW1 8483   6.113   4.513   0.941
 2528SOL    HW2 8484   6.263   4.492   0.880
 2529SOL     OW 8485   6.264   5.756   6.070
 2529SOL    HW1 8486   6.177   5.715   6.099
 2529SOL    HW2 8487   6.296   5.713   5.986
 2530SOL     OW 8488   0.975   5.986   4.870
 2530SOL    HW1 8489   1.065   5.949   4.895
 2530SOL    HW2 8490   0.933   5.926   4.802
 2531SOL     OW 8491   5.717   5.795   4.266
 2531SOL    HW1 8492   5.637   5.844   4.300
 2531SOL    HW2 8493   5.757   5.741   4.341
 2532SOL     OW 8494   0.832   6.312   0.861
 2532SOL    HW1 8495   0.821   6.259   0.777
 2532SOL    HW2 8496   0.834   6.250   0.940
 2533SOL     OW 8497   4.675   6.414   3.789
 2533SOL    HW1 8498   4.703   6.419   3.885
 2533SOL    HW2 8499   4.590   6.363   3.782
 2534SOL     OW 8500   2.092   6.799   3.421
 2534SOL    HW1 8501   2.136   6.795   3.331
 2534SOL    HW2 8502   1.994   6.817   3.410
 2535SOL     OW 8503   2.305   2.629   6.852
 2535SOL    HW1 8504   2.400   2.601   6.836
 2535SOL    HW2 8505   2.244   2.553   6.833
 2536SOL     OW 8506   0.379   1.743   3.465
 2536SOL    HW1 8507   0.286   1.718   3.493
 2536SOL    HW2 8508   0.386   1.843   3.458
 2537SOL     OW 8509   5.491   5.772   6.631
 2537SOL    HW1 8510   5.565   5.718   6.671
 2537SOL    HW2 8511   5.411   5.714   6.618
 2538SOL     OW 8512   1.553   4.379   4.553
 2538SOL    HW1 8513   1.602   4.460   4.519
 2538SOL    HW2 8514   1.590   4.297   4.511
 2539SOL     OW 8515   4.368   0.115   5.945
 2539SOL    HW1 8516   4.465   0.113   5.969
 2539SOL    HW2 8517   4.326   0.027   5.969
 2540SOL     OW 8518   4.679   1.380   1.422
 2540SOL    HW1 8519   4.640   1.312   1.484
 2540SOL    HW2 8520   4.742   1.439   1.472
 2541SOL     OW 8521   1.470   0.449   5.751
 2541SOL    HW1 8522   1.550   0.418   5.803
 2541SOL    HW2 8523   1.387   0.414   5.794
 2542SOL     OW 8524   4.219   1.547   5.304
 2542SOL    HW1 8525   4.296   1.592   5.348
 2542SOL    HW2 8526   4.244   1.523   5.210
 2543SOL     OW 8527   1.929   0.973   3.091
 2543SOL    HW1 8528   1.859   0.928   3.035
 2543SOL    HW2 8529   1.981   1.037   3.034
 2544SOL     OW 8530   0.651   5.209   2.579
 2544SOL    HW1 8531   0.727   5.272   2.596
 2544SOL    HW2 8532   0.567   5.260   2.568
 2545SOL     OW 8533   1.506   0.551   1.471
 2545SOL    HW1 8534   1.521   0.602   1.556
 2545SOL    HW2 8535   1.444   0.603   1.412
 2546SOL     OW 8536   6.814   2.918   1.669
 2546SOL    HW1 8537   6.899   2.896   1.716
 2546SOL    HW2 8538   6.760   2.981   1.724
 2547SOL     OW 8539   5.511   5.350   6.850
 2547SOL    HW1 8540   5.457   5.417   6.799
 2547SOL    HW2 8541   5.602   5.386   6.868
 2548SOL     OW 8542   2.690   0.335   5.311
 2548SOL    HW1 8543   2.673   0.414   5.252
 2548SOL    HW2 8544   2.777   0.346   5.358
 2549SOL     OW 8545   2.238   1.946   2.163
 2549SOL    HW1 8546   2.272   1.909   2.249
 2549SOL    HW2 8547   2.178   2.025   2.182
 2550SOL     OW 8548   6.467   0.391   6.388
 2550SOL    HW1 8549   6.441   0.328   6.461
 2550SOL    HW2 8550   6.388   0.446   6.362
 2551SOL     OW 8551   3.057   5.177   0.265
 2551SOL    HW1 8552   2.982   5.192   0.329
 2551SOL    HW2 8553   3.110   5.096   0.293
 2552SOL     OW 8554   1.510   5.551   5.756
 2552SOL    HW1 8555   1.590   5.524   5.703
 2552SOL    HW2 8556   1.513   5.508   5.846
 2553SOL     OW 8557   2.899   3.483   6.631
 2553SOL    HW1 8558   2.921   3.522   6.541
 2553SOL    HW2 8559   2.834   3.543   6.678
 2554SOL     OW 8560   1.270   5.704   6.298
 2554SOL    HW1 8561   1.202   5.651   6.246
 2554SOL    HW2 8562   1.255   5.690   6.396
 2555SOL     OW 8563   5.935   6.553   6.437
 2555SOL    HW1 8564   5.933   6.651   6.413
 2555SOL    HW2 8565   6.025   6.530   6.474
 2556SOL     OW 8566   4.124   6.129   0.959
 2556SOL    HW1 8567   4.195   6.060   0.947
 2556SOL    HW2 8568   4.066   6.132   0.878
 2557SOL     OW 8569   2.184   1.721   6.356
 2557SOL    HW1 8570   2.263   1.687   6.408
 2557SOL    HW2 8571   2.152   1.807   6.396
 2558SOL     OW 8572   3.713   3.220   6.026
 2558SOL    HW1 8573   3.624   3.263   6.038
 2558SOL    HW2 8574   3.708   3.152   5.953
 2559SOL     OW 8575   6.426   3.370   4.360
 2559SOL    HW1 8576   6.477   3.285   4.376
 2559SOL    HW2 8577   6.332   3.360   4.393
 2560SOL     OW 8578   4.863   3.363   4.284
 2560SOL    HW1 8579   4.848   3.361   4.185
 2560SOL    HW2 8580   4.813   3.288   4.327
 2561SOL     OW 8581   3.696   0.524   3.274
 2561SOL    HW1 8582   3.727   0.618   3.268
 2561SOL    HW2 8583   3.596   0.521   3.269
 2562SOL     OW 8584   2.180   5.175   2.554
 2562SOL    HW1 8585   2.107   5.117   2.591
 2562SOL    HW2 8586   2.160   5.271   2.573
 2563SOL     OW 8587   4.054   1.645   6.725
 2563SOL    HW1 8588   4.051   1.643   6.626
 2563SOL    HW2 8589   3.964   1.669   6.761
 2564SOL     OW 8590   0.912   6.706   6.285
 2564SOL    HW1 8591   0.852   6.746   6.215
 2564SOL    HW2 8592   0.940   6.778   6.349
 2565SOL     OW 8593   0.093   0.753   0.829
 2565SOL    HW1 8594   0.134   0.775   0.918
 2565SOL    HW2 8595   0.079   0.838   0.778
 2566SOL     OW 8596   1.067   6.677   0.475
 2566SOL    HW1 8597   1.021   6.716   0.395
 2566SOL    HW2 8598   1.165   6.673   0.457
 2567SOL     OW 8599   1.481   1.002   2.194
 2567SOL    HW1 8600   1.389   0.995   2.156
 2567SOL    HW2 8601   1.536   0.925   2.162
 2568SOL     OW 8602   2.627   0.668   0.353
 2568SOL    HW1 8603   2.572   0.699   0.275
 2568SOL    HW2 8604   2.698   0.607   0.321
 2569SOL     OW 8605   2.382   1.251   2.520
 2569SOL    HW1 8606   2.390   1.153   2.538
 2569SOL    HW2 8607   2.441   1.276   2.443
 2570SOL     OW 8608   5.769   0.255   6.704
 2570SOL    HW1 8609   5.766   0.165   6.748
 2570SOL    HW2 8610   5.824   0.317   6.759
 2571SOL     OW 8611   2.931   3.298   4.282
 2571SOL    HW1 8612   2.881   3.275   4.365
 2571SOL    HW2 8613   3.029   3.283   4.296
 2572SOL     OW 8614   1.527   6.653   1.809
 2572SOL    HW1 8615   1.451   6.590   1.798
 2572SOL    HW2 8616   1.590   6.643   1.732
 2573SOL     OW 8617   6.698   1.358   2.229
 2573SOL    HW1 8618   6.762   1.287   2.261
 2573SOL    HW2 8619   6.710   1.441   2.282
 2574SOL     OW 8620   0.200   3.047   0.017
 2574SOL    HW1 8621   0.299   3.045   0.022
 2574SOL    HW2 8622   0.171   3.063   6.942
 2575SOL     OW 8623   4.931   4.019   0.950
 2575SOL    HW1 8624   4.845   4.033   0.901
 2575SOL    HW2 8625   4.924   3.938   1.008
 2576SOL     OW 8626   3.854   0.207   3.909
 2576SOL    HW1 8627   3.862   0.166   3.818
 2576SOL    HW2 8628   3.919   0.165   3.971
 2577SOL     OW 8629   4.359   6.783   3.014
 2577SOL    HW1 8630   4.338   6.823   3.104
 2577SOL    HW2 8631   4.383   6.687   3.025
 2578SOL     OW 8632   4.596   2.816   5.335
 2578SOL    HW1 8633   4.588   2.900   5.390
 2578SOL    HW2 8634   4.691   2.786   5.334
 2579SOL     OW 8635   1.236   1.332   3.956
 2579SOL    HW1 8636   1.193   1.423   3.951
 2579SOL    HW2 8637   1.165   1.263   3.970
 2580SOL     OW 8638   1.811   3.074   6.322
 2580SOL    HW1 8639   1.859   3.154   6.358
 2580SOL    HW2 8640   1.731   3.054   6.379
 2581SOL     OW 8641   6.272   4.907   1.683
 2581SOL    HW1 8642   6.348   4.862   1.636
 2581SOL    HW2 8643   6.198   4.842   1.697
 2582SOL     OW 8644   1.442   4.176   2.600
 2582SOL    HW1 8645   1.409   4.095   2.551
 2582SOL    HW2 8646   1.372   4.207   2.665
 2583SOL     OW 8647   0.711   1.579   1.300
 2583SOL    HW1 8648   0.706   1.479   1.295
 2583SOL    HW2 8649   0.807   1.606   1.306
 2584SOL     OW 8650   3.333   5.776   0.527
 2584SOL    HW1 8651   3.301   5.824   0.445
 2584SOL    HW2 8652   3.405   5.712   0.501
 2585SOL     OW 8653   3.470   0.775   0.446
 2585SOL    HW1 8654   3.543   0.841   0.461
 2585SOL    HW2 8655   3.415   0.805   0.368
 2586SOL     OW 8656   4.882   1.755   3.713
 2586SOL    HW1 8657   4.870   1.657   3.729
 2586SOL    HW2 8658   4.977   1.780   3.732
 2587SOL     OW 8659   6.466   1.104   4.325
 2587SOL    HW1 8660   6.527   1.094   4.247
 2587SOL    HW2 8661   6.520   1.104   4.409
 2588SOL     OW 8662   4.743   0.068   0.530
 2588SOL    HW1 8663   4.677   0.054   0.457
 2588SOL    HW2 8664   4.720   0.010   0.608
 2589SOL     OW 8665   0.277   5.881   4.905
 2589SOL    HW1 8666   0.187   5.927   4.906
 2589SOL    HW2 8667   0.302   5.856   4.999
 2590SOL     OW 8668   3.322   6.356   2.024
 2590SOL    HW1 8669   3.398   6.373   2.088
 2590SOL    HW2 8670   3.325   6.423   1.950
 2591SOL     OW 8671   6.203   6.068   2.466
 2591SOL    HW1 8672   6.170   6.145   2.520
 2591SOL    HW2 8673   6.132   6.040   2.401
 2592SOL     OW 8674   2.275   6.838   1.159
 2592SOL    HW1 8675   2.368   6.801   1.168
 2592SOL    HW2 8676   2.278   6.937   1.161
 2593SOL     OW 8677   2.996   6.444   1.508
 2593SOL    HW1 8678   3.058   6.433   1.430
 2593SOL    HW2 8679   3.047   6.439   1.593
 2594SOL     OW 8680   0.200   6.242   5.952
 2594SOL    HW1 8681   0.149   6.289   5.881
 2594SOL    HW2 8682   0.137   6.205   6.020
 2595SOL     OW 8683   6.420   1.409   5.562
 2595SOL    HW1 8684   6.507   1.369   5.533
 2595SOL    HW2 8685   6.349   1.386   5.496
 2596SOL     OW 8686   3.883   2.148   1.813
 2596SOL    HW1 8687   3.914   2.095   1.892
 2596SOL    HW2 8688   3.812   2.212   1.841
 2597SOL     OW 8689   1.772   3.695   6.638
 2597SOL    HW1 8690   1.830   3.635   6.583
 2597SOL    HW2 8691   1.811   3.705   6.729
 2598SOL     OW 8692   6.214   1.168   4.573
 2598SOL    HW1 8693   6.197   1.124   4.485
 2598SOL    HW2 8694   6.297   1.223   4.568
 2599SOL     OW 8695   2.502   0.785   0.590
 2599SOL    HW1 8696   2.553   0.765   0.674
 2599SOL    HW2 8697   2.564   0.775   0.511
 2600SOL     OW 8698   4.908   3.442   4.721
 2600SOL    HW1 8699   4.809   3.448   4.735
 2600SOL    HW2 8700   4.955   3.457   4.808
 2601SOL     OW 8701   2.622   1.810   6.842
 2601SOL    HW1 8702   2.550   1.741   6.834
 2601SOL    HW2 8703   2.622   1.868   6.760
 2602SOL     OW 8704   6.831   4.717   3.793
 2602SOL    HW1 8705   6.876   4.802   3.821
 2602SOL    HW2 8706   6.802   4.725   3.698
 2603SOL     OW 8707   2.104   2.248   1.851
 2603SOL    HW1 8708   2.174   2.319   1.850
 2603SOL    HW2 8709   2.138   2.167   1.802
 2604SOL     OW 8710   4.984   1.257   3.029
 2604SOL    HW1 8711   4.889   1.229   3.037
 2604SOL    HW2 8712   4.992   1.333   2.965
 2605SOL     OW 8713   2.940   4.817   3.399
 2605SOL    HW1 8714   2.942   4.813   3.499
 2605SOL    HW2 8715   3.021   4.865   3.366
 2606SOL     OW 8716   0.396   4.510   1.134
 2606SOL    HW1 8717   0.348   4.453   1.201
 2606SOL    HW2 8718   0.348   4.598   1.126
 2607SOL     OW 8719   0.712   1.392   5.754
 2607SOL    HW1 8720   0.694   1.362   5.848
 2607SOL    HW2 8721   0.735   1.489   5.753
 2608SOL     OW 8722   4.019   5.378   2.290
 2608SOL    HW1 8723   3.988   5.383   2.385
 2608SOL    HW2 8724   4.037   5.283   2.266
 2609SOL     OW 8725   0.449   2.376   2.041
 2609SOL    HW1 8726   0.538   2.405   2.007
 2609SOL    HW2 8727   0.402   2.453   2.082
 2610SOL     OW 8728   6.688   4.805   4.252
 2610SOL    HW1 8729   6.699   4.705   4.254
 2610SOL    HW2 8730   6.765   4.847   4.300
 2611SOL     OW 8731   5.435   6.706   1.591
 2611SOL    HW1 8732   5.494   6.631   1.618
 2611SOL    HW2 8733   5.480   6.760   1.520
 2612SOL     OW 8734   6.480   6.658   6.130
 2612SOL    HW1 8735   6.574   6.629   6.148
 2612SOL    HW2 8736   6.452   6.726   6.198
 2613SOL     OW 8737   2.691   6.575   1.083
 2613SOL    HW1 8738   2.710   6.480   1.109
 2613SOL    HW2 8739   2.778   6.623   1.067
 2614SOL     OW 8740   6.532   6.891   5.863
 2614SOL    HW1 8741   6.512   6.977   5.909
 2614SOL    HW2 8742   6.451   6.861   5.812
 2615SOL     OW 8743   6.166   3.644   2.758
 2615SOL    HW1 8744   6.138   3.596   2.675
 2615SOL    HW2 8745   6.092   3.703   2.789
 2616SOL     OW 8746   3.761   3.611   3.749
 2616SOL    HW1 8747   3.743   3.625   3.847
 2616SOL    HW2 8748   3.678   3.633   3.697
 2617SOL     OW 8749   3.895   6.402   1.187
 2617SOL    HW1 8750   3.993   6.409   1.203
 2617SOL    HW2 8751   3.849   6.480   1.230
 2618SOL     OW 8752   6.829   6.891   4.190
 2618SOL    HW1 8753   6.920   6.933   4.193
 2618SOL    HW2 8754   6.789   6.894   4.282
 2619SOL     OW 8755   3.561   1.337   3.295
 2619SOL    HW1 8756   3.615   1.264   3.335
 2619SOL    HW2 8757   3.598   1.362   3.205
 2620SOL     OW 8758   0.605   6.506   3.305
 2620SOL    HW1 8759   0.620   6.566   3.226
 2620SOL    HW2 8760   0.616   6.411   3.277
 2621SOL     OW 8761   1.761   5.505   2.406
 2621SOL    HW1 8762   1.790   5.450   2.328
 2621SOL    HW2 8763   1.837   5.563   2.436
 2622SOL     OW 8764   2.413   2.083   6.415
 2622SOL    HW1 8765   2.493   2.047   6.366
 2622SOL    HW2 8766   2.330   2.051   6.370
 2623SOL     OW 8767   3.562   1.771   5.327
 2623SOL    HW1 8768   3.578   1.702   5.257
 2623SOL    HW2 8769   3.482   1.825   5.304
 2624SOL     OW 8770   6.598   2.702   5.259
 2624SOL    HW1 8771   6.619   2.772   5.327
 2624SOL    HW2 8772   6.593   2.744   5.168
 2625SOL     OW 8773   3.244   2.269   5.901
 2625SOL    HW1 8774   3.277   2.342   5.962
 2625SOL    HW2 8775   3.189   2.309   5.828
 2626SOL     OW 8776   7.017   0.655   5.140
 2626SOL    HW1 8777   6.942   0.605   5.184
 2626SOL    HW2 8778   0.085   0.616   5.170
 2627SOL     OW 8779   0.936   0.828   5.037
 2627SOL    HW1 8780   0.938   0.923   5.068
 2627SOL    HW2 8781   1.014   0.779   5.077
 2628SOL     OW 8782   2.028   4.485   6.691
 2628SOL    HW1 8783   1.971   4.561   6.660
 2628SOL    HW2 8784   2.021   4.476   6.790
 2629SOL     OW 8785   3.533   4.201   1.761
 2629SOL    HW1 8786   3.496   4.131   1.700
 2629SOL    HW2 8787   3.520   4.173   1.856
 2630SOL     OW 8788   3.268   1.683   3.884
 2630SOL    HW1 8789   3.344   1.653   3.826
 2630SOL    HW2 8790   3.302   1.747   3.952
 2631SOL     OW 8791   5.421   0.466   4.298
 2631SOL    HW1 8792   5.339   0.414   4.272
 2631SOL    HW2 8793   5.499   0.404   4.305
 2632SOL     OW 8794   2.753   2.175   6.423
 2632SOL    HW1 8795   2.769   2.096   6.482
 2632SOL    HW2 8796   2.823   2.178   6.352
 2633SOL     OW 8797   6.605   1.448   5.337
 2633SOL    HW1 8798   6.675   1.407   5.278
 2633SOL    HW2 8799   6.515   1.437   5.296
 2634SOL     OW 8800   1.445   4.064   2.988
 2634SOL    HW1 8801   1.409   4.097   3.075
 2634SOL    HW2 8802   1.379   4.001   2.946
 2635SOL     OW 8803   5.982   5.954   5.177
 2635SOL    HW1 8804   5.954   6.047   5.203
 2635SOL    HW2 8805   6.039   5.959   5.095
 2636SOL     OW 8806   4.832   0.246   5.586
 2636SOL    HW1 8807   4.931   0.233   5.581
 2636SOL    HW2 8808   4.806   0.325   5.531
 2637SOL     OW 8809   5.882   1.995   3.661
 2637SOL    HW1 8810   5.886   1.902   3.625
 2637SOL    HW2 8811   5.792   2.034   3.643
 2638SOL     OW 8812   6.572   0.202   2.735
 2638SOL    HW1 8813   6.660   0.239   2.706
 2638SOL    HW2 8814   6.563   0.108   2.702
 2639SOL     OW 8815   0.769   0.200   2.044
 2639SOL    HW1 8816   0.800   0.193   1.949
 2639SOL    HW2 8817   0.819   0.133   2.100
 2640SOL     OW 8818   0.035   6.279   4.629
 2640SOL    HW1 8819   0.010   6.373   4.653
 2640SOL    HW2 8820   6.978   6.235   4.582
 2641SOL     OW 8821   4.967   2.860   1.867
 2641SOL    HW1 8822   4.894   2.911   1.912
 2641SOL    HW2 8823   4.934   2.824   1.780
 2642SOL     OW 8824   4.311   6.978   4.373
 2642SOL    HW1 8825   4.228   6.941   4.333
 2642SOL    HW2 8826   4.391   6.944   4.324
 2643SOL     OW 8827   0.732   3.907   2.433
 2643SOL    HW1 8828   0.777   3.993   2.410
 2643SOL    HW2 8829   0.708   3.906   2.530
 2644SOL     OW 8830   6.284   6.030   6.050
 2644SOL    HW1 8831   6.256   5.935   6.038
 2644SOL    HW2 8832   6.380   6.040   6.026
 2645SOL     OW 8833   4.612   5.731   4.138
 2645SOL    HW1 8834   4.562   5.644   4.143
 2645SOL    HW2 8835   4.710   5.713   4.143
 2646SOL     OW 8836   5.942   6.968   0.005
 2646SOL    HW1 8837   5.939   6.909   0.086
 2646SOL    HW2 8838   5.876   6.936   6.957
 2647SOL     OW 8839   6.395   0.970   2.359
 2647SOL    HW1 8840   6.359   0.945   2.448
 2647SOL    HW2 8841   6.410   0.887   2.305
 2648SOL     OW 8842   0.304   6.923   3.574
 2648SOL    HW1 8843   0.295   6.837   3.522
 2648SOL    HW2 8844   0.231   6.929   3.641
 2649SOL     OW 8845   5.680   3.524   6.496
 2649SOL    HW1 8846   5.697   3.425   6.493
 2649SOL    HW2 8847   5.760   3.569   6.535
 2650SOL     OW 8848   0.410   3.607   4.615
 2650SOL    HW1 8849   0.383   3.610   4.519
 2650SOL    HW2 8850   0.509   3.592   4.621
 2651SOL     OW 8851   0.292   2.025   0.012
 2651SOL    HW1 8852   0.304   1.928   7.008
 2651SOL    HW2 8853   0.231   2.032   0.092
 2652SOL     OW 8854   3.390   3.903   3.983
 2652SOL    HW1 8855   3.449   3.839   3.934
 2652SOL    HW2 8856   3.391   3.991   3.937
 2653SOL     OW 8857   5.421   0.262   5.674
 2653SOL    HW1 8858   5.352   0.334   5.687
 2653SOL    HW2 8859   5.489   0.267   5.747
 2654SOL     OW 8860   5.250   5.031   0.836
 2654SOL    HW1 8861   5.168   5.083   0.861
 2654SOL    HW2 8862   5.245   5.004   0.740
 2655SOL     OW 8863   4.907   5.011   4.353
 2655SOL    HW1 8864   4.963   4.971   4.424
 2655SOL    HW2 8865   4.829   4.951   4.333
 2656SOL     OW 8866   3.772   4.960   4.107
 2656SOL    HW1 8867   3.674   4.948   4.122
 2656SOL    HW2 8868   3.805   5.037   4.161
 2657SOL     OW 8869   2.064   4.094   6.595
 2657SOL    HW1 8870   1.990   4.159   6.610
 2657SOL    HW2 8871   2.094   4.058   6.684
 2658SOL     OW 8872   4.806   4.560   0.378
 2658SOL    HW1 8873   4.857   4.550   0.293
 2658SOL    HW2 8874   4.839   4.640   0.428
 2659SOL     OW 8875   6.438   2.944   5.053
 2659SOL    HW1 8876   6.348   2.909   5.027
 2659SOL    HW2 8877   6.509   2.892   5.005
 2660SOL     OW 8878   0.695   1.355   0.931
 2660SOL    HW1 8879   0.647   1.400   1.006
 2660SOL    HW2 8880   0.747   1.277   0.966
 2661SOL     OW 8881   2.238   6.530   0.841
 2661SOL    HW1 8882   2.213   6.625   0.821
 2661SOL    HW2 8883   2.274   6.487   0.758
 2662SOL     OW 8884   4.521   0.247   5.611
 2662SOL    HW1 8885   4.436   0.194   5.614
 2662SOL    HW2 8886   4.589   0.198   5.556
 2663SOL     OW 8887   2.719   3.928   0.790
 2663SOL    HW1 8888   2.683   3.868   0.719
 2663SOL    HW2 8889   2.677   3.905   0.878
 2664SOL     OW 8890   4.152   3.723   4.895
 2664SOL    HW1 8891   4.129   3.626   4.894
 2664SOL    HW2 8892   4.194   3.747   4.807
 2665SOL     OW 8893   2.485   2.516   5.136
 2665SOL    HW1 8894   2.402   2.462   5.147
 2665SOL    HW2 8895   2.565   2.457   5.143
 2666SOL     OW 8896   5.239   3.929   1.364
 2666SOL    HW1 8897   5.336   3.925   1.385
 2666SOL    HW2 8898   5.188   3.870   1.428
 2667SOL     OW 8899   1.590   5.882   4.282
 2667SOL    HW1 8900   1.686   5.856   4.272
 2667SOL    HW2 8901   1.583   5.967   4.334
 2668SOL     OW 8902   5.907   3.626   4.405
 2668SOL    HW1 8903   5.814   3.589   4.404
 2668SOL    HW2 8904   5.902   3.726   4.405
 2669SOL     OW 8905   2.735   4.820   5.305
 2669SOL    HW1 8906   2.648   4.776   5.328
 2669SOL    HW2 8907   2.783   4.765   5.237
 2670SOL     OW 8908   5.636   2.474   6.669
 2670SOL    HW1 8909   5.707   2.403   6.675
 2670SOL    HW2 8910   5.657   2.546   6.736
 2671SOL     OW 8911   3.762   5.190   6.593
 2671SOL    HW1 8912   3.670   5.152   6.587
 2671SOL    HW2 8913   3.769   5.270   6.534
 2672SOL     OW 8914   0.200   4.873   0.675
 2672SOL    HW1 8915   0.298   4.876   0.693
 2672SOL    HW2 8916   0.181   4.918   0.588
 2673SOL     OW 8917   5.815   1.396   4.425
 2673SOL    HW1 8918   5.759   1.359   4.350
 2673SOL    HW2 8919   5.907   1.358   4.419
 2674SOL     OW 8920   1.344   4.096   3.654
 2674SOL    HW1 8921   1.390   4.038   3.587
 2674SOL    HW2 8922   1.282   4.040   3.709
 2675SOL     OW 8923   6.408   5.421   4.607
 2675SOL    HW1 8924   6.426   5.372   4.522
 2675SOL    HW2 8925   6.330   5.378   4.654
 2676SOL     OW 8926   4.193   1.642   1.085
 2676SOL    HW1 8927   4.284   1.683   1.081
 2676SOL    HW2 8928   4.166   1.614   0.993
 2677SOL     OW 8929   3.218   4.050   0.352
 2677SOL    HW1 8930   3.200   4.052   0.253
 2677SOL    HW2 8931   3.253   4.139   0.381
 2678SOL     OW 8932   6.592   3.482   1.466
 2678SOL    HW1 8933   6.525   3.556   1.470
 2678SOL    HW2 8934   6.597   3.438   1.556
 2679SOL     OW 8935   3.394   5.265   1.078
 2679SOL    HW1 8936   3.392   5.357   1.039
 2679SOL    HW2 8937   3.329   5.207   1.029
 2680SOL     OW 8938   0.499   1.437   0.532
 2680SOL    HW1 8939   0.552   1.502   0.478
 2680SOL    HW2 8940   0.457   1.369   0.472
 2681SOL     OW 8941   1.320   2.409   4.601
 2681SOL    HW1 8942   1.257   2.388   4.676
 2681SOL    HW2 8943   1.316   2.507   4.581
 2682SOL     OW 8944   5.677   4.318   2.453
 2682SOL    HW1 8945   5.767   4.322   2.409
 2682SOL    HW2 8946   5.678   4.247   2.524
 2683SOL     OW 8947   2.624   3.627   0.670
 2683SOL    HW1 8948   2.689   3.630   0.746
 2683SOL    HW2 8949   2.587   3.719   0.655
 2684SOL     OW 8950   4.658   5.773   1.241
 2684SOL    HW1 8951   4.636   5.861   1.198
 2684SOL    HW2 8952   4.646   5.700   1.174
 2685SOL     OW 8953   6.420   6.051   0.029
 2685SOL    HW1 8954   6.330   6.092   0.044
 2685SOL    HW2 8955   6.410   5.966   6.996
 2686SOL     OW 8956   1.439   1.609   5.642
 2686SOL    HW1 8957   1.537   1.613   5.662
 2686SOL    HW2 8958   1.387   1.618   5.727
 2687SOL     OW 8959   4.497   4.603   2.188
 2687SOL    HW1 8960   4.573   4.663   2.165
 2687SOL    HW2 8961   4.529   4.509   2.193
 2688SOL     OW 8962   4.436   4.858   0.087
 2688SOL    HW1 8963   4.420   4.849   7.008
 2688SOL    HW2 8964   4.471   4.950   0.106
 2689SOL     OW 8965   1.285   3.534   3.703
 2689SOL    HW1 8966   1.286   3.435   3.691
 2689SOL    HW2 8967   1.191   3.564   3.722
 2690SOL     OW 8968   3.262   3.619   4.223
 2690SOL    HW1 8969   3.304   3.593   4.311
 2690SOL    HW2 8970   3.325   3.597   4.149
 2691SOL     OW 8971   1.423   5.446   2.189
 2691SOL    HW1 8972   1.519   5.474   2.198
 2691SOL    HW2 8973   1.412   5.354   2.226
 2692SOL     OW 8974   3.602   4.892   3.082
 2692SOL    HW1 8975   3.518   4.906   3.030
 2692SOL    HW2 8976   3.680   4.892   3.019
 2693SOL     OW 8977   1.229   4.334   2.724
 2693SOL    HW1 8978   1.172   4.316   2.805
 2693SOL    HW2 8979   1.172   4.369   2.650
 2694SOL     OW 8980   4.742   6.608   2.929
 2694SOL    HW1 8981   4.774   6.631   3.021
 2694SOL    HW2 8982   4.643   6.598   2.930
 2695SOL     OW 8983   4.553   0.728   2.645
 2695SOL    HW1 8984   4.625   0.661   2.627
 2695SOL    HW2 8985   4.572   0.774   2.732
 2696SOL     OW 8986   3.830   3.485   5.342
 2696SOL    HW1 8987   3.836   3.451   5.436
 2696SOL    HW2 8988   3.914   3.461   5.293
 2697SOL     OW 8989   3.248   1.602   2.788
 2697SOL    HW1 8990   3.309   1.599   2.867
 2697SOL    HW2 8991   3.261   1.688   2.739
 2698SOL     OW 8992   1.861   6.034   0.383
 2698SOL    HW1 8993   1.896   5.941   0.392
 2698SOL    HW2 8994   1.764   6.031   0.358
 2699SOL     OW 8995   3.271   6.739   0.432
 2699SOL    HW1 8996   3.182   6.782   0.447
 2699SOL    HW2 8997   3.257   6.645   0.401
 2700SOL     OW 8998   1.976   3.647   0.503
 2700SOL    HW1 8999   1.893   3.691   0.470
 2700SOL    HW2 9000   1.953   3.565   0.555
 2701SOL     OW 9001   4.510   0.906   6.335
 2701SOL    HW1 9002   4.541   1.000   6.321
 2701SOL    HW2 9003   4.518   0.883   6.432
 2702SOL     OW 9004   0.361   2.963   3.713
 2702SOL    HW1 9005   0.416   2.991   3.791
 2702SOL    HW2 9006   0.319   3.043   3.671
 2703SOL     OW 9007   2.186   0.643   2.638
 2703SOL    HW1 9008   2.105   0.678   2.684
 2703SOL    HW2 9009   2.175   0.546   2.620
 2704SOL     OW 9010   6.881   6.349   1.163
 2704SOL    HW1 9011   6.887   6.257   1.203
 2704SOL    HW2 9012   6.971   6.375   1.127
 2705SOL     OW 9013   0.831   4.918   4.128
 2705SOL    HW1 9014   0.908   4.909   4.064
 2705SOL    HW2 9015   0.865   4.912   4.222
 2706SOL     OW 9016   0.888   0.755   1.644
 2706SOL    HW1 9017   0.911   0.711   1.731
 2706SOL    HW2 9018   0.830   0.694   1.590
 2707SOL     OW 9019   2.545   0.742   4.779
 2707SOL    HW1 9020   2.581   0.761   4.870
 2707SOL    HW2 9021   2.496   0.655   4.780
 2708SOL     OW 9022   0.727   2.322   0.293
 2708SOL    HW1 9023   0.658   2.251   0.279
 2708SOL    HW2 9024   0.746   2.367   0.206
 2709SOL     OW 9025   5.840   6.200   0.358
 2709SOL    HW1 9026   5.760   6.247   0.396
 2709SOL    HW2 9027   5.923   6.249   0.383
 2710SOL     OW 9028   0.920   2.866   3.725
 2710SOL    HW1 9029   0.914   2.966   3.721
 2710SOL    HW2 9030   0.922   2.837   3.820
 2711SOL     OW 9031   2.756   1.313   4.150
 2711SOL    HW1 9032   2.813   1.379   4.101
 2711SOL    HW2 9033   2.666   1.307   4.106
 2712SOL     OW 9034   3.176   5.006   0.654
 2712SOL    HW1 9035   3.091   4.971   0.694
 2712SOL    HW2 9036   3.240   4.930   0.639
 2713SOL     OW 9037   1.962   2.173   5.231
 2713SOL    HW1 9038   1.991   2.268   5.237
 2713SOL    HW2 9039   1.931   2.154   5.138
 2714SOL     OW 9040   4.574   2.220   0.340
 2714SOL    HW1 9041   4.545   2.150   0.406
 2714SOL    HW2 9042   4.519   2.302   0.353
 2715SOL     OW 9043   4.961   1.431   0.635
 2715SOL    HW1 9044   4.987   1.374   0.558
 2715SOL    HW2 9045   4.865   1.414   0.658
 2716SOL     OW 9046   5.267   4.270   2.614
 2716SOL    HW1 9047   5.283   4.306   2.522
 2716SOL    HW2 9048   5.340   4.206   2.638
 2717SOL     OW 9049   2.374   4.680   1.907
 2717SOL    HW1 9050   2.287   4.634   1.889
 2717SOL    HW2 9051   2.418   4.703   1.820
 2718SOL     OW 9052   1.608   3.044   5.872
 2718SOL    HW1 9053   1.614   3.141   5.846
 2718SOL    HW2 9054   1.515   3.025   5.904
 2719SOL     OW 9055   6.946   5.835   1.195
 2719SOL    HW1 9056   0.018   5.823   1.233
 2719SOL    HW2 9057   6.948   5.817   1.097
 2720SOL     OW 9058   2.075   6.019   2.444
 2720SOL    HW1 9059   2.153   5.961   2.419
 2720SOL    HW2 9060   2.107   6.113   2.456
 2721SOL     OW 9061   3.000   0.461   4.139
 2721SOL    HW1 9062   2.943   0.385   4.107
 2721SOL    HW2 9063   2.942   0.539   4.159
 2722SOL     OW 9064   6.436   5.808   1.598
 2722SOL    HW1 9065   6.518   5.751   1.589
 2722SOL    HW2 9066   6.459   5.903   1.581
 2723SOL     OW 9067   0.474   6.828   5.541
 2723SOL    HW1 9068   0.410   6.814   5.466
 2723SOL    HW2 9069   0.509   6.740   5.573
 2724SOL     OW 9070   2.528   6.934   6.700
 2724SOL    HW1 9071   2.615   6.910   6.742
 2724SOL    HW2 9072   2.471   6.853   6.691
 2725SOL     OW 9073   5.497   5.063   4.478
 2725SOL    HW1 9074   5.457   5.000   4.411
 2725SOL    HW2 9075   5.584   5.097   4.443
 2726SOL     OW 9076   0.038   3.322   0.899
 2726SOL    HW1 9077   0.134   3.327   0.871
 2726SOL    HW2 9078   7.003   3.383   0.842
 2727SOL     OW 9079   0.698   5.366   4.021
 2727SOL    HW1 9080   0.671   5.417   4.103
 2727SOL    HW2 9081   0.695   5.268   4.041
 2728SOL     OW 9082   3.892   6.538   5.684
 2728SOL    HW1 9083   3.847   6.622   5.712
 2728SOL    HW2 9084   3.920   6.487   5.765
 2729SOL     OW 9085   6.822   5.634   1.367
 2729SOL    HW1 9086   6.785   5.559   1.312
 2729SOL    HW2 9087   6.843   5.712   1.307
 2730SOL     OW 9088   2.106   4.955   1.083
 2730SOL    HW1 9089   2.028   4.956   1.146
 2730SOL    HW2 9090   2.078   4.913   0.996
 2731SOL     OW 9091   3.744   3.677   2.018
 2731SOL    HW1 9092   3.796   3.636   1.943
 2731SOL    HW2 9093   3.780   3.768   2.039
 2732SOL     OW 9094   5.648   2.596   2.069
 2732SOL    HW1 9095   5.679   2.607   2.164
 2732SOL    HW2 9096   5.685   2.512   2.031
 2733SOL     OW 9097   0.627   0.314   5.049
 2733SOL    HW1 9098   0.669   0.348   5.133
 2733SOL    HW2 9099   0.543   0.265   5.072
 2734SOL     OW 9100   2.082   5.473   1.469
 2734SOL    HW1 9101   2.154   5.405   1.484
 2734SOL    HW2 9102   2.117   5.546   1.410
 2735SOL     OW 9103   1.138   3.292   2.899
 2735SOL    HW1 9104   1.143   3.194   2.880
 2735SOL    HW2 9105   1.059   3.310   2.958
 2736SOL     OW 9106   4.311   6.802   4.852
 2736SOL    HW1 9107   4.244   6.789   4.779
 2736SOL    HW2 9108   4.331   6.900   4.861
 2737SOL     OW 9109   3.524   3.502   5.799
 2737SOL    HW1 9110   3.448   3.437   5.794
 2737SOL    HW2 9111   3.607   3.460   5.760
 2738SOL     OW 9112   5.568   4.755   4.074
 2738SOL    HW1 9113   5.527   4.796   4.155
 2738SOL    HW2 9114   5.623   4.676   4.100
 2739SOL     OW 9115   6.916   4.812   0.952
 2739SOL    HW1 9116   6.973   4.771   1.024
 2739SOL    HW2 9117   6.946   4.906   0.936
 2740SOL     OW 9118   6.154   3.370   2.543
 2740SOL    HW1 9119   6.220   3.296   2.531
 2740SOL    HW2 9120   6.196   3.457   2.516
 2741SOL     OW 9121   6.549   0.580   5.509
 2741SOL    HW1 9122   6.454   0.564   5.482
 2741SOL    HW2 9123   6.592   0.493   5.533
 2742SOL     OW 9124   2.469   5.033   6.614
 2742SOL    HW1 9125   2.513   5.104   6.557
 2742SOL    HW2 9126   2.539   4.985   6.666
 2743SOL     OW 9127   0.086   5.548   2.456
 2743SOL    HW1 9128   0.092   5.515   2.550
 2743SOL    HW2 9129   0.002   5.512   2.413
 2744SOL     OW 9130   5.125   1.433   6.822
 2744SOL    HW1 9131   5.098   1.496   6.750
 2744SOL    HW2 9132   5.045   1.410   6.878
 2745SOL     OW 9133   0.807   0.005   6.496
 2745SOL    HW1 9134   0.755   6.940   6.512
 2745SOL    HW2 9135   0.747   0.084   6.506
 2746SOL     OW 9136   2.007   2.292   3.913
 2746SOL    HW1 9137   1.989   2.306   3.816
 2746SOL    HW2 9138   2.095   2.334   3.937
 2747SOL     OW 9139   5.982   3.566   5.716
 2747SOL    HW1 9140   6.049   3.625   5.670
 2747SOL    HW2 9141   5.890   3.604   5.704
 2748SOL     OW 9142   4.601   2.393   0.665
 2748SOL    HW1 9143   4.684   2.444   0.640
 2748SOL    HW2 9144   4.528   2.414   0.602
 2749SOL     OW 9145   6.123   4.538   3.293
 2749SOL    HW1 9146   6.102   4.623   3.342
 2749SOL    HW2 9147   6.139   4.558   3.197
 2750SOL     OW 9148   0.920   4.715   1.125
 2750SOL    HW1 9149   0.925   4.634   1.183
 2750SOL    HW2 9150   0.870   4.694   1.041
 2751SOL     OW 9151   0.300   6.402   1.039
 2751SOL    HW1 9152   0.280   6.314   1.083
 2751SOL    HW2 9153   0.394   6.401   1.005
 2752SOL     OW 9154   4.854   4.786   5.473
 2752SOL    HW1 9155   4.933   4.789   5.534
 2752SOL    HW2 9156   4.770   4.786   5.527
 2753SOL     OW 9157   0.637   6.962   5.757
 2753SOL    HW1 9158   0.711   7.009   5.710
 2753SOL    HW2 9159   0.589   6.902   5.692
 2754SOL     OW 9160   6.868   0.696   3.427
 2754SOL    HW1 9161   6.947   0.640   3.450
 2754SOL    HW2 9162   6.850   0.760   3.502
 2755SOL     OW 9163   2.558   6.979   3.877
 2755SOL    HW1 9164   2.496   6.925   3.934
 2755SOL    HW2 9165   2.628   0.001   3.934
 2756SOL     OW 9166   5.570   4.327   5.775
 2756SOL    HW1 9167   5.595   4.293   5.684
 2756SOL    HW2 9168   5.644   4.384   5.810
 2757SOL     OW 9169   2.329   1.870   6.067
 2757SOL    HW1 9170   2.404   1.936   6.076
 2757SOL    HW2 9171   2.362   1.788   6.020
 2758SOL     OW 9172   4.973   6.460   3.141
 2758SOL    HW1 9173   4.957   6.453   3.043
 2758SOL    HW2 9174   4.899   6.415   3.190
 2759SOL     OW 9175   4.373   5.732   5.492
 2759SOL    HW1 9176   4.292   5.687   5.454
 2759SOL    HW2 9177   4.442   5.744   5.420
 2760SOL     OW 9178   0.625   5.834   2.568
 2760SOL    HW1 9179   0.712   5.874   2.539
 2760SOL    HW2 9180   0.554   5.903   2.563
 2761SOL     OW 9181   1.905   4.654   4.726
 2761SOL    HW1 9182   1.995   4.619   4.751
 2761SOL    HW2 9183   1.914   4.748   4.693
 2762SOL     OW 9184   2.016   1.861   6.516
 2762SOL    HW1 9185   2.058   1.866   6.607
 2762SOL    HW2 9186   1.938   1.799   6.520
 2763SOL     OW 9187   4.599   1.788   4.876
 2763SOL    HW1 9188   4.506   1.766   4.905
 2763SOL    HW2 9189   4.600   1.878   4.833
 2764SOL     OW 9190   6.958   0.443   2.001
 2764SOL    HW1 9191   6.892   0.386   1.952
 2764SOL    HW2 9192   6.934   0.447   2.098
 2765SOL     OW 9193   6.393   6.878   1.160
 2765SOL    HW1 9194   6.331   6.834   1.096
 2765SOL    HW2 9195   6.354   6.963   1.194
 2766SOL     OW 9196   4.356   2.593   7.015
 2766SOL    HW1 9197   4.417   2.598   0.075
 2766SOL    HW2 9198   4.374   2.508   6.965
 2767SOL     OW 9199   6.373   5.494   6.601
 2767SOL    HW1 9200   6.388   5.396   6.591
 2767SOL    HW2 9201   6.319   5.513   6.682
 2768SOL     OW 9202   4.797   0.664   1.543
 2768SOL    HW1 9203   4.740   0.740   1.575
 2768SOL    HW2 9204   4.739   0.585   1.522
 2769SOL     OW 9205   2.392   4.183   6.717
 2769SOL    HW1 9206   2.316   4.244   6.697
 2769SOL    HW2 9207   2.446   4.169   6.634
 2770SOL     OW 9208   4.786   5.778   5.482
 2770SOL    HW1 9209   4.857   5.836   5.443
 2770SOL    HW2 9210   4.699   5.798   5.437
 2771SOL     OW 9211   5.265   1.489   4.374
 2771SOL    HW1 9212   5.241   1.525   4.464
 2771SOL    HW2 9213   5.318   1.404   4.385
 2772SOL     OW 9214   2.997   1.044   1.089
 2772SOL    HW1 9215   2.936   0.972   1.057
 2772SOL    HW2 9216   2.987   1.125   1.030
 2773SOL     OW 9217   6.570   2.786   4.139
 2773SOL    HW1 9218   6.551   2.798   4.042
 2773SOL    HW2 9219   6.604   2.694   4.156
 2774SOL     OW 9220   5.409   3.389   2.816
 2774SOL    HW1 9221   5.490   3.439   2.786
 2774SOL    HW2 9222   5.387   3.318   2.749
 2775SOL     OW 9223   6.420   3.650   5.353
 2775SOL    HW1 9224   6.503   3.705   5.349
 2775SOL    HW2 9225   6.378   3.646   5.262
 2776SOL     OW 9226   5.019   4.281   6.001
 2776SOL    HW1 9227   5.099   4.238   6.043
 2776SOL    HW2 9228   5.031   4.380   5.998
 2777SOL     OW 9229   3.044   2.080   1.276
 2777SOL    HW1 9230   3.126   2.095   1.220
 2777SOL    HW2 9231   3.009   1.988   1.260
 2778SOL     OW 9232   1.030   6.248   6.084
 2778SOL    HW1 9233   1.112   6.254   6.141
 2778SOL    HW2 9234   0.959   6.197   6.134
 2779SOL     OW 9235   5.671   6.531   2.047
 2779SOL    HW1 9236   5.686   6.576   1.960
 2779SOL    HW2 9237   5.708   6.438   2.044
 2780SOL     OW 9238   0.286   7.001   5.688
 2780SOL    HW1 9239   0.364   6.952   5.649
 2780SOL    HW2 9240   0.205   6.987   5.631
 2781SOL     OW 9241   5.790   0.521   2.453
 2781SOL    HW1 9242   5.867   0.547   2.512
 2781SOL    HW2 9243   5.708   0.572   2.481
 2782SOL     OW 9244   4.458   1.309   5.181
 2782SOL    HW1 9245   4.494   1.400   5.200
 2782SOL    HW2 9246   4.417   1.271   5.264
 2783SOL     OW 9247   6.244   3.925   2.332
 2783SOL    HW1 9248   6.304   3.877   2.397
 2783SOL    HW2 9249   6.283   4.015   2.312
 2784SOL     OW 9250   3.369   1.264   2.390
 2784SOL    HW1 9251   3.365   1.363   2.398
 2784SOL    HW2 9252   3.436   1.238   2.321
 2785SOL     OW 9253   5.560   2.306   0.927
 2785SOL    HW1 9254   5.480   2.337   0.875
 2785SOL    HW2 9255   5.579   2.371   1.001
 2786SOL     OW 9256   6.130   0.000   1.903
 2786SOL    HW1 9257   6.048   6.962   1.904
 2786SOL    HW2 9258   6.113   0.081   1.847
 2787SOL     OW 9259   5.667   6.804   5.386
 2787SOL    HW1 9260   5.673   6.867   5.464
 2787SOL    HW2 9261   5.731   6.832   5.315
 2788SOL     OW 9262   2.790   6.691   5.725
 2788SOL    HW1 9263   2.813   6.788   5.731
 2788SOL    HW2 9264   2.720   6.669   5.793
 2789SOL     OW 9265   2.003   1.992   3.832
 2789SOL    HW1 9266   2.073   2.042   3.883
 2789SOL    HW2 9267   2.043   1.956   3.748
 2790SOL     OW 9268   3.200   5.413   1.478
 2790SOL    HW1 9269   3.199   5.425   1.578
 2790SOL    HW2 9270   3.201   5.316   1.456
 2791SOL     OW 9271   0.811   3.086   2.269
 2791SOL    HW1 9272   0.826   3.005   2.211
 2791SOL    HW2 9273   0.724   3.129   2.243
 2792SOL     OW 9274   2.489   0.532   4.167
 2792SOL    HW1 9275   2.422   0.587   4.119
 2792SOL    HW2 9276   2.506   0.448   4.116
 2793SOL     OW 9277   5.104   3.515   1.846
 2793SOL    HW1 9278   5.147   3.465   1.771
 2793SOL    HW2 9279   5.150   3.490   1.932
 2794SOL     OW 9280   6.355   1.848   6.004
 2794SOL    HW1 9281   6.439   1.817   5.960
 2794SOL    HW2 9282   6.282   1.856   5.937
 2795SOL     OW 9283   1.137   3.437   1.080
 2795SOL    HW1 9284   1.151   3.536   1.074
 2795SOL    HW2 9285   1.225   3.391   1.087
 2796SOL     OW 9286   0.212   6.205   3.411
 2796SOL    HW1 9287   0.267   6.193   3.494
 2796SOL    HW2 9288   0.254   6.276   3.354
 2797SOL     OW 9289   5.125   5.559   5.161
 2797SOL    HW1 9290   5.167   5.620   5.229
 2797SOL    HW2 9291   5.052   5.607   5.113
 2798SOL     OW 9292   6.551   5.844   2.808
 2798SOL    HW1 9293   6.495   5.766   2.781
 2798SOL    HW2 9294   6.517   5.927   2.764
 2799SOL     OW 9295   5.586   5.926   5.854
 2799SOL    HW1 9296   5.616   5.837   5.822
 2799SOL    HW2 9297   5.627   5.997   5.796
 2800SOL     OW 9298   5.718   6.579   6.003
 2800SOL    HW1 9299   5.682   6.506   6.060
 2800SOL    HW2 9300   5.661   6.590   5.922
 2801SOL     OW 9301   0.539   5.786   5.753
 2801SOL    HW1 9302   0.452   5.807   5.708
 2801SOL    HW2 9303   0.521   5.728   5.833
 2802SOL     OW 9304   5.341   6.558   5.530
 2802SOL    HW1 9305   5.336   6.639   5.589
 2802SOL    HW2 9306   5.383   6.582   5.443
 2803SOL     OW 9307   3.857   5.148   5.620
 2803SOL    HW1 9308   3.894   5.188   5.537
 2803SOL    HW2 9309   3.863   5.048   5.614
 2804SOL     OW 9310   0.849   3.755   5.164
 2804SOL    HW1 9311   0.930   3.755   5.222
 2804SOL    HW2 9312   0.836   3.846   5.125
 2805SOL     OW 9313   5.827   3.307   2.891
 2805SOL    HW1 9314   5.770   3.226   2.905
 2805SOL    HW2 9315   5.924   3.280   2.898
 2806SOL     OW 9316   2.021   3.892   6.135
 2806SOL    HW1 9317   2.056   3.800   6.117
 2806SOL    HW2 9318   2.097   3.951   6.163
 2807SOL     OW 9319   4.913   6.941   3.572
 2807SOL    HW1 9320   4.881   6.929   3.666
 2807SOL    HW2 9321   4.876   0.006   3.535
 2808SOL     OW 9322   6.679   5.397   1.760
 2808SOL    HW1 9323   6.644   5.321   1.705
 2808SOL    HW2 9324   6.682   5.369   1.856
 2809SOL     OW 9325   5.128   2.951   1.209
 2809SOL    HW1 9326   5.116   2.994   1.120
 2809SOL    HW2 9327   5.224   2.924   1.220
 2810SOL     OW 9328   2.549   5.917   2.731
 2810SOL    HW1 9329   2.493   5.997   2.755
 2810SOL    HW2 9330   2.614   5.898   2.804
 2811SOL     OW 9331   1.502   1.681   3.190
 2811SOL    HW1 9332   1.524   1.743   3.266
 2811SOL    HW2 9333   1.415   1.709   3.149
 2812SOL     OW 9334   6.142   3.327   0.658
 2812SOL    HW1 9335   6.180   3.294   0.572
 2812SOL    HW2 9336   6.043   3.324   0.654
 2813SOL     OW 9337   0.465   1.679   0.019
 2813SOL    HW1 9338   0.392   1.726   6.990
 2813SOL    HW2 9339   0.509   1.613   6.977
 2814SOL     OW 9340   3.145   3.897   5.705
 2814SOL    HW1 9341   3.118   3.968   5.641
 2814SOL    HW2 9342   3.232   3.857   5.676
 2815SOL     OW 9343   6.846   4.959   6.504
 2815SOL    HW1 9344   6.923   4.909   6.543
 2815SOL    HW2 9345   6.791   4.897   6.447
 2816SOL     OW 9346   6.651   6.246   4.231
 2816SOL    HW1 9347   6.578   6.178   4.246
 2816SOL    HW2 9348   6.615   6.321   4.176
 2817SOL     OW 9349   3.268   0.260   2.379
 2817SOL    HW1 9350   3.238   0.351   2.409
 2817SOL    HW2 9351   3.361   0.266   2.343
 2818SOL     OW 9352   0.156   0.954   2.253
 2818SOL    HW1 9353   0.177   1.020   2.181
 2818SOL    HW2 9354   0.240   0.935   2.305
 2819SOL     OW 9355   1.932   0.165   1.952
 2819SOL    HW1 9356   2.019   0.142   1.908
 2819SOL    HW2 9357   1.945   0.241   2.015
 2820SOL     OW 9358   1.625   1.973   2.802
 2820SOL    HW1 9359   1.587   1.929   2.883
 2820SOL    HW2 9360   1.553   1.983   2.733
 2821SOL     OW 9361   3.086   4.810   5.889
 2821SOL    HW1 9362   3.143   4.799   5.807
 2821SOL    HW2 9363   3.051   4.904   5.892
 2822SOL     OW 9364   4.580   1.925   0.415
 2822SOL    HW1 9365   4.648   1.941   0.486
 2822SOL    HW2 9366   4.556   1.828   0.412
 2823SOL     OW 9367   5.728   1.444   0.156
 2823SOL    HW1 9368   5.645   1.392   0.135
 2823SOL    HW2 9369   5.805   1.405   0.105
 2824SOL     OW 9370   1.882   1.977   5.414
 2824SOL    HW1 9371   1.954   1.910   5.396
 2824SOL    HW2 9372   1.898   2.059   5.359
 2825SOL     OW 9373   5.606   0.302   5.866
 2825SOL    HW1 9374   5.632   0.391   5.903
 2825SOL    HW2 9375   5.611   0.233   5.938
 2826SOL     OW 9376   3.766   2.818   6.620
 2826SOL    HW1 9377   3.808   2.907   6.601
 2826SOL    HW2 9378   3.756   2.767   6.534
 2827SOL     OW 9379   0.132   0.312   6.410
 2827SOL    HW1 9380   0.078   0.356   6.338
 2827SOL    HW2 9381   0.082   0.232   6.444
 2828SOL     OW 9382   2.193   2.764   0.715
 2828SOL    HW1 9383   2.224   2.695   0.650
 2828SOL    HW2 9384   2.260   2.774   0.788
 2829SOL     OW 9385   3.350   3.318   3.308
 2829SOL    HW1 9386   3.449   3.331   3.312
 2829SOL    HW2 9387   3.329   3.224   3.280
 2830SOL     OW 9388   3.164   4.038   5.245
 2830SOL    HW1 9389   3.144   4.134   5.231
 2830SOL    HW2 9390   3.227   4.006   5.173
 2831SOL     OW 9391   1.030   3.534   3.188
 2831SOL    HW1 9392   1.030   3.633   3.178
 2831SOL    HW2 9393   1.098   3.508   3.257
 2832SOL     OW 9394   0.787   3.040   1.541
 2832SOL    HW1 9395   0.843   3.008   1.617
 2832SOL    HW2 9396   0.752   3.132   1.563
 2833SOL     OW 9397   3.210   1.062   2.278
 2833SOL    HW1 9398   3.199   1.082   2.181
 2833SOL    HW2 9399   3.252   1.140   2.324
 2834SOL     OW 9400   3.684   6.420   5.421
 2834SOL    HW1 9401   3.688   6.385   5.328
 2834SOL    HW2 9402   3.651   6.515   5.420
 2835SOL     OW 9403   0.528   6.704   0.976
 2835SOL    HW1 9404   0.476   6.695   1.061
 2835SOL    HW2 9405   0.589   6.626   0.966
 2836SOL     OW 9406   1.278   6.446   1.648
 2836SOL    HW1 9407   1.204   6.474   1.586
 2836SOL    HW2 9408   1.362   6.492   1.622
 2837SOL     OW 9409   5.478   4.716   2.700
 2837SOL    HW1 9410   5.485   4.788   2.631
 2837SOL    HW2 9411   5.553   4.651   2.688
 2838SOL     OW 9412   4.186   3.530   0.978
 2838SOL    HW1 9413   4.250   3.565   1.046
 2838SOL    HW2 9414   4.159   3.437   1.003
 2839SOL     OW 9415   0.125   2.669   2.453
 2839SOL    HW1 9416   0.222   2.670   2.481
 2839SOL    HW2 9417   0.070   2.629   2.526
 2840SOL     OW 9418   1.571   5.706   1.744
 2840SOL    HW1 9419   1.528   5.677   1.658
 2840SOL    HW2 9420   1.519   5.668   1.821
 2841SOL     OW 9421   5.855   2.395   6.457
 2841SOL    HW1 9422   5.782   2.327   6.457
 2841SOL    HW2 9423   5.931   2.362   6.513
 2842SOL     OW 9424   0.455   5.301   4.356
 2842SOL    HW1 9425   0.373   5.245   4.359
 2842SOL    HW2 9426   0.466   5.348   4.444
 2843SOL     OW 9427   2.863   1.699   2.514
 2843SOL    HW1 9428   2.793   1.771   2.520
 2843SOL    HW2 9429   2.954   1.741   2.517
 2844SOL     OW 9430   6.293   5.431   0.659
 2844SOL    HW1 9431   6.248   5.344   0.634
 2844SOL    HW2 9432   6.343   5.465   0.580
 2845SOL     OW 9433   5.278   2.992   2.304
 2845SOL    HW1 9434   5.215   2.914   2.298
 2845SOL    HW2 9435   5.244   3.058   2.371
 2846SOL     OW 9436   3.948   0.578   0.597
 2846SOL    HW1 9437   3.993   0.649   0.651
 2846SOL    HW2 9438   3.849   0.592   0.600
 2847SOL     OW 9439   5.113   4.008   3.503
 2847SOL    HW1 9440   5.094   4.080   3.437
 2847SOL    HW2 9441   5.089   4.040   3.595
 2848SOL     OW 9442   2.361   2.705   5.844
 2848SOL    HW1 9443   2.336   2.750   5.758
 2848SOL    HW2 9444   2.331   2.760   5.921
 2849SOL     OW 9445   3.349   0.433   1.208
 2849SOL    HW1 9446   3.368   0.530   1.191
 2849SOL    HW2 9447   3.257   0.410   1.176
 2850SOL     OW 9448   2.150   0.186   3.136
 2850SOL    HW1 9449   2.083   0.113   3.124
 2850SOL    HW2 9450   2.198   0.201   3.049
 2851SOL     OW 9451   5.215   3.037   6.562
 2851SOL    HW1 9452   5.262   2.974   6.623
 2851SOL    HW2 9453   5.245   3.021   6.468
 2852SOL     OW 9454   6.172   4.375   6.851
 2852SOL    HW1 9455   6.073   4.383   6.865
 2852SOL    HW2 9456   6.204   4.451   6.796
 2853SOL     OW 9457   1.307   2.593   6.802
 2853SOL    HW1 9458   1.210   2.620   6.805
 2853SOL    HW2 9459   1.332   2.552   6.889
 2854SOL     OW 9460   4.281   0.365   5.883
 2854SOL    HW1 9461   4.313   0.284   5.932
 2854SOL    HW2 9462   4.231   0.337   5.801
 2855SOL     OW 9463   1.240   1.939   5.544
 2855SOL    HW1 9464   1.313   2.002   5.569
 2855SOL    HW2 9465   1.272   1.877   5.471
 2856SOL     OW 9466   0.909   3.211   4.457
 2856SOL    HW1 9467   0.943   3.118   4.442
 2856SOL    HW2 9468   0.815   3.218   4.426
 2857SOL     OW 9469   0.767   2.678   1.371
 2857SOL    HW1 9470   0.835   2.741   1.333
 2857SOL    HW2 9471   0.693   2.664   1.305
 2858SOL     OW 9472   4.448   5.173   2.334
 2858SOL    HW1 9473   4.445   5.192   2.235
 2858SOL    HW2 9474   4.451   5.260   2.384
 2859SOL     OW 9475   6.513   6.915   6.941
 2859SOL    HW1 9476   6.582   6.988   6.942
 2859SOL    HW2 9477   6.531   6.851   7.016
 2860SOL     OW 9478   2.601   0.681   2.399
 2860SOL    HW1 9479   2.553   0.673   2.312
 2860SOL    HW2 9480   2.650   0.768   2.403
 2861SOL     OW 9481   3.470   5.401   5.496
 2861SOL    HW1 9482   3.516   5.465   5.434
 2861SOL    HW2 9483   3.396   5.355   5.448
 2862SOL     OW 9484   4.190   2.455   1.785
 2862SOL    HW1 9485   4.098   2.427   1.758
 2862SOL    HW2 9486   4.256   2.385   1.754
 2863SOL     OW 9487   4.882   1.723   6.132
 2863SOL    HW1 9488   4.909   1.812   6.168
 2863SOL    HW2 9489   4.916   1.713   6.038
 2864SOL     OW 9490   4.845   2.548   0.651
 2864SOL    HW1 9491   4.937   2.551   0.613
 2864SOL    HW2 9492   4.796   2.633   0.626
 2865SOL     OW 9493   4.093   6.637   4.105
 2865SOL    HW1 9494   4.045   6.659   4.020
 2865SOL    HW2 9495   4.109   6.538   4.109
 2866SOL     OW 9496   5.575   4.156   0.188
 2866SOL    HW1 9497   5.516   4.162   0.108
 2866SOL    HW2 9498   5.522   4.171   0.271
 2867SOL     OW 9499   6.174   6.043   3.080
 2867SOL    HW1 9500   6.139   6.055   3.173
 2867SOL    HW2 9501   6.248   6.107   3.063
 2868SOL     OW 9502   1.351   0.958   5.426
 2868SOL    HW1 9503   1.252   0.966   5.433
 2868SOL    HW2 9504   1.393   1.046   5.450
 2869SOL     OW 9505   6.545   0.852   3.201
 2869SOL    HW1 9506   6.564   0.930   3.261
 2869SOL    HW2 9507   6.508   0.885   3.114
 2870SOL     OW 9508   0.778   2.095   5.985
 2870SOL    HW1 9509   0.737   2.108   6.075
 2870SOL    HW2 9510   0.862   2.042   5.993
 2871SOL     OW 9511   5.766   0.881   0.697
 2871SOL    HW1 9512   5.713   0.917   0.620
 2871SOL    HW2 9513   5.762   0.945   0.774
 2872SOL     OW 9514   2.581   1.885   1.023
 2872SOL    HW1 9515   2.619   1.793   1.029
 2872SOL    HW2 9516   2.569   1.923   1.115
 2873SOL     OW 9517   6.713   6.894   2.419
 2873SOL    HW1 9518   6.633   6.935   2.374
 2873SOL    HW2 9519   6.698   6.892   2.517
 2874SOL     OW 9520   3.766   6.411   2.836
 2874SOL    HW1 9521   3.820   6.476   2.781
 2874SOL    HW2 9522   3.694   6.372   2.779
 2875SOL     OW 9523   4.363   0.232   1.651
 2875SOL    HW1 9524   4.282   0.174   1.652
 2875SOL    HW2 9525   4.441   0.180   1.615
 2876SOL     OW 9526   2.009   0.447   3.162
 2876SOL    HW1 9527   1.927   0.406   3.124
 2876SOL    HW2 9528   2.089   0.391   3.137
 2877SOL     OW 9529   2.670   1.076   6.281
 2877SOL    HW1 9530   2.716   1.001   6.233
 2877SOL    HW2 9531   2.629   1.138   6.214
 2878SOL     OW 9532   2.923   3.942   5.148
 2878SOL    HW1 9533   3.018   3.950   5.178
 2878SOL    HW2 9534   2.921   3.919   5.051
 2879SOL     OW 9535   5.696   5.682   5.775
 2879SOL    HW1 9536   5.772   5.693   5.711
 2879SOL    HW2 9537   5.731   5.671   5.868
 2880SOL     OW 9538   0.600   1.339   3.043
 2880SOL    HW1 9539   0.573   1.400   3.117
 2880SOL    HW2 9540   0.694   1.359   3.016
 2881SOL     OW 9541   3.786   5.941   0.339
 2881SOL    HW1 9542   3.693   5.907   0.335
 2881SOL    HW2 9543   3.845   5.882   0.284
 2882SOL     OW 9544   0.168   5.774   1.331
 2882SOL    HW1 9545   0.120   5.726   1.404
 2882SOL    HW2 9546   0.245   5.718   1.299
 2883SOL     OW 9547   5.808   0.072   3.691
 2883SOL    HW1 9548   5.886   0.102   3.636
 2883SOL    HW2 9549   5.739   0.145   3.693
 2884SOL     OW 9550   0.885   6.705   2.500
 2884SOL    HW1 9551   0.900   6.779   2.434
 2884SOL    HW2 9552   0.806   6.727   2.558
 2885SOL     OW 9553   1.659   2.654   4.624
 2885SOL    HW1 9554   1.695   2.642   4.532
 2885SOL    HW2 9555   1.587   2.588   4.642
 2886SOL     OW 9556   1.752   3.294   6.587
 2886SOL    HW1 9557   1.704   3.213   6.554
 2886SOL    HW2 9558   1.717   3.320   6.677
 2887SOL     OW 9559   0.970   6.611   5.186
 2887SOL    HW1 9560   0.911   6.538   5.152
 2887SOL    HW2 9561   0.990   6.675   5.111
 2888SOL     OW 9562   0.306   4.714   0.369
 2888SOL    HW1 9563   0.341   4.622   0.349
 2888SOL    HW2 9564   0.365   4.759   0.436
 2889SOL     OW 9565   2.798   5.962   2.902
 2889SOL    HW1 9566   2.885   5.959   2.951
 2889SOL    HW2 9567   2.808   5.914   2.815
 2890SOL     OW 9568   1.433   6.228   0.643
 2890SOL    HW1 9569   1.375   6.220   0.562
 2890SOL    HW2 9570   1.418   6.318   0.686
 2891SOL     OW 9571   0.673   3.875   3.224
 2891SOL    HW1 9572   0.608   3.799   3.216
 2891SOL    HW2 9573   0.632   3.947   3.279
 2892SOL     OW 9574   6.195   2.757   1.375
 2892SOL    HW1 9575   6.158   2.677   1.422
 2892SOL    HW2 9576   6.283   2.782   1.415
 2893SOL     OW 9577   0.939   4.925   4.384
 2893SOL    HW1 9578   1.011   4.898   4.448
 2893SOL    HW2 9579   0.850   4.918   4.430
 2894SOL     OW 9580   1.214   3.535   1.455
 2894SOL    HW1 9581   1.268   3.557   1.374
 2894SOL    HW2 9582   1.136   3.479   1.429
 2895SOL     OW 9583   5.729   1.475   5.632
 2895SOL    HW1 9584   5.630   1.472   5.618
 2895SOL    HW2 9585   5.762   1.385   5.660
 2896SOL     OW 9586   4.206   6.921   5.523
 2896SOL    HW1 9587   4.214   6.839   5.466
 2896SOL    HW2 9588   4.242   7.000   5.474
 2897SOL     OW 9589   3.751   5.102   2.211
 2897SOL    HW1 9590   3.701   5.048   2.279
 2897SOL    HW2 9591   3.741   5.061   2.121
 2898SOL     OW 9592   4.402   4.669   3.945
 2898SOL    HW1 9593   4.449   4.757   3.948
 2898SOL    HW2 9594   4.435   4.616   3.867
 2899SOL     OW 9595   0.410   1.600   0.726
 2899SOL    HW1 9596   0.334   1.551   0.769
 2899SOL    HW2 9597   0.443   1.547   0.647
 2900SOL     OW 9598   3.683   4.559   6.948
 2900SOL    HW1 9599   3.724   4.575   0.018
 2900SOL    HW2 9600   3.690   4.462   6.926
 2901SOL     OW 9601   2.378   4.696   3.478
 2901SOL    HW1 9602   2.425   4.735   3.557
 2901SOL    HW2 9603   2.439   4.695   3.399
 2902SOL     OW 9604   6.456   5.246   3.126
 2902SOL    HW1 9605   6.429   5.203   3.040
 2902SOL    HW2 9606   6.399   5.326   3.142
 2903SOL     OW 9607   4.148   6.542   0.443
 2903SOL    HW1 9608   4.061   6.574   0.481
 2903SOL    HW2 9609   4.134   6.513   0.348
 2904SOL     OW 9610   3.007   5.091   5.204
 2904SOL    HW1 9611   3.009   4.993   5.183
 2904SOL    HW2 9612   2.948   5.139   5.140
 2905SOL     OW 9613   1.584   3.899   4.246
 2905SOL    HW1 9614   1.658   3.961   4.221
 2905SOL    HW2 9615   1.524   3.885   4.167
 2906SOL     OW 9616   4.837   5.591   2.983
 2906SOL    HW1 9617   4.788   5.676   3.002
 2906SOL    HW2 9618   4.789   5.540   2.911
 2907SOL     OW 9619   0.550   1.541   3.523
 2907SOL    HW1 9620   0.624   1.550   3.589
 2907SOL    HW2 9621   0.494   1.625   3.523
 2908SOL     OW 9622   5.100   0.301   3.431
 2908SOL    HW1 9623   5.131   0.209   3.455
 2908SOL    HW2 9624   5.079   0.305   3.334
 2909SOL     OW 9625   2.285   5.474   4.412
 2909SOL    HW1 9626   2.344   5.414   4.465
 2909SOL    HW2 9627   2.265   5.556   4.465
 2910SOL     OW 9628   5.693   0.061   3.995
 2910SOL    HW1 9629   5.751   0.084   4.073
 2910SOL    HW2 9630   5.749   0.023   3.922
 2911SOL     OW 9631   1.970   5.188   3.519
 2911SOL    HW1 9632   2.027   5.140   3.585
 2911SOL    HW2 9633   1.875   5.190   3.551
 2912SOL     OW 9634   6.290   6.725   0.476
 2912SOL    HW1 9635   6.300   6.761   0.569
 2912SOL    HW2 9636   6.307   6.799   0.411
 2913SOL     OW 9637   3.557   5.167   1.936
 2913SOL    HW1 9638   3.517   5.200   2.021
 2913SOL    HW2 9639   3.623   5.095   1.955
 2914SOL     OW 9640   6.148   5.762   6.723
 2914SOL    HW1 9641   6.062   5.813   6.715
 2914SOL    HW2 9642   6.131   5.666   6.700
 2915SOL     OW 9643   3.044   2.067   3.555
 2915SOL    HW1 9644   2.965   2.056   3.495
 2915SOL    HW2 9645   3.047   1.993   3.622
 2916SOL     OW 9646   1.162   5.655   0.377
 2916SOL    HW1 9647   1.186   5.558   0.381
 2916SOL    HW2 9648   1.215   5.706   0.445
 2917SOL     OW 9649   3.045   0.141   4.104
 2917SOL    HW1 9650   3.054   0.188   4.192
 2917SOL    HW2 9651   3.133   0.143   4.056
 2918SOL     OW 9652   6.220   4.510   5.521
 2918SOL    HW1 9653   6.207   4.472   5.429
 2918SOL    HW2 9654   6.309   4.482   5.556
 2919SOL     OW 9655   6.152   0.688   3.028
 2919SOL    HW1 9656   6.058   0.691   3.060
 2919SOL    HW2 9657   6.213   0.666   3.104
 2920SOL     OW 9658   2.705   0.689   0.848
 2920SOL    HW1 9659   2.709   0.637   0.933
 2920SOL    HW2 9660   2.798   0.712   0.819
 2921SOL     OW 9661   0.921   0.367   5.323
 2921SOL    HW1 9662   0.993   0.307   5.288
 2921SOL    HW2 9663   0.898   0.436   5.254
 2922SOL     OW 9664   4.902   6.204   1.563
 2922SOL    HW1 9665   4.803   6.208   1.578
 2922SOL    HW2 9666   4.921   6.216   1.466
 2923SOL     OW 9667   6.356   5.750   3.937
 2923SOL    HW1 9668   6.328   5.812   3.864
 2923SOL    HW2 9669   6.436   5.787   3.984
 2924SOL     OW 9670   6.937   2.510   5.159
 2924SOL    HW1 9671   6.999   2.433   5.143
 2924SOL    HW2 9672   6.860   2.479   5.216
 2925SOL     OW 9673   5.868   2.426   0.549
 2925SOL    HW1 9674   5.837   2.373   0.628
 2925SOL    HW2 9675   5.967   2.421   0.542
 2926SOL     OW 9676   5.721   2.230   6.822
 2926SOL    HW1 9677   5.763   2.140   6.817
 2926SOL    HW2 9678   5.745   2.274   6.908
 2927SOL     OW 9679   1.998   3.560   0.994
 2927SOL    HW1 9680   1.914   3.580   1.044
 2927SOL    HW2 9681   2.015   3.632   0.927
 2928SOL     OW 9682   6.982   0.550   6.597
 2928SOL    HW1 9683   7.008   0.533   6.691
 2928SOL    HW2 9684   6.943   0.467   6.557
 2929SOL     OW 9685   1.276   2.930   6.132
 2929SOL    HW1 9686   1.365   2.906   6.170
 2929SOL    HW2 9687   1.229   2.993   6.194
 2930SOL     OW 9688   5.343   6.825   5.708
 2930SOL    HW1 9689   5.258   6.873   5.733
 2930SOL    HW2 9690   5.392   6.879   5.640
 2931SOL     OW 9691   5.036   5.071   6.961
 2931SOL    HW1 9692   5.136   5.071   6.968
 2931SOL    HW2 9693   4.996   5.096   0.030
 2932SOL     OW 9694   0.942   5.618   1.824
 2932SOL    HW1 9695   0.943   5.547   1.894
 2932SOL    HW2 9696   0.848   5.637   1.797
 2933SOL     OW 9697   1.946   6.373   2.081
 2933SOL    HW1 9698   1.960   6.292   2.138
 2933SOL    HW2 9699   1.884   6.350   2.006
 2934SOL     OW 9700   5.526   2.728   6.890
 2934SOL    HW1 9701   5.482   2.668   6.957
 2934SOL    HW2 9702   5.457   2.770   6.831
 2935SOL     OW 9703   6.622   3.140   6.316
 2935SOL    HW1 9704   6.550   3.090   6.268
 2935SOL    HW2 9705   6.582   3.214   6.369
 2936SOL     OW 9706   4.658   5.877   0.369
 2936SOL    HW1 9707   4.750   5.895   0.402
 2936SOL    HW2 9708   4.595   5.945   0.408
 2937SOL     OW 9709   5.332   4.942   1.238
 2937SOL    HW1 9710   5.333   5.036   1.272
 2937SOL    HW2 9711   5.256   4.892   1.279
 2938SOL     OW 9712   5.498   4.520   0.033
 2938SOL    HW1 9713   5.557   4.477   0.102
 2938SOL    HW2 9714   5.402   4.508   0.059
 2939SOL     OW 9715   2.415   0.404   2.023
 2939SOL    HW1 9716   2.440   0.411   1.927
 2939SOL    HW2 9717   2.442   0.489   2.070
 2940SOL     OW 9718   5.350   4.910   5.378
 2940SOL    HW1 9719   5.384   4.887   5.287
 2940SOL    HW2 9720   5.281   4.844   5.406
 2941SOL     OW 9721   1.329   2.328   4.287
 2941SOL    HW1 9722   1.349   2.392   4.360
 2941SOL    HW2 9723   1.368   2.238   4.309
 2942SOL     OW 9724   3.947   1.931   0.903
 2942SOL    HW1 9725   3.988   1.850   0.860
 2942SOL    HW2 9726   3.855   1.909   0.933
 2943SOL     OW 9727   5.937   4.224   4.032
 2943SOL    HW1 9728   6.011   4.263   3.977
 2943SOL    HW2 9729   5.972   4.202   4.123
 2944SOL     OW 9730   3.140   6.062   4.213
 2944SOL    HW1 9731   3.117   6.115   4.295
 2944SOL    HW2 9732   3.092   6.099   4.134
 2945SOL     OW 9733   4.061   3.213   1.674
 2945SOL    HW1 9734   4.054   3.114   1.678
 2945SOL    HW2 9735   3.971   3.252   1.653
 2946SOL     OW 9736   1.982   4.528   6.328
 2946SOL    HW1 9737   1.996   4.624   6.354
 2946SOL    HW2 9738   1.898   4.520   6.273
 2947SOL     OW 9739   0.882   5.701   1.548
 2947SOL    HW1 9740   0.972   5.688   1.507
 2947SOL    HW2 9741   0.870   5.797   1.572
 2948SOL     OW 9742   0.251   4.194   4.523
 2948SOL    HW1 9743   0.173   4.147   4.563
 2948SOL    HW2 9744   0.221   4.250   4.446
 2949SOL     OW 9745   1.026   5.458   1.150
 2949SOL    HW1 9746   0.962   5.382   1.161
 2949SOL    HW2 9747   0.985   5.542   1.185
 2950SOL     OW 9748   6.041   5.802   4.475
 2950SOL    HW1 9749   6.065   5.821   4.380
 2950SOL    HW2 9750   6.087   5.868   4.534
 2951SOL     OW 9751   5.799   2.031   2.013
 2951SOL    HW1 9752   5.760   1.962   1.952
 2951SOL    HW2 9753   5.884   1.996   2.051
 2952SOL     OW 9754   0.318   6.183   5.487
 2952SOL    HW1 9755   0.288   6.244   5.413
 2952SOL    HW2 9756   0.238   6.149   5.537
 2953SOL     OW 9757   6.284   3.905   2.926
 2953SOL    HW1 9758   6.304   3.807   2.915
 2953SOL    HW2 9759   6.205   3.916   2.985
 2954SOL     OW 9760   1.002   5.143   2.078
 2954SOL    HW1 9761   1.026   5.232   2.117
 2954SOL    HW2 9762   0.929   5.102   2.131
 2955SOL     OW 9763   0.932   4.072   1.337
 2955SOL    HW1 9764   0.949   3.976   1.358
 2955SOL    HW2 9765   0.836   4.093   1.354
 2956SOL     OW 9766   5.535   5.700   3.172
 2956SOL    HW1 9767   5.634   5.686   3.163
 2956SOL    HW2 9768   5.490   5.612   3.183
 2957SOL     OW 9769   5.217   4.087   1.647
 2957SOL    HW1 9770   5.303   4.089   1.597
 2957SOL    HW2 9771   5.165   4.006   1.621
 2958SOL     OW 9772   2.246   4.311   3.687
 2958SOL    HW1 9773   2.209   4.381   3.626
 2958SOL    HW2 9774   2.229   4.220   3.649
 2959SOL     OW 9775   5.056   3.197   1.755
 2959SOL    HW1 9776   5.095   3.264   1.692
 2959SOL    HW2 9777   5.096   3.211   1.846
 2960SOL     OW 9778   3.110   0.215   0.392
 2960SOL    HW1 9779   3.042   0.197   0.464
 2960SOL    HW2 9780   3.078   0.175   0.306
 2961SOL     OW 9781   5.730   4.750   3.214
 2961SOL    HW1 9782   5.696   4.657   3.227
 2961SOL    HW2 9783   5.745   4.792   3.303
 2962SOL     OW 9784   4.405   5.941   3.575
 2962SOL    HW1 9785   4.504   5.937   3.588
 2962SOL    HW2 9786   4.384   6.006   3.501
 2963SOL     OW 9787   1.330   1.072   6.964
 2963SOL    HW1 9788   1.344   1.131   0.024
 2963SOL    HW2 9789   1.232   1.066   6.944
 2964SOL     OW 9790   0.103   1.742   5.310
 2964SOL    HW1 9791   0.077   1.685   5.388
 2964SOL    HW2 9792   0.137   1.830   5.343
 2965SOL     OW 9793   0.726   0.892   4.585
 2965SOL    HW1 9794   0.762   0.860   4.497
 2965SOL    HW2 9795   0.794   0.876   4.656
 2966SOL     OW 9796   4.661   4.874   2.926
 2966SOL    HW1 9797   4.725   4.948   2.943
 2966SOL    HW2 9798   4.702   4.808   2.863
 2967SOL     OW 9799   5.916   0.962   5.720
 2967SOL    HW1 9800   5.939   1.013   5.802
 2967SOL    HW2 9801   5.966   0.876   5.719
 2968SOL     OW 9802   1.063   2.770   0.560
 2968SOL    HW1 9803   1.112   2.809   0.638
 2968SOL    HW2 9804   1.037   2.676   0.581
 2969SOL     OW 9805   4.709   2.246   4.304
 2969SOL    HW1 9806   4.612   2.260   4.280
 2969SOL    HW2 9807   4.751   2.335   4.322
 2970SOL     OW 9808   2.658   2.982   5.366
 2970SOL    HW1 9809   2.588   2.990   5.295
 2970SOL    HW2 9810   2.654   2.892   5.408
 2971SOL     OW 9811   5.031   3.822   1.133
 2971SOL    HW1 9812   5.124   3.805   1.102
 2971SOL    HW2 9813   4.998   3.743   1.184
 2972SOL     OW 9814   6.218   4.936   6.456
 2972SOL    HW1 9815   6.131   4.891   6.438
 2972SOL    HW2 9816   6.201   5.027   6.496
 2973SOL     OW 9817   5.103   5.942   2.100
 2973SOL    HW1 9818   5.065   5.885   2.028
 2973SOL    HW2 9819   5.068   5.913   2.189
 2974SOL     OW 9820   0.297   4.579   3.718
 2974SOL    HW1 9821   0.204   4.561   3.750
 2974SOL    HW2 9822   0.354   4.498   3.736
 2975SOL     OW 9823   5.231   4.202   3.973
 2975SOL    HW1 9824   5.161   4.220   4.042
 2975SOL    HW2 9825   5.316   4.247   4.000
 2976SOL     OW 9826   4.223   1.934   2.554
 2976SOL    HW1 9827   4.252   2.017   2.602
 2976SOL    HW2 9828   4.207   1.955   2.457
 2977SOL     OW 9829   1.195   0.736   2.851
 2977SOL    HW1 9830   1.215   0.784   2.937
 2977SOL    HW2 9831   1.262   0.663   2.837
 2978SOL     OW 9832   3.453   4.949   0.247
 2978SOL    HW1 9833   3.508   4.869   0.267
 2978SOL    HW2 9834   3.365   4.943   0.295
 2979SOL     OW 9835   3.465   1.576   3.734
 2979SOL    HW1 9836   3.461   1.480   3.761
 2979SOL    HW2 9837   3.546   1.592   3.678
 2980SOL     OW 9838   1.755   5.758   5.640
 2980SOL    HW1 9839   1.719   5.846   5.611
 2980SOL    HW2 9840   1.805   5.716   5.564
 2981SOL     OW 9841   2.587   0.857   6.678
 2981SOL    HW1 9842   2.589   0.866   6.578
 2981SOL    HW2 9843   2.649   0.926   6.718
 2982SOL     OW 9844   2.662   5.870   0.775
 2982SOL    HW1 9845   2.714   5.943   0.731
 2982SOL    HW2 9846   2.665   5.882   0.874
 2983SOL     OW 9847   6.251   2.278   1.775
 2983SOL    HW1 9848   6.307   2.203   1.812
 2983SOL    HW2 9849   6.297   2.317   1.695
 2984SOL     OW 9850   6.171   4.922   0.182
 2984SOL    HW1 9851   6.112   4.899   0.259
 2984SOL    HW2 9852   6.253   4.968   0.216
 2985SOL     OW 9853   1.974   2.541   4.514
 2985SOL    HW1 9854   2.069   2.513   4.527
 2985SOL    HW2 9855   1.916   2.460   4.507
 2986SOL     OW 9856   3.590   4.112   2.834
 2986SOL    HW1 9857   3.656   4.152   2.897
 2986SOL    HW2 9858   3.630   4.031   2.790
 2987SOL     OW 9859   1.138   1.591   3.905
 2987SOL    HW1 9860   1.118   1.642   3.821
 2987SOL    HW2 9861   1.201   1.644   3.962
 2988SOL     OW 9862   1.720   6.604   2.389
 2988SOL    HW1 9863   1.678   6.682   2.436
 2988SOL    HW2 9864   1.659   6.573   2.316
 2989SOL     OW 9865   4.887   5.058   6.012
 2989SOL    HW1 9866   4.909   5.043   6.108
 2989SOL    HW2 9867   4.968   5.042   5.956
 2990SOL     OW 9868   3.675   1.530   3.996
 2990SOL    HW1 9869   3.674   1.454   4.061
 2990SOL    HW2 9870   3.717   1.610   4.038
 2991SOL     OW 9871   6.257   3.374   5.742
 2991SOL    HW1 9872   6.288   3.381   5.647
 2991SOL    HW2 9873   6.159   3.391   5.746
 2992SOL     OW 9874   1.330   5.012   4.802
 2992SOL    HW1 9875   1.276   4.930   4.820
 2992SOL    HW2 9876   1.283   5.092   4.837
 2993SOL     OW 9877   0.598   5.009   1.393
 2993SOL    HW1 9878   0.649   4.932   1.356
 2993SOL    HW2 9879   0.575   4.990   1.489
 2994SOL     OW 9880   4.140   6.540   0.145
 2994SOL    HW1 9881   4.219   6.597   0.165
 2994SOL    HW2 9882   4.165   6.472   0.075
 2995SOL     OW 9883   3.919   0.998   6.488
 2995SOL    HW1 9884   3.980   1.060   6.537
 2995SOL    HW2 9885   3.824   1.024   6.503
 2996SOL     OW 9886   0.632   1.088   4.953
 2996SOL    HW1 9887   0.560   1.025   4.923
 2996SOL    HW2 9888   0.714   1.037   4.977
 2997SOL     OW 9889   4.764   0.111   3.176
 2997SOL    HW1 9890   4.731   0.164   3.254
 2997SOL    HW2 9891   4.814   0.031   3.209
 2998SOL     OW 9892   5.361   6.790   3.680
 2998SOL    HW1 9893   5.437   6.801   3.745
 2998SOL    HW2 9894   5.395   6.803   3.587
 2999SOL     OW 9895   2.395   5.281   5.559
 2999SOL    HW1 9896   2.459   5.244   5.492
 2999SOL    HW2 9897   2.311   5.309   5.512
 3000SOL     OW 9898   3.196   4.166   6.070
 3000SOL    HW1 9899   3.150   4.087   6.109
 3000SOL    HW2 9900   3.281   4.183   6.118
 3001SOL     OW 9901   6.578   1.323   6.729
 3001SOL    HW1 9902   6.586   1.232   6.687
 3001SOL    HW2 9903   6.566   1.391   6.657
 3002SOL     OW 9904   3.592   2.015   0.302
 3002SOL    HW1 9905   3.673   2.029   0.245
 3002SOL    HW2 9906   3.510   2.043   0.251
 3003SOL     OW 9907   0.577   6.962   0.913
 3003SOL    HW1 9908   0.658   7.001   0.958
 3003SOL    HW2 9909   0.569   6.865   0.938
 3004SOL     OW 9910   0.873   4.147   2.413
 3004SOL    HW1 9911   0.821   4.226   2.446
 3004SOL    HW2 9912   0.967   4.175   2.391
 3005SOL     OW 9913   1.370   2.485   0.022
 3005SOL    HW1 9914   1.279   2.512   0.054
 3005SOL    HW2 9915   1.433   2.482   0.099
 3006SOL     OW 9916   5.536   2.431   4.554
 3006SOL    HW1 9917   5.521   2.530   4.565
 3006SOL    HW2 9918   5.497   2.401   4.468
 3007SOL     OW 9919   5.351   4.110   1.019
 3007SOL    HW1 9920   5.333   4.181   1.088
 3007SOL    HW2 9921   5.446   4.116   0.989
 3008SOL     OW 9922   2.995   2.495   6.448
 3008SOL    HW1 9923   2.932   2.528   6.378
 3008SOL    HW2 9924   3.061   2.567   6.470
 3009SOL     OW 9925   6.434   2.494   2.789
 3009SOL    HW1 9926   6.505   2.548   2.833
 3009SOL    HW2 9927   6.389   2.436   2.857
 3010SOL     OW 9928   2.878   5.942   3.338
 3010SOL    HW1 9929   2.911   5.849   3.351
 3010SOL    HW2 9930   2.798   5.941   3.277
 3011SOL     OW 9931   5.597   1.257   2.824
 3011SOL    HW1 9932   5.563   1.163   2.824
 3011SOL    HW2 9933   5.694   1.258   2.799
 3012SOL     OW 9934   2.448   3.127   6.532
 3012SOL    HW1 9935   2.508   3.057   6.569
 3012SOL    HW2 9936   2.493   3.174   6.457
 3013SOL     OW 9937   5.528   5.238   4.018
 3013SOL    HW1 9938   5.476   5.164   3.976
 3013SOL    HW2 9939   5.466   5.307   4.056
 3014SOL     OW 9940   4.786   2.237   5.311
 3014SOL    HW1 9941   4.796   2.273   5.218
 3014SOL    HW2 9942   4.699   2.188   5.319
 3015SOL     OW 9943   1.883   1.797   0.223
 3015SOL    HW1 9944   1.844   1.752   0.142
 3015SOL    HW2 9945   1.981   1.809   0.211
 3016SOL     OW 9946   3.359   6.288   4.446
 3016SOL    HW1 9947   3.421   6.211   4.457
 3016SOL    HW2 9948   3.348   6.335   4.534
 3017SOL     OW 9949   6.201   5.721   2.437
 3017SOL    HW1 9950   6.182   5.634   2.390
 3017SOL    HW2 9951   6.147   5.726   2.521
 3018SOL     OW 9952   2.968   0.203   6.654
 3018SOL    HW1 9953   2.947   0.106   6.656
 3018SOL    HW2 9954   2.883   0.255   6.639
 3019SOL     OW 9955   0.608   0.050   0.037
 3019SOL    HW1 9956   0.621   6.970   0.040
 3019SOL    HW2 9957   0.543   0.073   6.985
 3020SOL     OW 9958   3.897   3.134   0.737
 3020SOL    HW1 9959   3.923   3.231   0.740
 3020SOL    HW2 9960   3.972   3.078   0.773
 3021SOL     OW 9961   3.172   0.044   4.910
 3021SOL    HW1 9962   3.221   6.992   4.960
 3021SOL    HW2 9963   3.207   0.051   4.817
 3022SOL     OW 9964   4.340   5.054   4.501
 3022SOL    HW1 9965   4.240   5.061   4.506
 3022SOL    HW2 9966   4.377   5.140   4.466
 3023SOL     OW 9967   4.113   6.438   2.981
 3023SOL    HW1 9968   4.014   6.442   2.970
 3023SOL    HW2 9969   4.136   6.442   3.079
 3024SOL     OW 9970   5.546   6.902   4.455
 3024SOL    HW1 9971   5.475   6.967   4.430
 3024SOL    HW2 9972   5.549   6.892   4.555
 3025SOL     OW 9973   4.323   5.994   1.507
 3025SOL    HW1 9974   4.350   6.088   1.482
 3025SOL    HW2 9975   4.324   5.985   1.607
 3026SOL     OW 9976   0.233   1.371   5.960
 3026SOL    HW1 9977   0.182   1.309   6.020
 3026SOL    HW2 9978   0.322   1.331   5.939
 3027SOL     OW 9979   3.753   1.594   3.003
 3027SOL    HW1 9980   3.702   1.667   2.958
 3027SOL    HW2 9981   3.766   1.617   3.100
 3028SOL     OW 9982   1.290   3.220   5.783
 3028SOL    HW1 9983   1.272   3.240   5.686
 3028SOL    HW2 9984   1.254   3.130   5.805
 3029SOL     OW 9985   1.042   3.184   4.977
 3029SOL    HW1 9986   1.018   3.266   4.926
 3029SOL    HW2 9987   1.140   3.183   4.995
 3030SOL     OW 9988   1.200   2.901   0.780
 3030SOL    HW1 9989   1.283   2.942   0.742
 3030SOL    HW2 9990   1.155   2.967   0.841
 3031SOL     OW 9991   0.231   5.117   1.391
 3031SOL    HW1 9992   0.242   5.103   1.490
 3031SOL    HW2 9993   0.289   5.194   1.363
 3032SOL     OW 9994   1.971   6.826   1.812
 3032SOL    HW1 9995   2.025   6.815   1.895
 3032SOL    HW2 9996   1.928   6.738   1.788
 3033SOL     OW 9997   5.250   1.145   2.358
 3033SOL    HW1 9998   5.283   1.211   2.291
 3033SOL    HW2 9999   5.159   1.114   2.333
 3034SOL     OW10000   0.970   0.233   3.183
 3034SOL    HW110001   0.998   0.305   3.119
 3034SOL    HW210002   0.870   0.230   3.188
 3035SOL     OW10003   0.589   2.974   6.187
 3035SOL    HW110004   0.622   3.007   6.275
 3035SOL    HW210005   0.548   3.050   6.136
 3036SOL     OW10006   1.554   2.050   5.343
 3036SOL    HW110007   1.572   2.126   5.406
 3036SOL    HW210008   1.547   1.965   5.396
 3037SOL     OW10009   6.418   5.354   6.166
 3037SOL    HW110010   6.477   5.351   6.247
 3037SOL    HW210011   6.322   5.348   6.194
 3038SOL     OW10012   5.175   5.191   5.654
 3038SOL    HW110013   5.248   5.257   5.668
 3038SOL    HW210014   5.088   5.229   5.686
 3039SOL     OW10015   0.929   3.030   1.250
 3039SOL    HW110016   0.831   3.009   1.238
 3039SOL    HW210017   0.946   3.125   1.226
 3040SOL     OW10018   3.742   4.053   5.991
 3040SOL    HW110019   3.748   4.026   5.895
 3040SOL    HW210020   3.662   4.009   6.033
 3041SOL     OW10021   2.359   4.223   5.701
 3041SOL    HW110022   2.452   4.208   5.734
 3041SOL    HW210023   2.357   4.215   5.601
 3042SOL     OW10024   6.417   6.568   3.030
 3042SOL    HW110025   6.397   6.515   2.948
 3042SOL    HW210026   6.332   6.589   3.079
 3043SOL     OW10027   2.989   4.086   1.745
 3043SOL    HW110028   2.987   4.068   1.843
 3043SOL    HW210029   2.986   4.184   1.728
 3044SOL     OW10030   3.558   5.888   5.754
 3044SOL    HW110031   3.569   5.811   5.817
 3044SOL    HW210032   3.617   5.964   5.783
 3045SOL     OW10033   5.239   6.899   3.144
 3045SOL    HW110034   5.285   6.977   3.101
 3045SOL    HW210035   5.299   6.819   3.140
 3046SOL     OW10036   3.874   0.887   6.231
 3046SOL    HW110037   3.915   0.935   6.309
 3046SOL    HW210038   3.776   0.875   6.247
 3047SOL     OW10039   5.981   0.580   1.637
 3047SOL    HW110040   5.957   0.615   1.727
 3047SOL    HW210041   5.948   0.486   1.627
 3048SOL     OW10042   4.002   2.532   1.170
 3048SOL    HW110043   3.969   2.493   1.256
 3048SOL    HW210044   4.008   2.632   1.179
 3049SOL     OW10045   1.686   6.839   3.616
 3049SOL    HW110046   1.605   6.887   3.581
 3049SOL    HW210047   1.657   6.768   3.680
 3050SOL     OW10048   3.111   1.873   1.730
 3050SOL    HW110049   3.036   1.878   1.795
 3050SOL    HW210050   3.075   1.851   1.639
 3051SOL     OW10051   2.058   6.850   6.538
 3051SOL    HW110052   2.010   6.922   6.488
 3051SOL    HW210053   2.035   6.761   6.500
 3052SOL     OW10054   5.119   5.250   1.574
 3052SOL    HW110055   5.207   5.213   1.602
 3052SOL    HW210056   5.126   5.287   1.482
 3053SOL     OW10057   6.639   3.221   1.036
 3053SOL    HW110058   6.676   3.293   0.977
 3053SOL    HW210059   6.585   3.263   1.109
 3054SOL     OW10060   5.660   2.067   1.528
 3054SOL    HW110061   5.713   2.064   1.612
 3054SOL    HW210062   5.673   2.156   1.484
 3055SOL     OW10063   5.364   0.125   5.120
 3055SOL    HW110064   5.282   0.117   5.177
 3055SOL    HW210065   5.394   0.221   5.119
 3056SOL     OW10066   5.980   1.077   5.980
 3056SOL    HW110067   6.008   1.153   6.039
 3056SOL    HW210068   5.907   1.026   6.025
 3057SOL     OW10069   4.407   5.164   4.102
 3057SOL    HW110070   4.475   5.168   4.029
 3057SOL    HW210071   4.323   5.210   4.072
 3058SOL     OW10072   0.308   4.768   0.978
 3058SOL    HW110073   0.236   4.716   0.934
 3058SOL    HW210074   0.268   4.836   1.039
 3059SOL     OW10075   2.672   1.745   4.341
 3059SOL    HW110076   2.684   1.828   4.395
 3059SOL    HW210077   2.761   1.702   4.325
 3060SOL     OW10078   1.640   5.503   0.009
 3060SOL    HW110079   1.726   5.535   6.990
 3060SOL    HW210080   1.658   5.428   0.074
 3061SOL     OW10081   6.545   5.986   5.917
 3061SOL    HW110082   6.547   5.983   5.817
 3061SOL    HW210083   6.569   6.078   5.948
 3062SOL     OW10084   1.709   0.126   0.982
 3062SOL    HW110085   1.789   0.115   1.042
 3062SOL    HW210086   1.650   0.046   0.992
 3063SOL     OW10087   2.250   4.372   1.385
 3063SOL    HW110088   2.172   4.327   1.341
 3063SOL    HW210089   2.245   4.471   1.370
 3064SOL     OW10090   4.751   3.375   0.521
 3064SOL    HW110091   4.719   3.316   0.446
 3064SOL    HW210092   4.837   3.340   0.557
 3065SOL     OW10093   1.378   2.715   6.574
 3065SOL    HW110094   1.368   2.649   6.648
 3065SOL    HW210095   1.289   2.758   6.556
 3066SOL     OW10096   5.188   4.750   0.614
 3066SOL    HW110097   5.176   4.828   0.676
 3066SOL    HW210098   5.179   4.781   0.519
 3067SOL     OW10099   4.023   1.169   6.104
 3067SOL    HW110100   3.995   1.140   6.012
 3067SOL    HW210101   3.944   1.207   6.152
 3068SOL     OW10102   0.084   6.422   1.483
 3068SOL    HW110103   0.141   6.503   1.493
 3068SOL    HW210104   0.142   6.340   1.489
 3069SOL     OW10105   6.749   6.443   2.336
 3069SOL    HW110106   6.750   6.395   2.248
 3069SOL    HW210107   6.774   6.539   2.323
 3070SOL     OW10108   2.777   1.025   6.795
 3070SOL    HW110109   2.865   0.986   6.769
 3070SOL    HW210110   2.791   1.111   6.843
 3071SOL     OW10111   6.562   6.580   4.381
 3071SOL    HW110112   6.500   6.516   4.424
 3071SOL    HW210113   6.555   6.669   4.426
 3072SOL     OW10114   2.410   5.405   6.270
 3072SOL    HW110115   2.467   5.460   6.208
 3072SOL    HW210116   2.319   5.447   6.277
 3073SOL     OW10117   0.036   3.540   3.321
 3073SOL    HW110118   6.994   3.618   3.313
 3073SOL    HW210119   0.127   3.572   3.346
 3074SOL     OW10120   6.948   4.205   1.160
 3074SOL    HW110121   6.940   4.203   1.061
 3074SOL    HW210122   6.965   4.298   1.191
 3075SOL     OW10123   2.379   5.508   2.745
 3075SOL    HW110124   2.328   5.475   2.824
 3075SOL    HW210125   2.321   5.504   2.664
 3076SOL     OW10126   6.401   1.263   3.735
 3076SOL    HW110127   6.341   1.223   3.665
 3076SOL    HW210128   6.430   1.354   3.706
 3077SOL     OW10129   5.402   4.567   1.828
 3077SOL    HW110130   5.439   4.497   1.889
 3077SOL    HW210131   5.460   4.574   1.747
 3078SOL     OW10132   0.021   3.361   2.778
 3078SOL    HW110133   0.000   3.454   2.810
 3078SOL    HW210134   6.959   3.305   2.786
 3079SOL     OW10135   2.894   2.049   3.157
 3079SOL    HW110136   2.896   2.038   3.257
 3079SOL    HW210137   2.804   2.022   3.122
 3080SOL     OW10138   6.408   5.038   2.545
 3080SOL    HW110139   6.376   4.944   2.535
 3080SOL    HW210140   6.339   5.092   2.594
 3081SOL     OW10141   1.040   3.781   6.192
 3081SOL    HW110142   1.033   3.732   6.279
 3081SOL    HW210143   1.135   3.778   6.160
 3082SOL     OW10144   1.877   5.900   4.240
 3082SOL    HW110145   1.918   5.933   4.155
 3082SOL    HW210146   1.920   5.814   4.267
 3083SOL     OW10147   2.990   6.195   3.679
 3083SOL    HW110148   2.922   6.122   3.673
 3083SOL    HW210149   3.071   6.169   3.626
 3084SOL     OW10150   6.437   4.070   3.642
 3084SOL    HW110151   6.534   4.080   3.663
 3084SOL    HW210152   6.395   4.161   3.636
 3085SOL     OW10153   6.567   4.222   0.525
 3085SOL    HW110154   6.491   4.285   0.514
 3085SOL    HW210155   6.645   4.269   0.567
 3086SOL     OW10156   5.127   1.684   0.646
 3086SOL    HW110157   5.051   1.624   0.623
 3086SOL    HW210158   5.116   1.771   0.599
 3087SOL     OW10159   2.192   6.614   3.599
 3087SOL    HW110160   2.151   6.684   3.541
 3087SOL    HW210161   2.172   6.524   3.562
 3088SOL     OW10162   2.272   4.265   4.843
 3088SOL    HW110163   2.316   4.187   4.886
 3088SOL    HW210164   2.274   4.254   4.744
 3089SOL     OW10165   3.463   1.612   4.580
 3089SOL    HW110166   3.538   1.674   4.603
 3089SOL    HW210167   3.499   1.521   4.560
 3090SOL     OW10168   2.229   1.432   1.688
 3090SOL    HW110169   2.296   1.504   1.668
 3090SOL    HW210170   2.155   1.470   1.745
 3091SOL     OW10171   1.662   1.161   0.660
 3091SOL    HW110172   1.644   1.240   0.601
 3091SOL    HW210173   1.666   1.191   0.755
 3092SOL     OW10174   5.512   0.193   0.788
 3092SOL    HW110175   5.541   0.109   0.833
 3092SOL    HW210176   5.488   0.261   0.857
 3093SOL     OW10177   5.091   5.700   6.702
 3093SOL    HW110178   5.115   5.724   6.608
 3093SOL    HW210179   4.993   5.710   6.715
 3094SOL     OW10180   2.490   0.284   4.034
 3094SOL    HW110181   2.483   0.312   3.939
 3094SOL    HW210182   2.411   0.227   4.058
 3095SOL     OW10183   2.497   4.179   5.389
 3095SOL    HW110184   2.464   4.269   5.361
 3095SOL    HW210185   2.471   4.111   5.320
 3096SOL     OW10186   0.768   5.119   5.314
 3096SOL    HW110187   0.816   5.092   5.398
 3096SOL    HW210188   0.829   5.105   5.235
 3097SOL     OW10189   5.630   3.655   6.891
 3097SOL    HW110190   5.607   3.752   6.899
 3097SOL    HW210191   5.726   3.645   6.865
 3098SOL     OW10192   1.845   3.224   1.814
 3098SOL    HW110193   1.879   3.137   1.781
 3098SOL    HW210194   1.838   3.289   1.738
 3099SOL     OW10195   1.228   6.247   3.958
 3099SOL    HW110196   1.216   6.309   4.036
 3099SOL    HW210197   1.185   6.159   3.978
 3100SOL     OW10198   6.690   6.040   3.799
 3100SOL    HW110199   6.676   6.093   3.715
 3100SOL    HW210200   6.607   6.043   3.854
 3101SOL     OW10201   6.244   6.003   6.632
 3101SOL    HW110202   6.232   5.917   6.682
 3101SOL    HW210203   6.228   5.988   6.535
 3102SOL     OW10204   6.104   0.179   1.666
 3102SOL    HW110205   6.155   0.204   1.584
 3102SOL    HW210206   6.021   0.129   1.641
 3103SOL     OW10207   4.140   1.757   1.874
 3103SOL    HW110208   4.067   1.688   1.875
 3103SOL    HW210209   4.145   1.800   1.964
 3104SOL     OW10210   4.347   0.625   6.326
 3104SOL    HW110211   4.415   0.676   6.275
 3104SOL    HW210212   4.381   0.607   6.419
 3105SOL     OW10213   6.025   4.216   1.353
 3105SOL    HW110214   6.003   4.142   1.415
 3105SOL    HW210215   6.120   4.208   1.322
 3106SOL     OW10216   4.511   6.934   4.573
 3106SOL    HW110217   4.584   6.962   4.511
 3106SOL    HW210218   4.422   6.942   4.527
 3107SOL     OW10219   3.590   0.776   4.471
 3107SOL    HW110220   3.588   0.766   4.570
 3107SOL    HW210221   3.520   0.719   4.430
 3108SOL     OW10222   2.584   5.623   5.064
 3108SOL    HW110223   2.570   5.584   4.973
 3108SOL    HW210224   2.575   5.551   5.133
 3109SOL     OW10225   5.724   6.853   3.699
 3109SOL    HW110226   5.784   6.828   3.775
 3109SOL    HW210227   5.731   6.952   3.682
 3110SOL     OW10228   1.502   3.787   3.155
 3110SOL    HW110229   1.445   3.747   3.083
 3110SOL    HW210230   1.443   3.830   3.224
 3111SOL     OW10231   6.893   4.943   3.224
 3111SOL    HW110232   6.915   5.037   3.250
 3111SOL    HW210233   6.799   4.940   3.189
 3112SOL     OW10234   3.289   2.830   0.115
 3112SOL    HW110235   3.201   2.798   0.151
 3112SOL    HW210236   3.278   2.921   0.075
 3113SOL     OW10237   3.248   4.871   2.970
 3113SOL    HW110238   3.279   4.966   2.976
 3113SOL    HW210239   3.189   4.861   2.890
 3114SOL     OW10240   3.326   1.651   7.003
 3114SOL    HW110241   3.346   1.749   6.992
 3114SOL    HW210242   3.388   1.612   0.052
 3115SOL     OW10243   3.866   4.522   5.946
 3115SOL    HW110244   3.862   4.422   5.943
 3115SOL    HW210245   3.788   4.556   6.000
 3116SOL     OW10246   6.635   1.994   6.730
 3116SOL    HW110247   6.580   2.049   6.794
 3116SOL    HW210248   6.629   2.034   6.639
 3117SOL     OW10249   4.539   4.038   5.545
 3117SOL    HW110250   4.466   4.074   5.488
 3117SOL    HW210251   4.579   4.113   5.599
 3118SOL     OW10252   1.057   4.861   2.187
 3118SOL    HW110253   0.959   4.845   2.175
 3118SOL    HW210254   1.106   4.774   2.177
 3119SOL     OW10255   2.402   2.639   0.113
 3119SOL    HW110256   2.420   2.548   0.149
 3119SOL    HW210257   2.340   2.633   0.034
 3120SOL     OW10258   2.657   0.547   6.128
 3120SOL    HW110259   2.751   0.582   6.132
 3120SOL    HW210260   2.613   0.560   6.217
 3121SOL     OW10261   6.222   1.658   4.774
 3121SOL    HW110262   6.143   1.618   4.727
 3121SOL    HW210263   6.224   1.756   4.757
 3122SOL     OW10264   4.847   5.717   5.747
 3122SOL    HW110265   4.917   5.650   5.772
 3122SOL    HW210266   4.852   5.736   5.649
 3123SOL     OW10267   2.469   1.730   2.232
 3123SOL    HW110268   2.532   1.719   2.155
 3123SOL    HW210269   2.413   1.648   2.241
 3124SOL     OW10270   4.942   0.161   4.511
 3124SOL    HW110271   4.923   0.243   4.566
 3124SOL    HW210272   5.027   0.174   4.459
 3125SOL     OW10273   1.282   3.499   5.747
 3125SOL    HW110274   1.299   3.404   5.774
 3125SOL    HW210275   1.346   3.525   5.674
 3126SOL     OW10276   6.027   4.133   5.536
 3126SOL    HW110277   5.978   4.219   5.518
 3126SOL    HW210278   5.973   4.057   5.500
 3127SOL     OW10279   1.980   2.193   6.694
 3127SOL    HW110280   1.938   2.159   6.778
 3127SOL    HW210281   2.066   2.145   6.677
 3128SOL     OW10282   3.356   1.401   6.173
 3128SOL    HW110283   3.321   1.478   6.225
 3128SOL    HW210284   3.282   1.335   6.158
 3129SOL     OW10285   6.487   3.763   7.015
 3129SOL    HW110286   6.444   3.814   6.941
 3129SOL    HW210287   6.490   3.666   6.990
 3130SOL     OW10288   2.141   4.397   2.113
 3130SOL    HW110289   2.144   4.361   2.020
 3130SOL    HW210290   2.059   4.453   2.125
 3131SOL     OW10291   0.472   3.260   1.499
 3131SOL    HW110292   0.446   3.210   1.582
 3131SOL    HW210293   0.390   3.296   1.455
 3132SOL     OW10294   5.057   5.264   6.658
 3132SOL    HW110295   4.999   5.221   6.589
 3132SOL    HW210296   5.122   5.198   6.694
 3133SOL     OW10297   3.192   0.860   3.072
 3133SOL    HW110298   3.106   0.910   3.078
 3133SOL    HW210299   3.245   0.894   2.995
 3134SOL     OW10300   4.104   4.157   1.110
 3134SOL    HW110301   4.170   4.171   1.036
 3134SOL    HW210302   4.120   4.068   1.152
 3135SOL     OW10303   4.871   0.177   5.864
 3135SOL    HW110304   4.933   0.247   5.900
 3135SOL    HW210305   4.858   0.191   5.766
 3136SOL     OW10306   5.170   0.123   2.446
 3136SOL    HW110307   5.187   0.030   2.478
 3136SOL    HW210308   5.114   0.120   2.364
 3137SOL     OW10309   6.389   0.405   2.627
 3137SOL    HW110310   6.468   0.349   2.652
 3137SOL    HW210311   6.320   0.347   2.584
 3138SOL     OW10312   0.160   6.125   3.764
 3138SOL    HW110313   0.126   6.034   3.738
 3138SOL    HW210314   0.125   6.149   3.854
 3139SOL     OW10315   4.023   5.513   0.145
 3139SOL    HW110316   3.989   5.488   0.054
 3139SOL    HW210317   3.947   5.510   0.210
 3140SOL     OW10318   6.496   6.135   6.588
 3140SOL    HW110319   6.422   6.069   6.576
 3140SOL    HW210320   6.479   6.215   6.530
 3141SOL     OW10321   1.170   0.777   6.686
 3141SOL    HW110322   1.138   0.682   6.689
 3141SOL    HW210323   1.203   0.798   6.594
 3142SOL     OW10324   2.761   6.946   2.488
 3142SOL    HW110325   2.688   6.968   2.424
 3142SOL    HW210326   2.758   7.010   2.566
 3143SOL     OW10327   6.304   1.779   0.189
 3143SOL    HW110328   6.344   1.803   0.101
 3143SOL    HW210329   6.204   1.786   0.184
 3144SOL     OW10330   4.289   3.837   0.936
 3144SOL    HW110331   4.328   3.767   0.876
 3144SOL    HW210332   4.225   3.894   0.883
 3145SOL     OW10333   2.129   6.426   1.874
 3145SOL    HW110334   2.077   6.397   1.954
 3145SOL    HW210335   2.145   6.348   1.814
 3146SOL     OW10336   0.523   1.719   4.492
 3146SOL    HW110337   0.604   1.661   4.479
 3146SOL    HW210338   0.503   1.767   4.407
 3147SOL     OW10339   2.854   5.178   0.449
 3147SOL    HW110340   2.903   5.177   0.536
 3147SOL    HW210341   2.769   5.229   0.459
 3148SOL     OW10342   6.747   6.908   3.427
 3148SOL    HW110343   6.728   6.811   3.413
 3148SOL    HW210344   6.826   6.935   3.373
 3149SOL     OW10345   3.388   0.783   6.196
 3149SOL    HW110346   3.397   0.704   6.136
 3149SOL    HW210347   3.469   0.841   6.187
 3150SOL     OW10348   6.449   5.732   5.309
 3150SOL    HW110349   6.352   5.757   5.318
 3150SOL    HW210350   6.456   5.642   5.265
 3151SOL     OW10351   0.676   1.307   4.771
 3151SOL    HW110352   0.639   1.242   4.837
 3151SOL    HW210353   0.691   1.260   4.684
 3152SOL     OW10354   0.664   5.202   0.772
 3152SOL    HW110355   0.601   5.190   0.848
 3152SOL    HW210356   0.634   5.279   0.716
 3153SOL     OW10357   6.363   5.600   0.442
 3153SOL    HW110358   6.376   5.553   0.355
 3153SOL    HW210359   6.396   5.694   0.434
 3154SOL     OW10360   7.006   1.965   6.623
 3154SOL    HW110361   6.959   1.878   6.630
 3154SOL    HW210362   0.079   1.951   6.587
 3155SOL     OW10363   6.640   4.629   0.558
 3155SOL    HW110364   6.585   4.606   0.478
 3155SOL    HW210365   6.700   4.706   0.536
 3156SOL     OW10366   3.235   2.957   2.204
 3156SOL    HW110367   3.299   2.933   2.131
 3156SOL    HW210368   3.268   2.918   2.290
 3157SOL     OW10369   2.272   1.704   5.650
 3157SOL    HW110370   2.266   1.758   5.565
 3157SOL    HW210371   2.220   1.749   5.722
 3158SOL     OW10372   3.419   1.517   4.094
 3158SOL    HW110373   3.496   1.515   4.030
 3158SOL    HW210374   3.401   1.612   4.122
 3159SOL     OW10375   5.485   0.405   0.179
 3159SOL    HW110376   5.476   0.333   0.248
 3159SOL    HW210377   5.568   0.458   0.197
 3160SOL     OW10378   0.958   5.957   5.601
 3160SOL    HW110379   1.001   5.887   5.544
 3160SOL    HW210380   1.019   6.036   5.607
 3161SOL     OW10381   2.239   2.830   2.992
 3161SOL    HW110382   2.158   2.775   3.010
 3161SOL    HW210383   2.215   2.907   2.932
 3162SOL     OW10384   1.588   5.289   1.759
 3162SOL    HW110385   1.566   5.346   1.679
 3162SOL    HW210386   1.672   5.238   1.741
 3163SOL     OW10387   4.285   3.771   6.400
 3163SOL    HW110388   4.264   3.674   6.416
 3163SOL    HW210389   4.324   3.782   6.308
 3164SOL     OW10390   3.932   5.616   1.258
 3164SOL    HW110391   3.972   5.651   1.173
 3164SOL    HW210392   3.953   5.519   1.267
 3165SOL     OW10393   0.803   6.866   1.523
 3165SOL    HW110394   0.836   6.824   1.438
 3165SOL    HW210395   0.879   6.913   1.568
 3166SOL     OW10396   4.153   1.772   3.550
 3166SOL    HW110397   4.232   1.720   3.518
 3166SOL    HW210398   4.093   1.793   3.473
 3167SOL     OW10399   5.755   4.118   0.694
 3167SOL    HW110400   5.853   4.121   0.673
 3167SOL    HW210401   5.711   4.202   0.661
 3168SOL     OW10402   4.944   2.784   0.287
 3168SOL    HW110403   4.861   2.820   0.330
 3168SOL    HW210404   4.925   2.693   0.250
 3169SOL     OW10405   2.336   4.306   4.191
 3169SOL    HW110406   2.408   4.252   4.147
 3169SOL    HW210407   2.267   4.245   4.229
 3170SOL     OW10408   3.934   5.882   1.726
 3170SOL    HW110409   3.872   5.941   1.675
 3170SOL    HW210410   3.985   5.825   1.661
 3171SOL     OW10411   0.012   1.418   2.295
 3171SOL    HW110412   6.965   1.344   2.302
 3171SOL    HW210413   0.040   1.447   2.387
 3172SOL     OW10414   0.227   5.945   0.160
 3172SOL    HW110415   0.162   5.898   0.220
 3172SOL    HW210416   0.232   6.041   0.186
 3173SOL     OW10417   3.488   2.565   0.166
 3173SOL    HW110418   3.523   2.623   0.239
 3173SOL    HW210419   3.439   2.622   0.099
 3174SOL     OW10420   3.060   2.485   0.878
 3174SOL    HW110421   2.985   2.543   0.909
 3174SOL    HW210422   3.066   2.487   0.779
 3175SOL     OW10423   6.047   0.934   1.652
 3175SOL    HW110424   6.131   0.899   1.611
 3175SOL    HW210425   6.011   0.868   1.717
 3176SOL     OW10426   1.114   4.222   5.573
 3176SOL    HW110427   1.134   4.170   5.490
 3176SOL    HW210428   1.180   4.197   5.644
 3177SOL     OW10429   4.728   4.149   3.398
 3177SOL    HW110430   4.744   4.125   3.303
 3177SOL    HW210431   4.675   4.233   3.403
 3178SOL     OW10432   6.629   2.096   1.002
 3178SOL    HW110433   6.596   2.062   0.914
 3178SOL    HW210434   6.625   2.196   1.003
 3179SOL     OW10435   1.074   2.643   1.972
 3179SOL    HW110436   1.157   2.620   1.920
 3179SOL    HW210437   0.995   2.597   1.931
 3180SOL     OW10438   5.925   0.592   0.411
 3180SOL    HW110439   6.004   0.546   0.369
 3180SOL    HW210440   5.957   0.659   0.478
 3181SOL     OW10441   0.114   1.858   2.739
 3181SOL    HW110442   0.189   1.808   2.782
 3181SOL    HW210443   0.115   1.843   2.640
 3182SOL     OW10444   2.706   0.336   6.544
 3182SOL    HW110445   2.633   0.307   6.605
 3182SOL    HW210446   2.697   0.290   6.456
 3183SOL     OW10447   4.978   4.117   2.217
 3183SOL    HW110448   5.074   4.130   2.195
 3183SOL    HW210449   4.954   4.172   2.297
 3184SOL     OW10450   0.692   2.917   2.773
 3184SOL    HW110451   0.757   2.990   2.796
 3184SOL    HW210452   0.707   2.889   2.678
 3185SOL     OW10453   4.815   5.707   6.821
 3185SOL    HW110454   4.800   5.633   6.756
 3185SOL    HW210455   4.813   5.795   6.772
 3186SOL     OW10456   3.140   2.340   1.078
 3186SOL    HW110457   3.129   2.391   0.993
 3186SOL    HW210458   3.067   2.367   1.142
 3187SOL     OW10459   4.480   5.258   0.655
 3187SOL    HW110460   4.536   5.205   0.592
 3187SOL    HW210461   4.418   5.197   0.705
 3188SOL     OW10462   1.061   6.982   4.320
 3188SOL    HW110463   1.157   6.958   4.331
 3188SOL    HW210464   1.023   6.937   4.240
 3189SOL     OW10465   1.151   1.895   1.222
 3189SOL    HW110466   1.169   1.962   1.150
 3189SOL    HW210467   1.222   1.824   1.220
 3190SOL     OW10468   0.730   5.441   0.215
 3190SOL    HW110469   0.646   5.451   0.162
 3190SOL    HW210470   0.753   5.344   0.223
 3191SOL     OW10471   5.104   5.757   0.712
 3191SOL    HW110472   5.045   5.727   0.638
 3191SOL    HW210473   5.190   5.708   0.709
 3192SOL     OW10474   6.909   3.152   1.234
 3192SOL    HW110475   6.986   3.118   1.180
 3192SOL    HW210476   6.887   3.245   1.207
 3193SOL     OW10477   4.382   1.137   6.706
 3193SOL    HW110478   4.370   1.162   6.610
 3193SOL    HW210479   4.316   1.066   6.731
 3194SOL     OW10480   1.166   1.653   6.706
 3194SOL    HW110481   1.207   1.695   6.625
 3194SOL    HW210482   1.102   1.582   6.677
 3195SOL     OW10483   2.702   1.322   3.779
 3195SOL    HW110484   2.677   1.317   3.682
 3195SOL    HW210485   2.769   1.251   3.800
 3196SOL     OW10486   0.420   0.485   6.844
 3196SOL    HW110487   0.413   0.481   6.744
 3196SOL    HW210488   0.481   0.560   6.870
 3197SOL     OW10489   3.268   6.687   4.138
 3197SOL    HW110490   3.209   6.753   4.186
 3197SOL    HW210491   3.264   6.706   4.040
 3198SOL     OW10492   6.204   3.207   3.845
 3198SOL    HW110493   6.127   3.145   3.859
 3198SOL    HW210494   6.287   3.165   3.881
 3199SOL     OW10495   5.182   4.145   2.996
 3199SOL    HW110496   5.133   4.168   2.912
 3199SOL    HW210497   5.280   4.146   2.979
 3200SOL     OW10498   5.932   3.485   2.690
 3200SOL    HW110499   6.000   3.436   2.635
 3200SOL    HW210500   5.893   3.423   2.758
 3201SOL     OW10501   6.354   4.631   4.172
 3201SOL    HW110502   6.279   4.626   4.106
 3201SOL    HW210503   6.423   4.562   4.150
 3202SOL     OW10504   1.137   4.639   1.577
 3202SOL    HW110505   1.046   4.601   1.560
 3202SOL    HW210506   1.131   4.739   1.583
 3203SOL     OW10507   6.437   2.155   0.724
 3203SOL    HW110508   6.480   2.220   0.662
 3203SOL    HW210509   6.406   2.202   0.807
 3204SOL     OW10510   4.752   6.331   3.275
 3204SOL    HW110511   4.699   6.361   3.355
 3204SOL    HW210512   4.692   6.279   3.214
 3205SOL     OW10513   5.673   2.595   5.732
 3205SOL    HW110514   5.614   2.664   5.774
 3205SOL    HW210515   5.765   2.603   5.769
 3206SOL     OW10516   2.172   4.654   0.220
 3206SOL    HW110517   2.201   4.559   0.218
 3206SOL    HW210518   2.187   4.695   0.130
 3207SOL     OW10519   0.879   1.093   5.812
 3207SOL    HW110520   0.821   1.137   5.880
 3207SOL    HW210521   0.952   1.156   5.784
 3208SOL     OW10522   4.517   6.515   5.892
 3208SOL    HW110523   4.593   6.451   5.888
 3208SOL    HW210524   4.451   6.485   5.961
 3209SOL     OW10525   4.145   5.283   3.400
 3209SOL    HW110526   4.201   5.275   3.483
 3209SOL    HW210527   4.201   5.319   3.325
 3210SOL     OW10528   0.933   4.216   0.844
 3210SOL    HW110529   0.877   4.183   0.920
 3210SOL    HW210530   0.955   4.140   0.783
 3211SOL     OW10531   2.094   3.185   0.312
 3211SOL    HW110532   2.164   3.114   0.308
 3211SOL    HW210533   2.060   3.204   0.220
 3212SOL     OW10534   3.184   0.024   1.402
 3212SOL    HW110535   3.138   6.970   1.451
 3212SOL    HW210536   3.283   0.016   1.416
 3213SOL     OW10537   1.264   6.894   0.664
 3213SOL    HW110538   1.296   6.923   0.754
 3213SOL    HW210539   1.302   6.804   0.643
 3214SOL     OW10540   4.450   5.715   0.927
 3214SOL    HW110541   4.379   5.644   0.924
 3214SOL    HW210542   4.523   5.687   0.989
 3215SOL     OW10543   0.021   3.418   1.184
 3215SOL    HW110544   0.096   3.480   1.208
 3215SOL    HW210545   0.019   3.404   1.085
 3216SOL     OW10546   6.290   5.509   6.878
 3216SOL    HW110547   6.264   5.446   6.950
 3216SOL    HW210548   6.359   5.572   6.912
 3217SOL     OW10549   0.121   5.251   2.243
 3217SOL    HW110550   0.176   5.302   2.309
 3217SOL    HW210551   0.175   5.174   2.208
 3218SOL     OW10552   4.547   2.292   3.730
 3218SOL    HW110553   4.564   2.278   3.632
 3218SOL    HW210554   4.613   2.240   3.784
 3219SOL     OW10555   0.443   1.959   3.709
 3219SOL    HW110556   0.413   1.871   3.746
 3219SOL    HW210557   0.508   1.944   3.635
 3220SOL     OW10558   0.238   5.640   6.793
 3220SOL    HW110559   0.322   5.675   6.753
 3220SOL    HW210560   0.161   5.660   6.733
 3221SOL     OW10561   4.332   0.497   1.387
 3221SOL    HW110562   4.318   0.477   1.290
 3221SOL    HW210563   4.430   0.493   1.408
 3222SOL     OW10564   3.281   1.046   2.612
 3222SOL    HW110565   3.327   1.073   2.527
 3222SOL    HW210566   3.199   1.102   2.624
 3223SOL     OW10567   2.596   6.522   6.478
 3223SOL    HW110568   2.527   6.540   6.408
 3223SOL    HW210569   2.560   6.456   6.544
 3224SOL     OW10570   4.884   3.818   6.077
 3224SOL    HW110571   4.933   3.874   6.144
 3224SOL    HW210572   4.815   3.763   6.123
 3225SOL     OW10573   5.513   3.069   5.866
 3225SOL    HW110574   5.428   3.016   5.871
 3225SOL    HW210575   5.581   3.030   5.928
 3226SOL     OW10576   2.550   1.570   2.822
 3226SOL    HW110577   2.612   1.520   2.761
 3226SOL    HW210578   2.456   1.546   2.800
 3227SOL     OW10579   3.398   2.653   6.888
 3227SOL    HW110580   3.360   2.729   6.836
 3227SOL    HW210581   3.496   2.667   6.902
 3228SOL     OW10582   0.084   4.192   1.809
 3228SOL    HW110583   0.061   4.232   1.898
 3228SOL    HW210584   0.104   4.094   1.821
 3229SOL     OW10585   4.107   0.512   4.800
 3229SOL    HW110586   4.040   0.474   4.736
 3229SOL    HW210587   4.199   0.481   4.775
 3230SOL     OW10588   2.632   4.156   5.629
 3230SOL    HW110589   2.601   4.184   5.538
 3230SOL    HW210590   2.637   4.056   5.632
 3231SOL     OW10591   2.714   6.918   1.251
 3231SOL    HW110592   2.745   6.995   1.306
 3231SOL    HW210593   2.744   6.931   1.156
 3232SOL     OW10594   5.060   6.613   4.829
 3232SOL    HW110595   5.023   6.677   4.897
 3232SOL    HW210596   4.993   6.600   4.756
 3233SOL     OW10597   0.784   2.390   1.506
 3233SOL    HW110598   0.880   2.376   1.480
 3233SOL    HW210599   0.766   2.487   1.514
 3234SOL     OW10600   0.391   2.135   6.769
 3234SOL    HW110601   0.469   2.085   6.805
 3234SOL    HW210602   0.323   2.149   6.841
 3235SOL     OW10603   6.221   0.656   2.769
 3235SOL    HW110604   6.219   0.692   2.862
 3235SOL    HW210605   6.278   0.574   2.767
 3236SOL     OW10606   1.704   2.840   0.573
 3236SOL    HW110607   1.746   2.779   0.640
 3236SOL    HW210608   1.765   2.916   0.553
 3237SOL     OW10609   5.563   1.462   3.411
 3237SOL    HW110610   5.557   1.383   3.472
 3237SOL    HW210611   5.509   1.538   3.447
 3238SOL     OW10612   7.005   5.578   0.770
 3238SOL    HW110613   6.924   5.539   0.725
 3238SOL    HW210614   0.047   5.616   0.701
 3239SOL     OW10615   6.764   1.627   2.402
 3239SOL    HW110616   6.837   1.658   2.341
 3239SOL    HW210617   6.803   1.585   2.483
 3240SOL     OW10618   6.729   6.579   6.199
 3240SOL    HW110619   6.744   6.482   6.180
 3240SOL    HW210620   6.804   6.633   6.161
 3241SOL     OW10621   4.545   1.013   4.856
 3241SOL    HW110622   4.564   0.927   4.809
 3241SOL    HW210623   4.577   1.089   4.800
 3242SOL     OW10624   4.169   3.876   6.899
 3242SOL    HW110625   4.236   3.867   6.825
 3242SOL    HW210626   4.084   3.914   6.864
 3243SOL     OW10627   4.353   4.098   0.650
 3243SOL    HW110628   4.411   4.093   0.569
 3243SOL    HW210629   4.300   4.014   0.658
 3244SOL     OW10630   4.555   5.822   0.108
 3244SOL    HW110631   4.618   5.843   0.183
 3244SOL    HW210632   4.569   5.886   0.033
 3245SOL     OW10633   5.410   3.629   4.770
 3245SOL    HW110634   5.346   3.564   4.728
 3245SOL    HW210635   5.358   3.695   4.826
 3246SOL     OW10636   5.534   0.251   2.501
 3246SOL    HW110637   5.633   0.252   2.514
 3246SOL    HW210638   5.498   0.344   2.510
 3247SOL     OW10639   6.608   4.421   2.714
 3247SOL    HW110640   6.563   4.346   2.665
 3247SOL    HW210641   6.701   4.394   2.738
 3248SOL     OW10642   6.259   3.777   1.555
 3248SOL    HW110643   6.318   3.771   1.636
 3248SOL    HW210644   6.306   3.736   1.477
 3249SOL     OW10645   4.101   3.477   4.346
 3249SOL    HW110646   4.032   3.523   4.401
 3249SOL    HW210647   4.181   3.455   4.403
 3250SOL     OW10648   5.648   0.172   2.260
 3250SOL    HW110649   5.583   0.188   2.335
 3250SOL    HW210650   5.702   0.254   2.245
 3251SOL     OW10651   3.228   1.136   3.673
 3251SOL    HW110652   3.169   1.069   3.627
 3251SOL    HW210653   3.227   1.222   3.623
 3252SOL     OW10654   2.361   0.884   2.777
 3252SOL    HW110655   2.394   0.955   2.840
 3252SOL    HW210656   2.311   0.814   2.829
 3253SOL     OW10657   4.812   4.252   1.989
 3253SOL    HW110658   4.869   4.237   2.069
 3253SOL    HW210659   4.717   4.263   2.017
 3254SOL     OW10660   5.108   6.072   5.695
 3254SOL    HW110661   5.203   6.051   5.672
 3254SOL    HW210662   5.080   6.157   5.650
 3255SOL     OW10663   5.163   6.295   0.293
 3255SOL    HW110664   5.081   6.283   0.350
 3255SOL    HW210665   5.238   6.330   0.349
 3256SOL     OW10666   3.294   1.109   0.569
 3256SOL    HW110667   3.235   1.054   0.510
 3256SOL    HW210668   3.283   1.206   0.547
 3257SOL     OW10669   1.470   1.727   2.102
 3257SOL    HW110670   1.382   1.721   2.150
 3257SOL    HW210671   1.527   1.797   2.145
 3258SOL     OW10672   4.696   5.215   2.474
 3258SOL    HW110673   4.685   5.306   2.434
 3258SOL    HW210674   4.656   5.214   2.566
 3259SOL     OW10675   5.166   5.259   4.380
 3259SOL    HW110676   5.212   5.225   4.298
 3259SOL    HW210677   5.127   5.183   4.431
 3260SOL     OW10678   0.925   1.959   1.044
 3260SOL    HW110679   0.969   2.038   1.003
 3260SOL    HW210680   0.933   1.964   1.144
 3261SOL     OW10681   5.655   0.543   1.535
 3261SOL    HW110682   5.737   0.487   1.526
 3261SOL    HW210683   5.581   0.502   1.482
 3262SOL     OW10684   2.948   2.126   2.723
 3262SOL    HW110685   2.885   2.194   2.760
 3262SOL    HW210686   2.971   2.150   2.629
 3263SOL     OW10687   2.594   1.011   3.447
 3263SOL    HW110688   2.584   0.989   3.350
 3263SOL    HW210689   2.628   0.931   3.496
 3264SOL     OW10690   1.252   3.943   1.015
 3264SOL    HW110691   1.210   4.019   1.064
 3264SOL    HW210692   1.295   3.978   0.931
 3265SOL     OW10693   5.343   0.647   6.607
 3265SOL    HW110694   5.276   0.673   6.676
 3265SOL    HW210695   5.295   0.616   6.525
 3266SOL     OW10696   1.802   3.913   0.029
 3266SOL    HW110697   1.756   3.945   0.112
 3266SOL    HW210698   1.898   3.895   0.050
 3267SOL     OW10699   3.516   6.271   0.996
 3267SOL    HW110700   3.530   6.248   1.092
 3267SOL    HW210701   3.440   6.336   0.988
 3268SOL     OW10702   1.388   3.560   1.655
 3268SOL    HW110703   1.311   3.523   1.603
 3268SOL    HW210704   1.430   3.634   1.604
 3269SOL     OW10705   5.014   5.612   2.193
 3269SOL    HW110706   5.032   5.661   2.108
 3269SOL    HW210707   5.016   5.676   2.270
 3270SOL     OW10708   1.219   4.237   6.059
 3270SOL    HW110709   1.128   4.266   6.028
 3270SOL    HW210710   1.287   4.304   6.029
 3271SOL     OW10711   5.688   3.623   2.275
 3271SOL    HW110712   5.592   3.651   2.267
 3271SOL    HW210713   5.712   3.564   2.198
 3272SOL     OW10714   3.442   4.435   6.055
 3272SOL    HW110715   3.371   4.484   6.003
 3272SOL    HW210716   3.401   4.395   6.137
 3273SOL     OW10717   0.221   6.213   0.710
 3273SOL    HW110718   0.180   6.242   0.797
 3273SOL    HW210719   0.296   6.150   0.729
 3274SOL     OW10720   5.009   1.021   0.656
 3274SOL    HW110721   5.090   0.964   0.670
 3274SOL    HW210722   5.037   1.117   0.654
 3275SOL     OW10723   6.057   1.695   6.938
 3275SOL    HW110724   6.129   1.663   6.877
 3275SOL    HW210725   6.054   1.638   7.019
 3276SOL     OW10726   2.726   5.949   0.017
 3276SOL    HW110727   2.692   5.918   6.948
 3276SOL    HW210728   2.768   5.873   0.066
 3277SOL     OW10729   3.711   0.040   6.583
 3277SOL    HW110730   3.652   6.981   6.564
 3277SOL    HW210731   3.786   0.043   6.516
 3278SOL     OW10732   0.649   0.903   5.509
 3278SOL    HW110733   0.669   0.882   5.413
 3278SOL    HW210734   0.712   0.852   5.567
 3279SOL     OW10735   5.059   0.282   0.693
 3279SOL    HW110736   5.112   0.203   0.660
 3279SOL    HW210737   5.018   0.329   0.615
 3280SOL     OW10738   4.165   4.771   4.047
 3280SOL    HW110739   4.116   4.754   3.962
 3280SOL    HW210740   4.260   4.742   4.037
 3281SOL     OW10741   1.872   4.795   1.629
 3281SOL    HW110742   1.865   4.715   1.688
 3281SOL    HW210743   1.792   4.853   1.642
 3282SOL     OW10744   6.999   5.070   5.632
 3282SOL    HW110745   0.047   5.097   5.563
 3282SOL    HW210746   6.958   5.151   5.673
 3283SOL     OW10747   3.628   0.435   0.856
 3283SOL    HW110748   3.700   0.366   0.858
 3283SOL    HW210749   3.664   0.521   0.890
 3284SOL     OW10750   0.056   4.953   0.039
 3284SOL    HW110751   0.100   4.891   6.993
 3284SOL    HW210752   0.041   4.905   0.125
 3285SOL     OW10753   4.159   2.209   3.531
 3285SOL    HW110754   4.194   2.279   3.469
 3285SOL    HW210755   4.236   2.161   3.574
 3286SOL     OW10756   3.501   2.814   2.269
 3286SOL    HW110757   3.564   2.892   2.258
 3286SOL    HW210758   3.544   2.731   2.235
 3287SOL     OW10759   0.616   0.697   6.997
 3287SOL    HW110760   0.616   0.618   0.039
 3287SOL    HW210761   0.705   0.703   6.952
 3288SOL     OW10762   0.760   5.571   5.664
 3288SOL    HW110763   0.677   5.624   5.647
 3288SOL    HW210764   0.795   5.592   5.755
 3289SOL     OW10765   2.673   0.060   5.436
 3289SOL    HW110766   2.606   0.070   5.509
 3289SOL    HW210767   2.663   0.135   5.371
 3290SOL     OW10768   0.201   6.899   1.363
 3290SOL    HW110769   0.126   6.939   1.417
 3290SOL    HW210770   0.262   6.972   1.332
 3291SOL     OW10771   1.338   6.760   0.409
 3291SOL    HW110772   1.404   6.708   0.464
 3291SOL    HW210773   1.371   6.854   0.398
 3292SOL     OW10774   0.329   1.324   0.302
 3292SOL    HW110775   0.266   1.263   0.350
 3292SOL    HW210776   0.403   1.270   0.262
 3293SOL     OW10777   0.321   3.892   2.012
 3293SOL    HW110778   0.320   3.908   1.913
 3293SOL    HW210779   0.394   3.828   2.034
 3294SOL     OW10780   5.947   1.972   6.727
 3294SOL    HW110781   5.926   1.950   6.631
 3294SOL    HW210782   5.891   1.915   6.787
 3295SOL     OW10783   1.341   2.586   1.935
 3295SOL    HW110784   1.322   2.512   1.871
 3295SOL    HW210785   1.440   2.602   1.939
 3296SOL     OW10786   1.187   6.813   2.797
 3296SOL    HW110787   1.185   6.852   2.705
 3296SOL    HW210788   1.277   6.828   2.838
 3297SOL     OW10789   3.066   0.830   5.460
 3297SOL    HW110790   3.078   0.735   5.488
 3297SOL    HW210791   3.139   0.855   5.396
 3298SOL     OW10792   6.073   1.727   5.362
 3298SOL    HW110793   5.977   1.747   5.342
 3298SOL    HW210794   6.104   1.652   5.304
 3299SOL     OW10795   3.045   5.700   2.972
 3299SOL    HW110796   3.044   5.799   2.961
 3299SOL    HW210797   2.974   5.659   2.915
 3300SOL     OW10798   6.617   0.985   4.918
 3300SOL    HW110799   6.712   1.017   4.914
 3300SOL    HW210800   6.605   0.926   4.998
 3301SOL     OW10801   1.445   3.135   3.521
 3301SOL    HW110802   1.370   3.184   3.475
 3301SOL    HW210803   1.508   3.099   3.452
 3302SOL     OW10804   0.904   4.752   5.444
 3302SOL    HW110805   0.896   4.841   5.488
 3302SOL    HW210806   0.813   4.717   5.423
 3303SOL     OW10807   3.514   4.059   1.402
 3303SOL    HW110808   3.555   3.979   1.359
 3303SOL    HW210809   3.483   4.035   1.494
 3304SOL     OW10810   1.236   5.481   4.136
 3304SOL    HW110811   1.284   5.457   4.052
 3304SOL    HW210812   1.301   5.516   4.204
 3305SOL     OW10813   2.041   1.018   2.533
 3305SOL    HW110814   2.125   0.968   2.513
 3305SOL    HW210815   2.050   1.113   2.501
 3306SOL     OW10816   2.125   5.308   5.445
 3306SOL    HW110817   2.169   5.255   5.372
 3306SOL    HW210818   2.038   5.265   5.470
 3307SOL     OW10819   0.288   5.374   6.737
 3307SOL    HW110820   0.284   5.469   6.768
 3307SOL    HW210821   0.208   5.353   6.681
 3308SOL     OW10822   2.701   6.438   0.738
 3308SOL    HW110823   2.667   6.373   0.670
 3308SOL    HW210824   2.644   6.521   0.736
 3309SOL     OW10825   0.195   6.028   3.075
 3309SOL    HW110826   0.178   5.976   2.991
 3309SOL    HW210827   0.136   5.993   3.148
 3310SOL     OW10828   0.023   3.534   6.394
 3310SOL    HW110829   6.999   3.455   6.435
 3310SOL    HW210830   6.972   3.601   6.367
 3311SOL     OW10831   2.446   3.990   1.385
 3311SOL    HW110832   2.490   4.020   1.300
 3311SOL    HW210833   2.516   3.975   1.455
 3312SOL     OW10834   4.112   4.648   5.919
 3312SOL    HW110835   4.103   4.736   5.965
 3312SOL    HW210836   4.026   4.598   5.927
 3313SOL     OW10837   0.909   5.785   3.650
 3313SOL    HW110838   0.950   5.755   3.736
 3313SOL    HW210839   0.890   5.705   3.593
 3314SOL     OW10840   2.780   1.494   2.671
 3314SOL    HW110841   2.830   1.551   2.606
 3314SOL    HW210842   2.806   1.519   2.764
 3315SOL     OW10843   6.502   3.803   4.023
 3315SOL    HW110844   6.597   3.831   4.037
 3315SOL    HW210845   6.499   3.712   3.981
 3316SOL     OW10846   5.048   1.429   5.753
 3316SOL    HW110847   5.073   1.343   5.796
 3316SOL    HW210848   5.040   1.416   5.654
 3317SOL     OW10849   4.363   3.115   1.715
 3317SOL    HW110850   4.299   3.163   1.774
 3317SOL    HW210851   4.446   3.091   1.766
 3318SOL     OW10852   1.902   1.313   1.311
 3318SOL    HW110853   1.854   1.227   1.330
 3318SOL    HW210854   1.886   1.378   1.385
 3319SOL     OW10855   6.705   1.606   4.341
 3319SOL    HW110856   6.735   1.568   4.429
 3319SOL    HW210857   6.751   1.559   4.266
 3320SOL     OW10858   6.386   0.384   4.886
 3320SOL    HW110859   6.451   0.323   4.932
 3320SOL    HW210860   6.293   0.360   4.914
 3321SOL     OW10861   4.760   1.490   0.394
 3321SOL    HW110862   4.778   1.571   0.450
 3321SOL    HW210863   4.815   1.414   0.428
 3322SOL     OW10864   6.485   2.826   1.156
 3322SOL    HW110865   6.570   2.779   1.133
 3322SOL    HW210866   6.417   2.807   1.086
 3323SOL     OW10867   3.156   2.665   0.483
 3323SOL    HW110868   3.084   2.733   0.499
 3323SOL    HW210869   3.117   2.586   0.436
 3324SOL     OW10870   3.866   5.255   6.848
 3324SOL    HW110871   3.838   5.231   6.755
 3324SOL    HW210872   3.797   5.315   6.889
 3325SOL     OW10873   0.932   3.086   0.222
 3325SOL    HW110874   0.859   3.094   0.290
 3325SOL    HW210875   0.923   3.160   0.155
 3326SOL     OW10876   4.731   2.018   1.383
 3326SOL    HW110877   4.651   2.047   1.331
 3326SOL    HW210878   4.712   1.931   1.428
 3327SOL     OW10879   2.686   5.713   1.699
 3327SOL    HW110880   2.703   5.719   1.797
 3327SOL    HW210881   2.756   5.656   1.656
 3328SOL     OW10882   4.333   2.343   0.449
 3328SOL    HW110883   4.351   2.245   0.462
 3328SOL    HW210884   4.241   2.365   0.482
 3329SOL     OW10885   4.909   0.607   5.134
 3329SOL    HW110886   4.838   0.558   5.083
 3329SOL    HW210887   4.895   0.705   5.124
 3330SOL     OW10888   6.191   4.832   1.293
 3330SOL    HW110889   6.157   4.840   1.200
 3330SOL    HW210890   6.286   4.800   1.291
 3331SOL     OW10891   2.100   2.599   1.207
 3331SOL    HW110892   2.073   2.695   1.211
 3331SOL    HW210893   2.188   2.590   1.161
 3332SOL     OW10894   5.866   5.293   6.663
 3332SOL    HW110895   5.807   5.269   6.585
 3332SOL    HW210896   5.812   5.297   6.746
 3333SOL     OW10897   4.227   4.251   6.432
 3333SOL    HW110898   4.271   4.281   6.517
 3333SOL    HW210899   4.285   4.184   6.387
 3334SOL     OW10900   2.975   3.905   1.526
 3334SOL    HW110901   2.973   3.965   1.606
 3334SOL    HW210902   2.911   3.830   1.539
 3335SOL     OW10903   5.105   0.091   5.243
 3335SOL    HW110904   5.147   0.007   5.279
 3335SOL    HW210905   5.012   0.071   5.212
 3336SOL     OW10906   2.262   6.295   4.740
 3336SOL    HW110907   2.184   6.240   4.771
 3336SOL    HW210908   2.313   6.328   4.819
 3337SOL     OW10909   3.293   3.955   2.575
 3337SOL    HW110910   3.217   3.978   2.636
 3337SOL    HW210911   3.281   4.003   2.488
 3338SOL     OW10912   5.406   3.280   1.918
 3338SOL    HW110913   5.492   3.267   1.968
 3338SOL    HW210914   5.427   3.308   1.824
 3339SOL     OW10915   6.857   0.312   6.583
 3339SOL    HW110916   6.873   0.227   6.532
 3339SOL    HW210917   6.853   0.291   6.681
 3340SOL     OW10918   3.499   1.725   2.496
 3340SOL    HW110919   3.593   1.699   2.516
 3340SOL    HW210920   3.494   1.760   2.402
 3341SOL     OW10921   1.444   5.327   3.364
 3341SOL    HW110922   1.508   5.393   3.324
 3341SOL    HW210923   1.351   5.349   3.336
 3342SOL     OW10924   2.283   6.955   4.198
 3342SOL    HW110925   2.211   6.976   4.132
 3342SOL    HW210926   2.271   7.011   4.280
 3343SOL     OW10927   5.892   3.222   0.651
 3343SOL    HW110928   5.889   3.205   0.750
 3343SOL    HW210929   5.828   3.295   0.629
 3344SOL     OW10930   5.456   3.247   4.283
 3344SOL    HW110931   5.443   3.294   4.196
 3344SOL    HW210932   5.367   3.234   4.327
 3345SOL     OW10933   1.579   3.673   5.814
 3345SOL    HW110934   1.534   3.655   5.902
 3345SOL    HW210935   1.510   3.685   5.743
 3346SOL     OW10936   1.625   0.922   1.218
 3346SOL    HW110937   1.683   0.873   1.153
 3346SOL    HW210938   1.537   0.941   1.175
 3347SOL     OW10939   0.943   3.545   5.393
 3347SOL    HW110940   0.919   3.494   5.310
 3347SOL    HW210941   1.035   3.582   5.385
 3348SOL     OW10942   3.358   3.864   4.259
 3348SOL    HW110943   3.397   3.869   4.167
 3348SOL    HW210944   3.293   3.788   4.263
 3349SOL     OW10945   0.919   6.242   2.533
 3349SOL    HW110946   0.988   6.284   2.592
 3349SOL    HW210947   0.841   6.214   2.589
 3350SOL     OW10948   0.831   2.450   6.109
 3350SOL    HW110949   0.922   2.437   6.070
 3350SOL    HW210950   0.821   2.545   6.138
 3351SOL     OW10951   4.864   1.222   2.086
 3351SOL    HW110952   4.767   1.203   2.069
 3351SOL    HW210953   4.886   1.314   2.054
 3352SOL     OW10954   6.654   2.234   0.582
 3352SOL    HW110955   6.650   2.268   0.489
 3352SOL    HW210956   6.722   2.161   0.589
 3353SOL     OW10957   1.783   5.728   1.488
 3353SOL    HW110958   1.860   5.791   1.495
 3353SOL    HW210959   1.791   5.657   1.558
 3354SOL     OW10960   4.707   2.555   5.133
 3354SOL    HW110961   4.770   2.586   5.205
 3354SOL    HW210962   4.615   2.587   5.154
 3355SOL     OW10963   2.164   1.755   0.276
 3355SOL    HW110964   2.252   1.773   0.231
 3355SOL    HW210965   2.150   1.657   0.285
 3356SOL     OW10966   0.949   4.293   5.944
 3356SOL    HW110967   0.897   4.272   6.027
 3356SOL    HW210968   0.959   4.392   5.935
 3357SOL     OW10969   2.455   4.411   1.699
 3357SOL    HW110970   2.368   4.412   1.650
 3357SOL    HW210971   2.497   4.501   1.695
 3358SOL     OW10972   4.532   1.301   1.171
 3358SOL    HW110973   4.596   1.313   1.095
 3358SOL    HW210974   4.580   1.319   1.257
 3359SOL     OW10975   0.230   0.432   3.208
 3359SOL    HW110976   0.305   0.498   3.204
 3359SOL    HW210977   0.266   0.339   3.206
 3360SOL     OW10978   0.728   1.245   6.757
 3360SOL    HW110979   0.662   1.170   6.752
 3360SOL    HW210980   0.768   1.248   6.849
 3361SOL     OW10981   1.097   4.673   4.145
 3361SOL    HW110982   1.070   4.764   4.177
 3361SOL    HW210983   1.192   4.676   4.113
 3362SOL     OW10984   3.731   1.101   2.885
 3362SOL    HW110985   3.770   1.132   2.971
 3362SOL    HW210986   3.634   1.123   2.881
 3363SOL     OW10987   6.183   6.796   1.646
 3363SOL    HW110988   6.101   6.832   1.690
 3363SOL    HW210989   6.246   6.871   1.627
 3364SOL     OW10990   1.474   4.711   3.866
 3364SOL    HW110991   1.429   4.726   3.954
 3364SOL    HW210992   1.407   4.721   3.792
 3365SOL     OW10993   6.603   1.951   5.288
 3365SOL    HW110994   6.591   1.873   5.350
 3365SOL    HW210995   6.542   2.025   5.315
 3366SOL     OW10996   5.870   6.449   5.140
 3366SOL    HW110997   5.863   6.447   5.240
 3366SOL    HW210998   5.809   6.380   5.102
 3367SOL     OW10999   3.780   2.738   1.814
 3367SOL    HW111000   3.740   2.773   1.729
 3367SOL    HW211001   3.727   2.772   1.892
 3368SOL     OW11002   0.603   4.929   5.605
 3368SOL    HW111003   0.616   4.944   5.703
 3368SOL    HW211004   0.603   4.830   5.587
 3369SOL     OW11005   3.800   2.714   6.346
 3369SOL    HW111006   3.871   2.650   6.315
 3369SOL    HW211007   3.714   2.692   6.300
 3370SOL     OW11008   7.008   5.737   6.655
 3370SOL    HW111009   6.918   5.775   6.631
 3370SOL    HW211010   0.057   5.810   6.650
 3371SOL     OW11011   2.134   2.908   2.100
 3371SOL    HW111012   2.082   2.978   2.149
 3371SOL    HW211013   2.132   2.928   2.002
 3372SOL     OW11014   0.559   1.855   0.909
 3372SOL    HW111015   0.565   1.827   1.004
 3372SOL    HW211016   0.491   1.800   0.861
 3373SOL     OW11017   6.891   1.661   2.966
 3373SOL    HW111018   6.881   1.726   2.891
 3373SOL    HW211019   6.988   1.636   2.975
 3374SOL     OW11020   1.326   6.531   4.844
 3374SOL    HW111021   1.424   6.554   4.836
 3374SOL    HW211022   1.314   6.433   4.831
 3375SOL     OW11023   0.055   5.579   6.424
 3375SOL    HW111024   0.016   5.635   6.497
 3375SOL    HW211025   0.019   5.486   6.431
 3376SOL     OW11026   3.888   2.972   3.440
 3376SOL    HW111027   3.941   3.030   3.501
 3376SOL    HW211028   3.949   2.925   3.376
 3377SOL     OW11029   6.497   6.400   5.849
 3377SOL    HW111030   6.578   6.417   5.793
 3377SOL    HW211031   6.522   6.348   5.930
 3378SOL     OW11032   0.540   1.154   0.268
 3378SOL    HW111033   0.621   1.209   0.249
 3378SOL    HW211034   0.567   1.073   0.320
 3379SOL     OW11035   6.366   6.822   6.326
 3379SOL    HW111036   6.376   6.921   6.321
 3379SOL    HW211037   6.333   6.796   6.417
 3380SOL     OW11038   5.889   6.897   5.212
 3380SOL    HW111039   5.979   6.857   5.196
 3380SOL    HW211040   5.896   6.997   5.216
 3381SOL     OW11041   0.938   2.778   1.122
 3381SOL    HW111042   1.026   2.732   1.112
 3381SOL    HW211043   0.949   2.860   1.178
 3382SOL     OW11044   0.272   2.286   0.605
 3382SOL    HW111045   0.176   2.263   0.590
 3382SOL    HW211046   0.319   2.208   0.646
 3383SOL     OW11047   4.540   5.768   1.736
 3383SOL    HW111048   4.522   5.786   1.639
 3383SOL    HW211049   4.631   5.802   1.760
 3384SOL     OW11050   2.789   3.400   6.211
 3384SOL    HW111051   2.725   3.440   6.146
 3384SOL    HW211052   2.853   3.470   6.243
 3385SOL     OW11053   6.724   3.177   4.138
 3385SOL    HW111054   6.636   3.214   4.111
 3385SOL    HW211055   6.726   3.162   4.237
 3386SOL     OW11056   5.500   4.466   6.792
 3386SOL    HW111057   5.483   4.462   6.891
 3386SOL    HW211058   5.553   4.386   6.764
 3387SOL     OW11059   3.438   0.662   3.154
 3387SOL    HW111060   3.490   0.741   3.121
 3387SOL    HW211061   3.385   0.623   3.078
 3388SOL     OW11062   5.217   3.112   2.012
 3388SOL    HW111063   5.292   3.164   1.972
 3388SOL    HW211064   5.243   3.015   2.017
 3389SOL     OW11065   5.399   5.149   6.017
 3389SOL    HW111066   5.474   5.212   6.035
 3389SOL    HW211067   5.427   5.082   5.949
 3390SOL     OW11068   4.980   5.968   6.375
 3390SOL    HW111069   5.017   6.061   6.385
 3390SOL    HW211070   5.037   5.905   6.428
 3391SOL     OW11071   4.978   3.294   5.435
 3391SOL    HW111072   4.879   3.301   5.431
 3391SOL    HW211073   5.005   3.198   5.436
 3392SOL     OW11074   2.865   6.635   3.670
 3392SOL    HW111075   2.954   6.590   3.656
 3392SOL    HW211076   2.848   6.700   3.597
 3393SOL     OW11077   0.270   6.361   6.772
 3393SOL    HW111078   0.220   6.286   6.814
 3393SOL    HW211079   0.228   6.448   6.799
 3394SOL     OW11080   5.554   3.605   1.894
 3394SOL    HW111081   5.512   3.576   1.980
 3394SOL    HW211082   5.558   3.527   1.831
 3395SOL     OW11083   5.192   3.117   3.146
 3395SOL    HW111084   5.191   3.108   3.246
 3395SOL    HW211085   5.283   3.147   3.117
 3396SOL     OW11086   4.373   2.011   3.541
 3396SOL    HW111087   4.472   1.994   3.547
 3396SOL    HW211088   4.325   1.923   3.534
 3397SOL     OW11089   2.593   0.279   5.812
 3397SOL    HW111090   2.567   0.373   5.789
 3397SOL    HW211091   2.691   0.276   5.830
 3398SOL     OW11092   0.553   6.702   4.709
 3398SOL    HW111093   0.544   6.636   4.784
 3398SOL    HW211094   0.464   6.744   4.691
 3399SOL     OW11095   5.730   4.189   3.835
 3399SOL    HW111096   5.803   4.173   3.901
 3399SOL    HW211097   5.686   4.102   3.812
 3400SOL     OW11098   4.743   3.266   5.657
 3400SOL    HW111099   4.742   3.302   5.564
 3400SOL    HW211100   4.655   3.284   5.701
 3401SOL     OW11101   7.001   3.065   0.840
 3401SOL    HW111102   0.003   3.155   0.877
 3401SOL    HW211103   6.926   3.025   0.892
 3402SOL     OW11104   4.136   6.051   6.821
 3402SOL    HW111105   4.037   6.049   6.810
 3402SOL    HW211106   4.164   5.981   6.886
 3403SOL     OW11107   3.931   5.426   4.888
 3403SOL    HW111108   3.906   5.352   4.950
 3403SOL    HW211109   3.905   5.402   4.795
 3404SOL     OW11110   4.974   1.234   6.990
 3404SOL    HW111111   4.931   1.207   6.903
 3404SOL    HW211112   4.902   1.252   0.038
 3405SOL     OW11113   6.743   3.875   4.572
 3405SOL    HW111114   6.753   3.841   4.665
 3405SOL    HW211115   6.716   3.972   4.575
 3406SOL     OW11116   0.860   4.242   1.640
 3406SOL    HW111117   0.954   4.211   1.631
 3406SOL    HW211118   0.857   4.342   1.636
 3407SOL     OW11119   1.406   5.044   5.985
 3407SOL    HW111120   1.430   4.950   5.960
 3407SOL    HW211121   1.485   5.087   6.029
 3408SOL     OW11122   4.820   3.882   5.187
 3408SOL    HW111123   4.918   3.881   5.208
 3408SOL    HW211124   4.793   3.792   5.152
 3409SOL     OW11125   3.618   6.543   6.501
 3409SOL    HW111126   3.612   6.537   6.601
 3409SOL    HW211127   3.585   6.458   6.461
 3410SOL     OW11128   6.817   6.631   1.077
 3410SOL    HW111129   6.849   6.541   1.107
 3410SOL    HW211130   6.862   6.656   0.991
 3411SOL     OW11131   0.550   2.710   1.728
 3411SOL    HW111132   0.513   2.627   1.686
 3411SOL    HW211133   0.517   2.790   1.678
 3412SOL     OW11134   4.511   2.549   0.383
 3412SOL    HW111135   4.449   2.474   0.406
 3412SOL    HW211136   4.572   2.520   0.309
 3413SOL     OW11137   5.601   1.440   0.942
 3413SOL    HW111138   5.637   1.366   0.999
 3413SOL    HW211139   5.615   1.528   0.988
 3414SOL     OW11140   3.176   0.583   5.517
 3414SOL    HW111141   3.250   0.536   5.564
 3414SOL    HW211142   3.194   0.583   5.418
 3415SOL     OW11143   1.854   3.809   4.767
 3415SOL    HW111144   1.808   3.721   4.753
 3415SOL    HW211145   1.951   3.792   4.789
 3416SOL     OW11146   0.236   5.802   0.854
 3416SOL    HW111147   0.202   5.764   0.768
 3416SOL    HW211148   0.291   5.883   0.834
 3417SOL     OW11149   0.768   6.265   3.020
 3417SOL    HW111150   0.756   6.340   2.956
 3417SOL    HW211151   0.854   6.276   3.069
 3418SOL     OW11152   3.618   0.480   3.956
 3418SOL    HW111153   3.673   0.440   4.029
 3418SOL    HW211154   3.569   0.408   3.907
 3419SOL     OW11155   2.721   5.831   4.964
 3419SOL    HW111156   2.767   5.899   5.021
 3419SOL    HW211157   2.691   5.755   5.022
 3420SOL     OW11158   5.590   3.012   4.365
 3420SOL    HW111159   5.681   3.039   4.398
 3420SOL    HW211160   5.549   3.088   4.315
 3421SOL     OW11161   5.444   1.200   5.267
 3421SOL    HW111162   5.483   1.263   5.200
 3421SOL    HW211163   5.457   1.106   5.237
 3422SOL     OW11164   2.189   0.468   0.629
 3422SOL    HW111165   2.229   0.556   0.606
 3422SOL    HW211166   2.182   0.412   0.546
 3423SOL     OW11167   0.477   4.602   6.862
 3423SOL    HW111168   0.446   4.507   6.856
 3423SOL    HW211169   0.467   4.634   6.956
 3424SOL     OW11170   2.937   6.664   1.349
 3424SOL    HW111171   2.917   6.738   1.413
 3424SOL    HW211172   2.951   6.578   1.400
 3425SOL     OW11173   5.919   4.853   2.738
 3425SOL    HW111174   5.878   4.823   2.824
 3425SOL    HW211175   5.853   4.840   2.663
 3426SOL     OW11176   4.159   2.843   0.585
 3426SOL    HW111177   4.137   2.912   0.516
 3426SOL    HW211178   4.110   2.864   0.670
 3427SOL     OW11179   6.527   0.271   0.399
 3427SOL    HW111180   6.450   0.294   0.339
 3427SOL    HW211181   6.495   0.262   0.493
 3428SOL     OW11182   2.088   5.324   0.238
 3428SOL    HW111183   2.166   5.340   0.298
 3428SOL    HW211184   2.098   5.236   0.193
 3429SOL     OW11185   0.511   1.928   0.399
 3429SOL    HW111186   0.525   2.014   0.350
 3429SOL    HW211187   0.416   1.898   0.388
 3430SOL     OW11188   1.268   6.824   5.165
 3430SOL    HW111189   1.248   6.782   5.253
 3430SOL    HW211190   1.360   6.864   5.167
 3431SOL     OW11191   0.854   6.800   1.143
 3431SOL    HW111192   0.814   6.738   1.076
 3431SOL    HW211193   0.894   6.748   1.218
 3432SOL     OW11194   1.903   2.627   6.967
 3432SOL    HW111195   1.940   2.706   6.918
 3432SOL    HW211196   1.903   2.646   0.046
 3433SOL     OW11197   1.315   0.300   5.906
 3433SOL    HW111198   1.299   0.340   5.996
 3433SOL    HW211199   1.234   0.249   5.877
 3434SOL     OW11200   4.275   1.411   1.236
 3434SOL    HW111201   4.371   1.383   1.229
 3434SOL    HW211202   4.257   1.484   1.170
 3435SOL     OW11203   0.225   1.470   0.887
 3435SOL    HW111204   0.156   1.449   0.957
 3435SOL    HW211205   0.288   1.393   0.879
 3436SOL     OW11206   3.627   6.058   6.603
 3436SOL    HW111207   3.542   6.043   6.551
 3436SOL    HW211208   3.604   6.094   6.693
 3437SOL     OW11209   2.317   1.054   6.091
 3437SOL    HW111210   2.356   1.039   6.000
 3437SOL    HW211211   2.234   1.110   6.083
 3438SOL     OW11212   1.102   3.058   7.010
 3438SOL    HW111213   1.058   3.068   6.921
 3438SOL    HW211214   1.033   3.038   0.060
 3439SOL     OW11215   2.079   6.119   4.867
 3439SOL    HW111216   2.025   6.089   4.945
 3439SOL    HW211217   2.147   6.049   4.845
 3440SOL     OW11218   3.234   3.780   1.180
 3440SOL    HW111219   3.329   3.812   1.178
 3440SOL    HW211220   3.222   3.704   1.117
 3441SOL     OW11221   5.182   6.942   4.850
 3441SOL    HW111222   5.189   6.924   4.949
 3441SOL    HW211223   5.205   6.859   4.800
 3442SOL     OW11224   2.621   4.914   2.056
 3442SOL    HW111225   2.580   4.864   2.133
 3442SOL    HW211226   2.557   4.984   2.024
 3443SOL     OW11227   5.306   6.183   1.332
 3443SOL    HW111228   5.393   6.173   1.381
 3443SOL    HW211229   5.267   6.093   1.314
 3444SOL     OW11230   4.942   5.382   0.221
 3444SOL    HW111231   4.920   5.463   0.168
 3444SOL    HW211232   4.937   5.403   0.319
 3445SOL     OW11233   6.623   5.385   3.906
 3445SOL    HW111234   6.627   5.305   3.846
 3445SOL    HW211235   6.580   5.461   3.857
 3446SOL     OW11236   5.852   1.093   2.484
 3446SOL    HW111237   5.826   1.144   2.402
 3446SOL    HW211238   5.908   1.014   2.458
 3447SOL     OW11239   6.035   5.352   0.942
 3447SOL    HW111240   6.073   5.276   0.890
 3447SOL    HW211241   6.063   5.438   0.899
 3448SOL     OW11242   3.663   0.590   0.607
 3448SOL    HW111243   3.581   0.645   0.591
 3448SOL    HW211244   3.662   0.555   0.700
 3449SOL     OW11245   6.079   6.464   4.018
 3449SOL    HW111246   6.116   6.389   3.964
 3449SOL    HW211247   5.989   6.490   3.981
 3450SOL     OW11248   6.921   2.638   6.321
 3450SOL    HW111249   6.827   2.662   6.296
 3450SOL    HW211250   6.958   2.707   6.382
 3451SOL     OW11251   2.029   5.644   1.157
 3451SOL    HW111252   2.048   5.548   1.137
 3451SOL    HW211253   2.094   5.678   1.224
 3452SOL     OW11254   6.489   0.645   6.167
 3452SOL    HW111255   6.530   0.556   6.184
 3452SOL    HW211256   6.527   0.684   6.083
 3453SOL     OW11257   6.785   5.933   6.594
 3453SOL    HW111258   6.744   6.015   6.636
 3453SOL    HW211259   6.847   5.961   6.521
 3454SOL     OW11260   0.929   2.162   5.742
 3454SOL    HW111261   0.853   2.111   5.782
 3454SOL    HW211262   1.014   2.138   5.789
 3455SOL     OW11263   2.924   2.268   4.584
 3455SOL    HW111264   2.854   2.209   4.626
 3455SOL    HW211265   2.879   2.344   4.537
 3456SOL     OW11266   5.830   5.578   2.798
 3456SOL    HW111267   5.814   5.491   2.753
 3456SOL    HW211268   5.752   5.639   2.784
 3457SOL     OW11269   2.748   4.658   3.291
 3457SOL    HW111270   2.822   4.713   3.331
 3457SOL    HW211271   2.709   4.599   3.362
 3458SOL     OW11272   5.226   0.455   1.939
 3458SOL    HW111273   5.208   0.377   1.879
 3458SOL    HW211274   5.147   0.471   1.997
 3459SOL     OW11275   5.431   3.384   3.093
 3459SOL    HW111276   5.475   3.296   3.110
 3459SOL    HW211277   5.423   3.399   2.995
 3460SOL     OW11278   2.386   3.238   6.768
 3460SOL    HW111279   2.390   3.161   6.832
 3460SOL    HW211280   2.406   3.207   6.675
 3461SOL     OW11281   4.549   5.704   4.815
 3461SOL    HW111282   4.503   5.751   4.739
 3461SOL    HW211283   4.481   5.666   4.877
 3462SOL     OW11284   0.006   3.808   2.707
 3462SOL    HW111285   0.034   3.886   2.651
 3462SOL    HW211286   6.930   3.785   2.687
 3463SOL     OW11287   0.661   3.642   2.278
 3463SOL    HW111288   0.672   3.722   2.337
 3463SOL    HW211289   0.691   3.664   2.185
 3464SOL     OW11290   6.146   3.817   6.659
 3464SOL    HW111291   6.243   3.814   6.636
 3464SOL    HW211292   6.114   3.912   6.658
 3465SOL     OW11293   1.658   2.160   2.374
 3465SOL    HW111294   1.707   2.113   2.447
 3465SOL    HW211295   1.707   2.244   2.349
 3466SOL     OW11296   0.530   4.796   0.513
 3466SOL    HW111297   0.511   4.835   0.603
 3466SOL    HW211298   0.574   4.864   0.455
 3467SOL     OW11299   1.816   2.480   0.446
 3467SOL    HW111300   1.870   2.560   0.472
 3467SOL    HW211301   1.813   2.416   0.522
 3468SOL     OW11302   5.001   6.760   2.998
 3468SOL    HW111303   5.080   6.813   3.030
 3468SOL    HW211304   4.999   6.672   3.045
 3469SOL     OW11305   5.083   0.389   2.506
 3469SOL    HW111306   5.129   0.300   2.499
 3469SOL    HW211307   5.077   0.416   2.602
 3470SOL     OW11308   5.957   3.358   1.379
 3470SOL    HW111309   5.929   3.406   1.463
 3470SOL    HW211310   6.049   3.388   1.353
 3471SOL     OW11311   4.222   5.027   3.880
 3471SOL    HW111312   4.214   4.958   3.807
 3471SOL    HW211313   4.183   4.991   3.964
 3472SOL     OW11314   2.734   0.803   2.918
 3472SOL    HW111315   2.736   0.745   2.836
 3472SOL    HW211316   2.703   0.748   2.996
 3473SOL     OW11317   6.870   2.057   1.387
 3473SOL    HW111318   6.844   2.133   1.327
 3473SOL    HW211319   6.961   2.025   1.361
 3474SOL     OW11320   1.283   4.517   1.820
 3474SOL    HW111321   1.292   4.433   1.767
 3474SOL    HW211322   1.224   4.581   1.771
 3475SOL     OW11323   1.593   4.707   4.268
 3475SOL    HW111324   1.560   4.727   4.360
 3475SOL    HW211325   1.578   4.610   4.248
 3476SOL     OW11326   2.642   1.347   3.488
 3476SOL    HW111327   2.738   1.377   3.488
 3476SOL    HW211328   2.591   1.399   3.420
 3477SOL     OW11329   2.103   5.251   0.564
 3477SOL    HW111330   2.183   5.261   0.622
 3477SOL    HW211331   2.115   5.170   0.506
 3478SOL     OW11332   2.724   5.604   5.408
 3478SOL    HW111333   2.686   5.683   5.359
 3478SOL    HW211334   2.650   5.552   5.449
 3479SOL     OW11335   1.404   0.553   3.276
 3479SOL    HW111336   1.344   0.473   3.277
 3479SOL    HW211337   1.348   0.635   3.289
 3480SOL     OW11338   0.764   6.733   5.329
 3480SOL    HW111339   0.714   6.658   5.372
 3480SOL    HW211340   0.844   6.696   5.281
 3481SOL     OW11341   4.514   0.282   0.522
 3481SOL    HW111342   4.574   0.248   0.594
 3481SOL    HW211343   4.458   0.206   0.487
 3482SOL     OW11344   5.447   1.150   1.821
 3482SOL    HW111345   5.371   1.207   1.790
 3482SOL    HW211346   5.531   1.179   1.776
 3483SOL     OW11347   4.694   2.239   1.583
 3483SOL    HW111348   4.696   2.319   1.524
 3483SOL    HW211349   4.677   2.157   1.528
 3484SOL     OW11350   0.937   3.315   0.017
 3484SOL    HW111351   0.912   3.338   6.942
 3484SOL    HW211352   1.034   3.332   0.030
 3485SOL     OW11353   1.877   1.634   4.569
 3485SOL    HW111354   1.802   1.576   4.538
 3485SOL    HW211355   1.960   1.579   4.579
 3486SOL     OW11356   2.934   0.763   3.394
 3486SOL    HW111357   2.850   0.730   3.436
 3486SOL    HW211358   2.938   0.863   3.399
 3487SOL     OW11359   5.407   2.627   5.293
 3487SOL    HW111360   5.431   2.690   5.367
 3487SOL    HW211361   5.367   2.544   5.331
 3488SOL     OW11362   5.935   1.669   4.287
 3488SOL    HW111363   5.918   1.642   4.193
 3488SOL    HW211364   5.850   1.661   4.340
 3489SOL     OW11365   4.011   0.000   1.126
 3489SOL    HW111366   4.007   6.923   1.153
 3489SOL    HW211367   3.966   0.012   1.038
 3490SOL     OW11368   4.255   4.126   0.298
 3490SOL    HW111369   4.287   4.204   0.243
 3490SOL    HW211370   4.319   4.110   0.374
 3491SOL     OW11371   4.680   2.596   4.874
 3491SOL    HW111372   4.713   2.690   4.862
 3491SOL    HW211373   4.673   2.575   4.972
 3492SOL     OW11374   0.349   5.284   1.167
 3492SOL    HW111375   0.373   5.189   1.149
 3492SOL    HW211376   0.433   5.340   1.171
 3493SOL     OW11377   5.655   4.268   6.711
 3493SOL    HW111378   5.671   4.254   6.613
 3493SOL    HW211379   5.646   4.179   6.756
 3494SOL     OW11380   3.709   0.642   1.014
 3494SOL    HW111381   3.716   0.575   1.088
 3494SOL    HW211382   3.639   0.709   1.037
 3495SOL     OW11383   5.477   5.243   2.446
 3495SOL    HW111384   5.412   5.312   2.476
 3495SOL    HW211385   5.570   5.279   2.452
 3496SOL     OW11386   6.366   4.440   0.483
 3496SOL    HW111387   6.402   4.416   0.392
 3496SOL    HW211388   6.370   4.539   0.495
 3497SOL     OW11389   3.664   1.214   3.976
 3497SOL    HW111390   3.742   1.234   4.036
 3497SOL    HW211391   3.693   1.149   3.906
 3498SOL     OW11392   2.842   2.341   0.539
 3498SOL    HW111393   2.840   2.416   0.473
 3498SOL    HW211394   2.935   2.326   0.571
 3499SOL     OW11395   4.909   3.126   4.475
 3499SOL    HW111396   4.943   3.124   4.569
 3499SOL    HW211397   4.863   3.039   4.455
 3500SOL     OW11398   1.880   3.347   4.613
 3500SOL    HW111399   1.784   3.318   4.609
 3500SOL    HW211400   1.939   3.272   4.581
 3501SOL     OW11401   1.873   5.765   4.761
 3501SOL    HW111402   1.870   5.848   4.705
 3501SOL    HW211403   1.856   5.685   4.704
 3502SOL     OW11404   6.336   2.757   2.724
 3502SOL    HW111405   6.342   2.659   2.710
 3502SOL    HW211406   6.278   2.776   2.803
 3503SOL     OW11407   6.413   6.385   4.498
 3503SOL    HW111408   6.353   6.309   4.475
 3503SOL    HW211409   6.442   6.377   4.593
 3504SOL     OW11410   1.908   1.807   1.573
 3504SOL    HW111411   1.901   1.709   1.553
 3504SOL    HW211412   1.947   1.820   1.664
 3505SOL     OW11413   5.454   4.831   5.142
 3505SOL    HW111414   5.386   4.772   5.099
 3505SOL    HW211415   5.532   4.842   5.080
 3506SOL     OW11416   4.924   5.272   5.682
 3506SOL    HW111417   4.893   5.324   5.603
 3506SOL    HW211418   4.851   5.210   5.712
 3507SOL     OW11419   1.595   1.415   6.983
 3507SOL    HW111420   1.548   1.501   6.960
 3507SOL    HW211421   1.527   1.343   6.997
 3508SOL     OW11422   3.018   2.466   6.102
 3508SOL    HW111423   3.048   2.546   6.051
 3508SOL    HW211424   2.938   2.490   6.157
 3509SOL     OW11425   6.361   0.647   5.801
 3509SOL    HW111426   6.284   0.705   5.828
 3509SOL    HW211427   6.447   0.694   5.822
 3510SOL     OW11428   1.727   2.707   1.734
 3510SOL    HW111429   1.670   2.642   1.684
 3510SOL    HW211430   1.690   2.719   1.826
 3511SOL     OW11431   3.109   5.547   0.496
 3511SOL    HW111432   3.170   5.567   0.574
 3511SOL    HW211433   3.035   5.487   0.527
 3512SOL     OW11434   0.484   4.935   0.717
 3512SOL    HW111435   0.584   4.937   0.715
 3512SOL    HW211436   0.451   5.000   0.786
 3513SOL     OW11437   6.336   2.902   0.235
 3513SOL    HW111438   6.432   2.928   0.244
 3513SOL    HW211439   6.328   2.802   0.238
 3514SOL     OW11440   0.870   1.596   1.951
 3514SOL    HW111441   0.845   1.678   1.899
 3514SOL    HW211442   0.843   1.515   1.899
 3515SOL     OW11443   4.989   5.902   3.456
 3515SOL    HW111444   4.951   5.990   3.428
 3515SOL    HW211445   5.018   5.850   3.376
 3516SOL     OW11446   4.974   0.405   0.929
 3516SOL    HW111447   5.001   0.335   0.995
 3516SOL    HW211448   5.006   0.379   0.838
 3517SOL     OW11449   1.280   1.869   0.802
 3517SOL    HW111450   1.361   1.911   0.763
 3517SOL    HW211451   1.307   1.804   0.874
 3518SOL     OW11452   5.665   3.436   4.391
 3518SOL    HW111453   5.615   3.373   4.332
 3518SOL    HW211454   5.634   3.529   4.373
 3519SOL     OW11455   1.223   1.031   6.054
 3519SOL    HW111456   1.263   0.940   6.042
 3519SOL    HW211457   1.272   1.096   5.996
 3520SOL     OW11458   3.157   4.839   6.172
 3520SOL    HW111459   3.147   4.937   6.189
 3520SOL    HW211460   3.153   4.822   6.073
 3521SOL     OW11461   4.731   3.099   6.892
 3521SOL    HW111462   4.668   3.021   6.886
 3521SOL    HW211463   4.811   3.073   6.945
 3522SOL     OW11464   6.709   4.514   1.945
 3522SOL    HW111465   6.665   4.600   1.971
 3522SOL    HW211466   6.741   4.520   1.850
 3523SOL     OW11467   2.938   5.113   6.149
 3523SOL    HW111468   2.885   5.177   6.203
 3523SOL    HW211469   2.916   5.019   6.177
 3524SOL     OW11470   3.673   1.493   1.352
 3524SOL    HW111471   3.719   1.450   1.275
 3524SOL    HW211472   3.741   1.539   1.410
 3525SOL     OW11473   1.113   3.933   2.267
 3525SOL    HW111474   1.077   4.025   2.250
 3525SOL    HW211475   1.124   3.885   2.180
 3526SOL     OW11476   2.127   6.166   4.113
 3526SOL    HW111477   2.094   6.197   4.202
 3526SOL    HW211478   2.226   6.153   4.117
 3527SOL     OW11479   5.918   2.575   5.859
 3527SOL    HW111480   5.974   2.511   5.912
 3527SOL    HW211481   5.953   2.668   5.872
 3528SOL     OW11482   0.390   4.948   4.076
 3528SOL    HW111483   0.382   4.891   3.994
 3528SOL    HW211484   0.413   4.890   4.155
 3529SOL     OW11485   3.979   0.232   0.300
 3529SOL    HW111486   3.938   0.317   0.333
 3529SOL    HW211487   4.038   0.252   0.221
 3530SOL     OW11488   1.190   5.082   3.096
 3530SOL    HW111489   1.174   5.116   3.004
 3530SOL    HW211490   1.172   5.155   3.162
 3531SOL     OW11491   4.863   3.030   0.646
 3531SOL    HW111492   4.921   3.111   0.659
 3531SOL    HW211493   4.772   3.048   0.684
 3532SOL     OW11494   2.722   0.732   1.365
 3532SOL    HW111495   2.717   0.648   1.419
 3532SOL    HW211496   2.672   0.719   1.279
 3533SOL     OW11497   1.795   1.692   2.440
 3533SOL    HW111498   1.797   1.597   2.470
 3533SOL    HW211499   1.700   1.722   2.431
 3534SOL     OW11500   5.873   1.236   5.644
 3534SOL    HW111501   5.893   1.139   5.630
 3534SOL    HW211502   5.957   1.284   5.669
 3535SOL     OW11503   0.931   5.286   0.490
 3535SOL    HW111504   0.982   5.302   0.406
 3535SOL    HW211505   0.845   5.240   0.469
 3536SOL     OW11506   2.353   2.173   3.759
 3536SOL    HW111507   2.334   2.249   3.697
 3536SOL    HW211508   2.359   2.088   3.707
 3537SOL     OW11509   2.914   5.589   1.030
 3537SOL    HW111510   2.995   5.607   1.086
 3537SOL    HW211511   2.832   5.609   1.083
 3538SOL     OW11512   1.332   0.775   5.982
 3538SOL    HW111513   1.341   0.740   5.889
 3538SOL    HW211514   1.288   0.705   6.039
 3539SOL     OW11515   6.029   3.767   6.287
 3539SOL    HW111516   6.119   3.804   6.263
 3539SOL    HW211517   6.035   3.669   6.300
 3540SOL     OW11518   1.721   2.822   6.227
 3540SOL    HW111519   1.762   2.778   6.147
 3540SOL    HW211520   1.793   2.844   6.293
 3541SOL     OW11521   1.788   2.759   6.582
 3541SOL    HW111522   1.693   2.787   6.565
 3541SOL    HW211523   1.824   2.809   6.661
 3542SOL     OW11524   1.533   4.503   1.945
 3542SOL    HW111525   1.546   4.595   1.908
 3542SOL    HW211526   1.440   4.472   1.926
 3543SOL     OW11527   1.054   3.019   5.325
 3543SOL    HW111528   1.115   2.972   5.262
 3543SOL    HW211529   0.985   3.070   5.273
 3544SOL     OW11530   2.918   4.418   6.529
 3544SOL    HW111531   2.822   4.431   6.555
 3544SOL    HW211532   2.976   4.482   6.580
 3545SOL     OW11533   4.067   5.209   0.248
 3545SOL    HW111534   4.030   5.122   0.217
 3545SOL    HW211535   4.097   5.262   0.169
 3546SOL     OW11536   0.291   4.667   3.186
 3546SOL    HW111537   0.275   4.613   3.103
 3546SOL    HW211538   0.278   4.609   3.267
 3547SOL     OW11539   6.528   5.264   5.437
 3547SOL    HW111540   6.597   5.300   5.374
 3547SOL    HW211541   6.538   5.165   5.446
 3548SOL     OW11542   5.521   0.809   5.951
 3548SOL    HW111543   5.543   0.758   6.035
 3548SOL    HW211544   5.600   0.865   5.925
 3549SOL     OW11545   0.092   5.259   6.121
 3549SOL    HW111546   0.131   5.187   6.064
 3549SOL    HW211547   0.002   5.285   6.087
 3550SOL     OW11548   5.783   2.906   3.315
 3550SOL    HW111549   5.745   2.828   3.265
 3550SOL    HW211550   5.725   2.927   3.394
 3551SOL     OW11551   3.253   1.952   3.127
 3551SOL    HW111552   3.184   2.004   3.077
 3551SOL    HW211553   3.238   1.964   3.226
 3552SOL     OW11554   6.421   6.459   1.593
 3552SOL    HW111555   6.359   6.382   1.576
 3552SOL    HW211556   6.512   6.424   1.615
 3553SOL     OW11557   4.280   5.494   0.886
 3553SOL    HW111558   4.319   5.458   0.971
 3553SOL    HW211559   4.200   5.439   0.861
 3554SOL     OW11560   4.459   1.707   1.038
 3554SOL    HW111561   4.507   1.688   1.123
 3554SOL    HW211562   4.471   1.631   0.975
 3555SOL     OW11563   0.627   4.056   4.290
 3555SOL    HW111564   0.659   4.093   4.203
 3555SOL    HW211565   0.697   4.071   4.360
 3556SOL     OW11566   3.956   1.444   4.421
 3556SOL    HW111567   3.981   1.514   4.488
 3556SOL    HW211568   4.032   1.381   4.409
 3557SOL     OW11569   0.785   0.952   4.248
 3557SOL    HW111570   0.835   1.021   4.299
 3557SOL    HW211571   0.843   0.871   4.234
 3558SOL     OW11572   1.985   5.850   2.185
 3558SOL    HW111573   2.022   5.825   2.095
 3558SOL    HW211574   2.003   5.946   2.203
 3559SOL     OW11575   0.559   6.544   5.428
 3559SOL    HW111576   0.518   6.480   5.363
 3559SOL    HW211577   0.537   6.516   5.521
 3560SOL     OW11578   1.539   5.389   2.527
 3560SOL    HW111579   1.620   5.432   2.485
 3560SOL    HW211580   1.566   5.343   2.612
 3561SOL     OW11581   4.608   4.554   5.079
 3561SOL    HW111582   4.511   4.526   5.082
 3561SOL    HW211583   4.614   4.652   5.062
 3562SOL     OW11584   3.478   1.243   2.934
 3562SOL    HW111585   3.444   1.258   2.841
 3562SOL    HW211586   3.470   1.328   2.986
 3563SOL     OW11587   6.249   1.817   0.701
 3563SOL    HW111588   6.245   1.836   0.799
 3563SOL    HW211589   6.289   1.895   0.653
 3564SOL     OW11590   1.200   4.513   3.079
 3564SOL    HW111591   1.150   4.503   3.165
 3564SOL    HW211592   1.217   4.610   3.061
 3565SOL     OW11593   3.305   6.337   5.129
 3565SOL    HW111594   3.275   6.421   5.173
 3565SOL    HW211595   3.251   6.322   5.046
 3566SOL     OW11596   6.887   3.880   6.013
 3566SOL    HW111597   6.980   3.900   6.041
 3566SOL    HW211598   6.888   3.819   5.934
 3567SOL     OW11599   0.023   2.272   6.242
 3567SOL    HW111600   6.953   2.291   6.281
 3567SOL    HW211601   0.043   2.339   6.170
 3568SOL     OW11602   4.624   4.389   3.348
 3568SOL    HW111603   4.635   4.399   3.249
 3568SOL    HW211604   4.528   4.402   3.373
 3569SOL     OW11605   2.940   1.504   6.039
 3569SOL    HW111606   2.882   1.512   5.958
 3569SOL    HW211607   3.025   1.457   6.016
 3570SOL     OW11608   5.630   1.000   5.788
 3570SOL    HW111609   5.715   1.027   5.742
 3570SOL    HW211610   5.554   1.006   5.723
 3571SOL     OW11611   0.697   5.278   4.545
 3571SOL    HW111612   0.603   5.262   4.517
 3571SOL    HW211613   0.700   5.342   4.622
 3572SOL     OW11614   5.729   3.679   3.022
 3572SOL    HW111615   5.788   3.672   2.941
 3572SOL    HW211616   5.634   3.661   2.997
 3573SOL     OW11617   0.612   5.946   3.269
 3573SOL    HW111618   0.540   5.878   3.261
 3573SOL    HW211619   0.660   5.935   3.356
 3574SOL     OW11620   0.785   3.449   0.195
 3574SOL    HW111621   0.845   3.424   0.120
 3574SOL    HW211622   0.690   3.434   0.169
 3575SOL     OW11623   5.434   5.128   1.980
 3575SOL    HW111624   5.530   5.150   1.962
 3575SOL    HW211625   5.408   5.048   1.925
 3576SOL     OW11626   6.820   1.925   6.199
 3576SOL    HW111627   6.725   1.892   6.197
 3576SOL    HW211628   6.877   1.860   6.249
 3577SOL     OW11629   1.396   1.660   6.337
 3577SOL    HW111630   1.329   1.605   6.287
 3577SOL    HW211631   1.427   1.735   6.279
 3578SOL     OW11632   3.865   2.075   0.500
 3578SOL    HW111633   3.845   2.168   0.531
 3578SOL    HW211634   3.941   2.076   0.436
 3579SOL     OW11635   6.345   2.334   3.683
 3579SOL    HW111636   6.401   2.252   3.676
 3579SOL    HW211637   6.254   2.316   3.645
 3580SOL     OW11638   5.573   3.170   1.449
 3580SOL    HW111639   5.604   3.166   1.544
 3580SOL    HW211640   5.473   3.164   1.447
 3581SOL     OW11641   1.591   5.710   3.497
 3581SOL    HW111642   1.499   5.693   3.534
 3581SOL    HW211643   1.622   5.629   3.448
 3582SOL     OW11644   0.371   3.898   6.361
 3582SOL    HW111645   0.279   3.926   6.391
 3582SOL    HW211646   0.368   3.802   6.331
 3583SOL     OW11647   0.644   4.104   6.366
 3583SOL    HW111648   0.706   4.052   6.426
 3583SOL    HW211649   0.588   4.041   6.313
 3584SOL     OW11650   5.672   5.683   6.354
 3584SOL    HW111651   5.763   5.716   6.379
 3584SOL    HW211652   5.642   5.615   6.421
 3585SOL     OW11653   3.116   0.556   4.631
 3585SOL    HW111654   3.117   0.597   4.540
 3585SOL    HW211655   3.038   0.592   4.682
 3586SOL     OW11656   6.921   2.050   5.037
 3586SOL    HW111657   6.863   1.975   5.004
 3586SOL    HW211658   6.913   2.057   5.136
 3587SOL     OW11659   2.341   4.528   6.132
 3587SOL    HW111660   2.430   4.572   6.137
 3587SOL    HW211661   2.326   4.494   6.039
 3588SOL     OW11662   1.158   2.670   6.034
 3588SOL    HW111663   1.224   2.735   6.071
 3588SOL    HW211664   1.091   2.718   5.977
 3589SOL     OW11665   4.646   1.234   4.720
 3589SOL    HW111666   4.650   1.243   4.620
 3589SOL    HW211667   4.665   1.323   4.762
 3590SOL     OW11668   0.585   2.737   0.568
 3590SOL    HW111669   0.619   2.689   0.649
 3590SOL    HW211670   0.587   2.675   0.490
 3591SOL     OW11671   5.055   4.015   6.812
 3591SOL    HW111672   5.049   3.966   6.899
 3591SOL    HW211673   5.149   4.009   6.777
 3592SOL     OW11674   0.563   4.961   1.922
 3592SOL    HW111675   0.662   4.968   1.908
 3592SOL    HW211676   0.535   5.028   1.991
 3593SOL     OW11677   0.482   5.545   4.850
 3593SOL    HW111678   0.393   5.578   4.883
 3593SOL    HW211679   0.555   5.587   4.904
 3594SOL     OW11680   4.621   6.448   3.495
 3594SOL    HW111681   4.596   6.390   3.572
 3594SOL    HW211682   4.543   6.507   3.471
 3595SOL     OW11683   3.798   5.831   6.508
 3595SOL    HW111684   3.734   5.908   6.511
 3595SOL    HW211685   3.830   5.818   6.414
 3596SOL     OW11686   6.242   3.165   3.176
 3596SOL    HW111687   6.200   3.077   3.197
 3596SOL    HW211688   6.279   3.206   3.260
 3597SOL     OW11689   1.980   2.363   5.561
 3597SOL    HW111690   1.923   2.375   5.480
 3597SOL    HW211691   1.946   2.287   5.616
 3598SOL     OW11692   1.422   5.308   6.359
 3598SOL    HW111693   1.379   5.226   6.321
 3598SOL    HW211694   1.354   5.382   6.363
 3599SOL     OW11695   6.711   2.394   6.584
 3599SOL    HW111696   6.770   2.319   6.555
 3599SOL    HW211697   6.767   2.474   6.604
 3600SOL     OW11698   0.542   2.936   1.398
 3600SOL    HW111699   0.486   2.896   1.470
 3600SOL    HW211700   0.621   2.983   1.439
 3601SOL     OW11701   5.283   3.787   6.772
 3601SOL    HW111702   5.347   3.732   6.718
 3601SOL    HW211703   5.262   3.740   6.858
 3602SOL     OW11704   1.675   2.393   0.767
 3602SOL    HW111705   1.691   2.492   0.769
 3602SOL    HW211706   1.746   2.346   0.819
 3603SOL     OW11707   3.293   0.918   4.137
 3603SOL    HW111708   3.252   1.003   4.104
 3603SOL    HW211709   3.242   0.840   4.102
 3604SOL     OW11710   6.504   5.615   3.026
 3604SOL    HW111711   6.504   5.620   2.926
 3604SOL    HW211712   6.590   5.575   3.057
 3605SOL     OW11713   6.705   3.808   4.822
 3605SOL    HW111714   6.609   3.801   4.846
 3605SOL    HW211715   6.761   3.788   4.903
 3606SOL     OW11716   0.044   0.488   4.712
 3606SOL    HW111717   7.007   0.509   4.632
 3606SOL    HW211718   0.140   0.506   4.692
 3607SOL     OW11719   5.987   5.090   1.828
 3607SOL    HW111720   6.073   5.047   1.855
 3607SOL    HW211721   5.990   5.188   1.847
 3608SOL     OW11722   4.989   2.720   4.310
 3608SOL    HW111723   4.982   2.723   4.211
 3608SOL    HW211724   4.929   2.789   4.351
 3609SOL     OW11725   1.315   6.882   4.369
 3609SOL    HW111726   1.397   6.936   4.389
 3609SOL    HW211727   1.341   6.795   4.328
 3610SOL     OW11728   2.048   0.108   5.865
 3610SOL    HW111729   2.055   0.150   5.956
 3610SOL    HW211730   2.121   0.039   5.855
 3611SOL     OW11731   4.426   5.296   4.756
 3611SOL    HW111732   4.459   5.217   4.806
 3611SOL    HW211733   4.503   5.342   4.711
 3612SOL     OW11734   6.633   6.848   0.466
 3612SOL    HW111735   6.721   6.896   0.466
 3612SOL    HW211736   6.638   6.770   0.528
 3613SOL     OW11737   4.507   4.522   1.830
 3613SOL    HW111738   4.419   4.512   1.783
 3613SOL    HW211739   4.528   4.437   1.879
 3614SOL     OW11740   3.967   3.475   1.318
 3614SOL    HW111741   4.055   3.429   1.324
 3614SOL    HW211742   3.974   3.567   1.355
 3615SOL     OW11743   5.238   4.836   6.255
 3615SOL    HW111744   5.246   4.935   6.247
 3615SOL    HW211745   5.225   4.797   6.164
 3616SOL     OW11746   0.472   1.741   6.543
 3616SOL    HW111747   0.535   1.739   6.466
 3616SOL    HW211748   0.406   1.815   6.529
 3617SOL     OW11749   4.109   1.165   6.619
 3617SOL    HW111750   4.135   1.261   6.625
 3617SOL    HW211751   4.079   1.132   6.709
 3618SOL     OW11752   2.517   3.007   5.622
 3618SOL    HW111753   2.602   2.983   5.574
 3618SOL    HW211754   2.442   3.011   5.557
 3619SOL     OW11755   5.380   2.897   4.747
 3619SOL    HW111756   5.442   2.838   4.799
 3619SOL    HW211757   5.384   2.873   4.650
 3620SOL     OW11758   5.848   6.792   5.840
 3620SOL    HW111759   5.821   6.703   5.877
 3620SOL    HW211760   5.943   6.787   5.807
 3621SOL     OW11761   3.166   2.736   5.548
 3621SOL    HW111762   3.174   2.701   5.642
 3621SOL    HW211763   3.076   2.776   5.535
 3622SOL     OW11764   0.782   1.227   5.532
 3622SOL    HW111765   0.742   1.136   5.548
 3622SOL    HW211766   0.765   1.285   5.612
 3623SOL     OW11767   6.786   6.203   4.473
 3623SOL    HW111768   6.736   6.215   4.387
 3623SOL    HW211769   6.841   6.120   4.469
 3624SOL     OW11770   1.583   6.793   2.550
 3624SOL    HW111771   1.623   6.849   2.623
 3624SOL    HW211772   1.537   6.853   2.484
 3625SOL     OW11773   6.836   2.708   6.678
 3625SOL    HW111774   6.933   2.727   6.694
 3625SOL    HW211775   6.793   2.787   6.633
 3626SOL     OW11776   1.431   2.154   6.088
 3626SOL    HW111777   1.406   2.228   6.150
 3626SOL    HW211778   1.525   2.169   6.056
 3627SOL     OW11779   3.282   3.432   2.389
 3627SOL    HW111780   3.206   3.447   2.325
 3627SOL    HW211781   3.281   3.338   2.422
 3628SOL     OW11782   1.667   1.097   1.989
 3628SOL    HW111783   1.600   1.070   2.058
 3628SOL    HW211784   1.691   1.193   2.004
 3629SOL     OW11785   6.498   0.856   5.422
 3629SOL    HW111786   6.458   0.787   5.483
 3629SOL    HW211787   6.475   0.947   5.455
 3630SOL     OW11788   4.981   2.265   4.084
 3630SOL    HW111789   4.925   2.316   4.150
 3630SOL    HW211790   5.012   2.180   4.126
 3631SOL     OW11791   2.475   1.425   3.265
 3631SOL    HW111792   2.426   1.351   3.310
 3631SOL    HW211793   2.502   1.396   3.173
 3632SOL     OW11794   5.237   4.922   1.604
 3632SOL    HW111795   5.161   4.952   1.546
 3632SOL    HW211796   5.209   4.844   1.659
 3633SOL     OW11797   4.405   2.137   5.619
 3633SOL    HW111798   4.326   2.179   5.664
 3633SOL    HW211799   4.407   2.039   5.638
 3634SOL     OW11800   1.644   5.253   5.164
 3634SOL    HW111801   1.650   5.337   5.218
 3634SOL    HW211802   1.713   5.188   5.195
 3635SOL     OW11803   3.133   6.955   0.666
 3635SOL    HW111804   3.149   0.034   0.670
 3635SOL    HW211805   3.200   6.907   0.724
 3636SOL     OW11806   6.896   5.299   0.851
 3636SOL    HW111807   6.826   5.340   0.910
 3636SOL    HW211808   6.887   5.336   0.758
 3637SOL     OW11809   0.250   2.268   2.316
 3637SOL    HW111810   0.154   2.262   2.344
 3637SOL    HW211811   0.294   2.178   2.328
 3638SOL     OW11812   0.665   4.588   3.205
 3638SOL    HW111813   0.630   4.495   3.213
 3638SOL    HW211814   0.633   4.629   3.120
 3639SOL     OW11815   3.800   5.586   0.969
 3639SOL    HW111816   3.892   5.606   1.004
 3639SOL    HW211817   3.778   5.490   0.984
 3640SOL     OW11818   4.154   0.895   0.209
 3640SOL    HW111819   4.120   0.854   0.124
 3640SOL    HW211820   4.159   0.825   0.280
 3641SOL     OW11821   6.046   3.835   2.154
 3641SOL    HW111822   5.964   3.867   2.202
 3641SOL    HW211823   6.127   3.858   2.207
 3642SOL     OW11824   5.049   1.959   0.557
 3642SOL    HW111825   4.990   1.999   0.627
 3642SOL    HW211826   5.106   2.030   0.517
 3643SOL     OW11827   3.373   5.675   3.939
 3643SOL    HW111828   3.343   5.583   3.965
 3643SOL    HW211829   3.462   5.670   3.894
 3644SOL     OW11830   0.734   0.980   1.854
 3644SOL    HW111831   0.693   0.903   1.903
 3644SOL    HW211832   0.805   0.946   1.792
 3645SOL     OW11833   1.480   2.758   4.066
 3645SOL    HW111834   1.477   2.857   4.050
 3645SOL    HW211835   1.457   2.738   4.161
 3646SOL     OW11836   1.620   4.012   6.390
 3646SOL    HW111837   1.701   3.956   6.410
 3646SOL    HW211838   1.627   4.100   6.436
 3647SOL     OW11839   2.563   6.216   6.555
 3647SOL    HW111840   2.637   6.194   6.619
 3647SOL    HW211841   2.475   6.194   6.596
 3648SOL     OW11842   4.487   5.527   2.078
 3648SOL    HW111843   4.391   5.501   2.068
 3648SOL    HW211844   4.535   5.512   1.992
 3649SOL     OW11845   6.177   2.655   1.105
 3649SOL    HW111846   6.222   2.697   1.026
 3649SOL    HW211847   6.160   2.725   1.175
 3650SOL     OW11848   6.675   5.842   2.037
 3650SOL    HW111849   6.725   5.842   1.951
 3650SOL    HW211850   6.680   5.751   2.079
 3651SOL     OW11851   0.289   0.186   4.753
 3651SOL    HW111852   0.321   0.264   4.699
 3651SOL    HW211853   0.336   0.183   4.840
 3652SOL     OW11854   6.260   0.281   3.446
 3652SOL    HW111855   6.211   0.363   3.419
 3652SOL    HW211856   6.359   0.298   3.439
 3653SOL     OW11857   0.875   1.765   3.510
 3653SOL    HW111858   0.855   1.685   3.567
 3653SOL    HW211859   0.894   1.844   3.569
 3654SOL     OW11860   3.612   4.503   0.484
 3654SOL    HW111861   3.664   4.418   0.475
 3654SOL    HW211862   3.544   4.493   0.557
 3655SOL     OW11863   3.407   6.951   3.943
 3655SOL    HW111864   3.344   6.885   3.903
 3655SOL    HW211865   3.364   0.022   3.946
 3656SOL     OW11866   0.590   4.758   1.272
 3656SOL    HW111867   0.620   4.793   1.183
 3656SOL    HW211868   0.615   4.662   1.280
 3657SOL     OW11869   5.655   5.902   5.529
 3657SOL    HW111870   5.612   5.986   5.563
 3657SOL    HW211871   5.753   5.906   5.544
 3658SOL     OW11872   2.036   4.894   6.521
 3658SOL    HW111873   1.991   4.807   6.540
 3658SOL    HW211874   1.993   4.937   6.442
 3659SOL     OW11875   2.018   3.251   5.461
 3659SOL    HW111876   2.023   3.289   5.553
 3659SOL    HW211877   1.938   3.191   5.453
 3660SOL     OW11878   5.874   5.764   4.014
 3660SOL    HW111879   5.821   5.765   4.099
 3660SOL    HW211880   5.908   5.672   3.996
 3661SOL     OW11881   6.544   0.853   5.153
 3661SOL    HW111882   6.534   0.872   5.251
 3661SOL    HW211883   6.461   0.810   5.119
 3662SOL     OW11884   3.799   0.999   4.235
 3662SOL    HW111885   3.725   0.932   4.241
 3662SOL    HW211886   3.801   1.039   4.143
 3663SOL     OW11887   1.820   2.068   0.479
 3663SOL    HW111888   1.904   2.027   0.443
 3663SOL    HW211889   1.802   2.033   0.571
 3664SOL     OW11890   4.539   2.436   1.148
 3664SOL    HW111891   4.448   2.406   1.177
 3664SOL    HW211892   4.562   2.392   1.061
 3665SOL     OW11893   0.829   6.417   5.065
 3665SOL    HW111894   0.739   6.385   5.035
 3665SOL    HW211895   0.892   6.340   5.072
 3666SOL     OW11896   0.906   3.481   2.950
 3666SOL    HW111897   0.813   3.512   2.966
 3666SOL    HW211898   0.963   3.503   3.029
 3667SOL     OW11899   0.401   1.367   3.839
 3667SOL    HW111900   0.325   1.421   3.803
 3667SOL    HW211901   0.476   1.427   3.866
 3668SOL     OW11902   1.505   1.516   1.060
 3668SOL    HW111903   1.532   1.421   1.045
 3668SOL    HW211904   1.546   1.549   1.146
 3669SOL     OW11905   5.299   1.598   3.899
 3669SOL    HW111906   5.263   1.603   3.993
 3669SOL    HW211907   5.324   1.503   3.879
 3670SOL     OW11908   1.682   5.631   6.659
 3670SOL    HW111909   1.773   5.601   6.688
 3670SOL    HW211910   1.691   5.698   6.585
 3671SOL     OW11911   6.952   1.802   3.979
 3671SOL    HW111912   6.944   1.849   4.067
 3671SOL    HW211913   0.023   1.759   3.973
 3672SOL     OW11914   4.606   2.054   1.922
 3672SOL    HW111915   4.699   2.030   1.895
 3672SOL    HW211916   4.585   2.147   1.892
 3673SOL     OW11917   4.281   6.355   7.017
 3673SOL    HW111918   4.367   6.306   0.011
 3673SOL    HW211919   4.204   6.293   0.013
 3674SOL     OW11920   1.543   5.929   5.381
 3674SOL    HW111921   1.448   5.937   5.350
 3674SOL    HW211922   1.553   5.976   5.469
 3675SOL     OW11923   2.214   2.786   3.905
 3675SOL    HW111924   2.257   2.818   3.820
 3675SOL    HW211925   2.182   2.692   3.892
 3676SOL     OW11926   6.213   4.170   2.571
 3676SOL    HW111927   6.210   4.224   2.656
 3676SOL    HW211928   6.136   4.106   2.570
 3677SOL     OW11929   3.095   6.255   4.417
 3677SOL    HW111930   3.194   6.243   4.413
 3677SOL    HW211931   3.075   6.345   4.456
 3678SOL     OW11932   0.745   1.291   4.359
 3678SOL    HW111933   0.730   1.273   4.261
 3678SOL    HW211934   0.680   1.237   4.413
 3679SOL     OW11935   6.803   0.253   3.419
 3679SOL    HW111936   6.837   0.249   3.513
 3679SOL    HW211937   6.713   0.296   3.418
 3680SOL     OW11938   5.015   3.119   4.169
 3680SOL    HW111939   5.085   3.184   4.196
 3680SOL    HW211940   4.941   3.119   4.236
 3681SOL     OW11941   0.142   0.837   6.309
 3681SOL    HW111942   0.182   0.785   6.234
 3681SOL    HW211943   0.203   0.834   6.388
 3682SOL     OW11944   5.508   3.059   6.909
 3682SOL    HW111945   5.531   3.013   6.995
 3682SOL    HW211946   5.516   3.158   6.921
 3683SOL     OW11947   6.775   1.864   4.371
 3683SOL    HW111948   6.766   1.766   4.355
 3683SOL    HW211949   6.704   1.913   4.320
 3684SOL     OW11950   0.984   5.337   6.990
 3684SOL    HW111951   0.982   5.430   0.008
 3684SOL    HW211952   0.916   5.329   6.917
 3685SOL     OW11953   1.616   6.110   6.503
 3685SOL    HW111954   1.676   6.030   6.499
 3685SOL    HW211955   1.594   6.130   6.599
 3686SOL     OW11956   6.282   5.320   5.027
 3686SOL    HW111957   6.185   5.309   5.044
 3686SOL    HW211958   6.296   5.356   4.935
 3687SOL     OW11959   3.632   6.690   3.857
 3687SOL    HW111960   3.619   6.743   3.940
 3687SOL    HW211961   3.723   6.647   3.859
 3688SOL     OW11962   0.406   3.213   6.852
 3688SOL    HW111963   0.454   3.270   6.918
 3688SOL    HW211964   0.326   3.263   6.817
 3689SOL     OW11965   1.987   0.371   5.794
 3689SOL    HW111966   2.037   0.285   5.787
 3689SOL    HW211967   1.918   0.364   5.866
 3690SOL     OW11968   4.316   5.868   6.972
 3690SOL    HW111969   4.407   5.881   6.933
 3690SOL    HW211970   4.324   5.844   0.049
 3691SOL     OW11971   2.322   1.800   6.647
 3691SOL    HW111972   2.363   1.710   6.631
 3691SOL    HW211973   2.275   1.800   6.736
 3692SOL     OW11974   6.615   5.369   5.672
 3692SOL    HW111975   6.606   5.328   5.581
 3692SOL    HW211976   6.550   5.445   5.680
 3693SOL     OW11977   2.123   3.554   3.121
 3693SOL    HW111978   2.138   3.646   3.158
 3693SOL    HW211979   2.089   3.494   3.194
 3694SOL     OW11980   0.621   6.233   1.898
 3694SOL    HW111981   0.546   6.167   1.904
 3694SOL    HW211982   0.591   6.321   1.933
 3695SOL     OW11983   5.314   3.152   1.449
 3695SOL    HW111984   5.263   3.078   1.493
 3695SOL    HW211985   5.285   3.161   1.354
 3696SOL     OW11986   3.974   0.055   4.126
 3696SOL    HW111987   4.021   7.003   4.177
 3696SOL    HW211988   3.969   0.139   4.181
 3697SOL     OW11989   0.222   6.466   2.888
 3697SOL    HW111990   0.189   6.447   2.796
 3697SOL    HW211991   0.159   6.425   2.955
 3698SOL     OW11992   2.631   1.193   4.419
 3698SOL    HW111993   2.553   1.256   4.425
 3698SOL    HW211994   2.712   1.243   4.387
 3699SOL     OW11995   1.371   2.034   4.254
 3699SOL    HW111996   1.417   1.948   4.273
 3699SOL    HW211997   1.305   2.021   4.180
 3700SOL     OW11998   1.241   5.275   4.923
 3700SOL    HW111999   1.336   5.294   4.901
 3700SOL    HW212000   1.188   5.360   4.923
 3701SOL     OW12001   1.531   0.846   3.937
 3701SOL    HW112002   1.507   0.937   3.969
 3701SOL    HW212003   1.513   0.779   4.008
 3702SOL     OW12004   5.628   6.750   3.130
 3702SOL    HW112005   5.722   6.784   3.135
 3702SOL    HW212006   5.622   6.678   3.061
 3703SOL     OW12007   6.446   0.059   6.296
 3703SOL    HW112008   6.376   0.129   6.279
 3703SOL    HW212009   6.536   0.097   6.278
 3704SOL     OW12010   3.641   2.100   0.908
 3704SOL    HW112011   3.724   2.154   0.917
 3704SOL    HW212012   3.616   2.092   0.812
 3705SOL     OW12013   5.331   4.063   4.867
 3705SOL    HW112014   5.259   4.097   4.927
 3705SOL    HW212015   5.351   3.967   4.890
 3706SOL     OW12016   1.207   3.815   6.882
 3706SOL    HW112017   1.172   3.908   6.897
 3706SOL    HW212018   1.269   3.815   6.804
 3707SOL     OW12019   5.226   4.693   4.575
 3707SOL    HW112020   5.325   4.691   4.560
 3707SOL    HW212021   5.186   4.608   4.540
 3708SOL     OW12022   6.358   1.121   0.436
 3708SOL    HW112023   6.371   1.023   0.418
 3708SOL    HW212024   6.305   1.132   0.520
 3709SOL     OW12025   3.424   0.742   1.153
 3709SOL    HW112026   3.487   0.762   1.228
 3709SOL    HW212027   3.352   0.811   1.151
 3710SOL     OW12028   6.656   5.284   5.167
 3710SOL    HW112029   6.599   5.233   5.102
 3710SOL    HW212030   6.695   5.364   5.122
 3711SOL     OW12031   1.268   5.690   4.745
 3711SOL    HW112032   1.358   5.727   4.767
 3711SOL    HW212033   1.226   5.745   4.672
 3712SOL     OW12034   1.023   4.978   6.121
 3712SOL    HW112035   0.936   4.933   6.102
 3712SOL    HW212036   1.067   5.004   6.035
 3713SOL     OW12037   0.389   6.866   5.287
 3713SOL    HW112038   0.482   6.901   5.285
 3713SOL    HW212039   0.359   6.844   5.194
 3714SOL     OW12040   5.522   5.795   6.178
 3714SOL    HW112041   5.564   5.839   6.098
 3714SOL    HW212042   5.593   5.753   6.234
 3715SOL     OW12043   0.622   3.969   2.703
 3715SOL    HW112044   0.664   3.954   2.792
 3715SOL    HW212045   0.580   4.060   2.700
 3716SOL     OW12046   6.067   6.546   3.620
 3716SOL    HW112047   6.027   6.459   3.650
 3716SOL    HW212048   6.051   6.616   3.689
 3717SOL     OW12049   6.060   6.743   6.815
 3717SOL    HW112050   6.107   6.677   6.756
 3717SOL    HW212051   6.123   6.818   6.837
 3718SOL     OW12052   0.696   0.968   0.039
 3718SOL    HW112053   0.659   0.883   0.001
 3718SOL    HW212054   0.776   0.947   0.095
 3719SOL     OW12055   5.116   3.586   1.425
 3719SOL    HW112056   5.022   3.611   1.400
 3719SOL    HW212057   5.173   3.587   1.343
 3720SOL     OW12058   5.801   3.502   0.145
 3720SOL    HW112059   5.809   3.563   0.066
 3720SOL    HW212060   5.835   3.411   0.120
 3721SOL     OW12061   6.893   5.141   2.059
 3721SOL    HW112062   6.993   5.136   2.051
 3721SOL    HW212063   6.862   5.076   2.128
 3722SOL     OW12064   5.935   6.028   0.833
 3722SOL    HW112065   5.935   6.035   0.734
 3722SOL    HW212066   5.852   6.070   0.870
 3723SOL     OW12067   5.912   4.744   1.017
 3723SOL    HW112068   5.887   4.661   1.067
 3723SOL    HW212069   5.829   4.790   0.985
 3724SOL     OW12070   1.802   4.878   4.952
 3724SOL    HW112071   1.712   4.838   4.970
 3724SOL    HW212072   1.868   4.842   5.017
 3725SOL     OW12073   0.146   5.209   0.212
 3725SOL    HW112074   0.236   5.206   0.168
 3725SOL    HW212075   0.075   5.191   0.145
 3726SOL     OW12076   5.999   3.119   6.469
 3726SOL    HW112077   6.004   3.028   6.429
 3726SOL    HW212078   5.909   3.133   6.510
 3727SOL     OW12079   6.457   1.713   5.667
 3727SOL    HW112080   6.385   1.771   5.629
 3727SOL    HW212081   6.420   1.621   5.682
 3728SOL     OW12082   0.896   3.336   6.368
 3728SOL    HW112083   0.889   3.293   6.278
 3728SOL    HW212084   0.863   3.430   6.363
 3729SOL     OW12085   1.901   1.915   4.175
 3729SOL    HW112086   1.954   1.886   4.255
 3729SOL    HW212087   1.935   1.869   4.094
 3730SOL     OW12088   3.281   5.979   5.499
 3730SOL    HW112089   3.274   5.916   5.576
 3730SOL    HW212090   3.332   6.060   5.528
 3731SOL     OW12091   0.026   1.332   1.042
 3731SOL    HW112092   6.992   1.355   1.124
 3731SOL    HW212093   0.092   1.261   1.065
 3732SOL     OW12094   2.711   2.017   7.010
 3732SOL    HW112095   2.704   1.943   6.943
 3732SOL    HW212096   2.798   2.065   6.998
 3733SOL     OW12097   1.699   3.295   2.914
 3733SOL    HW112098   1.755   3.376   2.931
 3733SOL    HW212099   1.728   3.252   2.829
 3734SOL     OW12100   5.251   0.588   1.531
 3734SOL    HW112101   5.218   0.639   1.611
 3734SOL    HW212102   5.175   0.573   1.468
 3735SOL     OW12103   2.831   1.046   2.822
 3735SOL    HW112104   2.915   1.030   2.770
 3735SOL    HW212105   2.797   0.959   2.858
 3736SOL     OW12106   6.867   1.591   1.266
 3736SOL    HW112107   6.820   1.503   1.279
 3736SOL    HW212108   6.820   1.661   1.319
 3737SOL     OW12109   5.375   0.940   4.157
 3737SOL    HW112110   5.442   0.993   4.105
 3737SOL    HW212111   5.374   0.846   4.123
 3738SOL     OW12112   6.597   0.414   2.059
 3738SOL    HW112113   6.611   0.373   1.969
 3738SOL    HW212114   6.568   0.509   2.048
 3739SOL     OW12115   2.541   5.246   0.730
 3739SOL    HW112116   2.523   5.149   0.750
 3739SOL    HW212117   2.616   5.278   0.788
 3740SOL     OW12118   6.565   0.211   0.873
 3740SOL    HW112119   6.616   0.214   0.959
 3740SOL    HW212120   6.608   0.147   0.810
 3741SOL     OW12121   5.451   2.752   5.866
 3741SOL    HW112122   5.379   2.822   5.873
 3741SOL    HW212123   5.409   2.661   5.875
 3742SOL     OW12124   2.878   1.907   6.587
 3742SOL    HW112125   2.788   1.882   6.552
 3742SOL    HW212126   2.945   1.906   6.513
 3743SOL     OW12127   6.046   3.025   0.498
 3743SOL    HW112128   6.145   3.030   0.507
 3743SOL    HW212129   6.003   3.078   0.571
 3744SOL     OW12130   1.830   6.230   1.376
 3744SOL    HW112131   1.800   6.153   1.320
 3744SOL    HW212132   1.756   6.298   1.382
 3745SOL     OW12133   4.698   4.410   2.620
 3745SOL    HW112134   4.730   4.373   2.532
 3745SOL    HW212135   4.697   4.510   2.615
 3746SOL     OW12136   6.170   1.019   3.988
 3746SOL    HW112137   6.128   1.103   3.955
 3746SOL    HW212138   6.265   1.015   3.959
 3747SOL     OW12139   3.175   6.078   5.223
 3747SOL    HW112140   3.188   6.084   5.322
 3747SOL    HW212141   3.150   6.168   5.187
 3748SOL     OW12142   5.878   0.783   1.838
 3748SOL    HW112143   5.856   0.880   1.835
 3748SOL    HW212144   5.794   0.730   1.822
 3749SOL     OW12145   2.009   5.211   3.145
 3749SOL    HW112146   2.026   5.180   3.051
 3749SOL    HW212147   2.022   5.310   3.150
 3750SOL     OW12148   6.538   5.200   1.622
 3750SOL    HW112149   6.488   5.255   1.556
 3750SOL    HW212150   6.629   5.180   1.587
 3751SOL     OW12151   6.782   3.242   1.648
 3751SOL    HW112152   6.847   3.316   1.634
 3751SOL    HW212153   6.829   3.154   1.636
 3752SOL     OW12154   6.971   6.649   0.849
 3752SOL    HW112155   6.954   6.647   0.751
 3752SOL    HW212156   6.986   6.743   0.878
 3753SOL     OW12157   6.838   0.833   4.135
 3753SOL    HW112158   6.777   0.910   4.154
 3753SOL    HW212159   6.787   0.760   4.091
 3754SOL     OW12160   4.398   6.562   1.058
 3754SOL    HW112161   4.371   6.643   1.111
 3754SOL    HW212162   4.319   6.531   1.004
 3755SOL     OW12163   5.523   5.997   4.386
 3755SOL    HW112164   5.462   6.064   4.345
 3755SOL    HW212165   5.565   6.036   4.468
 3756SOL     OW12166   2.236   5.342   6.566
 3756SOL    HW112167   2.304   5.301   6.506
 3756SOL    HW212168   2.145   5.332   6.525
 3757SOL     OW12169   4.391   6.413   6.482
 3757SOL    HW112170   4.314   6.414   6.418
 3757SOL    HW212171   4.368   6.355   6.560
 3758SOL     OW12172   1.906   1.373   5.555
 3758SOL    HW112173   1.934   1.417   5.469
 3758SOL    HW212174   1.807   1.359   5.554
 3759SOL     OW12175   4.633   5.775   6.130
 3759SOL    HW112176   4.705   5.844   6.123
 3759SOL    HW212177   4.637   5.713   6.052
 3760SOL     OW12178   1.825   1.580   5.220
 3760SOL    HW112179   1.789   1.532   5.300
 3760SOL    HW212180   1.807   1.678   5.228
 3761SOL     OW12181   1.312   1.041   4.698
 3761SOL    HW112182   1.376   1.104   4.741
 3761SOL    HW212183   1.339   0.946   4.717
 3762SOL     OW12184   1.570   3.690   0.173
 3762SOL    HW112185   1.565   3.737   0.085
 3762SOL    HW212186   1.487   3.636   0.186
 3763SOL     OW12187   6.930   4.357   1.526
 3763SOL    HW112188   0.004   4.324   1.541
 3763SOL    HW212189   6.866   4.301   1.579
 3764SOL     OW12190   1.597   6.657   3.817
 3764SOL    HW112191   1.673   6.677   3.880
 3764SOL    HW212192   1.517   6.631   3.870
 3765SOL     OW12193   4.335   1.014   1.081
 3765SOL    HW112194   4.299   1.015   0.987
 3765SOL    HW212195   4.420   1.067   1.084
 3766SOL     OW12196   1.073   1.056   3.724
 3766SOL    HW112197   1.133   0.976   3.724
 3766SOL    HW212198   1.024   1.061   3.811
 3767SOL     OW12199   2.108   4.124   0.244
 3767SOL    HW112200   2.183   4.058   0.241
 3767SOL    HW212201   2.100   4.162   0.336
 3768SOL     OW12202   1.877   6.313   4.747
 3768SOL    HW112203   1.842   6.383   4.809
 3768SOL    HW212204   1.951   6.262   4.793
 3769SOL     OW12205   6.179   6.652   5.364
 3769SOL    HW112206   6.257   6.591   5.353
 3769SOL    HW212207   6.189   6.705   5.448
 3770SOL     OW12208   1.976   0.333   7.007
 3770SOL    HW112209   1.948   0.240   0.011
 3770SOL    HW212210   2.065   0.331   6.961
 3771SOL     OW12211   5.880   3.539   6.845
 3771SOL    HW112212   5.877   3.439   6.850
 3771SOL    HW212213   5.971   3.570   6.874
 3772SOL     OW12214   6.813   0.883   6.754
 3772SOL    HW112215   6.773   0.793   6.739
 3772SOL    HW212216   6.904   0.887   6.714
 3773SOL     OW12217   6.072   2.727   6.120
 3773SOL    HW112218   6.090   2.631   6.100
 3773SOL    HW212219   6.034   2.772   6.039
 3774SOL     OW12220   0.393   6.235   0.404
 3774SOL    HW112221   0.470   6.173   0.395
 3774SOL    HW212222   0.354   6.254   0.314
 3775SOL     OW12223   5.082   5.148   2.331
 3775SOL    HW112224   5.123   5.230   2.290
 3775SOL    HW212225   5.144   5.112   2.401
 3776SOL     OW12226   3.977   1.353   0.792
 3776SOL    HW112227   3.977   1.393   0.700
 3776SOL    HW212228   3.888   1.314   0.811
 3777SOL     OW12229   3.501   5.005   4.140
 3777SOL    HW112230   3.469   4.933   4.201
 3777SOL    HW212231   3.443   5.086   4.152
 3778SOL     OW12232   3.494   4.909   2.201
 3778SOL    HW112233   3.520   4.840   2.134
 3778SOL    HW212234   3.427   4.971   2.162
 3779SOL     OW12235   2.020   4.809   0.844
 3779SOL    HW112236   2.073   4.795   0.761
 3779SOL    HW212237   2.033   4.732   0.906
 3780SOL     OW12238   5.548   6.216   5.406
 3780SOL    HW112239   5.552   6.230   5.307
 3780SOL    HW212240   5.630   6.255   5.448
 3781SOL     OW12241   0.873   6.980   4.527
 3781SOL    HW112242   0.803   6.917   4.493
 3781SOL    HW212243   0.954   6.976   4.467
 3782SOL     OW12244   2.725   0.698   3.890
 3782SOL    HW112245   2.770   0.750   3.962
 3782SOL    HW212246   2.627   0.691   3.910
 3783SOL     OW12247   5.795   5.235   4.012
 3783SOL    HW112248   5.836   5.318   3.972
 3783SOL    HW212249   5.696   5.245   4.016
 3784SOL     OW12250   4.752   2.803   2.090
 3784SOL    HW112251   4.750   2.892   2.044
 3784SOL    HW212252   4.709   2.734   2.030
 3785SOL     OW12253   1.707   1.869   6.295
 3785SOL    HW112254   1.756   1.950   6.326
 3785SOL    HW212255   1.762   1.787   6.314
 3786SOL     OW12256   2.372   6.119   2.742
 3786SOL    HW112257   2.357   6.192   2.809
 3786SOL    HW212258   2.361   6.156   2.650
 3787SOL     OW12259   5.968   0.801   2.389
 3787SOL    HW112260   5.916   0.824   2.307
 3787SOL    HW212261   5.962   0.703   2.406
 3788SOL     OW12262   0.681   4.021   4.706
 3788SOL    HW112263   0.584   4.003   4.690
 3788SOL    HW212264   0.731   4.016   4.619
 3789SOL     OW12265   0.722   2.633   5.278
 3789SOL    HW112266   0.774   2.689   5.342
 3789SOL    HW212267   0.777   2.616   5.196
 3790SOL     OW12268   1.109   4.897   5.133
 3790SOL    HW112269   1.111   4.814   5.189
 3790SOL    HW212270   1.146   4.974   5.185
 3791SOL     OW12271   5.353   0.714   0.170
 3791SOL    HW112272   5.290   0.660   0.115
 3791SOL    HW212273   5.390   0.658   0.244
 3792SOL     OW12274   0.951   1.785   5.171
 3792SOL    HW112275   0.885   1.734   5.115
 3792SOL    HW212276   1.028   1.813   5.114
 3793SOL     OW12277   4.802   6.684   2.669
 3793SOL    HW112278   4.790   6.658   2.765
 3793SOL    HW212279   4.734   6.753   2.644
 3794SOL     OW12280   2.571   3.658   0.366
 3794SOL    HW112281   2.664   3.619   0.363
 3794SOL    HW212282   2.572   3.744   0.417
 3795SOL     OW12283   4.613   6.566   6.540
 3795SOL    HW112284   4.532   6.512   6.515
 3795SOL    HW212285   4.691   6.535   6.485
 3796SOL     OW12286   3.123   1.834   2.204
 3796SOL    HW112287   3.114   1.755   2.144
 3796SOL    HW212288   3.169   1.908   2.155
 3797SOL     OW12289   0.121   3.900   1.698
 3797SOL    HW112290   0.022   3.906   1.712
 3797SOL    HW212291   0.158   3.824   1.753
 3798SOL     OW12292   2.411   5.748   2.507
 3798SOL    HW112293   2.382   5.788   2.421
 3798SOL    HW212294   2.477   5.809   2.552
 3799SOL     OW12295   0.549   2.363   4.481
 3799SOL    HW112296   0.577   2.374   4.386
 3799SOL    HW212297   0.573   2.271   4.512
 3800SOL     OW12298   5.421   3.407   4.049
 3800SOL    HW112299   5.416   3.321   4.000
 3800SOL    HW212300   5.423   3.483   3.984
 3801SOL     OW12301   6.353   6.925   2.787
 3801SOL    HW112302   6.313   6.957   2.701
 3801SOL    HW212303   6.287   6.866   2.834
 3802SOL     OW12304   1.281   2.107   2.852
 3802SOL    HW112305   1.298   2.154   2.765
 3802SOL    HW212306   1.358   2.122   2.914
 3803SOL     OW12307   3.493   2.478   1.478
 3803SOL    HW112308   3.425   2.405   1.491
 3803SOL    HW212309   3.539   2.496   1.565
 3804SOL     OW12310   4.955   0.897   3.976
 3804SOL    HW112311   5.036   0.934   4.021
 3804SOL    HW212312   4.926   0.960   3.903
 3805SOL     OW12313   2.606   2.882   1.569
 3805SOL    HW112314   2.689   2.827   1.560
 3805SOL    HW212315   2.627   2.967   1.618
 3806SOL     OW12316   3.874   4.040   6.553
 3806SOL    HW112317   3.879   4.139   6.568
 3806SOL    HW212318   3.947   4.012   6.491
 3807SOL     OW12319   2.256   5.435   2.993
 3807SOL    HW112320   2.297   5.350   3.025
 3807SOL    HW212321   2.157   5.432   3.008
 3808SOL     OW12322   4.223   0.663   0.848
 3808SOL    HW112323   4.318   0.662   0.878
 3808SOL    HW212324   4.198   0.571   0.816
 3809SOL     OW12325   5.609   3.273   0.909
 3809SOL    HW112326   5.539   3.212   0.872
 3809SOL    HW212327   5.693   3.222   0.924
 3810SOL     OW12328   4.351   2.323   4.353
 3810SOL    HW112329   4.361   2.225   4.364
 3810SOL    HW212330   4.332   2.365   4.443
 3811SOL     OW12331   1.464   4.088   4.437
 3811SOL    HW112332   1.541   4.051   4.385
 3811SOL    HW212333   1.436   4.023   4.507
 3812SOL     OW12334   5.224   0.117   4.673
 3812SOL    HW112335   5.200   0.068   4.757
 3812SOL    HW212336   5.255   0.051   4.604
 3813SOL     OW12337   4.881   4.789   0.479
 3813SOL    HW112338   4.960   4.769   0.422
 3813SOL    HW212339   4.887   4.883   0.513
 3814SOL     OW12340   0.216   6.862   0.218
 3814SOL    HW112341   0.246   6.768   0.229
 3814SOL    HW212342   0.234   6.892   0.125
 3815SOL     OW12343   4.400   2.951   0.186
 3815SOL    HW112344   4.490   2.929   0.223
 3815SOL    HW212345   4.403   2.941   0.086
 3816SOL     OW12346   0.953   5.964   6.471
 3816SOL    HW112347   1.034   5.919   6.509
 3816SOL    HW212348   0.875   5.902   6.475
 3817SOL     OW12349   4.890   4.279   2.456
 3817SOL    HW112350   4.955   4.349   2.484
 3817SOL    HW212351   4.872   4.217   2.532
 3818SOL     OW12352   6.019   0.807   0.628
 3818SOL    HW112353   6.030   0.873   0.553
 3818SOL    HW212354   5.925   0.810   0.661
 3819SOL     OW12355   5.797   5.429   1.827
 3819SOL    HW112356   5.848   5.502   1.872
 3819SOL    HW212357   5.822   5.426   1.730
 3820SOL     OW12358   5.641   7.017   3.335
 3820SOL    HW112359   5.661   6.963   3.253
 3820SOL    HW212360   5.720   0.056   3.356
 3821SOL     OW12361   2.126   1.436   0.910
 3821SOL    HW112362   2.167   1.479   0.830
 3821SOL    HW212363   2.165   1.344   0.922
 3822SOL     OW12364   1.438   6.865   2.328
 3822SOL    HW112365   1.423   6.802   2.252
 3822SOL    HW212366   1.421   6.959   2.298
 3823SOL     OW12367   2.834   2.631   5.704
 3823SOL    HW112368   2.735   2.619   5.710
 3823SOL    HW212369   2.862   2.630   5.608
 3824SOL     OW12370   6.077   2.356   0.766
 3824SOL    HW112371   6.170   2.381   0.791
 3824SOL    HW212372   6.061   2.259   0.785
 3825SOL     OW12373   1.247   6.206   0.420
 3825SOL    HW112374   1.232   6.135   0.488
 3825SOL    HW212375   1.167   6.265   0.415
 3826SOL     OW12376   1.028   2.723   6.845
 3826SOL    HW112377   1.027   2.819   6.818
 3826SOL    HW212378   0.977   2.711   6.930
 3827SOL     OW12379   2.726   2.218   1.309
 3827SOL    HW112380   2.650   2.277   1.337
 3827SOL    HW212381   2.781   2.194   1.390
 3828SOL     OW12382   3.894   2.485   1.731
 3828SOL    HW112383   3.824   2.425   1.771
 3828SOL    HW212384   3.882   2.578   1.765
 3829SOL     OW12385   1.665   5.015   4.272
 3829SOL    HW112386   1.645   5.062   4.186
 3829SOL    HW212387   1.657   4.916   4.258
 3830SOL     OW12388   0.817   0.656   4.174
 3830SOL    HW112389   0.801   0.593   4.099
 3830SOL    HW212390   0.901   0.708   4.157
 3831SOL     OW12391   4.478   2.390   2.423
 3831SOL    HW112392   4.501   2.432   2.335
 3831SOL    HW212393   4.391   2.341   2.415
 3832SOL     OW12394   5.689   0.742   2.836
 3832SOL    HW112395   5.737   0.822   2.870
 3832SOL    HW212396   5.594   0.743   2.869
 3833SOL     OW12397   1.134   6.107   5.307
 3833SOL    HW112398   1.069   6.106   5.383
 3833SOL    HW212399   1.217   6.155   5.334
 3834SOL     OW12400   4.594   3.380   1.688
 3834SOL    HW112401   4.663   3.448   1.663
 3834SOL    HW212402   4.638   3.291   1.702
 3835SOL     OW12403   2.886   5.532   5.079
 3835SOL    HW112404   2.943   5.603   5.038
 3835SOL    HW212405   2.897   5.534   5.179
 3836SOL     OW12406   1.765   4.340   5.432
 3836SOL    HW112407   1.680   4.308   5.390
 3836SOL    HW212408   1.837   4.273   5.417
 3837SOL     OW12409   4.827   4.327   0.029
 3837SOL    HW112410   4.770   4.387   6.994
 3837SOL    HW212411   4.827   4.235   7.010
 3838SOL     OW12412   6.554   3.605   4.715
 3838SOL    HW112413   6.652   3.615   4.733
 3838SOL    HW212414   6.539   3.593   4.617
 3839SOL     OW12415   4.138   1.204   3.851
 3839SOL    HW112416   4.193   1.158   3.781
 3839SOL    HW212417   4.046   1.165   3.853
 3840SOL     OW12418   1.675   1.433   5.409
 3840SOL    HW112419   1.692   1.348   5.359
 3840SOL    HW212420   1.584   1.468   5.388
 3841SOL     OW12421   0.155   3.182   5.626
 3841SOL    HW112422   0.204   3.205   5.541
 3841SOL    HW212423   0.171   3.253   5.694
 3842SOL     OW12424   1.339   3.827   6.401
 3842SOL    HW112425   1.428   3.782   6.415
 3842SOL    HW212426   1.353   3.915   6.356
 3843SOL     OW12427   0.016   4.071   2.559
 3843SOL    HW112428   6.936   4.075   2.570
 3843SOL    HW212429   0.060   4.111   2.639
 3844SOL     OW12430   0.549   3.038   6.696
 3844SOL    HW112431   0.499   3.115   6.736
 3844SOL    HW212432   0.568   2.970   6.768
 3845SOL     OW12433   3.637   2.901   3.069
 3845SOL    HW112434   3.610   2.997   3.063
 3845SOL    HW212435   3.574   2.853   3.130
 3846SOL     OW12436   1.053   4.937   3.953
 3846SOL    HW112437   1.054   4.887   3.866
 3846SOL    HW212438   1.146   4.958   3.981
 3847SOL     OW12439   6.044   1.050   4.853
 3847SOL    HW112440   6.024   1.130   4.797
 3847SOL    HW212441   6.141   1.047   4.875
 3848SOL     OW12442   3.169   5.556   2.749
 3848SOL    HW112443   3.217   5.472   2.772
 3848SOL    HW212444   3.078   5.556   2.791
 3849SOL     OW12445   0.482   1.836   5.145
 3849SOL    HW112446   0.550   1.786   5.197
 3849SOL    HW212447   0.495   1.819   5.048
 3850SOL     OW12448   2.420   3.153   1.457
 3850SOL    HW112449   2.439   3.059   1.429
 3850SOL    HW212450   2.502   3.209   1.444
 3851SOL     OW12451   1.761   4.448   2.766
 3851SOL    HW112452   1.818   4.434   2.685
 3851SOL    HW212453   1.665   4.434   2.743
 3852SOL     OW12454   4.841   6.959   4.054
 3852SOL    HW112455   4.753   6.995   4.087
 3852SOL    HW212456   4.901   0.016   4.032
 3853SOL     OW12457   1.183   3.031   2.853
 3853SOL    HW112458   1.245   3.059   2.779
 3853SOL    HW212459   1.143   2.942   2.832
 3854SOL     OW12460   0.872   3.075   2.563
 3854SOL    HW112461   0.935   2.999   2.580
 3854SOL    HW212462   0.818   3.057   2.481
 3855SOL     OW12463   5.042   6.064   6.680
 3855SOL    HW112464   5.116   6.098   6.622
 3855SOL    HW212465   5.081   6.009   6.754
 3856SOL     OW12466   6.279   6.338   5.684
 3856SOL    HW112467   6.304   6.326   5.588
 3856SOL    HW212468   6.362   6.345   5.740
 3857SOL     OW12469   0.770   5.968   5.793
 3857SOL    HW112470   0.826   5.971   5.710
 3857SOL    HW212471   0.687   5.915   5.774
 3858SOL     OW12472   1.654   6.359   5.167
 3858SOL    HW112473   1.615   6.357   5.075
 3858SOL    HW212474   1.677   6.454   5.191
 3859SOL     OW12475   6.543   2.243   2.949
 3859SOL    HW112476   6.626   2.205   2.988
 3859SOL    HW212477   6.468   2.177   2.961
 3860SOL     OW12478   1.675   0.419   5.510
 3860SOL    HW112479   1.579   0.414   5.485
 3860SOL    HW212480   1.688   0.493   5.576
 3861SOL     OW12481   5.263   4.746   2.481
 3861SOL    HW112482   5.261   4.719   2.385
 3861SOL    HW212483   5.325   4.685   2.531
 3862SOL     OW12484   0.351   0.260   5.070
 3862SOL    HW112485   0.272   0.309   5.033
 3862SOL    HW212486   0.332   0.233   5.164
 3863SOL     OW12487   4.679   2.839   6.313
 3863SOL    HW112488   4.678   2.756   6.257
 3863SOL    HW212489   4.774   2.865   6.333
 3864SOL     OW12490   2.955   1.381   5.255
 3864SOL    HW112491   2.884   1.442   5.291
 3864SOL    HW212492   3.044   1.426   5.261
 3865SOL     OW12493   3.503   0.222   0.725
 3865SOL    HW112494   3.405   0.209   0.736
 3865SOL    HW212495   3.536   0.288   0.792
 3866SOL     OW12496   3.952   1.011   0.772
 3866SOL    HW112497   3.893   1.089   0.791
 3866SOL    HW212498   3.926   0.934   0.830
 3867SOL     OW12499   1.467   3.641   3.881
 3867SOL    HW112500   1.553   3.616   3.837
 3867SOL    HW212501   1.391   3.625   3.818
 3868SOL     OW12502   2.534   6.673   0.895
 3868SOL    HW112503   2.594   6.637   0.966
 3868SOL    HW212504   2.442   6.636   0.908
 3869SOL     OW12505   6.714   3.339   4.557
 3869SOL    HW112506   6.750   3.249   4.583
 3869SOL    HW212507   6.748   3.363   4.466
 3870SOL     OW12508   4.587   5.484   0.773
 3870SOL    HW112509   4.563   5.393   0.738
 3870SOL    HW212510   4.523   5.551   0.737
 3871SOL     OW12511   4.427   0.438   2.315
 3871SOL    HW112512   4.468   0.507   2.255
 3871SOL    HW212513   4.493   0.364   2.329
 3872SOL     OW12514   3.777   2.909   2.268
 3872SOL    HW112515   3.754   2.918   2.365
 3872SOL    HW212516   3.866   2.951   2.251
 3873SOL     OW12517   0.033   4.913   1.451
 3873SOL    HW112518   0.048   4.835   1.390
 3873SOL    HW212519   0.083   4.992   1.416
 3874SOL     OW12520   3.867   6.006   6.798
 3874SOL    HW112521   3.785   5.999   6.855
 3874SOL    HW212522   3.844   6.052   6.712
 3875SOL     OW12523   1.014   2.786   2.421
 3875SOL    HW112524   0.947   2.816   2.354
 3875SOL    HW212525   1.061   2.705   2.387
 3876SOL     OW12526   6.364   4.987   6.783
 3876SOL    HW112527   6.278   4.939   6.763
 3876SOL    HW212528   6.374   5.065   6.721
 3877SOL     OW12529   6.972   2.692   0.093
 3877SOL    HW112530   0.044   2.669   0.058
 3877SOL    HW212531   6.977   2.777   0.146
 3878SOL     OW12532   2.445   6.455   5.249
 3878SOL    HW112533   2.366   6.395   5.230
 3878SOL    HW212534   2.527   6.399   5.258
 3879SOL     OW12535   5.044   6.612   0.949
 3879SOL    HW112536   5.065   6.596   1.046
 3879SOL    HW212537   5.004   6.703   0.939
 3880SOL     OW12538   5.982   4.220   3.487
 3880SOL    HW112539   6.005   4.124   3.504
 3880SOL    HW212540   6.066   4.273   3.481
 3881SOL     OW12541   1.512   5.549   0.326
 3881SOL    HW112542   1.428   5.504   0.358
 3881SOL    HW212543   1.584   5.536   0.394
 3882SOL     OW12544   5.842   1.535   4.744
 3882SOL    HW112545   5.906   1.576   4.679
 3882SOL    HW212546   5.749   1.564   4.723
 3883SOL     OW12547   4.565   1.207   3.318
 3883SOL    HW112548   4.632   1.141   3.286
 3883SOL    HW212549   4.611   1.278   3.372
 3884SOL     OW12550   1.588   5.650   3.946
 3884SOL    HW112551   1.572   5.603   4.033
 3884SOL    HW212552   1.562   5.746   3.956
 3885SOL     OW12553   6.438   1.498   4.390
 3885SOL    HW112554   6.422   1.486   4.488
 3885SOL    HW212555   6.529   1.536   4.375
 3886SOL     OW12556   6.696   6.892   5.042
 3886SOL    HW112557   6.653   6.887   5.133
 3886SOL    HW212558   6.768   6.822   5.036
 3887SOL     OW12559   5.364   2.196   5.579
 3887SOL    HW112560   5.297   2.172   5.649
 3887SOL    HW212561   5.418   2.274   5.610
 3888SOL     OW12562   0.896   0.350   6.558
 3888SOL    HW112563   0.870   0.335   6.462
 3888SOL    HW212564   0.964   0.282   6.585
 3889SOL     OW12565   6.895   2.940   6.199
 3889SOL    HW112566   6.810   2.887   6.201
 3889SOL    HW212567   6.922   2.963   6.293
 3890SOL     OW12568   5.700   6.097   2.864
 3890SOL    HW112569   5.785   6.055   2.830
 3890SOL    HW212570   5.659   6.152   2.792
 3891SOL     OW12571   5.491   4.445   4.825
 3891SOL    HW112572   5.573   4.387   4.821
 3891SOL    HW212573   5.412   4.394   4.791
 3892SOL     OW12574   0.401   0.885   2.375
 3892SOL    HW112575   0.374   0.797   2.413
 3892SOL    HW212576   0.467   0.870   2.301
 3893SOL     OW12577   2.979   5.633   2.053
 3893SOL    HW112578   2.901   5.653   1.994
 3893SOL    HW212579   3.015   5.542   2.033
 3894SOL     OW12580   3.328   2.052   0.194
 3894SOL    HW112581   3.296   2.058   0.288
 3894SOL    HW212582   3.316   2.140   0.148
 3895SOL     OW12583   1.350   0.930   5.126
 3895SOL    HW112584   1.307   1.007   5.078
 3895SOL    HW212585   1.419   0.965   5.189
 3896SOL     OW12586   0.191   2.267   5.961
 3896SOL    HW112587   0.265   2.304   5.905
 3896SOL    HW212588   0.104   2.280   5.913
 3897SOL     OW12589   3.237   6.606   1.807
 3897SOL    HW112590   3.158   6.607   1.869
 3897SOL    HW212591   3.284   6.694   1.813
 3898SOL     OW12592   3.131   3.031   3.370
 3898SOL    HW112593   3.099   3.117   3.410
 3898SOL    HW212594   3.072   3.005   3.294
 3899SOL     OW12595   4.865   1.118   4.206
 3899SOL    HW112596   4.917   1.199   4.178
 3899SOL    HW212597   4.833   1.069   4.125
 3900SOL     OW12598   5.156   3.429   3.224
 3900SOL    HW112599   5.175   3.484   3.305
 3900SOL    HW212600   5.239   3.423   3.168
 3901SOL     OW12601   2.635   6.246   5.610
 3901SOL    HW112602   2.735   6.243   5.609
 3901SOL    HW212603   2.600   6.180   5.677
 3902SOL     OW12604   4.626   4.359   2.219
 3902SOL    HW112605   4.606   4.297   2.295
 3902SOL    HW212606   4.579   4.328   2.137
 3903SOL     OW12607   4.281   3.317   6.625
 3903SOL    HW112608   4.255   3.387   6.692
 3903SOL    HW212609   4.254   3.227   6.659
 3904SOL     OW12610   1.269   1.079   6.327
 3904SOL    HW112611   1.293   1.176   6.320
 3904SOL    HW212612   1.258   1.041   6.235
 3905SOL     OW12613   5.950   6.344   5.952
 3905SOL    HW112614   5.944   6.362   5.854
 3905SOL    HW212615   5.866   6.372   5.997
 3906SOL     OW12616   1.675   5.035   5.740
 3906SOL    HW112617   1.584   5.071   5.715
 3906SOL    HW212618   1.722   5.004   5.658
 3907SOL     OW12619   0.313   0.872   4.591
 3907SOL    HW112620   0.213   0.868   4.595
 3907SOL    HW212621   0.348   0.785   4.554
 3908SOL     OW12622   0.958   1.353   6.443
 3908SOL    HW112623   1.037   1.377   6.501
 3908SOL    HW212624   0.943   1.255   6.446
 3909SOL     OW12625   6.269   4.093   6.451
 3909SOL    HW112626   6.311   4.170   6.499
 3909SOL    HW212627   6.193   4.057   6.506
 3910SOL     OW12628   3.556   4.166   2.039
 3910SOL    HW112629   3.567   4.092   2.105
 3910SOL    HW212630   3.575   4.254   2.084
 3911SOL     OW12631   5.124   1.260   0.749
 3911SOL    HW112632   5.051   1.324   0.728
 3911SOL    HW212633   5.210   1.310   0.761
 3912SOL     OW12634   3.881   0.517   6.236
 3912SOL    HW112635   3.958   0.578   6.216
 3912SOL    HW212636   3.805   0.570   6.275
 3913SOL     OW12637   3.637   5.938   6.945
 3913SOL    HW112638   3.543   5.961   6.970
 3913SOL    HW212639   3.659   5.847   6.980
 3914SOL     OW12640   4.937   1.284   1.572
 3914SOL    HW112641   5.001   1.340   1.519
 3914SOL    HW212642   4.908   1.206   1.516
 3915SOL     OW12643   4.043   6.666   6.915
 3915SOL    HW112644   4.047   6.653   7.014
 3915SOL    HW212645   4.109   6.606   6.871
 3916SOL     OW12646   2.827   6.970   3.071
 3916SOL    HW112647   2.905   6.939   3.017
 3916SOL    HW212648   2.801   6.898   3.136
 3917SOL     OW12649   2.535   4.849   0.536
 3917SOL    HW112650   2.604   4.842   0.464
 3917SOL    HW212651   2.479   4.766   0.536
 3918SOL     OW12652   4.119   0.416   0.725
 3918SOL    HW112653   4.176   0.387   0.647
 3918SOL    HW212654   4.041   0.469   0.691
 3919SOL     OW12655   3.846   0.823   0.163
 3919SOL    HW112656   3.908   0.832   0.085
 3919SOL    HW212657   3.889   0.766   0.233
 3920SOL     OW12658   1.984   0.721   6.933
 3920SOL    HW112659   2.074   0.713   6.892
 3920SOL    HW212660   1.922   0.765   6.869
 3921SOL     OW12661   7.012   2.443   6.535
 3921SOL    HW112662   7.000   2.344   6.539
 3921SOL    HW212663   6.953   2.481   6.464
 3922SOL     OW12664   4.721   5.220   1.403
 3922SOL    HW112665   4.727   5.298   1.466
 3922SOL    HW212666   4.637   5.169   1.421
 3923SOL     OW12667   5.502   2.003   0.912
 3923SOL    HW112668   5.408   1.976   0.933
 3923SOL    HW212669   5.507   2.102   0.901
 3924SOL     OW12670   0.572   4.533   2.921
 3924SOL    HW112671   0.561   4.444   2.878
 3924SOL    HW212672   0.482   4.569   2.947
 3925SOL     OW12673   4.844   4.627   1.645
 3925SOL    HW112674   4.883   4.574   1.721
 3925SOL    HW212675   4.781   4.569   1.593
 3926SOL     OW12676   0.786   0.197   5.498
 3926SOL    HW112677   0.838   0.229   5.418
 3926SOL    HW212678   0.781   0.097   5.496
 3927SOL     OW12679   0.527   3.044   3.914
 3927SOL    HW112680   0.573   2.966   3.956
 3927SOL    HW212681   0.569   3.129   3.946
 3928SOL     OW12682   2.622   6.414   2.002
 3928SOL    HW112683   2.606   6.486   2.069
 3928SOL    HW212684   2.552   6.418   1.931
 3929SOL     OW12685   0.173   1.024   6.960
 3929SOL    HW112686   0.128   1.056   0.024
 3929SOL    HW212687   0.229   0.944   6.981
 3930SOL     OW12688   0.761   2.118   3.939
 3930SOL    HW112689   0.770   2.026   3.902
 3930SOL    HW212690   0.745   2.183   3.865
 3931SOL     OW12691   1.710   2.107   1.833
 3931SOL    HW112692   1.708   2.134   1.929
 3931SOL    HW212693   1.785   2.042   1.818
 3932SOL     OW12694   2.710   5.334   4.294
 3932SOL    HW112695   2.704   5.410   4.358
 3932SOL    HW212696   2.685   5.249   4.340
 3933SOL     OW12697   1.497   6.645   0.076
 3933SOL    HW112698   1.417   6.598   0.111
 3933SOL    HW212699   1.473   6.740   0.053
 3934SOL     OW12700   0.182   1.353   3.289
 3934SOL    HW112701   0.169   1.314   3.380
 3934SOL    HW212702   0.229   1.288   3.231
 3935SOL     OW12703   6.723   2.046   5.865
 3935SOL    HW112704   6.678   2.006   5.785
 3935SOL    HW212705   6.668   2.124   5.898
 3936SOL     OW12706   6.685   6.246   5.395
 3936SOL    HW112707   6.675   6.217   5.300
 3936SOL    HW212708   6.782   6.267   5.413
 3937SOL     OW12709   0.622   6.219   3.240
 3937SOL    HW112710   0.676   6.251   3.162
 3937SOL    HW212711   0.597   6.123   3.227
 3938SOL     OW12712   6.908   3.431   4.311
 3938SOL    HW112713   6.833   3.468   4.255
 3938SOL    HW212714   6.966   3.506   4.343
 3939SOL     OW12715   2.638   1.599   3.790
 3939SOL    HW112716   2.677   1.508   3.804
 3939SOL    HW212717   2.598   1.631   3.875
 3940SOL     OW12718   3.038   4.854   2.030
 3940SOL    HW112719   2.987   4.768   2.019
 3940SOL    HW212720   3.094   4.849   2.112
 3941SOL     OW12721   5.909   6.837   4.216
 3941SOL    HW112722   5.939   6.833   4.312
 3941SOL    HW212723   5.810   6.828   4.213
 3942SOL     OW12724   0.899   6.229   5.366
 3942SOL    HW112725   0.870   6.271   5.452
 3942SOL    HW212726   0.918   6.301   5.299
 3943SOL     OW12727   1.167   3.225   1.447
 3943SOL    HW112728   1.154   3.239   1.545
 3943SOL    HW212729   1.078   3.214   1.403
 3944SOL     OW12730   5.734   3.692   5.620
 3944SOL    HW112731   5.668   3.723   5.688
 3944SOL    HW212732   5.700   3.609   5.577
 3945SOL     OW12733   0.970   2.488   3.378
 3945SOL    HW112734   0.957   2.518   3.472
 3945SOL    HW212735   0.908   2.412   3.359
 3946SOL     OW12736   0.480   3.889   6.998
 3946SOL    HW112737   0.528   3.975   7.015
 3946SOL    HW212738   0.382   3.907   6.987
 3947SOL     OW12739   6.243   5.313   0.045
 3947SOL    HW112740   6.153   5.269   0.049
 3947SOL    HW212741   6.307   5.251   7.018
 3948SOL     OW12742   1.171   3.545   6.895
 3948SOL    HW112743   1.157   3.478   6.969
 3948SOL    HW212744   1.206   3.630   6.933
 3949SOL     OW12745   6.572   0.370   3.321
 3949SOL    HW112746   6.587   0.464   3.351
 3949SOL    HW212747   6.562   0.369   3.221
 3950SOL     OW12748   4.189   4.120   1.726
 3950SOL    HW112749   4.279   4.128   1.768
 3950SOL    HW212750   4.142   4.039   1.763
 3951SOL     OW12751   0.298   1.789   6.856
 3951SOL    HW112752   0.229   1.722   6.829
 3951SOL    HW212753   0.332   1.836   6.774
 3952SOL     OW12754   5.935   3.239   4.224
 3952SOL    HW112755   5.910   3.332   4.252
 3952SOL    HW212756   5.954   3.237   4.126
 3953SOL     OW12757   3.209   4.495   5.922
 3953SOL    HW112758   3.134   4.557   5.898
 3953SOL    HW212759   3.196   4.407   5.876
 3954SOL     OW12760   5.923   4.810   5.764
 3954SOL    HW112761   5.915   4.838   5.859
 3954SOL    HW212762   5.832   4.799   5.724
 3955SOL     OW12763   4.469   6.561   0.406
 3955SOL    HW112764   4.443   6.596   0.316
 3955SOL    HW212765   4.567   6.570   0.419
 3956SOL     OW12766   0.864   2.756   5.460
 3956SOL    HW112767   0.846   2.847   5.496
 3956SOL    HW212768   0.961   2.747   5.437
 3957SOL     OW12769   3.214   5.863   3.786
 3957SOL    HW112770   3.261   5.807   3.853
 3957SOL    HW212771   3.121   5.830   3.774
 3958SOL     OW12772   5.619   6.623   0.177
 3958SOL    HW112773   5.578   6.631   0.086
 3958SOL    HW212774   5.668   6.535   0.183
 3959SOL     OW12775   3.238   5.942   1.180
 3959SOL    HW112776   3.327   5.962   1.139
 3959SOL    HW212777   3.186   5.882   1.119
 3960SOL     OW12778   5.146   2.540   6.158
 3960SOL    HW112779   5.091   2.619   6.131
 3960SOL    HW212780   5.089   2.458   6.158
 3961SOL     OW12781   5.210   1.904   1.891
 3961SOL    HW112782   5.185   1.998   1.913
 3961SOL    HW212783   5.150   1.870   1.819
 3962SOL     OW12784   0.656   5.871   6.855
 3962SOL    HW112785   0.670   5.799   6.923
 3962SOL    HW212786   0.745   5.901   6.821
 3963SOL     OW12787   6.029   5.633   3.440
 3963SOL    HW112788   6.087   5.555   3.461
 3963SOL    HW212789   6.032   5.652   3.342
 3964SOL     OW12790   4.709   5.555   5.162
 3964SOL    HW112791   4.721   5.468   5.211
 3964SOL    HW212792   4.676   5.536   5.069
 3965SOL     OW12793   3.493   4.839   5.856
 3965SOL    HW112794   3.458   4.930   5.833
 3965SOL    HW212795   3.587   4.830   5.823
 3966SOL     OW12796   6.416   4.786   6.580
 3966SOL    HW112797   6.336   4.834   6.546
 3966SOL    HW212798   6.492   4.850   6.591
 3967SOL     OW12799   1.058   5.020   3.375
 3967SOL    HW112800   1.101   4.930   3.374
 3967SOL    HW212801   0.965   5.012   3.338
 3968SOL     OW12802   5.241   0.328   2.252
 3968SOL    HW112803   5.183   0.409   2.263
 3968SOL    HW212804   5.280   0.303   2.341
 3969SOL     OW12805   0.849   4.537   2.651
 3969SOL    HW112806   0.883   4.622   2.608
 3969SOL    HW212807   0.854   4.546   2.750
 3970SOL     OW12808   4.813   5.284   3.568
 3970SOL    HW112809   4.762   5.352   3.515
 3970SOL    HW212810   4.898   5.324   3.601
 3971SOL     OW12811   3.019   5.121   2.698
 3971SOL    HW112812   3.110   5.157   2.721
 3971SOL    HW212813   3.010   5.114   2.599
 3972SOL     OW12814   0.481   5.738   0.646
 3972SOL    HW112815   0.439   5.733   0.555
 3972SOL    HW212816   0.463   5.654   0.696
 3973SOL     OW12817   3.417   3.417   4.868
 3973SOL    HW112818   3.445   3.509   4.843
 3973SOL    HW212819   3.401   3.412   4.967
 3974SOL     OW12820   0.482   0.544   6.235
 3974SOL    HW112821   0.539   0.601   6.175
 3974SOL    HW212822   0.538   0.510   6.311
 3975SOL     OW12823   6.862   0.357   5.778
 3975SOL    HW112824   6.854   0.294   5.855
 3975SOL    HW212825   6.951   0.404   5.782
 3976SOL     OW12826   1.181   5.040   1.264
 3976SOL    HW112827   1.245   5.037   1.188
 3976SOL    HW212828   1.114   4.966   1.254
 3977SOL     OW12829   2.962   5.119   5.882
 3977SOL    HW112830   2.903   5.054   5.833
 3977SOL    HW212831   2.943   5.113   5.980
 3978SOL     OW12832   5.345   1.183   4.831
 3978SOL    HW112833   5.413   1.116   4.860
 3978SOL    HW212834   5.391   1.260   4.788
 3979SOL     OW12835   1.865   6.618   1.695
 3979SOL    HW112836   1.805   6.626   1.615
 3979SOL    HW212837   1.891   6.522   1.708
 3980SOL     OW12838   6.625   3.827   5.387
 3980SOL    HW112839   6.700   3.763   5.408
 3980SOL    HW212840   6.611   3.888   5.465
 3981SOL     OW12841   0.383   1.479   6.179
 3981SOL    HW112842   0.300   1.443   6.137
 3981SOL    HW212843   0.441   1.519   6.108
 3982SOL     OW12844   2.539   0.547   4.451
 3982SOL    HW112845   2.509   0.542   4.356
 3982SOL    HW212846   2.552   0.643   4.477
 3983SOL     OW12847   3.152   5.981   4.752
 3983SOL    HW112848   3.168   5.887   4.720
 3983SOL    HW212849   3.197   5.994   4.840
 3984SOL     OW12850   1.851   7.018   1.640
 3984SOL    HW112851   1.898   6.959   1.705
 3984SOL    HW212852   1.884   0.092   1.649
 3985SOL     OW12853   2.170   3.667   6.751
 3985SOL    HW112854   2.162   3.765   6.768
 3985SOL    HW212855   2.212   3.652   6.662
 3986SOL     OW12856   0.383   1.421   2.901
 3986SOL    HW112857   0.405   1.412   2.804
 3986SOL    HW212858   0.464   1.401   2.956
 3987SOL     OW12859   1.504   5.302   4.918
 3987SOL    HW112860   1.548   5.305   5.008
 3987SOL    HW212861   1.532   5.218   4.871
 3988SOL     OW12862   3.725   1.544   5.870
 3988SOL    HW112863   3.702   1.620   5.810
 3988SOL    HW212864   3.682   1.558   5.959
 3989SOL     OW12865   5.935   0.497   5.726
 3989SOL    HW112866   5.866   0.548   5.777
 3989SOL    HW212867   5.979   0.430   5.785
 3990SOL     OW12868   5.368   2.115   4.268
 3990SOL    HW112869   5.388   2.209   4.293
 3990SOL    HW212870   5.305   2.075   4.334
 3991SOL     OW12871   6.631   2.440   3.232
 3991SOL    HW112872   6.638   2.536   3.259
 3991SOL    HW212873   6.704   2.419   3.167
 3992SOL     OW12874   4.655   2.895   6.678
 3992SOL    HW112875   4.557   2.913   6.675
 3992SOL    HW212876   4.699   2.934   6.597
 3993SOL     OW12877   2.571   1.949   3.329
 3993SOL    HW112878   2.475   1.949   3.358
 3993SOL    HW212879   2.594   1.859   3.291
 3994SOL     OW12880   1.987   2.823   4.855
 3994SOL    HW112881   2.081   2.855   4.867
 3994SOL    HW212882   1.930   2.856   4.931
 3995SOL     OW12883   2.827   4.798   4.058
 3995SOL    HW112884   2.735   4.788   4.019
 3995SOL    HW212885   2.884   4.721   4.030
 3996SOL     OW12886   2.007   1.255   5.073
 3996SOL    HW112887   1.915   1.282   5.043
 3996SOL    HW212888   2.041   1.183   5.012
 3997SOL     OW12889   4.999   3.751   3.460
 3997SOL    HW112890   5.059   3.830   3.470
 3997SOL    HW212891   4.954   3.754   3.371
 3998SOL     OW12892   5.579   2.238   2.242
 3998SOL    HW112893   5.627   2.290   2.171
 3998SOL    HW212894   5.575   2.142   2.216
 3999SOL     OW12895   6.086   3.959   3.565
 3999SOL    HW112896   6.161   3.905   3.528
 3999SOL    HW212897   6.006   3.900   3.577
 4000SOL     OW12898   3.299   5.257   2.801
 4000SOL    HW112899   3.332   5.234   2.892
 4000SOL    HW212900   3.349   5.203   2.732
 4001SOL     OW12901   2.284   3.570   5.311
 4001SOL    HW112902   2.369   3.573   5.364
 4001SOL    HW212903   2.275   3.655   5.259
 4002SOL     OW12904   3.638   3.671   5.067
 4002SOL    HW112905   3.676   3.580   5.083
 4002SOL    HW212906   3.666   3.732   5.141
 4003SOL     OW12907   2.334   1.190   6.329
 4003SOL    HW112908   2.400   1.264   6.323
 4003SOL    HW212909   2.353   1.123   6.257
 4004SOL     OW12910   6.406   3.130   4.703
 4004SOL    HW112911   6.473   3.057   4.715
 4004SOL    HW212912   6.345   3.107   4.627
 4005SOL     OW12913   5.251   4.512   1.466
 4005SOL    HW112914   5.215   4.442   1.403
 4005SOL    HW212915   5.218   4.602   1.438
 4006SOL     OW12916   5.659   4.600   2.382
 4006SOL    HW112917   5.673   4.519   2.438
 4006SOL    HW212918   5.623   4.674   2.439
 4007SOL     OW12919   0.347   2.222   3.021
 4007SOL    HW112920   0.395   2.167   2.952
 4007SOL    HW212921   0.356   2.319   2.997
 4008SOL     OW12922   3.528   0.974   5.876
 4008SOL    HW112923   3.572   1.019   5.798
 4008SOL    HW212924   3.470   0.900   5.843
 4009SOL     OW12925   4.278   2.046   1.314
 4009SOL    HW112926   4.302   1.972   1.376
 4009SOL    HW212927   4.207   2.015   1.250
 4010SOL     OW12928   2.851   3.517   1.594
 4010SOL    HW112929   2.797   3.462   1.659
 4010SOL    HW212930   2.940   3.537   1.634
 4011SOL     OW12931   0.226   6.673   1.524
 4011SOL    HW112932   0.206   6.755   1.470
 4011SOL    HW212933   0.236   6.699   1.620
 4012SOL     OW12934   4.228   6.422   2.131
 4012SOL    HW112935   4.275   6.463   2.209
 4012SOL    HW212936   4.272   6.336   2.107
 4013SOL     OW12937   2.196   0.418   1.433
 4013SOL    HW112938   2.250   0.464   1.362
 4013SOL    HW212939   2.100   0.417   1.406
 4014SOL     OW12940   3.722   5.906   3.806
 4014SOL    HW112941   3.681   5.965   3.875
 4014SOL    HW212942   3.670   5.821   3.800
 4015SOL     OW12943   4.268   4.480   6.960
 4015SOL    HW112944   4.348   4.505   6.905
 4015SOL    HW212945   4.191   4.539   6.935
 4016SOL     OW12946   2.388   5.566   0.058
 4016SOL    HW112947   2.363   5.482   0.009
 4016SOL    HW212948   2.417   5.635   7.012
 4017SOL     OW12949   0.819   6.202   5.897
 4017SOL    HW112950   0.783   6.111   5.878
 4017SOL    HW212951   0.893   6.195   5.964
 4018SOL     OW12952   5.005   6.271   1.336
 4018SOL    HW112953   5.095   6.239   1.365
 4018SOL    HW212954   5.005   6.370   1.328
 4019SOL     OW12955   5.987   4.137   2.775
 4019SOL    HW112956   5.928   4.152   2.696
 4019SOL    HW212957   5.945   4.176   2.857
 4020SOL     OW12958   6.572   3.247   5.713
 4020SOL    HW112959   6.647   3.181   5.719
 4020SOL    HW212960   6.574   3.292   5.624
 4021SOL     OW12961   3.525   4.307   5.258
 4021SOL    HW112962   3.569   4.301   5.168
 4021SOL    HW212963   3.584   4.263   5.326
 4022SOL     OW12964   4.213   0.086   6.965
 4022SOL    HW112965   4.243   0.012   6.905
 4022SOL    HW212966   4.165   0.155   6.911
 4023SOL     OW12967   0.306   0.570   5.137
 4023SOL    HW112968   0.341   0.515   5.213
 4023SOL    HW212969   0.250   0.513   5.078
 4024SOL     OW12970   2.452   5.304   4.529
 4024SOL    HW112971   2.504   5.231   4.484
 4024SOL    HW212972   2.397   5.265   4.602
 4025SOL     OW12973   1.099   6.024   3.942
 4025SOL    HW112974   1.076   6.002   4.037
 4025SOL    HW212975   1.015   6.027   3.887
 4026SOL     OW12976   6.040   6.666   3.385
 4026SOL    HW112977   5.949   6.708   3.381
 4026SOL    HW212978   6.045   6.606   3.465
 4027SOL     OW12979   2.990   2.284   0.135
 4027SOL    HW112980   2.921   2.331   0.080
 4027SOL    HW212981   3.021   2.202   0.086
 4028SOL     OW12982   3.719   1.566   3.597
 4028SOL    HW112983   3.771   1.501   3.653
 4028SOL    HW212984   3.767   1.654   3.597
 4029SOL     OW12985   2.825   4.651   5.852
 4029SOL    HW112986   2.827   4.621   5.756
 4029SOL    HW212987   2.898   4.717   5.867
 4030SOL     OW12988   0.264   1.666   1.810
 4030SOL    HW112989   0.286   1.570   1.828
 4030SOL    HW212990   0.202   1.672   1.732
 4031SOL     OW12991   5.459   6.116   3.829
 4031SOL    HW112992   5.374   6.096   3.781
 4031SOL    HW212993   5.448   6.098   3.926
 4032SOL     OW12994   6.852   0.229   1.805
 4032SOL    HW112995   6.759   0.260   1.782
 4032SOL    HW212996   6.849   0.133   1.832
 4033SOL     OW12997   2.379   2.856   1.407
 4033SOL    HW112998   2.293   2.830   1.451
 4033SOL    HW212999   2.456   2.822   1.463
 4034SOL     OW13000   6.235   1.902   4.686
 4034SOL    HW113001   6.299   1.866   4.619
 4034SOL    HW213002   6.154   1.937   4.638
 4035SOL     OW13003   6.482   1.943   1.204
 4035SOL    HW113004   6.521   2.004   1.135
 4035SOL    HW213005   6.419   1.879   1.160
 4036SOL     OW13006   4.247   5.508   2.240
 4036SOL    HW113007   4.172   5.442   2.242
 4036SOL    HW213008   4.216   5.591   2.194
 4037SOL     OW13009   2.172   1.601   6.964
 4037SOL    HW113010   2.072   1.605   6.972
 4037SOL    HW213011   2.207   1.525   7.019
 4038SOL     OW13012   4.710   3.124   1.462
 4038SOL    HW113013   4.731   3.141   1.558
 4038SOL    HW213014   4.640   3.053   1.456
 4039SOL     OW13015   6.141   5.296   1.396
 4039SOL    HW113016   6.225   5.332   1.437
 4039SOL    HW213017   6.147   5.197   1.388
 4040SOL     OW13018   3.693   0.326   6.035
 4040SOL    HW113019   3.690   0.353   6.131
 4040SOL    HW213020   3.783   0.347   5.996
 4041SOL     OW13021   0.889   5.125   1.470
 4041SOL    HW113022   0.986   5.148   1.460
 4041SOL    HW213023   0.869   5.043   1.416
 4042SOL     OW13024   6.057   5.675   3.156
 4042SOL    HW113025   6.142   5.723   3.134
 4042SOL    HW213026   6.057   5.585   3.113
 4043SOL     OW13027   6.614   2.465   5.131
 4043SOL    HW113028   6.626   2.563   5.145
 4043SOL    HW213029   6.689   2.429   5.075
 4044SOL     OW13030   4.393   0.148   3.411
 4044SOL    HW113031   4.402   0.067   3.468
 4044SOL    HW213032   4.384   0.121   3.315
 4045SOL     OW13033   3.792   6.024   5.318
 4045SOL    HW113034   3.810   5.933   5.282
 4045SOL    HW213035   3.706   6.058   5.281
 4046SOL     OW13036   1.335   1.699   4.064
 4046SOL    HW113037   1.412   1.761   4.077
 4046SOL    HW213038   1.338   1.627   4.134
 4047SOL     OW13039   1.951   2.264   0.637
 4047SOL    HW113040   1.878   2.224   0.582
 4047SOL    HW213041   2.009   2.192   0.675
 4048SOL     OW13042   4.830   1.872   1.765
 4048SOL    HW113043   4.849   1.970   1.768
 4048SOL    HW213044   4.749   1.856   1.708
 4049SOL     OW13045   5.736   4.961   6.262
 4049SOL    HW113046   5.728   4.953   6.163
 4049SOL    HW213047   5.688   4.885   6.306
 4050SOL     OW13048   1.453   6.938   1.695
 4050SOL    HW113049   1.536   6.903   1.652
 4050SOL    HW213050   1.374   6.886   1.663
 4051SOL     OW13051   4.279   1.969   0.063
 4051SOL    HW113052   4.221   1.913   0.004
 4051SOL    HW213053   4.305   1.916   0.143
 4052SOL     OW13054   6.534   1.390   2.712
 4052SOL    HW113055   6.593   1.420   2.787
 4052SOL    HW213056   6.571   1.306   2.672
 4053SOL     OW13057   3.015   5.524   3.948
 4053SOL    HW113058   3.026   5.565   4.038
 4053SOL    HW213059   3.022   5.425   3.955
 4054SOL     OW13060   6.382   4.094   1.768
 4054SOL    HW113061   6.352   4.065   1.678
 4054SOL    HW213062   6.422   4.185   1.763
 4055SOL     OW13063   3.002   3.314   0.322
 4055SOL    HW113064   2.977   3.279   0.231
 4055SOL    HW213065   2.927   3.297   0.386
 4056SOL     OW13066   3.937   3.979   0.320
 4056SOL    HW113067   3.936   4.076   0.342
 4056SOL    HW213068   3.945   3.966   0.221
 4057SOL     OW13069   6.450   3.044   1.328
 4057SOL    HW113070   6.436   2.968   1.264
 4057SOL    HW213071   6.547   3.055   1.346
 4058SOL     OW13072   1.745   0.196   4.492
 4058SOL    HW113073   1.684   0.245   4.430
 4058SOL    HW213074   1.791   0.262   4.552
 4059SOL     OW13075   1.295   1.803   3.043
 4059SOL    HW113076   1.225   1.865   3.080
 4059SOL    HW213077   1.334   1.843   2.961
 4060SOL     OW13078   5.355   5.744   5.176
 4060SOL    HW113079   5.354   5.754   5.276
 4060SOL    HW213080   5.411   5.665   5.151
 4061SOL     OW13081   2.887   4.710   2.265
 4061SOL    HW113082   2.843   4.670   2.185
 4061SOL    HW213083   2.986   4.697   2.258
 4062SOL     OW13084   2.013   2.082   2.308
 4062SOL    HW113085   2.047   2.114   2.396
 4062SOL    HW213086   1.953   2.003   2.322
 4063SOL     OW13087   6.099   6.441   6.801
 4063SOL    HW113088   6.069   6.362   6.748
 4063SOL    HW213089   6.077   6.428   6.898
 4064SOL     OW13090   2.739   0.422   3.898
 4064SOL    HW113091   2.749   0.389   3.992
 4064SOL    HW213092   2.721   0.521   3.900
 4065SOL     OW13093   0.768   0.039   1.092
 4065SOL    HW113094   0.818   0.107   1.145
 4065SOL    HW213095   0.789   6.967   1.127
 4066SOL     OW13096   5.338   5.103   3.854
 4066SOL    HW113097   5.374   5.052   3.776
 4066SOL    HW213098   5.253   5.062   3.885
 4067SOL     OW13099   6.101   3.265   2.905
 4067SOL    HW113100   6.166   3.227   2.839
 4067SOL    HW213101   6.108   3.215   2.991
 4068SOL     OW13102   2.105   1.493   4.590
 4068SOL    HW113103   2.166   1.521   4.516
 4068SOL    HW213104   2.142   1.527   4.677
 4069SOL     OW13105   2.321   4.897   6.372
 4069SOL    HW113106   2.227   4.897   6.406
 4069SOL    HW213107   2.382   4.934   6.442
 4070SOL     OW13108   0.250   3.780   2.397
 4070SOL    HW113109   0.323   3.825   2.346
 4070SOL    HW213110   0.162   3.807   2.359
 4071SOL     OW13111   1.720   0.703   5.598
 4071SOL    HW113112   1.645   0.702   5.532
 4071SOL    HW213113   1.805   0.677   5.552
 4072SOL     OW13114   0.096   5.533   4.446
 4072SOL    HW113115   0.136   5.468   4.510
 4072SOL    HW213116   0.168   5.590   4.407
 4073SOL     OW13117   2.490   6.108   6.320
 4073SOL    HW113118   2.528   6.169   6.390
 4073SOL    HW213119   2.557   6.037   6.299
 4074SOL     OW13120   6.857   3.395   2.039
 4074SOL    HW113121   6.947   3.408   2.080
 4074SOL    HW213122   6.836   3.298   2.035
 4075SOL     OW13123   3.681   1.758   1.953
 4075SOL    HW113124   3.737   1.761   2.036
 4075SOL    HW213125   3.728   1.805   1.879
 4076SOL     OW13126   2.573   2.713   5.414
 4076SOL    HW113127   2.549   2.647   5.485
 4076SOL    HW213128   2.491   2.744   5.367
 4077SOL     OW13129   3.116   0.841   0.522
 4077SOL    HW113130   3.149   0.779   0.593
 4077SOL    HW213131   3.154   0.813   0.433
 4078SOL     OW13132   0.419   5.488   1.813
 4078SOL    HW113133   0.484   5.499   1.737
 4078SOL    HW213134   0.362   5.570   1.819
 4079SOL     OW13135   1.012   1.920   3.715
 4079SOL    HW113136   0.996   2.012   3.679
 4079SOL    HW213137   1.106   1.913   3.747
 4080SOL     OW13138   3.391   4.439   6.793
 4080SOL    HW113139   3.471   4.463   6.847
 4080SOL    HW213140   3.420   4.405   6.703
 4081SOL     OW13141   1.576   2.816   4.841
 4081SOL    HW113142   1.523   2.744   4.886
 4081SOL    HW213143   1.616   2.780   4.757
 4082SOL     OW13144   1.469   2.932   0.662
 4082SOL    HW113145   1.468   3.025   0.624
 4082SOL    HW213146   1.538   2.877   0.614
 4083SOL     OW13147   6.940   4.747   1.957
 4083SOL    HW113148   6.851   4.750   2.002
 4083SOL    HW213149   6.943   4.670   1.894
 4084SOL     OW13150   4.667   2.198   3.468
 4084SOL    HW113151   4.642   2.129   3.400
 4084SOL    HW213152   4.767   2.206   3.472
 4085SOL     OW13153   1.908   6.190   0.833
 4085SOL    HW113154   1.978   6.209   0.902
 4085SOL    HW213155   1.924   6.100   0.793
 4086SOL     OW13156   1.277   5.399   1.731
 4086SOL    HW113157   1.182   5.427   1.720
 4086SOL    HW213158   1.288   5.351   1.818
 4087SOL     OW13159   1.894   1.367   3.397
 4087SOL    HW113160   1.841   1.434   3.346
 4087SOL    HW213161   1.975   1.410   3.435
 4088SOL     OW13162   6.613   0.673   6.763
 4088SOL    HW113163   6.547   0.741   6.794
 4088SOL    HW213164   6.566   0.602   6.711
 4089SOL     OW13165   5.790   5.193   4.308
 4089SOL    HW113166   5.814   5.221   4.215
 4089SOL    HW213167   5.743   5.268   4.355
 4090SOL     OW13168   1.502   5.641   5.320
 4090SOL    HW113169   1.433   5.635   5.248
 4090SOL    HW213170   1.517   5.738   5.343
 4091SOL     OW13171   6.621   6.591   6.449
 4091SOL    HW113172   6.655   6.575   6.356
 4091SOL    HW213173   6.690   6.641   6.501
 4092SOL     OW13174   5.749   2.529   4.982
 4092SOL    HW113175   5.725   2.511   5.078
 4092SOL    HW213176   5.707   2.459   4.924
 4093SOL     OW13177   4.609   5.579   2.333
 4093SOL    HW113178   4.708   5.567   2.337
 4093SOL    HW213179   4.575   5.546   2.245
 4094SOL     OW13180   1.944   5.586   5.818
 4094SOL    HW113181   2.010   5.549   5.753
 4094SOL    HW213182   1.886   5.653   5.772
 4095SOL     OW13183   1.078   3.278   0.609
 4095SOL    HW113184   1.065   3.187   0.568
 4095SOL    HW213185   1.022   3.344   0.559
 4096SOL     OW13186   4.698   6.809   6.240
 4096SOL    HW113187   4.699   6.756   6.155
 4096SOL    HW213188   4.604   6.821   6.270
 4097SOL     OW13189   4.136   4.900   4.897
 4097SOL    HW113190   4.232   4.871   4.899
 4097SOL    HW213191   4.105   4.907   4.802
 4098SOL     OW13192   6.741   2.616   1.809
 4098SOL    HW113193   6.740   2.523   1.846
 4098SOL    HW213194   6.817   2.626   1.745
 4099SOL     OW13195   3.246   5.060   0.950
 4099SOL    HW113196   3.165   5.024   0.996
 4099SOL    HW213197   3.227   5.070   0.852
 4100SOL     OW13198   6.634   0.259   4.600
 4100SOL    HW113199   6.647   0.171   4.645
 4100SOL    HW213200   6.672   0.332   4.657
 4101SOL     OW13201   6.253   1.178   6.605
 4101SOL    HW113202   6.254   1.160   6.507
 4101SOL    HW213203   6.199   1.108   6.652
 4102SOL     OW13204   0.601   0.930   0.421
 4102SOL    HW113205   0.512   0.886   0.438
 4102SOL    HW213206   0.666   0.861   0.388
 4103SOL     OW13207   6.765   6.884   0.007
 4103SOL    HW113208   6.779   6.983   0.000
 4103SOL    HW213209   6.757   6.858   0.103
 4104SOL     OW13210   6.914   4.839   2.767
 4104SOL    HW113211   6.947   4.920   2.815
 4104SOL    HW213212   6.856   4.867   2.690
 4105SOL     OW13213   5.349   6.826   1.800
 4105SOL    HW113214   5.372   6.786   1.711
 4105SOL    HW213215   5.265   6.784   1.834
 4106SOL     OW13216   6.273   3.096   2.780
 4106SOL    HW113217   6.238   3.035   2.709
 4106SOL    HW213218   6.332   3.045   2.842
 4107SOL     OW13219   1.031   4.892   0.965
 4107SOL    HW113220   0.980   4.831   1.025
 4107SOL    HW213221   1.127   4.863   0.961
 4108SOL     OW13222   6.134   4.797   5.274
 4108SOL    HW113223   6.069   4.741   5.222
 4108SOL    HW213224   6.113   4.792   5.371
 4109SOL     OW13225   6.102   6.980   4.892
 4109SOL    HW113226   6.027   7.002   4.829
 4109SOL    HW213227   6.119   0.038   4.953
 4110SOL     OW13228   4.475   3.603   6.094
 4110SOL    HW113229   4.525   3.570   6.014
 4110SOL    HW213230   4.390   3.551   6.104
 4111SOL     OW13231   5.292   3.877   0.422
 4111SOL    HW113232   5.332   3.862   0.512
 4111SOL    HW213233   5.248   3.967   0.419
 4112SOL     OW13234   4.758   6.269   4.665
 4112SOL    HW113235   4.694   6.300   4.735
 4112SOL    HW213236   4.710   6.209   4.601
 4113SOL     OW13237   4.940   6.201   4.923
 4113SOL    HW113238   4.929   6.284   4.977
 4113SOL    HW213239   4.853   6.176   4.882
 4114SOL     OW13240   3.423   2.063   4.499
 4114SOL    HW113241   3.323   2.070   4.499
 4114SOL    HW213242   3.458   2.089   4.410
 4115SOL     OW13243   3.399   5.442   1.832
 4115SOL    HW113244   3.428   5.350   1.808
 4115SOL    HW213245   3.307   5.458   1.796
 4116SOL     OW13246   3.196   0.761   2.655
 4116SOL    HW113247   3.221   0.858   2.658
 4116SOL    HW213248   3.105   0.751   2.617
 4117SOL     OW13249   1.600   3.953   2.318
 4117SOL    HW113250   1.509   3.944   2.358
 4117SOL    HW213251   1.628   4.049   2.319
 4118SOL     OW13252   4.061   6.204   0.048
 4118SOL    HW113253   3.966   6.181   0.070
 4118SOL    HW213254   4.088   6.157   6.984
 4119SOL     OW13255   2.968   1.924   3.796
 4119SOL    HW113256   2.956   1.889   3.889
 4119SOL    HW213257   2.908   1.874   3.734
 4120SOL     OW13258   3.679   1.152   6.592
 4120SOL    HW113259   3.648   1.212   6.518
 4120SOL    HW213260   3.601   1.121   6.645
 4121SOL     OW13261   5.637   1.154   4.520
 4121SOL    HW113262   5.732   1.180   4.499
 4121SOL    HW213263   5.637   1.085   4.592
 4122SOL     OW13264   1.263   5.448   4.557
 4122SOL    HW113265   1.300   5.515   4.492
 4122SOL    HW213266   1.295   5.470   4.649
 4123SOL     OW13267   4.213   4.545   5.487
 4123SOL    HW113268   4.114   4.535   5.496
 4123SOL    HW213269   4.257   4.525   5.575
 4124SOL     OW13270   0.148   6.054   0.465
 4124SOL    HW113271   0.238   6.097   0.458
 4124SOL    HW213272   0.110   6.072   0.556
 4125SOL     OW13273   5.162   1.590   2.102
 4125SOL    HW113274   5.189   1.593   2.005
 4125SOL    HW213275   5.119   1.676   2.127
 4126SOL     OW13276   1.641   3.360   4.327
 4126SOL    HW113277   1.621   3.335   4.232
 4126SOL    HW213278   1.631   3.459   4.339
 4127SOL     OW13279   5.034   4.835   5.008
 4127SOL    HW113280   5.051   4.786   5.094
 4127SOL    HW213281   5.041   4.933   5.024
 4128SOL     OW13282   1.116   2.537   1.687
 4128SOL    HW113283   1.126   2.635   1.669
 4128SOL    HW213284   1.021   2.510   1.674
 4129SOL     OW13285   4.062   1.374   5.939
 4129SOL    HW113286   4.057   1.311   6.016
 4129SOL    HW213287   4.016   1.459   5.963
 4130SOL     OW13288   6.506   3.498   6.886
 4130SOL    HW113289   6.596   3.484   6.926
 4130SOL    HW213290   6.480   3.418   6.833
 4131SOL     OW13291   0.732   0.974   3.734
 4131SOL    HW113292   0.772   0.904   3.793
 4131SOL    HW213293   0.636   0.989   3.760
 4132SOL     OW13294   5.151   4.315   3.581
 4132SOL    HW113295   5.237   4.281   3.619
 4132SOL    HW213296   5.075   4.285   3.640
 4133SOL     OW13297   2.713   5.641   0.649
 4133SOL    HW113298   2.796   5.602   0.690
 4133SOL    HW213299   2.687   5.723   0.699
 4134SOL     OW13300   2.337   3.686   1.088
 4134SOL    HW113301   2.283   3.630   1.026
 4134SOL    HW213302   2.326   3.653   1.182
 4135SOL     OW13303   1.324   1.620   2.722
 4135SOL    HW113304   1.366   1.624   2.813
 4135SOL    HW213305   1.337   1.529   2.684
 4136SOL     OW13306   1.545   2.396   3.704
 4136SOL    HW113307   1.449   2.423   3.717
 4136SOL    HW213308   1.604   2.475   3.719
 4137SOL     OW13309   1.236   4.418   1.134
 4137SOL    HW113310   1.197   4.326   1.144
 4137SOL    HW213311   1.271   4.449   1.223
 4138SOL     OW13312   5.013   5.277   2.958
 4138SOL    HW113313   5.040   5.221   2.879
 4138SOL    HW213314   5.052   5.368   2.948
 4139SOL     OW13315   1.837   1.904   5.840
 4139SOL    HW113316   1.753   1.854   5.819
 4139SOL    HW213317   1.859   1.893   5.937
 4140SOL     OW13318   3.616   0.341   5.362
 4140SOL    HW113319   3.617   0.298   5.272
 4140SOL    HW213320   3.556   0.421   5.361
 4141SOL     OW13321   6.121   6.454   0.759
 4141SOL    HW113322   6.192   6.510   0.800
 4141SOL    HW213323   6.084   6.502   0.679
 4142SOL     OW13324   6.518   4.845   1.262
 4142SOL    HW113325   6.605   4.852   1.214
 4142SOL    HW213326   6.533   4.822   1.358
 4143SOL     OW13327   5.738   1.704   0.574
 4143SOL    HW113328   5.678   1.626   0.594
 4143SOL    HW213329   5.750   1.713   0.476
 4144SOL     OW13330   4.690   3.210   0.294
 4144SOL    HW113331   4.676   3.111   0.285
 4144SOL    HW213332   4.776   3.236   0.250
 4145SOL     OW13333   6.929   6.175   1.541
 4145SOL    HW113334   6.960   6.131   1.456
 4145SOL    HW213335   6.969   6.266   1.548
 4146SOL     OW13336   6.615   0.632   3.388
 4146SOL    HW113337   6.714   0.628   3.407
 4146SOL    HW213338   6.596   0.703   3.321
 4147SOL     OW13339   5.142   3.903   6.540
 4147SOL    HW113340   5.167   3.883   6.635
 4147SOL    HW213341   5.043   3.918   6.534
 4148SOL     OW13342   1.408   0.378   5.459
 4148SOL    HW113343   1.408   0.433   5.375
 4148SOL    HW213344   1.395   0.282   5.435
 4149SOL     OW13345   0.096   3.257   0.427
 4149SOL    HW113346   0.050   3.340   0.457
 4149SOL    HW213347   0.063   3.179   0.480
 4150SOL     OW13348   1.368   0.995   5.756
 4150SOL    HW113349   1.400   1.029   5.667
 4150SOL    HW213350   1.331   0.903   5.745
 4151SOL     OW13351   2.477   5.773   6.190
 4151SOL    HW113352   2.496   5.683   6.152
 4151SOL    HW213353   2.457   5.838   6.116
 4152SOL     OW13354   4.741   5.905   0.750
 4152SOL    HW113355   4.680   5.959   0.808
 4152SOL    HW213356   4.774   5.962   0.675
 4153SOL     OW13357   4.509   5.569   0.075
 4153SOL    HW113358   4.529   5.666   0.092
 4153SOL    HW213359   4.465   5.560   7.005
 4154SOL     OW13360   6.983   5.204   3.297
 4154SOL    HW113361   0.037   5.243   3.353
 4154SOL    HW213362   6.984   5.246   3.206
 4155SOL     OW13363   1.333   0.882   3.048
 4155SOL    HW113364   1.321   0.957   2.983
 4155SOL    HW213365   1.338   0.919   3.141
 4156SOL     OW13366   5.069   6.082   5.123
 4156SOL    HW113367   5.111   6.001   5.082
 4156SOL    HW213368   5.023   6.135   5.052
 4157SOL     OW13369   4.647   5.449   3.938
 4157SOL    HW113370   4.741   5.446   3.972
 4157SOL    HW213371   4.646   5.485   3.845
 4158SOL     OW13372   0.513   3.914   1.811
 4158SOL    HW113373   0.603   3.951   1.834
 4158SOL    HW213374   0.473   3.968   1.737
 4159SOL     OW13375   1.723   3.565   3.757
 4159SOL    HW113376   1.720   3.467   3.740
 4159SOL    HW213377   1.727   3.614   3.670
 4160SOL     OW13378   5.988   1.188   1.044
 4160SOL    HW113379   5.978   1.216   1.139
 4160SOL    HW213380   6.045   1.106   1.040
 4161SOL     OW13381   1.118   1.431   0.637
 4161SOL    HW113382   1.111   1.422   0.736
 4161SOL    HW213383   1.027   1.426   0.597
 4162SOL     OW13384   6.940   6.091   6.428
 4162SOL    HW113385   6.983   6.180   6.438
 4162SOL    HW213386   7.010   6.022   6.408
 4163SOL     OW13387   5.080   6.674   3.306
 4163SOL    HW113388   5.051   6.586   3.267
 4163SOL    HW213389   5.149   6.715   3.248
 4164SOL     OW13390   1.865   6.539   6.128
 4164SOL    HW113391   1.890   6.591   6.210
 4164SOL    HW213392   1.946   6.523   6.072
 4165SOL     OW13393   4.209   0.052   6.570
 4165SOL    HW113394   4.183   6.998   6.633
 4165SOL    HW213395   4.241   0.012   6.484
 4166SOL     OW13396   6.153   2.861   0.773
 4166SOL    HW113397   6.070   2.846   0.827
 4166SOL    HW213398   6.146   2.811   0.687
 4167SOL     OW13399   1.525   3.634   1.105
 4167SOL    HW113400   1.520   3.571   1.027
 4167SOL    HW213401   1.567   3.588   1.183
 4168SOL     OW13402   6.559   4.793   1.593
 4168SOL    HW113403   6.508   4.722   1.642
 4168SOL    HW213404   6.650   4.802   1.633
 4169SOL     OW13405   5.797   4.302   4.342
 4169SOL    HW113406   5.855   4.232   4.384
 4169SOL    HW213407   5.853   4.383   4.321
 4170SOL     OW13408   4.748   4.336   5.928
 4170SOL    HW113409   4.796   4.263   5.976
 4170SOL    HW213410   4.649   4.328   5.945
 4171SOL     OW13411   6.698   5.483   0.366
 4171SOL    HW113412   6.774   5.531   0.324
 4171SOL    HW213413   6.612   5.516   0.327
 4172SOL     OW13414   0.642   1.715   6.002
 4172SOL    HW113415   0.681   1.752   6.087
 4172SOL    HW213416   0.554   1.758   5.985
 4173SOL     OW13417   5.220   4.132   5.563
 4173SOL    HW113418   5.304   4.116   5.511
 4173SOL    HW213419   5.240   4.191   5.641
 4174SOL     OW13420   5.339   0.647   3.206
 4174SOL    HW113421   5.404   0.633   3.280
 4174SOL    HW213422   5.321   0.559   3.161
 4175SOL     OW13423   2.417   6.045   4.216
 4175SOL    HW113424   2.486   6.044   4.289
 4175SOL    HW213425   2.423   6.131   4.165
 4176SOL     OW13426   2.897   6.377   1.969
 4176SOL    HW113427   2.934   6.470   1.968
 4176SOL    HW213428   2.799   6.381   1.950
 4177SOL     OW13429   6.175   4.455   5.258
 4177SOL    HW113430   6.158   4.385   5.190
 4177SOL    HW213431   6.218   4.535   5.215
 4178SOL     OW13432   5.077   0.682   4.327
 4178SOL    HW113433   5.092   0.584   4.340
 4178SOL    HW213434   4.987   0.698   4.287
 4179SOL     OW13435   4.938   2.510   3.576
 4179SOL    HW113436   4.972   2.416   3.565
 4179SOL    HW213437   4.841   2.513   3.553
 4180SOL     OW13438   5.548   4.610   1.043
 4180SOL    HW113439   5.586   4.640   1.131
 4180SOL    HW213440   5.498   4.685   1.001
 4181SOL     OW13441   2.485   1.544   1.049
 4181SOL    HW113442   2.502   1.452   1.014
 4181SOL    HW213443   2.387   1.554   1.069
 4182SOL     OW13444   0.905   6.914   3.121
 4182SOL    HW113445   0.965   6.989   3.095
 4182SOL    HW213446   0.840   6.945   3.191
 4183SOL     OW13447   4.151   1.257   0.045
 4183SOL    HW113448   4.149   1.355   0.062
 4183SOL    HW213449   4.100   1.209   0.116
 4184SOL     OW13450   4.896   5.038   1.481
 4184SOL    HW113451   4.858   4.991   1.561
 4184SOL    HW213452   4.826   5.097   1.440
 4185SOL     OW13453   0.784   5.513   2.290
 4185SOL    HW113454   0.692   5.548   2.305
 4185SOL    HW213455   0.846   5.551   2.359
 4186SOL     OW13456   2.126   5.056   0.133
 4186SOL    HW113457   2.201   5.051   0.067
 4186SOL    HW213458   2.071   4.972   0.128
 4187SOL     OW13459   3.484   3.119   5.831
 4187SOL    HW113460   3.432   3.204   5.825
 4187SOL    HW213461   3.425   3.042   5.810
 4188SOL     OW13462   4.658   0.171   4.460
 4188SOL    HW113463   4.756   0.155   4.466
 4188SOL    HW213464   4.641   0.255   4.408
 4189SOL     OW13465   3.902   6.696   5.287
 4189SOL    HW113466   3.838   6.664   5.217
 4189SOL    HW213467   3.928   6.620   5.346
 4190SOL     OW13468   0.887   0.670   6.944
 4190SOL    HW113469   0.964   0.608   6.952
 4190SOL    HW213470   0.854   0.671   6.849
 4191SOL     OW13471   5.122   3.890   2.997
 4191SOL    HW113472   5.124   3.989   3.006
 4191SOL    HW213473   5.028   3.858   2.997
 4192SOL     OW13474   0.616   1.249   4.093
 4192SOL    HW113475   0.520   1.252   4.122
 4192SOL    HW213476   0.633   1.162   4.046
 4193SOL     OW13477   1.212   0.430   2.183
 4193SOL    HW113478   1.221   0.398   2.277
 4193SOL    HW213479   1.261   0.368   2.122
 4194SOL     OW13480   5.546   1.014   4.926
 4194SOL    HW113481   5.563   1.004   5.024
 4194SOL    HW213482   5.600   1.090   4.890
 4195SOL     OW13483   4.196   6.552   1.900
 4195SOL    HW113484   4.219   6.648   1.917
 4195SOL    HW213485   4.198   6.502   1.986
 4196SOL     OW13486   5.309   2.006   3.616
 4196SOL    HW113487   5.298   1.988   3.519
 4196SOL    HW213488   5.254   1.940   3.668
 4197SOL     OW13489   5.024   6.040   5.943
 4197SOL    HW113490   5.039   6.036   5.844
 4197SOL    HW213491   5.093   5.983   5.989
 4198SOL     OW13492   5.707   3.629   0.381
 4198SOL    HW113493   5.747   3.582   0.302
 4198SOL    HW213494   5.740   3.723   0.384
 4199SOL     OW13495   2.129   3.036   6.302
 4199SOL    HW113496   2.055   3.101   6.284
 4199SOL    HW213497   2.090   2.948   6.328
 4200SOL     OW13498   3.453   6.633   6.141
 4200SOL    HW113499   3.488   6.714   6.189
 4200SOL    HW213500   3.474   6.640   6.044
 4201SOL     OW13501   6.280   5.949   3.758
 4201SOL    HW113502   6.355   5.976   3.698
 4201SOL    HW213503   6.194   5.946   3.706
 4202SOL     OW13504   4.082   5.204   5.797
 4202SOL    HW113505   4.010   5.208   5.727
 4202SOL    HW213506   4.159   5.150   5.762
 4203SOL     OW13507   4.989   5.083   0.600
 4203SOL    HW113508   4.961   5.178   0.614
 4203SOL    HW213509   5.075   5.081   0.549
 4204SOL     OW13510   3.997   3.281   2.527
 4204SOL    HW113511   4.050   3.355   2.484
 4204SOL    HW213512   4.002   3.289   2.626
 4205SOL     OW13513   4.362   5.495   3.334
 4205SOL    HW113514   4.317   5.468   3.249
 4205SOL    HW213515   4.329   5.585   3.362
 4206SOL     OW13516   6.662   0.707   5.737
 4206SOL    HW113517   6.596   0.659   5.679
 4206SOL    HW213518   6.732   0.749   5.680
 4207SOL     OW13519   1.606   1.151   1.719
 4207SOL    HW113520   1.638   1.133   1.812
 4207SOL    HW213521   1.589   1.249   1.708
 4208SOL     OW13522   0.805   3.903   6.472
 4208SOL    HW113523   0.749   3.859   6.542
 4208SOL    HW213524   0.874   3.961   6.515
 4209SOL     OW13525   0.401   1.222   5.754
 4209SOL    HW113526   0.370   1.173   5.672
 4209SOL    HW213527   0.495   1.195   5.776
 4210SOL     OW13528   3.026   3.333   2.277
 4210SOL    HW113529   2.982   3.423   2.269
 4210SOL    HW213530   2.997   3.288   2.361
 4211SOL     OW13531   3.880   5.529   5.575
 4211SOL    HW113532   3.921   5.446   5.537
 4211SOL    HW213533   3.836   5.581   5.502
 4212SOL     OW13534   6.139   2.315   2.731
 4212SOL    HW113535   6.109   2.393   2.785
 4212SOL    HW213536   6.159   2.238   2.791
 4213SOL     OW13537   2.348   0.904   1.887
 4213SOL    HW113538   2.429   0.954   1.855
 4213SOL    HW213539   2.344   0.909   1.987
 4214SOL     OW13540   1.605   4.795   5.344
 4214SOL    HW113541   1.559   4.872   5.300
 4214SOL    HW213542   1.583   4.711   5.295
 4215SOL     OW13543   6.667   6.410   4.677
 4215SOL    HW113544   6.743   6.469   4.650
 4215SOL    HW213545   6.660   6.335   4.611
 4216SOL     OW13546   1.167   1.594   3.328
 4216SOL    HW113547   1.184   1.508   3.375
 4216SOL    HW213548   1.173   1.670   3.394
 4217SOL     OW13549   6.858   0.286   2.902
 4217SOL    HW113550   6.886   0.275   2.806
 4217SOL    HW213551   6.931   0.330   2.953
 4218SOL     OW13552   4.591   0.761   1.909
 4218SOL    HW113553   4.580   0.737   1.813
 4218SOL    HW213554   4.578   0.859   1.921
 4219SOL     OW13555   2.800   5.149   3.573
 4219SOL    HW113556   2.791   5.077   3.642
 4219SOL    HW213557   2.793   5.239   3.617
 4220SOL     OW13558   5.554   2.693   3.417
 4220SOL    HW113559   5.470   2.699   3.471
 4220SOL    HW213560   5.592   2.601   3.425
 4221SOL     OW13561   5.889   5.641   6.553
 4221SOL    HW113562   5.895   5.730   6.599
 4221SOL    HW213563   5.941   5.573   6.605
 4222SOL     OW13564   5.899   2.255   2.987
 4222SOL    HW113565   5.831   2.184   2.967
 4222SOL    HW213566   5.883   2.292   3.078
 4223SOL     OW13567   3.182   3.342   5.545
 4223SOL    HW113568   3.090   3.371   5.574
 4223SOL    HW213569   3.177   3.302   5.454
 4224SOL     OW13570   4.926   3.151   3.137
 4224SOL    HW113571   5.025   3.168   3.136
 4224SOL    HW213572   4.890   3.163   3.044
 4225SOL     OW13573   4.039   0.433   5.638
 4225SOL    HW113574   3.979   0.418   5.559
 4225SOL    HW213575   4.071   0.528   5.637
 4226SOL     OW13576   0.785   0.708   2.634
 4226SOL    HW113577   0.799   0.791   2.689
 4226SOL    HW213578   0.783   0.733   2.537
 4227SOL     OW13579   3.863   4.929   6.649
 4227SOL    HW113580   3.799   4.899   6.720
 4227SOL    HW213581   3.837   5.020   6.618
 4228SOL     OW13582   0.701   3.651   4.370
 4228SOL    HW113583   0.693   3.627   4.466
 4228SOL    HW213584   0.636   3.724   4.349
 4229SOL     OW13585   4.784   5.226   5.088
 4229SOL    HW113586   4.871   5.177   5.100
 4229SOL    HW213587   4.793   5.289   5.011
 4230SOL     OW13588   2.022   0.482   4.023
 4230SOL    HW113589   2.022   0.578   3.997
 4230SOL    HW213590   1.993   0.426   3.945
 4231SOL     OW13591   5.743   6.260   4.934
 4231SOL    HW113592   5.775   6.178   4.887
 4231SOL    HW213593   5.678   6.235   5.006
 4232SOL     OW13594   0.271   4.658   2.689
 4232SOL    HW113595   0.278   4.758   2.689
 4232SOL    HW213596   0.301   4.622   2.601
 4233SOL     OW13597   6.906   0.446   0.140
 4233SOL    HW113598   6.917   0.446   0.041
 4233SOL    HW213599   6.856   0.365   0.169
 4234SOL     OW13600   1.539   0.067   6.171
 4234SOL    HW113601   1.442   0.049   6.186
 4234SOL    HW213602   1.587   0.067   6.259
 4235SOL     OW13603   5.313   4.217   5.793
 4235SOL    HW113604   5.399   4.259   5.823
 4235SOL    HW213605   5.283   4.150   5.861
 4236SOL     OW13606   0.278   3.605   3.049
 4236SOL    HW113607   0.229   3.686   3.018
 4236SOL    HW213608   0.347   3.580   2.981
 4237SOL     OW13609   6.659   5.368   3.337
 4237SOL    HW113610   6.641   5.286   3.282
 4237SOL    HW213611   6.642   5.348   3.433
 4238SOL     OW13612   3.248   4.866   2.514
 4238SOL    HW113613   3.180   4.842   2.584
 4238SOL    HW213614   3.289   4.954   2.537
 4239SOL     OW13615   5.380   1.648   3.502
 4239SOL    HW113616   5.302   1.589   3.482
 4239SOL    HW213617   5.352   1.744   3.493
 4240SOL     OW13618   2.608   6.944   0.070
 4240SOL    HW113619   2.675   6.926   7.019
 4240SOL    HW213620   2.641   6.909   0.158
 4241SOL     OW13621   6.303   0.799   1.377
 4241SOL    HW113622   6.205   0.786   1.367
 4241SOL    HW213623   6.350   0.762   1.296
 4242SOL     OW13624   2.258   0.602   3.400
 4242SOL    HW113625   2.276   0.515   3.353
 4242SOL    HW213626   2.195   0.657   3.345
 4243SOL     OW13627   6.735   3.988   3.610
 4243SOL    HW113628   6.762   3.896   3.638
 4243SOL    HW213629   6.686   3.984   3.523
 4244SOL     OW13630   5.761   5.058   1.047
 4244SOL    HW113631   5.755   4.981   1.111
 4244SOL    HW213632   5.669   5.086   1.021
 4245SOL     OW13633   6.325   1.043   6.365
 4245SOL    HW113634   6.420   1.070   6.347
 4245SOL    HW213635   6.299   0.971   6.300
 4246SOL     OW13636   5.841   3.247   3.434
 4246SOL    HW113637   5.914   3.312   3.455
 4246SOL    HW213638   5.797   3.273   3.348
 4247SOL     OW13639   2.126   4.973   3.287
 4247SOL    HW113640   2.098   5.068   3.269
 4247SOL    HW213641   2.211   4.954   3.239
 4248SOL     OW13642   1.669   1.566   3.752
 4248SOL    HW113643   1.748   1.505   3.749
 4248SOL    HW213644   1.587   1.514   3.729
 4249SOL     OW13645   4.903   1.192   3.824
 4249SOL    HW113646   4.920   1.250   3.903
 4249SOL    HW213647   4.812   1.150   3.832
 4250SOL     OW13648   6.012   6.331   4.507
 4250SOL    HW113649   5.932   6.341   4.566
 4250SOL    HW213650   5.983   6.337   4.411
 4251SOL     OW13651   5.914   3.222   0.960
 4251SOL    HW113652   5.915   3.314   1.000
 4251SOL    HW213653   5.989   3.168   1.000
 4252SOL     OW13654   5.651   6.038   6.362
 4252SOL    HW113655   5.635   5.968   6.431
 4252SOL    HW213656   5.585   6.027   6.287
 4253SOL     OW13657   3.435   6.907   1.360
 4253SOL    HW113658   3.433   6.916   1.260
 4253SOL    HW213659   3.364   6.844   1.390
 4254SOL     OW13660   1.798   3.906   2.096
 4254SOL    HW113661   1.757   3.845   2.028
 4254SOL    HW213662   1.748   3.898   2.182
 4255SOL     OW13663   6.840   4.210   3.741
 4255SOL    HW113664   6.822   4.118   3.706
 4255SOL    HW213665   6.754   4.260   3.750
 4256SOL     OW13666   1.125   5.936   0.905
 4256SOL    HW113667   1.223   5.947   0.888
 4256SOL    HW213668   1.091   5.857   0.854
 4257SOL     OW13669   3.611   1.118   4.936
 4257SOL    HW113670   3.534   1.180   4.920
 4257SOL    HW213671   3.697   1.169   4.931
 4258SOL     OW13672   3.326   6.238   0.679
 4258SOL    HW113673   3.266   6.318   0.674
 4258SOL    HW213674   3.416   6.266   0.713
 4259SOL     OW13675   1.246   6.665   1.220
 4259SOL    HW113676   1.228   6.758   1.251
 4259SOL    HW213677   1.261   6.665   1.121
 4260SOL     OW13678   5.859   0.616   3.011
 4260SOL    HW113679   5.806   0.553   3.066
 4260SOL    HW213680   5.816   0.627   2.921
 4261SOL     OW13681   2.353   0.503   2.833
 4261SOL    HW113682   2.282   0.551   2.884
 4261SOL    HW213683   2.346   0.526   2.736
 4262SOL     OW13684   0.490   3.944   6.128
 4262SOL    HW113685   0.568   3.882   6.134
 4262SOL    HW213686   0.431   3.932   6.208
 4263SOL     OW13687   2.871   0.227   3.090
 4263SOL    HW113688   2.853   0.129   3.101
 4263SOL    HW213689   2.870   0.251   2.993
 4264SOL     OW13690   0.075   2.443   4.825
 4264SOL    HW113691   0.141   2.370   4.808
 4264SOL    HW213692   0.057   2.450   4.923
 4265SOL     OW13693   3.640   1.219   0.598
 4265SOL    HW113694   3.546   1.253   0.603
 4265SOL    HW213695   3.682   1.224   0.689
 4266SOL     OW13696   1.869   6.415   6.540
 4266SOL    HW113697   1.917   6.331   6.515
 4266SOL    HW213698   1.925   6.468   6.604
 4267SOL     OW13699   2.147   3.862   4.525
 4267SOL    HW113700   2.131   3.842   4.621
 4267SOL    HW213701   2.160   3.776   4.475
 4268SOL     OW13702   1.173   5.685   6.633
 4268SOL    HW113703   1.195   5.783   6.631
 4268SOL    HW213704   1.258   5.633   6.645
 4269SOL     OW13705   3.010   6.892   2.902
 4269SOL    HW113706   2.997   6.794   2.886
 4269SOL    HW213707   3.097   6.921   2.862
 4270SOL     OW13708   4.055   3.293   2.177
 4270SOL    HW113709   4.066   3.196   2.202
 4270SOL    HW213710   3.958   3.317   2.176
 4271SOL     OW13711   0.212   0.456   0.563
 4271SOL    HW113712   0.170   0.444   0.653
 4271SOL    HW213713   0.145   0.496   0.500
 4272SOL     OW13714   6.488   2.555   4.445
 4272SOL    HW113715   6.526   2.470   4.481
 4272SOL    HW213716   6.388   2.547   4.436
 4273SOL     OW13717   4.487   6.564   4.341
 4273SOL    HW113718   4.462   6.486   4.399
 4273SOL    HW213719   4.574   6.544   4.295
 4274SOL     OW13720   1.678   6.865   1.994
 4274SOL    HW113721   1.769   6.826   2.005
 4274SOL    HW213722   1.636   6.828   1.910
 4275SOL     OW13723   6.588   2.274   4.077
 4275SOL    HW113724   6.551   2.363   4.102
 4275SOL    HW213725   6.539   2.239   3.997
 4276SOL     OW13726   2.995   5.305   4.123
 4276SOL    HW113727   3.017   5.213   4.092
 4276SOL    HW213728   2.902   5.308   4.158
 4277SOL     OW13729   6.494   4.910   2.824
 4277SOL    HW113730   6.555   4.988   2.828
 4277SOL    HW213731   6.499   4.867   2.734
 4278SOL     OW13732   0.271   6.777   4.762
 4278SOL    HW113733   0.301   6.837   4.836
 4278SOL    HW213734   0.224   6.698   4.801
 4279SOL     OW13735   2.394   1.196   3.395
 4279SOL    HW113736   2.319   1.161   3.451
 4279SOL    HW213737   2.477   1.144   3.413
 4280SOL     OW13738   5.720   6.934   5.634
 4280SOL    HW113739   5.761   0.005   5.640
 4280SOL    HW213740   5.751   6.878   5.711
 4281SOL     OW13741   6.095   4.774   3.438
 4281SOL    HW113742   6.039   4.739   3.513
 4281SOL    HW213743   6.188   4.792   3.472
 4282SOL     OW13744   3.178   4.694   0.109
 4282SOL    HW113745   3.253   4.728   0.054
 4282SOL    HW213746   3.105   4.661   0.050
 4283SOL     OW13747   2.504   0.715   3.345
 4283SOL    HW113748   2.570   0.744   3.414
 4283SOL    HW213749   2.437   0.654   3.386
 4284SOL     OW13750   3.606   4.311   1.034
 4284SOL    HW113751   3.567   4.254   1.106
 4284SOL    HW213752   3.705   4.319   1.048
 4285SOL     OW13753   2.466   1.005   5.794
 4285SOL    HW113754   2.522   0.922   5.791
 4285SOL    HW213755   2.522   1.085   5.776
 4286SOL     OW13756   5.851   7.016   6.002
 4286SOL    HW113757   5.759   0.033   5.984
 4286SOL    HW213758   5.858   6.923   5.967
 4287SOL     OW13759   4.785   0.600   6.142
 4287SOL    HW113760   4.786   0.514   6.192
 4287SOL    HW213761   4.691   0.631   6.129
 4288SOL     OW13762   1.043   5.702   3.896
 4288SOL    HW113763   1.069   5.610   3.866
 4288SOL    HW213764   1.115   5.739   3.955
 4289SOL     OW13765   0.439   2.343   5.851
 4289SOL    HW113766   0.522   2.290   5.833
 4289SOL    HW213767   0.463   2.425   5.903
 4290SOL     OW13768   1.163   5.883   4.579
 4290SOL    HW113769   1.162   5.846   4.486
 4290SOL    HW213770   1.070   5.881   4.616
 4291SOL     OW13771   4.773   3.757   0.051
 4291SOL    HW113772   4.686   3.734   0.096
 4291SOL    HW213773   4.773   3.854   0.027
 4292SOL     OW13774   6.568   3.185   0.074
 4292SOL    HW113775   6.620   3.269   0.059
 4292SOL    HW213776   6.473   3.208   0.095
 4293SOL     OW13777   3.292   4.550   0.366
 4293SOL    HW113778   3.222   4.587   0.305
 4293SOL    HW213779   3.374   4.608   0.362
 4294SOL     OW13780   1.878   1.620   6.421
 4294SOL    HW113781   1.835   1.551   6.363
 4294SOL    HW213782   1.974   1.630   6.397
 4295SOL     OW13783   5.421   5.718   4.113
 4295SOL    HW113784   5.356   5.693   4.185
 4295SOL    HW213785   5.499   5.656   4.116
 4296SOL     OW13786   3.347   6.967   0.315
 4296SOL    HW113787   3.321   6.885   0.365
 4296SOL    HW213788   3.444   6.987   0.331
 4297SOL     OW13789   5.739   0.282   1.943
 4297SOL    HW113790   5.697   0.192   1.933
 4297SOL    HW213791   5.669   0.350   1.965
 4298SOL     OW13792   3.767   5.944   1.150
 4298SOL    HW113793   3.749   5.872   1.217
 4298SOL    HW213794   3.781   5.902   1.060
 4299SOL     OW13795   1.705   2.456   6.918
 4299SOL    HW113796   1.716   2.408   7.005
 4299SOL    HW213797   1.767   2.535   6.916
 4300SOL     OW13798   2.571   0.092   0.391
 4300SOL    HW113799   2.553   0.121   0.484
 4300SOL    HW213800   2.596   0.171   0.335
 4301SOL     OW13801   4.976   7.017   1.193
 4301SOL    HW113802   4.923   6.998   1.275
 4301SOL    HW213803   5.073   6.999   1.211
 4302SOL     OW13804   6.796   0.157   5.993
 4302SOL    HW113805   6.887   0.126   6.018
 4302SOL    HW213806   6.742   0.173   6.076
 4303SOL     OW13807   0.273   4.348   4.293
 4303SOL    HW113808   0.288   4.259   4.250
 4303SOL    HW213809   0.264   4.418   4.223
 4304SOL     OW13810   3.025   3.198   2.524
 4304SOL    HW113811   3.004   3.167   2.616
 4304SOL    HW213812   3.124   3.192   2.509
 4305SOL     OW13813   1.189   6.926   5.726
 4305SOL    HW113814   1.197   6.980   5.642
 4305SOL    HW213815   1.224   6.979   5.803
 4306SOL     OW13816   4.519   4.883   4.626
 4306SOL    HW113817   4.487   4.794   4.593
 4306SOL    HW213818   4.451   4.953   4.606
 4307SOL     OW13819   6.355   4.343   5.074
 4307SOL    HW113820   6.395   4.375   5.160
 4307SOL    HW213821   6.420   4.282   5.028
 4308SOL     OW13822   6.303   5.773   1.348
 4308SOL    HW113823   6.322   5.771   1.446
 4308SOL    HW213824   6.362   5.706   1.301
 4309SOL     OW13825   1.276   1.248   1.082
 4309SOL    HW113826   1.185   1.210   1.067
 4309SOL    HW213827   1.290   1.327   1.022
 4310SOL     OW13828   1.272   2.569   1.417
 4310SOL    HW113829   1.203   2.564   1.489
 4310SOL    HW213830   1.305   2.477   1.396
 4311SOL     OW13831   0.277   6.141   2.709
 4311SOL    HW113832   0.255   6.236   2.687
 4311SOL    HW213833   0.330   6.138   2.794
 4312SOL     OW13834   1.402   5.771   2.199
 4312SOL    HW113835   1.406   5.863   2.160
 4312SOL    HW213836   1.400   5.777   2.299
 4313SOL     OW13837   5.175   2.246   0.964
 4313SOL    HW113838   5.237   2.292   0.901
 4313SOL    HW213839   5.083   2.285   0.954
 4314SOL     OW13840   5.476   1.942   4.922
 4314SOL    HW113841   5.513   1.850   4.928
 4314SOL    HW213842   5.414   1.959   4.999
 4315SOL     OW13843   2.180   1.057   3.628
 4315SOL    HW113844   2.144   1.029   3.539
 4315SOL    HW213845   2.212   0.977   3.678
 4316SOL     OW13846   4.985   0.639   1.767
 4316SOL    HW113847   5.080   0.670   1.769
 4316SOL    HW213848   4.946   0.656   1.677
 4317SOL     OW13849   5.531   2.084   5.390
 4317SOL    HW113850   5.463   2.107   5.459
 4317SOL    HW213851   5.499   2.114   5.300
 4318SOL     OW13852   1.323   1.772   4.833
 4318SOL    HW113853   1.380   1.836   4.884
 4318SOL    HW213854   1.322   1.684   4.880
 4319SOL     OW13855   2.271   1.844   1.049
 4319SOL    HW113856   2.278   1.936   1.087
 4319SOL    HW213857   2.359   1.818   1.009
 4320SOL     OW13858   3.692   5.353   1.029
 4320SOL    HW113859   3.725   5.354   1.123
 4320SOL    HW213860   3.594   5.331   1.028
 4321SOL     OW13861   6.968   4.551   4.608
 4321SOL    HW113862   7.004   4.636   4.647
 4321SOL    HW213863   6.989   4.475   4.668
 4322SOL     OW13864   6.190   2.982   6.859
 4322SOL    HW113865   6.264   2.918   6.881
 4322SOL    HW213866   6.204   3.018   6.767
 4323SOL     OW13867   4.253   4.234   0.892
 4323SOL    HW113868   4.225   4.319   0.848
 4323SOL    HW213869   4.274   4.165   0.822
 4324SOL     OW13870   5.677   4.750   5.617
 4324SOL    HW113871   5.635   4.840   5.607
 4324SOL    HW213872   5.617   4.681   5.577
 4325SOL     OW13873   2.860   1.193   1.915
 4325SOL    HW113874   2.772   1.163   1.950
 4325SOL    HW213875   2.881   1.144   1.830
 4326SOL     OW13876   4.747   4.733   2.127
 4326SOL    HW113877   4.753   4.750   2.029
 4326SOL    HW213878   4.773   4.638   2.146
 4327SOL     OW13879   5.641   5.582   1.538
 4327SOL    HW113880   5.668   5.486   1.527
 4327SOL    HW213881   5.553   5.586   1.584
 4328SOL     OW13882   5.391   4.532   5.684
 4328SOL    HW113883   5.415   4.443   5.723
 4328SOL    HW213884   5.425   4.537   5.590
 4329SOL     OW13885   4.474   2.784   6.010
 4329SOL    HW113886   4.421   2.867   6.023
 4329SOL    HW213887   4.432   2.709   6.061
 4330SOL     OW13888   2.341   6.236   4.488
 4330SOL    HW113889   2.393   6.153   4.467
 4330SOL    HW213890   2.318   6.237   4.585
 4331SOL     OW13891   5.765   0.857   2.214
 4331SOL    HW113892   5.732   0.951   2.209
 4331SOL    HW213893   5.697   0.800   2.259
 4332SOL     OW13894   5.130   3.124   2.553
 4332SOL    HW113895   5.067   3.200   2.569
 4332SOL    HW213896   5.079   3.038   2.555
 4333SOL     OW13897   4.438   1.711   5.411
 4333SOL    HW113898   4.487   1.762   5.341
 4333SOL    HW213899   4.416   1.772   5.487
 4334SOL     OW13900   2.307   2.656   2.691
 4334SOL    HW113901   2.333   2.658   2.787
 4334SOL    HW213902   2.362   2.588   2.643
 4335SOL     OW13903   3.490   3.484   1.540
 4335SOL    HW113904   3.450   3.402   1.500
 4335SOL    HW213905   3.514   3.468   1.636
 4336SOL     OW13906   2.606   6.420   6.036
 4336SOL    HW113907   2.653   6.365   6.106
 4336SOL    HW213908   2.663   6.498   6.011
 4337SOL     OW13909   1.978   4.260   1.268
 4337SOL    HW113910   1.947   4.202   1.343
 4337SOL    HW213911   1.925   4.345   1.267
 4338SOL     OW13912   6.101   6.766   5.801
 4338SOL    HW113913   6.144   6.785   5.713
 4338SOL    HW213914   6.147   6.688   5.845
 4339SOL     OW13915   4.200   2.831   6.253
 4339SOL    HW113916   4.269   2.879   6.306
 4339SOL    HW213917   4.125   2.893   6.231
 4340SOL     OW13918   6.486   3.777   1.766
 4340SOL    HW113919   6.552   3.852   1.763
 4340SOL    HW213920   6.531   3.692   1.737
 4341SOL     OW13921   1.172   5.176   1.496
 4341SOL    HW113922   1.240   5.245   1.523
 4341SOL    HW213923   1.196   5.139   1.407
 4342SOL     OW13924   5.467   4.126   2.964
 4342SOL    HW113925   5.473   4.109   2.865
 4342SOL    HW213926   5.490   4.043   3.014
 4343SOL     OW13927   2.917   5.946   5.145
 4343SOL    HW113928   2.857   5.979   5.219
 4343SOL    HW213929   2.998   6.004   5.140
 4344SOL     OW13930   0.898   4.109   2.836
 4344SOL    HW113931   0.897   4.074   2.742
 4344SOL    HW213932   0.948   4.196   2.839
 4345SOL     OW13933   3.665   4.166   4.660
 4345SOL    HW113934   3.660   4.162   4.560
 4345SOL    HW213935   3.573   4.157   4.698
 4346SOL     OW13936   2.142   3.286   2.700
 4346SOL    HW113937   2.074   3.352   2.668
 4346SOL    HW213938   2.210   3.270   2.628
 4347SOL     OW13939   5.356   6.735   2.867
 4347SOL    HW113940   5.361   6.835   2.860
 4347SOL    HW213941   5.443   6.700   2.901
 4348SOL     OW13942   0.232   5.495   3.978
 4348SOL    HW113943   0.144   5.494   4.024
 4348SOL    HW213944   0.242   5.412   3.922
 4349SOL     OW13945   6.365   1.989   3.043
 4349SOL    HW113946   6.326   1.906   3.082
 4349SOL    HW213947   6.291   2.053   3.019
 4350SOL     OW13948   3.771   1.775   4.128
 4350SOL    HW113949   3.739   1.817   4.213
 4350SOL    HW213950   3.840   1.834   4.086
 4351SOL     OW13951   1.051   6.125   1.398
 4351SOL    HW113952   1.110   6.057   1.442
 4351SOL    HW213953   1.090   6.151   1.309
 4352SOL     OW13954   6.313   4.378   2.312
 4352SOL    HW113955   6.219   4.373   2.278
 4352SOL    HW213956   6.318   4.333   2.402
 4353SOL     OW13957   3.510   3.206   6.584
 4353SOL    HW113958   3.497   3.173   6.678
 4353SOL    HW213959   3.523   3.129   6.522
 4354SOL     OW13960   2.166   1.396   6.414
 4354SOL    HW113961   2.164   1.449   6.329
 4354SOL    HW213962   2.216   1.310   6.397
 4355SOL     OW13963   2.258   0.010   2.767
 4355SOL    HW113964   2.264   0.096   2.817
 4355SOL    HW213965   2.161   7.004   2.757
 4356SOL     OW13966   4.734   3.628   6.497
 4356SOL    HW113967   4.651   3.646   6.550
 4356SOL    HW213968   4.713   3.628   6.400
 4357SOL     OW13969   0.022   0.961   1.512
 4357SOL    HW113970   6.999   1.049   1.531
 4357SOL    HW213971   7.003   0.892   1.573
 4358SOL     OW13972   6.234   1.044   1.017
 4358SOL    HW113973   6.209   0.950   1.041
 4358SOL    HW213974   6.247   1.051   0.919
 4359SOL     OW13975   1.315   1.386   6.824
 4359SOL    HW113976   1.344   1.321   6.895
 4359SOL    HW213977   1.280   1.469   6.867
 4360SOL     OW13978   0.819   3.476   3.593
 4360SOL    HW113979   0.806   3.410   3.518
 4360SOL    HW213980   0.803   3.430   3.680
 4361SOL     OW13981   2.091   3.719   1.422
 4361SOL    HW113982   2.168   3.660   1.397
 4361SOL    HW213983   2.113   3.767   1.507
 4362SOL     OW13984   6.734   5.704   3.837
 4362SOL    HW113985   6.807   5.729   3.901
 4362SOL    HW213986   6.775   5.674   3.750
 4363SOL     OW13987   4.319   2.116   0.830
 4363SOL    HW113988   4.386   2.081   0.895
 4363SOL    HW213989   4.284   2.203   0.863
 4364SOL     OW13990   3.121   4.053   3.633
 4364SOL    HW113991   3.030   4.049   3.592
 4364SOL    HW213992   3.190   4.035   3.563
 4365SOL     OW13993   2.742   0.322   2.123
 4365SOL    HW113994   2.681   0.243   2.124
 4365SOL    HW213995   2.832   0.295   2.089
 4366SOL     OW13996   5.992   6.814   6.429
 4366SOL    HW113997   6.000   6.860   6.341
 4366SOL    HW213998   6.076   6.829   6.482
 4367SOL     OW13999   3.002   4.845   4.295
 4367SOL    HW114000   2.937   4.848   4.220
 4367SOL    HW214001   2.962   4.794   4.372
 4368SOL     OW14002   3.662   5.646   1.718
 4368SOL    HW114003   3.624   5.603   1.800
 4368SOL    HW214004   3.589   5.688   1.665
 4369SOL     OW14005   4.409   4.842   3.023
 4369SOL    HW114006   4.503   4.848   2.991
 4369SOL    HW214007   4.366   4.760   2.984
 4370SOL     OW14008   3.594   4.711   1.449
 4370SOL    HW114009   3.660   4.751   1.387
 4370SOL    HW214010   3.581   4.772   1.528
 4371SOL     OW14011   1.810   1.960   2.508
 4371SOL    HW114012   1.826   1.965   2.606
 4371SOL    HW214013   1.825   1.867   2.476
 4372SOL     OW14014   2.418   2.397   4.336
 4372SOL    HW114015   2.433   2.463   4.263
 4372SOL    HW214016   2.395   2.308   4.297
 4373SOL     OW14017   4.204   1.210   0.548
 4373SOL    HW114018   4.223   1.137   0.482
 4373SOL    HW214019   4.105   1.213   0.567
 4374SOL     OW14020   0.967   1.681   1.299
 4374SOL    HW114021   1.021   1.600   1.321
 4374SOL    HW214022   1.023   1.747   1.250
 4375SOL     OW14023   4.377   6.138   3.172
 4375SOL    HW114024   4.335   6.075   3.108
 4375SOL    HW214025   4.464   6.170   3.136
 4376SOL     OW14026   6.018   0.307   2.738
 4376SOL    HW114027   6.026   0.344   2.831
 4376SOL    HW214028   6.069   0.221   2.733
 4377SOL     OW14029   5.741   5.630   0.053
 4377SOL    HW114030   5.805   5.638   0.129
 4377SOL    HW214031   5.651   5.662   0.082
 4378SOL     OW14032   1.691   2.985   2.739
 4378SOL    HW114033   1.769   2.928   2.712
 4378SOL    HW214034   1.706   3.078   2.707
 4379SOL     OW14035   2.792   1.538   1.920
 4379SOL    HW114036   2.869   1.509   1.864
 4379SOL    HW214037   2.802   1.500   2.012
 4380SOL     OW14038   1.867   6.451   4.069
 4380SOL    HW114039   1.935   6.434   3.998
 4380SOL    HW214040   1.832   6.544   4.061
 4381SOL     OW14041   2.198   4.405   5.062
 4381SOL    HW114042   2.220   4.359   5.148
 4381SOL    HW214043   2.229   4.349   4.986
 4382SOL     OW14044   6.118   3.212   6.153
 4382SOL    HW114045   6.098   3.153   6.232
 4382SOL    HW214046   6.166   3.159   6.084
 4383SOL     OW14047   0.849   3.013   5.511
 4383SOL    HW114048   0.923   3.025   5.445
 4383SOL    HW214049   0.762   3.004   5.462
 4384SOL     OW14050   5.397   1.470   6.802
 4384SOL    HW114051   5.301   1.444   6.792
 4384SOL    HW214052   5.413   1.554   6.751
 4385SOL     OW14053   6.627   2.939   4.693
 4385SOL    HW114054   6.634   2.934   4.792
 4385SOL    HW214055   6.696   3.003   4.658
 4386SOL     OW14056   1.894   3.923   6.443
 4386SOL    HW114057   1.960   3.983   6.489
 4386SOL    HW214058   1.926   3.828   6.449
 4387SOL     OW14059   0.306   0.989   1.482
 4387SOL    HW114060   0.293   1.084   1.452
 4387SOL    HW214061   0.217   0.943   1.484
 4388SOL     OW14062   4.973   0.842   6.360
 4388SOL    HW114063   4.991   0.832   6.262
 4388SOL    HW214064   4.897   0.906   6.373
 4389SOL     OW14065   6.013   2.093   0.838
 4389SOL    HW114066   5.968   2.055   0.757
 4389SOL    HW214067   6.087   2.032   0.867
 4390SOL     OW14068   3.945   1.526   1.978
 4390SOL    HW114069   3.968   1.441   1.930
 4390SOL    HW214070   3.882   1.506   2.053
 4391SOL     OW14071   1.506   5.687   6.159
 4391SOL    HW114072   1.431   5.711   6.221
 4391SOL    HW214073   1.587   5.664   6.212
 4392SOL     OW14074   6.554   3.592   5.637
 4392SOL    HW114075   6.485   3.530   5.599
 4392SOL    HW214076   6.631   3.599   5.574
 4393SOL     OW14077   5.277   0.215   2.685
 4393SOL    HW114078   5.251   0.175   2.596
 4393SOL    HW214079   5.205   0.196   2.751
 4394SOL     OW14080   5.803   5.608   3.068
 4394SOL    HW114081   5.824   5.599   2.970
 4394SOL    HW214082   5.888   5.619   3.119
 4395SOL     OW14083   3.955   0.769   1.746
 4395SOL    HW114084   3.923   0.772   1.841
 4395SOL    HW214085   3.963   0.863   1.711
 4396SOL     OW14086   2.662   2.394   4.093
 4396SOL    HW114087   2.722   2.359   4.164
 4396SOL    HW214088   2.656   2.329   4.018
 4397SOL     OW14089   0.362   1.327   4.807
 4397SOL    HW114090   0.447   1.365   4.843
 4397SOL    HW214091   0.362   1.228   4.819
 4398SOL     OW14092   0.903   4.495   4.923
 4398SOL    HW114093   0.964   4.523   4.997
 4398SOL    HW214094   0.808   4.501   4.955
 4399SOL     OW14095   1.854   0.864   1.910
 4399SOL    HW114096   1.788   0.934   1.937
 4399SOL    HW214097   1.868   0.867   1.811
 4400SOL     OW14098   2.537   0.259   4.797
 4400SOL    HW114099   2.475   0.224   4.727
 4400SOL    HW214100   2.625   0.280   4.755
 4401SOL     OW14101   4.828   0.294   6.979
 4401SOL    HW114102   4.731   0.315   6.991
 4401SOL    HW214103   4.838   0.226   6.907
 4402SOL     OW14104   2.363   6.483   1.300
 4402SOL    HW114105   2.350   6.458   1.204
 4402SOL    HW214106   2.422   6.563   1.306
 4403SOL     OW14107   0.665   6.744   3.693
 4403SOL    HW114108   0.623   6.673   3.637
 4403SOL    HW214109   0.635   6.834   3.662
 4404SOL     OW14110   0.341   4.438   5.761
 4404SOL    HW114111   0.325   4.514   5.825
 4404SOL    HW214112   0.418   4.383   5.794
 4405SOL     OW14113   2.644   4.782   0.943
 4405SOL    HW114114   2.702   4.739   0.874
 4405SOL    HW214115   2.683   4.764   1.034
 4406SOL     OW14116   6.760   4.386   0.625
 4406SOL    HW114117   6.741   4.477   0.586
 4406SOL    HW214118   6.790   4.396   0.720
 4407SOL     OW14119   0.422   4.115   0.775
 4407SOL    HW114120   0.400   4.079   0.685
 4407SOL    HW214121   0.353   4.086   0.841
 4408SOL     OW14122   3.994   1.031   1.350
 4408SOL    HW114123   4.088   1.051   1.374
 4408SOL    HW214124   3.976   1.059   1.255
 4409SOL     OW14125   4.362   6.549   1.489
 4409SOL    HW114126   4.354   6.514   1.583
 4409SOL    HW214127   4.271   6.565   1.451
 4410SOL     OW14128   1.464   5.814   0.211
 4410SOL    HW114129   1.538   5.830   0.145
 4410SOL    HW214130   1.454   5.716   0.227
 4411SOL     OW14131   3.103   3.254   3.557
 4411SOL    HW114132   3.037   3.329   3.554
 4411SOL    HW214133   3.090   3.201   3.641
 4412SOL     OW14134   3.490   0.439   4.437
 4412SOL    HW114135   3.456   0.532   4.425
 4412SOL    HW214136   3.522   0.403   4.349
 4413SOL     OW14137   5.173   5.855   4.997
 4413SOL    HW114138   5.087   5.804   5.004
 4413SOL    HW214139   5.245   5.806   5.046
 4414SOL     OW14140   3.823   5.138   1.575
 4414SOL    HW114141   3.904   5.082   1.592
 4414SOL    HW214142   3.798   5.133   1.479
 4415SOL     OW14143   3.919   3.588   6.405
 4415SOL    HW114144   3.841   3.618   6.458
 4415SOL    HW214145   3.999   3.643   6.429
 4416SOL     OW14146   2.729   0.112   4.341
 4416SOL    HW114147   2.761   0.036   4.397
 4416SOL    HW214148   2.633   0.130   4.360
 4417SOL     OW14149   5.805   4.291   3.252
 4417SOL    HW114150   5.869   4.280   3.327
 4417SOL    HW214151   5.764   4.382   3.255
 4418SOL     OW14152   5.468   0.768   2.998
 4418SOL    HW114153   5.419   0.726   3.075
 4418SOL    HW214154   5.410   0.837   2.955
 4419SOL     OW14155   5.693   5.890   0.548
 4419SOL    HW114156   5.620   5.951   0.578
 4419SOL    HW214157   5.781   5.930   0.572
 4420SOL     OW14158   5.440   1.340   1.497
 4420SOL    HW114159   5.521   1.394   1.474
 4420SOL    HW214160   5.410   1.289   1.416
 4421SOL     OW14161   1.984   1.544   4.235
 4421SOL    HW114162   2.032   1.562   4.149
 4421SOL    HW214163   2.020   1.605   4.306
 4422SOL     OW14164   3.227   4.240   5.804
 4422SOL    HW114165   3.164   4.181   5.754
 4422SOL    HW214166   3.218   4.221   5.902
 4423SOL     OW14167   0.994   2.616   5.735
 4423SOL    HW114168   0.993   2.517   5.725
 4423SOL    HW214169   1.034   2.657   5.654
 4424SOL     OW14170   5.387   0.074   4.399
 4424SOL    HW114171   5.447   0.131   4.343
 4424SOL    HW214172   5.296   0.069   4.356
 4425SOL     OW14173   3.349   5.607   6.564
 4425SOL    HW114174   3.394   5.672   6.624
 4425SOL    HW214175   3.415   5.538   6.534
 4426SOL     OW14176   0.642   2.079   4.838
 4426SOL    HW114177   0.604   1.989   4.862
 4426SOL    HW214178   0.742   2.076   4.846
 4427SOL     OW14179   6.850   6.140   2.639
 4427SOL    HW114180   6.931   6.087   2.619
 4427SOL    HW214181   6.808   6.107   2.724
 4428SOL     OW14182   3.320   5.547   2.230
 4428SOL    HW114183   3.282   5.546   2.322
 4428SOL    HW214184   3.412   5.586   2.231
 4429SOL     OW14185   3.215   0.153   3.274
 4429SOL    HW114186   3.199   0.251   3.258
 4429SOL    HW214187   3.132   0.102   3.252
 4430SOL     OW14188   5.042   3.484   4.946
 4430SOL    HW114189   5.127   3.517   4.987
 4430SOL    HW214190   4.965   3.538   4.980
 4431SOL     OW14191   1.795   0.557   1.849
 4431SOL    HW114192   1.794   0.533   1.946
 4431SOL    HW214193   1.794   0.657   1.839
 4432SOL     OW14194   3.851   4.050   4.160
 4432SOL    HW114195   3.891   3.977   4.104
 4432SOL    HW214196   3.776   4.093   4.109
 4433SOL     OW14197   5.716   0.394   4.879
 4433SOL    HW114198   5.718   0.334   4.800
 4433SOL    HW214199   5.647   0.465   4.865
 4434SOL     OW14200   3.676   2.129   3.867
 4434SOL    HW114201   3.760   2.157   3.913
 4434SOL    HW214202   3.682   2.032   3.842
 4435SOL     OW14203   4.114   3.872   1.173
 4435SOL    HW114204   4.178   3.844   1.102
 4435SOL    HW214205   4.020   3.858   1.141
 4436SOL     OW14206   3.670   1.831   1.010
 4436SOL    HW114207   3.625   1.829   1.099
 4436SOL    HW214208   3.645   1.916   0.962
 4437SOL     OW14209   5.614   1.527   4.087
 4437SOL    HW114210   5.640   1.477   4.004
 4437SOL    HW214211   5.657   1.485   4.167
 4438SOL     OW14212   4.969   0.904   0.414
 4438SOL    HW114213   5.035   0.918   0.340
 4438SOL    HW214214   4.995   0.958   0.494
 4439SOL     OW14215   0.570   6.079   1.285
 4439SOL    HW114216   0.536   5.993   1.247
 4439SOL    HW214217   0.521   6.099   1.370
 4440SOL     OW14218   2.156   5.052   0.381
 4440SOL    HW114219   2.250   5.017   0.386
 4440SOL    HW214220   2.132   5.068   0.285
 4441SOL     OW14221   6.853   1.829   2.772
 4441SOL    HW114222   6.798   1.912   2.764
 4441SOL    HW214223   6.950   1.851   2.758
 4442SOL     OW14224   2.752   6.015   5.338
 4442SOL    HW114225   2.681   5.947   5.357
 4442SOL    HW214226   2.820   6.014   5.411
 4443SOL     OW14227   6.924   2.812   1.200
 4443SOL    HW114228   6.918   2.761   1.287
 4443SOL    HW214229   7.010   2.791   1.155
 4444SOL     OW14230   4.056   5.215   6.064
 4444SOL    HW114231   4.089   5.204   5.970
 4444SOL    HW214232   4.099   5.295   6.105
 4445SOL     OW14233   6.365   0.753   1.103
 4445SOL    HW114234   6.279   0.706   1.087
 4445SOL    HW214235   6.420   0.752   1.020
 4446SOL     OW14236   5.869   1.497   1.994
 4446SOL    HW114237   5.923   1.416   1.969
 4446SOL    HW214238   5.778   1.469   2.023
 4447SOL     OW14239   5.887   3.939   6.419
 4447SOL    HW114240   5.941   3.863   6.382
 4447SOL    HW214241   5.798   3.942   6.373
 4448SOL     OW14242   2.859   3.966   1.254
 4448SOL    HW114243   2.760   3.979   1.257
 4448SOL    HW214244   2.889   3.924   1.340
 4449SOL     OW14245   5.303   0.658   5.829
 4449SOL    HW114246   5.360   0.732   5.864
 4449SOL    HW214247   5.208   0.689   5.825
 4450SOL     OW14248   3.997   3.162   4.125
 4450SOL    HW114249   3.944   3.211   4.194
 4450SOL    HW214250   4.094   3.170   4.147
 4451SOL     OW14251   6.030   3.983   4.210
 4451SOL    HW114252   6.122   3.956   4.240
 4451SOL    HW214253   6.021   3.969   4.112
 4452SOL     OW14254   5.881   6.533   3.857
 4452SOL    HW114255   5.864   6.627   3.887
 4452SOL    HW214256   5.799   6.497   3.812
 4453SOL     OW14257   0.160   3.122   1.091
 4453SOL    HW114258   0.251   3.081   1.099
 4453SOL    HW214259   0.169   3.217   1.060
 4454SOL     OW14260   6.876   1.993   6.864
 4454SOL    HW114261   6.788   1.997   6.818
 4454SOL    HW214262   6.950   1.996   6.795
 4455SOL     OW14263   3.550   6.303   6.363
 4455SOL    HW114264   3.625   6.256   6.317
 4455SOL    HW214265   3.476   6.319   6.299
 4456SOL     OW14266   3.147   5.405   2.031
 4456SOL    HW114267   3.131   5.330   2.094
 4456SOL    HW214268   3.230   5.455   2.058
 4457SOL     OW14269   4.171   2.441   0.976
 4457SOL    HW114270   4.094   2.482   1.026
 4457SOL    HW214271   4.245   2.509   0.968
 4458SOL     OW14272   1.097   3.738   6.455
 4458SOL    HW114273   1.170   3.801   6.430
 4458SOL    HW214274   1.136   3.660   6.504
 4459SOL     OW14275   4.879   0.782   3.617
 4459SOL    HW114276   4.819   0.760   3.694
 4459SOL    HW214277   4.926   0.699   3.587
 4460SOL     OW14278   2.944   2.924   5.445
 4460SOL    HW114279   2.909   2.990   5.512
 4460SOL    HW214280   2.950   2.968   5.355
 4461SOL     OW14281   1.298   0.684   2.154
 4461SOL    HW114282   1.324   0.714   2.245
 4461SOL    HW214283   1.267   0.588   2.158
 4462SOL     OW14284   6.574   4.089   2.009
 4462SOL    HW114285   6.532   4.094   1.919
 4462SOL    HW214286   6.647   4.021   2.009
 4463SOL     OW14287   4.929   2.839   6.772
 4463SOL    HW114288   4.864   2.900   6.728
 4463SOL    HW214289   4.883   2.788   6.845
 4464SOL     OW14290   6.857   5.131   0.550
 4464SOL    HW114291   6.811   5.157   0.464
 4464SOL    HW214292   6.794   5.146   0.626
 4465SOL     OW14293   2.486   5.513   2.259
 4465SOL    HW114294   2.501   5.425   2.304
 4465SOL    HW214295   2.455   5.580   2.327
 4466SOL     OW14296   2.257   1.177   3.162
 4466SOL    HW114297   2.271   1.270   3.194
 4466SOL    HW214298   2.327   1.117   3.201
 4467SOL     OW14299   1.991   6.970   3.143
 4467SOL    HW114300   2.017   6.899   3.077
 4467SOL    HW214301   1.958   6.927   3.227
 4468SOL     OW14302   2.040   2.877   1.262
 4468SOL    HW114303   1.994   2.965   1.265
 4468SOL    HW214304   2.083   2.859   1.351
 4469SOL     OW14305   4.264   6.881   1.230
 4469SOL    HW114306   4.240   6.978   1.239
 4469SOL    HW214307   4.338   6.871   1.163
 4470SOL     OW14308   6.005   3.048   1.908
 4470SOL    HW114309   5.921   3.063   1.961
 4470SOL    HW214310   5.990   3.078   1.814
 4471SOL     OW14311   7.002   1.696   6.599
 4471SOL    HW114312   0.055   1.677   6.665
 4471SOL    HW214313   6.939   1.618   6.596
 4472SOL     OW14314   1.691   2.848   3.767
 4472SOL    HW114315   1.742   2.898   3.837
 4472SOL    HW214316   1.706   2.891   3.678
 4473SOL     OW14317   6.686   2.560   3.940
 4473SOL    HW114318   6.778   2.547   3.902
 4473SOL    HW214319   6.692   2.570   4.039
 4474SOL     OW14320   3.232   0.635   1.701
 4474SOL    HW114321   3.315   0.596   1.742
 4474SOL    HW214322   3.209   0.720   1.748
 4475SOL     OW14323   1.789   3.808   2.672
 4475SOL    HW114324   1.885   3.835   2.674
 4475SOL    HW214325   1.732   3.889   2.688
 4476SOL     OW14326   4.506   6.830   4.251
 4476SOL    HW114327   4.529   6.759   4.317
 4476SOL    HW214328   4.469   6.787   4.168
 4477SOL     OW14329   1.311   0.691   5.716
 4477SOL    HW114330   1.223   0.657   5.683
 4477SOL    HW214331   1.376   0.615   5.722
 4478SOL     OW14332   3.385   6.595   2.677
 4478SOL    HW114333   3.362   6.601   2.774
 4478SOL    HW214334   3.480   6.623   2.664
 4479SOL     OW14335   1.157   0.586   1.535
 4479SOL    HW114336   1.187   0.647   1.462
 4479SOL    HW214337   1.172   0.631   1.623
 4480SOL     OW14338   2.439   3.306   5.926
 4480SOL    HW114339   2.473   3.217   5.895
 4480SOL    HW214340   2.390   3.350   5.851
 4481SOL     OW14341   2.671   6.505   5.522
 4481SOL    HW114342   2.742   6.553   5.574
 4481SOL    HW214343   2.656   6.414   5.561
 4482SOL     OW14344   0.788   4.444   4.449
 4482SOL    HW114345   0.844   4.425   4.530
 4482SOL    HW214346   0.692   4.426   4.469
 4483SOL     OW14347   4.828   3.583   1.896
 4483SOL    HW114348   4.928   3.583   1.903
 4483SOL    HW214349   4.802   3.567   1.801
 4484SOL     OW14350   3.395   2.875   5.540
 4484SOL    HW114351   3.432   2.937   5.470
 4484SOL    HW214352   3.312   2.832   5.506
 4485SOL     OW14353   4.536   1.910   5.246
 4485SOL    HW114354   4.508   1.983   5.309
 4485SOL    HW214355   4.634   1.895   5.256
 4486SOL     OW14356   4.885   4.494   4.789
 4486SOL    HW114357   4.947   4.497   4.710
 4486SOL    HW214358   4.916   4.424   4.853
 4487SOL     OW14359   2.582   2.806   6.144
 4487SOL    HW114360   2.494   2.761   6.159
 4487SOL    HW214361   2.580   2.856   6.058
 4488SOL     OW14362   6.399   3.619   5.871
 4488SOL    HW114363   6.317   3.562   5.858
 4488SOL    HW214364   6.461   3.605   5.794
 4489SOL     OW14365   6.141   5.591   4.597
 4489SOL    HW114366   6.223   5.562   4.548
 4489SOL    HW214367   6.086   5.650   4.538
 4490SOL     OW14368   6.196   2.582   3.079
 4490SOL    HW114369   6.164   2.512   3.016
 4490SOL    HW214370   6.119   2.635   3.114
 4491SOL     OW14371   7.007   2.858   4.618
 4491SOL    HW114372   0.051   2.935   4.610
 4491SOL    HW214373   6.941   2.861   4.542
 4492SOL     OW14374   5.495   4.316   1.940
 4492SOL    HW114375   5.570   4.251   1.952
 4492SOL    HW214376   5.410   4.267   1.926
 4493SOL     OW14377   4.788   6.412   5.308
 4493SOL    HW114378   4.873   6.458   5.333
 4493SOL    HW214379   4.774   6.332   5.367
 4494SOL     OW14380   6.930   1.421   5.768
 4494SOL    HW114381   6.915   1.329   5.734
 4494SOL    HW214382   0.009   1.436   5.783
 4495SOL     OW14383   4.221   6.095   4.493
 4495SOL    HW114384   4.163   6.145   4.557
 4495SOL    HW214385   4.317   6.119   4.507
 4496SOL     OW14386   5.496   5.158   1.045
 4496SOL    HW114387   5.430   5.210   0.991
 4496SOL    HW214388   5.452   5.074   1.077
 4497SOL     OW14389   4.616   0.999   6.794
 4497SOL    HW114390   4.600   0.932   6.867
 4497SOL    HW214391   4.529   1.037   6.764
 4498SOL     OW14392   6.674   3.455   6.388
 4498SOL    HW114393   6.612   3.469   6.311
 4498SOL    HW214394   6.646   3.514   6.464
 4499SOL     OW14395   0.034   3.381   3.915
 4499SOL    HW114396   0.093   3.304   3.937
 4499SOL    HW214397   6.959   3.360   3.940
 4500SOL     OW14398   2.970   3.764   3.676
 4500SOL    HW114399   2.918   3.815   3.745
 4500SOL    HW214400   3.051   3.724   3.720
 4501SOL     OW14401   0.214   3.034   5.393
 4501SOL    HW114402   0.115   3.024   5.394
 4501SOL    HW214403   0.256   2.943   5.400
 4502SOL     OW14404   0.931   2.423   6.655
 4502SOL    HW114405   1.017   2.377   6.675
 4502SOL    HW214406   0.902   2.400   6.562
 4503SOL     OW14407   3.379   6.846   2.060
 4503SOL    HW114408   3.349   6.838   2.155
 4503SOL    HW214409   3.403   6.755   2.025
 4504SOL     OW14410   6.756   1.947   4.702
 4504SOL    HW114411   6.800   1.858   4.710
 4504SOL    HW214412   6.816   2.009   4.651
 4505SOL     OW14413   6.103   5.653   2.723
 4505SOL    HW114414   6.044   5.715   2.775
 4505SOL    HW214415   6.062   5.562   2.719
 4506SOL     OW14416   4.097   2.284   3.780
 4506SOL    HW114417   4.185   2.315   3.816
 4506SOL    HW214418   4.105   2.265   3.682
 4507SOL     OW14419   5.965   4.954   2.234
 4507SOL    HW114420   5.874   4.983   2.204
 4507SOL    HW214421   6.032   5.025   2.210
 4508SOL     OW14422   0.945   4.554   5.912
 4508SOL    HW114423   0.921   4.575   5.817
 4508SOL    HW214424   0.976   4.638   5.957
 4509SOL     OW14425   5.039   2.499   2.157
 4509SOL    HW114426   5.057   2.407   2.193
 4509SOL    HW214427   4.993   2.554   2.227
 4510SOL     OW14428   4.839   0.743   4.569
 4510SOL    HW114429   4.929   0.782   4.549
 4510SOL    HW214430   4.843   0.644   4.559
 4511SOL     OW14431   6.873   3.323   6.495
 4511SOL    HW114432   6.797   3.376   6.457
 4511SOL    HW214433   6.837   3.254   6.557
 4512SOL     OW14434   2.312   0.306   5.563
 4512SOL    HW114435   2.287   0.401   5.548
 4512SOL    HW214436   2.245   0.246   5.520
 4513SOL     OW14437   5.625   6.315   0.428
 4513SOL    HW114438   5.579   6.273   0.507
 4513SOL    HW214439   5.562   6.318   0.351
 4514SOL     OW14440   4.516   1.402   6.013
 4514SOL    HW114441   4.591   1.371   6.071
 4514SOL    HW214442   4.537   1.492   5.976
 4515SOL     OW14443   0.298   2.866   5.934
 4515SOL    HW114444   0.369   2.898   5.871
 4515SOL    HW214445   0.217   2.841   5.882
 4516SOL     OW14446   1.553   0.280   0.188
 4516SOL    HW114447   1.548   0.371   0.147
 4516SOL    HW214448   1.473   0.265   0.246
 4517SOL     OW14449   2.868   1.249   6.901
 4517SOL    HW114450   2.952   1.244   6.848
 4517SOL    HW214451   2.890   1.252   6.999
 4518SOL     OW14452   6.685   1.077   3.307
 4518SOL    HW114453   6.708   1.117   3.395
 4518SOL    HW214454   6.753   1.104   3.239
 4519SOL     OW14455   5.533   0.250   1.725
 4519SOL    HW114456   5.528   0.336   1.775
 4519SOL    HW214457   5.525   0.173   1.788
 4520SOL     OW14458   4.855   6.062   3.876
 4520SOL    HW114459   4.893   6.144   3.834
 4520SOL    HW214460   4.925   5.990   3.877
 4521SOL     OW14461   5.997   2.265   3.623
 4521SOL    HW114462   5.986   2.350   3.674
 4521SOL    HW214463   5.973   2.188   3.683
 4522SOL     OW14464   6.235   0.134   3.227
 4522SOL    HW114465   6.245   0.199   3.301
 4522SOL    HW214466   6.310   0.145   3.162
 4523SOL     OW14467   1.769   4.470   0.307
 4523SOL    HW114468   1.826   4.552   0.301
 4523SOL    HW214469   1.719   4.458   0.221
 4524SOL     OW14470   5.792   2.742   3.613
 4524SOL    HW114471   5.747   2.738   3.702
 4524SOL    HW214472   5.729   2.709   3.543
 4525SOL     OW14473   5.218   1.238   3.198
 4525SOL    HW114474   5.217   1.146   3.236
 4525SOL    HW214475   5.146   1.245   3.129
 4526SOL     OW14476   5.803   0.316   1.356
 4526SOL    HW114477   5.873   0.369   1.306
 4526SOL    HW214478   5.735   0.282   1.292
 4527SOL     OW14479   3.923   1.379   3.324
 4527SOL    HW114480   4.014   1.403   3.359
 4527SOL    HW214481   3.884   1.308   3.383
 4528SOL     OW14482   4.472   7.005   0.170
 4528SOL    HW114483   4.528   7.019   0.089
 4528SOL    HW214484   4.385   6.964   0.144
 4529SOL     OW14485   3.444   1.341   5.227
 4529SOL    HW114486   3.416   1.260   5.178
 4529SOL    HW214487   3.470   1.413   5.162
 4530SOL     OW14488   1.207   3.346   6.258
 4530SOL    HW114489   1.120   3.344   6.307
 4530SOL    HW214490   1.190   3.342   6.159
 4531SOL     OW14491   0.382   3.831   3.978
 4531SOL    HW114492   0.294   3.784   3.975
 4531SOL    HW214493   0.454   3.770   3.946
 4532SOL     OW14494   5.860   2.133   3.394
 4532SOL    HW114495   5.876   2.184   3.479
 4532SOL    HW214496   5.830   2.040   3.416
 4533SOL     OW14497   1.807   0.514   2.166
 4533SOL    HW114498   1.846   0.422   2.156
 4533SOL    HW214499   1.842   0.556   2.251
 4534SOL     OW14500   4.601   4.395   4.788
 4534SOL    HW114501   4.554   4.425   4.871
 4534SOL    HW214502   4.692   4.437   4.784
 4535SOL     OW14503   4.827   1.595   2.385
 4535SOL    HW114504   4.782   1.521   2.434
 4535SOL    HW214505   4.910   1.561   2.341
 4536SOL     OW14506   3.849   1.412   3.797
 4536SOL    HW114507   3.773   1.451   3.849
 4536SOL    HW214508   3.931   1.410   3.855
 4537SOL     OW14509   3.874   3.029   5.590
 4537SOL    HW114510   3.834   3.045   5.680
 4537SOL    HW214511   3.972   3.048   5.593
 4538SOL     OW14512   2.770   0.300   4.146
 4538SOL    HW114513   2.680   0.303   4.102
 4538SOL    HW214514   2.774   0.221   4.207
 4539SOL     OW14515   2.200   0.940   4.453
 4539SOL    HW114516   2.185   0.846   4.423
 4539SOL    HW214517   2.171   1.004   4.382
 4540SOL     OW14518   2.931   3.392   4.883
 4540SOL    HW114519   2.858   3.436   4.934
 4540SOL    HW214520   2.983   3.332   4.944
 4541SOL     OW14521   5.918   1.598   1.043
 4541SOL    HW114522   5.848   1.666   1.068
 4541SOL    HW214523   5.924   1.592   0.943
 4542SOL     OW14524   6.424   0.991   2.996
 4542SOL    HW114525   6.329   1.013   3.017
 4542SOL    HW214526   6.437   0.990   2.897
 4543SOL     OW14527   4.628   1.824   1.571
 4543SOL    HW114528   4.666   1.738   1.537
 4543SOL    HW214529   4.528   1.820   1.568
 4544SOL     OW14530   3.331   6.379   6.203
 4544SOL    HW114531   3.268   6.383   6.281
 4544SOL    HW214532   3.368   6.470   6.186
 4545SOL     OW14533   5.092   3.909   5.252
 4545SOL    HW114534   5.179   3.889   5.207
 4545SOL    HW214535   5.086   3.856   5.337
 4546SOL     OW14536   2.412   1.543   6.538
 4546SOL    HW114537   2.380   1.471   6.600
 4546SOL    HW214538   2.387   1.520   6.444
 4547SOL     OW14539   5.980   2.738   3.106
 4547SOL    HW114540   5.975   2.790   3.191
 4547SOL    HW214541   5.888   2.728   3.068
 4548SOL     OW14542   1.156   4.196   5.048
 4548SOL    HW114543   1.216   4.270   5.017
 4548SOL    HW214544   1.162   4.120   4.984
 4549SOL     OW14545   6.037   4.433   2.217
 4549SOL    HW114546   6.023   4.528   2.191
 4549SOL    HW214547   5.995   4.416   2.306
 4550SOL     OW14548   1.751   5.702   3.157
 4550SOL    HW114549   1.694   5.768   3.207
 4550SOL    HW214550   1.816   5.751   3.100
 4551SOL     OW14551   6.145   1.827   5.843
 4551SOL    HW114552   6.163   1.744   5.791
 4551SOL    HW214553   6.093   1.892   5.786
 4552SOL     OW14554   6.343   2.758   0.922
 4552SOL    HW114555   6.421   2.753   0.859
 4552SOL    HW214556   6.276   2.823   0.886
 4553SOL     OW14557   3.954   4.287   6.248
 4553SOL    HW114558   4.006   4.279   6.333
 4553SOL    HW214559   4.014   4.265   6.170
 4554SOL     OW14560   5.023   0.262   1.249
 4554SOL    HW114561   5.009   0.170   1.214
 4554SOL    HW214562   5.072   0.258   1.336
 4555SOL     OW14563   3.105   1.207   5.436
 4555SOL    HW114564   3.201   1.181   5.426
 4555SOL    HW214565   3.064   1.216   5.345
 4556SOL     OW14566   4.590   2.483   3.955
 4556SOL    HW114567   4.490   2.493   3.954
 4556SOL    HW214568   4.623   2.491   4.049
 4557SOL     OW14569   4.707   6.860   4.785
 4557SOL    HW114570   4.633   6.859   4.717
 4557SOL    HW214571   4.793   6.884   4.741
 4558SOL     OW14572   0.299   3.550   5.668
 4558SOL    HW114573   0.262   3.639   5.641
 4558SOL    HW214574   0.252   3.478   5.617
 4559SOL     OW14575   1.111   3.781   1.526
 4559SOL    HW114576   1.087   3.793   1.622
 4559SOL    HW214577   1.148   3.689   1.513
 4560SOL     OW14578   5.704   5.094   2.643
 4560SOL    HW114579   5.677   5.123   2.735
 4560SOL    HW214580   5.761   5.165   2.601
 4561SOL     OW14581   2.479   0.584   1.472
 4561SOL    HW114582   2.449   0.548   1.383
 4561SOL    HW214583   2.450   0.679   1.482
 4562SOL     OW14584   3.544   6.166   5.163
 4562SOL    HW114585   3.453   6.205   5.149
 4562SOL    HW214586   3.539   6.066   5.154
 4563SOL     OW14587   0.766   4.100   1.026
 4563SOL    HW114588   0.709   4.116   1.107
 4563SOL    HW214589   0.753   4.007   0.994
 4564SOL     OW14590   6.687   0.019   0.749
 4564SOL    HW114591   6.725   0.005   0.657
 4564SOL    HW214592   6.719   6.967   0.810
 4565SOL     OW14593   6.954   1.158   5.368
 4565SOL    HW114594   0.005   1.088   5.376
 4565SOL    HW214595   6.990   1.236   5.317
 4566SOL     OW14596   6.630   1.613   0.298
 4566SOL    HW114597   6.725   1.607   0.330
 4566SOL    HW214598   6.624   1.578   0.205
 4567SOL     OW14599   6.983   0.771   0.053
 4567SOL    HW114600   7.015   0.856   0.012
 4567SOL    HW214601   6.963   0.787   0.150
 4568SOL     OW14602   1.505   4.173   5.462
 4568SOL    HW114603   1.425   4.156   5.520
 4568SOL    HW214604   1.554   4.088   5.446
 4569SOL     OW14605   2.060   0.925   3.402
 4569SOL    HW114606   1.962   0.930   3.425
 4569SOL    HW214607   2.075   0.849   3.340
 4570SOL     OW14608   1.388   6.464   2.774
 4570SOL    HW114609   1.388   6.526   2.696
 4570SOL    HW214610   1.479   6.463   2.816
 4571SOL     OW14611   3.934   2.945   6.235
 4571SOL    HW114612   3.877   3.022   6.265
 4571SOL    HW214613   3.886   2.859   6.252
 4572SOL     OW14614   1.178   6.638   0.193
 4572SOL    HW114615   1.206   6.705   0.262
 4572SOL    HW214616   1.112   6.680   0.130
 4573SOL     OW14617   6.490   6.494   0.482
 4573SOL    HW114618   6.427   6.570   0.471
 4573SOL    HW214619   6.494   6.467   0.578
 4574SOL     OW14620   6.739   3.747   1.515
 4574SOL    HW114621   6.641   3.726   1.508
 4574SOL    HW214622   6.787   3.710   1.436
 4575SOL     OW14623   5.841   1.843   6.523
 4575SOL    HW114624   5.857   1.746   6.544
 4575SOL    HW214625   5.897   1.869   6.444
 4576SOL     OW14626   2.024   6.001   6.707
 4576SOL    HW114627   1.987   6.025   6.797
 4576SOL    HW214628   1.977   6.053   6.636
 4577SOL     OW14629   0.953   1.838   4.304
 4577SOL    HW114630   1.011   1.915   4.279
 4577SOL    HW214631   0.899   1.862   4.385
 4578SOL     OW14632   0.677   3.564   4.649
 4578SOL    HW114633   0.723   3.642   4.691
 4578SOL    HW214634   0.717   3.479   4.684
 4579SOL     OW14635   4.975   2.253   3.456
 4579SOL    HW114636   4.947   2.285   3.365
 4579SOL    HW214637   5.020   2.164   3.448
 4580SOL     OW14638   4.629   4.664   0.097
 4580SOL    HW114639   4.695   4.722   0.145
 4580SOL    HW214640   4.536   4.694   0.117
 4581SOL     OW14641   2.974   4.960   3.130
 4581SOL    HW114642   2.994   4.880   3.073
 4581SOL    HW214643   2.909   4.935   3.201
 4582SOL     OW14644   5.787   6.365   4.687
 4582SOL    HW114645   5.723   6.439   4.665
 4582SOL    HW214646   5.782   6.344   4.784
 4583SOL     OW14647   2.558   1.916   5.407
 4583SOL    HW114648   2.502   1.834   5.407
 4583SOL    HW214649   2.629   1.907   5.338
 4584SOL     OW14650   0.281   5.273   5.815
 4584SOL    HW114651   0.298   5.192   5.760
 4584SOL    HW214652   0.237   5.343   5.758
 4585SOL     OW14653   2.621   6.562   3.368
 4585SOL    HW114654   2.630   6.473   3.413
 4585SOL    HW214655   2.530   6.570   3.327
 4586SOL     OW14656   3.586   4.751   0.373
 4586SOL    HW114657   3.597   4.658   0.409
 4586SOL    HW214658   3.600   4.817   0.447
 4587SOL     OW14659   4.052   3.906   1.827
 4587SOL    HW114660   3.998   3.912   1.911
 4587SOL    HW214661   4.115   3.828   1.834
 4588SOL     OW14662   3.739   4.226   5.418
 4588SOL    HW114663   3.777   4.197   5.507
 4588SOL    HW214664   3.814   4.245   5.355
 4589SOL     OW14665   5.636   1.027   2.677
 4589SOL    HW114666   5.702   1.008   2.604
 4589SOL    HW214667   5.544   1.008   2.644
 4590SOL     OW14668   4.613   5.625   0.470
 4590SOL    HW114669   4.542   5.638   0.540
 4590SOL    HW214670   4.619   5.707   0.414
 4591SOL     OW14671   1.013   6.206   4.681
 4591SOL    HW114672   1.025   6.172   4.588
 4591SOL    HW214673   0.963   6.139   4.735
 4592SOL     OW14674   3.303   1.335   1.868
 4592SOL    HW114675   3.389   1.289   1.847
 4592SOL    HW214676   3.312   1.433   1.847
 4593SOL     OW14677   4.330   5.717   3.715
 4593SOL    HW114678   4.302   5.737   3.809
 4593SOL    HW214679   4.352   5.802   3.668
 4594SOL     OW14680   3.119   0.362   1.684
 4594SOL    HW114681   3.109   0.332   1.779
 4594SOL    HW214682   3.166   0.450   1.681
 4595SOL     OW14683   3.919   2.182   6.277
 4595SOL    HW114684   3.986   2.129   6.225
 4595SOL    HW214685   3.895   2.265   6.226
 4596SOL     OW14686   5.873   6.760   2.802
 4596SOL    HW114687   5.842   6.834   2.861
 4596SOL    HW214688   5.794   6.717   2.759
 4597SOL     OW14689   4.591   4.301   6.864
 4597SOL    HW114690   4.567   4.396   6.843
 4597SOL    HW214691   4.627   4.257   6.782
 4598SOL     OW14692   1.912   5.546   6.984
 4598SOL    HW114693   1.968   5.573   0.043
 4598SOL    HW214694   1.938   5.601   6.904
 4599SOL     OW14695   1.189   5.151   0.259
 4599SOL    HW114696   1.285   5.134   0.281
 4599SOL    HW214697   1.139   5.064   0.260
 4600SOL     OW14698   1.094   4.433   5.383
 4600SOL    HW114699   1.107   4.365   5.455
 4600SOL    HW214700   0.997   4.437   5.359
 4601SOL     OW14701   1.564   6.874   5.692
 4601SOL    HW114702   1.660   6.878   5.720
 4601SOL    HW214703   1.530   6.967   5.676
 4602SOL     OW14704   1.125   5.622   1.448
 4602SOL    HW114705   1.073   5.563   1.510
 4602SOL    HW214706   1.199   5.666   1.499
 4603SOL     OW14707   3.021   6.223   0.987
 4603SOL    HW114708   2.931   6.191   0.956
 4603SOL    HW214709   3.092   6.165   0.946
 4604SOL     OW14710   4.634   0.433   1.493
 4604SOL    HW114711   4.652   0.355   1.554
 4604SOL    HW214712   4.642   0.403   1.398
 4605SOL     OW14713   3.336   0.972   3.343
 4605SOL    HW114714   3.418   0.954   3.397
 4605SOL    HW214715   3.338   0.916   3.260
 4606SOL     OW14716   0.671   0.389   1.660
 4606SOL    HW114717   0.747   0.443   1.623
 4606SOL    HW214718   0.590   0.447   1.670
 4607SOL     OW14719   2.612   2.400   0.691
 4607SOL    HW114720   2.616   2.477   0.754
 4607SOL    HW214721   2.704   2.370   0.668
 4608SOL     OW14722   1.147   5.919   3.584
 4608SOL    HW114723   1.115   5.998   3.533
 4608SOL    HW214724   1.071   5.879   3.635
 4609SOL     OW14725   4.547   4.919   6.143
 4609SOL    HW114726   4.525   5.015   6.158
 4609SOL    HW214727   4.536   4.897   6.046
 4610SOL     OW14728   5.188   2.683   0.952
 4610SOL    HW114729   5.228   2.728   0.872
 4610SOL    HW214730   5.089   2.692   0.949
 4611SOL     OW14731   0.127   6.035   5.627
 4611SOL    HW114732   0.041   6.037   5.678
 4611SOL    HW214733   0.188   5.967   5.667
 4612SOL     OW14734   0.807   5.704   0.185
 4612SOL    HW114735   0.780   5.611   0.210
 4612SOL    HW214736   0.830   5.756   0.268
 4613SOL     OW14737   2.247   5.816   2.296
 4613SOL    HW114738   2.228   5.721   2.320
 4613SOL    HW214739   2.269   5.822   2.199
 4614SOL     OW14740   6.808   3.728   4.357
 4614SOL    HW114741   6.778   3.784   4.434
 4614SOL    HW214742   6.902   3.697   4.373
 4615SOL     OW14743   1.941   0.793   0.157
 4615SOL    HW114744   1.920   0.781   0.060
 4615SOL    HW214745   2.011   0.726   0.185
 4616SOL     OW14746   6.495   0.860   5.930
 4616SOL    HW114747   6.582   0.862   5.882
 4616SOL    HW214748   6.424   0.901   5.872
 4617SOL     OW14749   0.694   2.544   2.130
 4617SOL    HW114750   0.620   2.543   2.197
 4617SOL    HW214751   0.781   2.527   2.176
 4618SOL     OW14752   1.935   2.895   5.134
 4618SOL    HW114753   2.005   2.962   5.161
 4618SOL    HW214754   1.845   2.938   5.138
 4619SOL     OW14755   3.172   6.273   2.951
 4619SOL    HW114756   3.228   6.255   3.032
 4619SOL    HW214757   3.147   6.186   2.908
 4620SOL     OW14758   2.851   4.693   0.174
 4620SOL    HW114759   2.893   4.704   0.264
 4620SOL    HW214760   2.772   4.753   0.166
 4621SOL     OW14761   4.979   1.274   2.638
 4621SOL    HW114762   4.894   1.232   2.606
 4621SOL    HW214763   5.024   1.321   2.563
 4622SOL     OW14764   2.325   3.960   0.271
 4622SOL    HW114765   2.323   3.909   0.357
 4622SOL    HW214766   2.394   3.920   0.210
 4623SOL     OW14767   6.074   6.330   0.429
 4623SOL    HW114768   6.166   6.299   0.407
 4623SOL    HW214769   6.075   6.428   0.447
 4624SOL     OW14770   5.518   0.248   3.119
 4624SOL    HW114771   5.583   0.321   3.100
 4624SOL    HW214772   5.534   0.213   3.212
 4625SOL     OW14773   1.524   4.018   0.248
 4625SOL    HW114774   1.576   3.950   0.198
 4625SOL    HW214775   1.448   3.974   0.296
 4626SOL     OW14776   5.425   5.604   2.164
 4626SOL    HW114777   5.418   5.703   2.176
 4626SOL    HW214778   5.341   5.561   2.197
 4627SOL     OW14779   3.027   5.030   4.076
 4627SOL    HW114780   3.102   4.984   4.124
 4627SOL    HW214781   2.956   4.963   4.055
 4628SOL     OW14782   5.585   4.136   4.201
 4628SOL    HW114783   5.593   4.055   4.259
 4628SOL    HW214784   5.652   4.205   4.230
 4629SOL     OW14785   2.342   5.257   5.814
 4629SOL    HW114786   2.250   5.230   5.842
 4629SOL    HW214787   2.352   5.248   5.715
 4630SOL     OW14788   3.842   5.607   2.256
 4630SOL    HW114789   3.857   5.706   2.252
 4630SOL    HW214790   3.931   5.560   2.250
 4631SOL     OW14791   2.332   6.522   3.237
 4631SOL    HW114792   2.361   6.459   3.166
 4631SOL    HW214793   2.315   6.472   3.322
 4632SOL     OW14794   3.774   5.262   2.616
 4632SOL    HW114795   3.772   5.163   2.600
 4632SOL    HW214796   3.744   5.309   2.533
 4633SOL     OW14797   5.341   1.353   3.821
 4633SOL    HW114798   5.421   1.384   3.771
 4633SOL    HW214799   5.317   1.260   3.791
 4634SOL     OW14800   2.836   4.848   6.168
 4634SOL    HW114801   2.836   4.748   6.165
 4634SOL    HW214802   2.744   4.882   6.147
 4635SOL     OW14803   5.631   3.658   1.428
 4635SOL    HW114804   5.580   3.573   1.411
 4635SOL    HW214805   5.572   3.721   1.479
 4636SOL     OW14806   2.517   4.734   0.127
 4636SOL    HW114807   2.467   4.684   0.057
 4636SOL    HW214808   2.488   4.830   0.126
 4637SOL     OW14809   0.998   0.356   6.882
 4637SOL    HW114810   1.059   0.391   6.953
 4637SOL    HW214811   0.939   0.285   6.921
 4638SOL     OW14812   4.970   2.984   0.024
 4638SOL    HW114813   5.058   2.985   6.997
 4638SOL    HW214814   4.978   2.930   0.108
 4639SOL     OW14815   2.236   4.378   5.392
 4639SOL    HW114816   2.335   4.381   5.386
 4639SOL    HW214817   2.201   4.467   5.421
 4640SOL     OW14818   5.028   4.754   3.540
 4640SOL    HW114819   4.986   4.760   3.450
 4640SOL    HW214820   4.999   4.832   3.596
 4641SOL     OW14821   2.400   6.381   4.977
 4641SOL    HW114822   2.330   6.363   5.046
 4641SOL    HW214823   2.416   6.480   4.972
 4642SOL     OW14824   0.179   5.269   3.811
 4642SOL    HW114825   0.112   5.212   3.860
 4642SOL    HW214826   0.251   5.211   3.774
 4643SOL     OW14827   5.937   2.896   1.361
 4643SOL    HW114828   5.932   2.981   1.309
 4643SOL    HW214829   6.029   2.857   1.354
 4644SOL     OW14830   0.364   4.624   4.898
 4644SOL    HW114831   0.334   4.533   4.868
 4644SOL    HW214832   0.299   4.659   4.965
 4645SOL     OW14833   0.784   1.573   4.457
 4645SOL    HW114834   0.779   1.476   4.435
 4645SOL    HW214835   0.863   1.614   4.411
 4646SOL     OW14836   2.340   5.344   3.927
 4646SOL    HW114837   2.390   5.425   3.898
 4646SOL    HW214838   2.324   5.348   4.026
 4647SOL     OW14839   1.520   1.118   3.931
 4647SOL    HW114840   1.606   1.169   3.941
 4647SOL    HW214841   1.443   1.182   3.930
 4648SOL     OW14842   4.501   1.306   2.291
 4648SOL    HW114843   4.410   1.268   2.278
 4648SOL    HW214844   4.569   1.234   2.282
 4649SOL     OW14845   5.582   0.308   6.324
 4649SOL    HW114846   5.609   0.222   6.366
 4649SOL    HW214847   5.627   0.384   6.372
 4650SOL     OW14848   4.952   5.741   3.667
 4650SOL    HW114849   4.956   5.817   3.603
 4650SOL    HW214850   4.864   5.742   3.715
 4651SOL     OW14851   6.672   1.438   0.867
 4651SOL    HW114852   6.698   1.508   0.801
 4651SOL    HW214853   6.696   1.347   0.832
 4652SOL     OW14854   0.130   0.134   4.413
 4652SOL    HW114855   0.212   0.186   4.388
 4652SOL    HW214856   0.156   0.055   4.469
 4653SOL     OW14857   5.612   5.226   0.218
 4653SOL    HW114858   5.513   5.218   0.205
 4653SOL    HW214859   5.660   5.179   0.144
 4654SOL     OW14860   0.737   6.381   0.425
 4654SOL    HW114861   0.747   6.371   0.326
 4654SOL    HW214862   0.699   6.471   0.446
 4655SOL     OW14863   6.522   4.960   1.894
 4655SOL    HW114864   6.442   4.907   1.924
 4655SOL    HW214865   6.530   5.042   1.951
 4656SOL     OW14866   1.225   0.320   3.832
 4656SOL    HW114867   1.312   0.335   3.880
 4656SOL    HW214868   1.197   0.225   3.842
 4657SOL     OW14869   5.594   6.135   1.395
 4657SOL    HW114870   5.583   6.141   1.494
 4657SOL    HW214871   5.590   6.039   1.367
 4658SOL     OW14872   4.068   1.528   2.602
 4658SOL    HW114873   4.093   1.434   2.576
 4658SOL    HW214874   3.986   1.555   2.553
 4659SOL     OW14875   3.008   4.283   5.269
 4659SOL    HW114876   2.966   4.367   5.234
 4659SOL    HW214877   2.939   4.210   5.271
 4660SOL     OW14878   0.921   4.032   5.324
 4660SOL    HW114879   1.020   4.038   5.316
 4660SOL    HW214880   0.897   3.966   5.396
 4661SOL     OW14881   3.430   3.742   5.658
 4661SOL    HW114882   3.447   3.650   5.694
 4661SOL    HW214883   3.509   3.800   5.676
 4662SOL     OW14884   3.719   6.906   4.840
 4662SOL    HW114885   3.726   6.829   4.777
 4662SOL    HW214886   3.811   6.934   4.868
 4663SOL     OW14887   0.777   1.431   2.564
 4663SOL    HW114888   0.741   1.473   2.481
 4663SOL    HW214889   0.757   1.333   2.563
 4664SOL     OW14890   1.563   1.382   0.545
 4664SOL    HW114891   1.528   1.408   0.455
 4664SOL    HW214892   1.637   1.443   0.571
 4665SOL     OW14893   3.638   6.996   0.328
 4665SOL    HW114894   3.654   6.910   0.279
 4665SOL    HW214895   3.630   0.052   0.263
 4666SOL     OW14896   1.325   2.089   1.120
 4666SOL    HW114897   1.415   2.056   1.095
 4666SOL    HW214898   1.327   2.122   1.215
 4667SOL     OW14899   6.276   3.633   1.924
 4667SOL    HW114900   6.204   3.617   1.857
 4667SOL    HW214901   6.340   3.702   1.889
 4668SOL     OW14902   5.044   2.034   3.041
 4668SOL    HW114903   4.965   2.070   3.090
 4668SOL    HW214904   5.031   1.937   3.023
 4669SOL     OW14905   4.359   6.719   6.636
 4669SOL    HW114906   4.452   6.700   6.607
 4669SOL    HW214907   4.313   6.633   6.661
 4670SOL     OW14908   3.318   2.213   5.333
 4670SOL    HW114909   3.312   2.243   5.238
 4670SOL    HW214910   3.291   2.288   5.393
 4671SOL     OW14911   6.810   2.720   2.443
 4671SOL    HW114912   6.713   2.743   2.444
 4671SOL    HW214913   6.858   2.783   2.381
 4672SOL     OW14914   2.849   4.243   6.336
 4672SOL    HW114915   2.925   4.285   6.286
 4672SOL    HW214916   2.873   4.237   6.433
 4673SOL     OW14917   4.982   6.535   1.317
 4673SOL    HW114918   4.897   6.588   1.325
 4673SOL    HW214919   5.053   6.577   1.375
 4674SOL     OW14920   4.870   0.094   6.554
 4674SOL    HW114921   4.771   0.107   6.547
 4674SOL    HW214922   4.902   0.045   6.473
 4675SOL     OW14923   0.505   1.332   6.370
 4675SOL    HW114924   0.423   1.275   6.364
 4675SOL    HW214925   0.495   1.410   6.309
 4676SOL     OW14926   6.884   6.405   3.862
 4676SOL    HW114927   6.930   6.319   3.842
 4676SOL    HW214928   6.872   6.457   3.777
 4677SOL     OW14929   2.755   0.985   0.164
 4677SOL    HW114930   2.733   0.999   0.261
 4677SOL    HW214931   2.670   0.981   0.111
 4678SOL     OW14932   1.902   4.588   3.195
 4678SOL    HW114933   1.992   4.566   3.158
 4678SOL    HW214934   1.847   4.634   3.126
 4679SOL     OW14935   3.383   0.566   0.941
 4679SOL    HW114936   3.404   0.619   1.024
 4679SOL    HW214937   3.440   0.484   0.939
 4680SOL     OW14938   3.044   1.805   6.774
 4680SOL    HW114939   2.978   1.852   6.715
 4680SOL    HW214940   3.103   1.746   6.717
 4681SOL     OW14941   5.342   5.023   6.985
 4681SOL    HW114942   5.412   4.955   6.965
 4681SOL    HW214943   5.360   5.106   6.933
 4682SOL     OW14944   4.978   4.740   5.254
 4682SOL    HW114945   4.954   4.649   5.222
 4682SOL    HW214946   4.927   4.761   5.338
 4683SOL     OW14947   5.282   5.037   2.505
 4683SOL    HW114948   5.293   4.939   2.487
 4683SOL    HW214949   5.372   5.081   2.501
 4684SOL     OW14950   5.792   0.926   5.449
 4684SOL    HW114951   5.881   0.934   5.405
 4684SOL    HW214952   5.798   0.860   5.525
 4685SOL     OW14953   1.421   5.125   5.665
 4685SOL    HW114954   1.392   5.042   5.616
 4685SOL    HW214955   1.345   5.190   5.668
 4686SOL     OW14956   4.226   5.231   7.011
 4686SOL    HW114957   4.325   5.221   7.017
 4686SOL    HW214958   4.186   5.148   6.972
 4687SOL     OW14959   5.054   3.386   4.502
 4687SOL    HW114960   4.991   3.341   4.439
 4687SOL    HW214961   5.004   3.417   4.583
 4688SOL     OW14962   5.944   4.445   5.432
 4688SOL    HW114963   5.994   4.485   5.509
 4688SOL    HW214964   6.002   4.449   5.350
 4689SOL     OW14965   4.772   0.950   0.129
 4689SOL    HW114966   4.791   1.048   0.116
 4689SOL    HW214967   4.836   0.896   0.075
 4690SOL     OW14968   0.835   0.158   7.015
 4690SOL    HW114969   0.895   0.160   0.076
 4690SOL    HW214970   0.742   0.136   0.023
 4691SOL     OW14971   2.854   4.481   1.073
 4691SOL    HW114972   2.799   4.415   1.126
 4691SOL    HW214973   2.949   4.451   1.073
 4692SOL     OW14974   5.692   5.520   2.222
 4692SOL    HW114975   5.593   5.528   2.209
 4692SOL    HW214976   5.736   5.608   2.203
 4693SOL     OW14977   1.230   1.869   3.442
 4693SOL    HW114978   1.184   1.946   3.397
 4693SOL    HW214979   1.328   1.871   3.421
 4694SOL     OW14980   2.157   0.951   0.058
 4694SOL    HW114981   2.097   0.877   0.030
 4694SOL    HW214982   2.103   1.024   0.102
 4695SOL     OW14983   1.047   4.415   2.499
 4695SOL    HW114984   0.971   4.470   2.532
 4695SOL    HW214985   1.035   4.396   2.401
 4696SOL     OW14986   0.229   3.796   0.431
 4696SOL    HW114987   0.225   3.786   0.331
 4696SOL    HW214988   0.316   3.760   0.464
 4697SOL     OW14989   1.531   3.468   1.349
 4697SOL    HW114990   1.614   3.429   1.388
 4697SOL    HW214991   1.468   3.394   1.323
 4698SOL     OW14992   4.530   5.629   2.647
 4698SOL    HW114993   4.550   5.655   2.552
 4698SOL    HW214994   4.431   5.631   2.663
 4699SOL     OW14995   1.053   6.808   2.261
 4699SOL    HW114996   1.058   6.725   2.205
 4699SOL    HW214997   1.120   6.875   2.228
 4700SOL     OW14998   6.836   1.031   2.895
 4700SOL    HW114999   6.741   1.013   2.868
 4700SOL    HW215000   6.894   0.954   2.869
 4701SOL     OW15001   2.777   2.126   0.364
 4701SOL    HW115002   2.816   2.054   0.422
 4701SOL    HW215003   2.798   2.215   0.404
 4702SOL     OW15004   4.877   4.859   0.125
 4702SOL    HW115005   4.971   4.838   0.096
 4702SOL    HW215006   4.876   4.948   0.171
 4703SOL     OW15007   0.124   1.543   2.545
 4703SOL    HW115008   0.175   1.602   2.483
 4703SOL    HW215009   0.075   1.600   2.612
 4704SOL     OW15010   6.451   6.393   6.477
 4704SOL    HW115011   6.522   6.463   6.483
 4704SOL    HW215012   6.422   6.384   6.382
 4705SOL     OW15013   4.066   2.802   1.220
 4705SOL    HW115014   4.056   2.803   1.319
 4705SOL    HW215015   4.159   2.774   1.196
 4706SOL     OW15016   2.480   0.199   0.631
 4706SOL    HW115017   2.441   0.157   0.713
 4706SOL    HW215018   2.429   0.282   0.608
 4707SOL     OW15019   0.909   6.869   0.301
 4707SOL    HW115020   0.852   6.790   0.326
 4707SOL    HW215021   0.930   6.865   0.204
 4708SOL     OW15022   1.366   2.367   6.269
 4708SOL    HW115023   1.303   2.414   6.331
 4708SOL    HW215024   1.451   2.419   6.263
 4709SOL     OW15025   4.577   5.792   5.287
 4709SOL    HW115026   4.628   5.708   5.268
 4709SOL    HW215027   4.518   5.814   5.209
 4710SOL     OW15028   4.855   6.932   5.922
 4710SOL    HW115029   4.909   6.889   5.994
 4710SOL    HW215030   4.871   0.011   5.923
 4711SOL     OW15031   5.949   1.181   1.598
 4711SOL    HW115032   5.974   1.086   1.616
 4711SOL    HW215033   5.998   1.214   1.518
 4712SOL     OW15034   3.178   4.717   6.626
 4712SOL    HW115035   3.259   4.755   6.582
 4712SOL    HW215036   3.103   4.712   6.561
 4713SOL     OW15037   3.417   4.472   0.907
 4713SOL    HW115038   3.493   4.409   0.922
 4713SOL    HW215039   3.346   4.427   0.854
 4714SOL     OW15040   0.599   1.949   6.232
 4714SOL    HW115041   0.644   1.888   6.297
 4714SOL    HW215042   0.500   1.931   6.232
 4715SOL     OW15043   6.088   3.160   2.244
 4715SOL    HW115044   6.023   3.193   2.313
 4715SOL    HW215045   6.084   3.060   2.241
 4716SOL     OW15046   4.413   6.689   6.253
 4716SOL    HW115047   4.424   6.590   6.245
 4716SOL    HW215048   4.351   6.710   6.328
 4717SOL     OW15049   0.571   6.032   3.835
 4717SOL    HW115050   0.576   6.089   3.917
 4717SOL    HW215051   0.569   5.935   3.861
 4718SOL     OW15052   6.117   2.203   1.293
 4718SOL    HW115053   6.068   2.207   1.206
 4718SOL    HW215054   6.171   2.287   1.304
 4719SOL     OW15055   4.769   3.152   1.720
 4719SOL    HW115056   4.744   3.090   1.794
 4719SOL    HW215057   4.854   3.199   1.743
 4720SOL     OW15058   2.219   5.199   6.095
 4720SOL    HW115059   2.297   5.260   6.110
 4720SOL    HW215060   2.136   5.254   6.082
 4721SOL     OW15061   6.608   1.816   2.277
 4721SOL    HW115062   6.630   1.914   2.269
 4721SOL    HW215063   6.641   1.783   2.365
 4722SOL     OW15064   1.247   6.395   6.586
 4722SOL    HW115065   1.311   6.461   6.545
 4722SOL    HW215066   1.268   6.303   6.554
 4723SOL     OW15067   3.046   3.079   5.665
 4723SOL    HW115068   3.130   3.130   5.645
 4723SOL    HW215069   2.972   3.143   5.685
 4724SOL     OW15070   6.272   6.833   3.406
 4724SOL    HW115071   6.198   6.776   3.369
 4724SOL    HW215072   6.330   6.863   3.330
 4725SOL     OW15073   0.004   5.098   1.100
 4725SOL    HW115074   0.038   5.126   1.010
 4725SOL    HW215075   0.021   5.170   1.167
 4726SOL     OW15076   0.910   3.246   6.100
 4726SOL    HW115077   0.996   3.274   6.058
 4726SOL    HW215078   0.861   3.185   6.038
 4727SOL     OW15079   1.150   6.285   1.191
 4727SOL    HW115080   1.064   6.336   1.183
 4727SOL    HW215081   1.214   6.316   1.120
 4728SOL     OW15082   5.711   1.452   1.466
 4728SOL    HW115083   5.745   1.430   1.375
 4728SOL    HW215084   5.684   1.548   1.470
 4729SOL     OW15085   4.261   1.873   0.693
 4729SOL    HW115086   4.257   1.957   0.747
 4729SOL    HW215087   4.169   1.852   0.658
 4730SOL     OW15088   3.308   5.750   5.365
 4730SOL    HW115089   3.216   5.736   5.328
 4730SOL    HW215090   3.319   5.845   5.393
 4731SOL     OW15091   3.121   0.481   0.103
 4731SOL    HW115092   3.074   0.478   0.015
 4731SOL    HW215093   3.219   0.486   0.089
 4732SOL     OW15094   1.605   4.558   5.173
 4732SOL    HW115095   1.571   4.470   5.207
 4732SOL    HW215096   1.681   4.543   5.110
 4733SOL     OW15097   1.832   4.223   3.550
 4733SOL    HW115098   1.837   4.126   3.574
 4733SOL    HW215099   1.805   4.232   3.454
 4734SOL     OW15100   4.574   3.680   0.232
 4734SOL    HW115101   4.523   3.595   0.229
 4734SOL    HW215102   4.525   3.750   0.179
 4735SOL     OW15103   6.966   5.195   4.443
 4735SOL    HW115104   0.016   5.260   4.473
 4735SOL    HW215105   6.884   5.245   4.415
 4736SOL     OW15106   5.772   1.750   5.820
 4736SOL    HW115107   5.803   1.817   5.887
 4736SOL    HW215108   5.831   1.754   5.739
 4737SOL     OW15109   2.887   4.349   1.645
 4737SOL    HW115110   2.873   4.411   1.721
 4737SOL    HW215111   2.801   4.301   1.625
 4738SOL     OW15112   1.823   6.095   3.165
 4738SOL    HW115113   1.817   6.075   3.263
 4738SOL    HW215114   1.869   6.020   3.119
 4739SOL     OW15115   4.674   1.613   2.807
 4739SOL    HW115116   4.646   1.689   2.866
 4739SOL    HW215117   4.744   1.645   2.742
 4740SOL     OW15118   0.088   1.934   0.814
 4740SOL    HW115119   0.140   1.886   0.884
 4740SOL    HW215120   7.015   1.954   0.849
 4741SOL     OW15121   5.529   3.763   0.631
 4741SOL    HW115122   5.629   3.758   0.632
 4741SOL    HW215123   5.491   3.676   0.602
 4742SOL     OW15124   3.331   6.748   6.904
 4742SOL    HW115125   3.351   6.695   6.986
 4742SOL    HW215126   3.264   6.820   6.927
 4743SOL     OW15127   1.970   3.702   5.156
 4743SOL    HW115128   2.051   3.672   5.106
 4743SOL    HW215129   1.916   3.622   5.183
 4744SOL     OW15130   2.514   4.070   6.454
 4744SOL    HW115131   2.419   4.046   6.431
 4744SOL    HW215132   2.549   4.135   6.386
 4745SOL     OW15133   3.393   5.271   5.956
 4745SOL    HW115134   3.426   5.189   6.003
 4745SOL    HW215135   3.345   5.245   5.872
 4746SOL     OW15136   5.114   6.307   2.259
 4746SOL    HW115137   5.086   6.218   2.296
 4746SOL    HW215138   5.166   6.357   2.328
 4747SOL     OW15139   1.591   4.132   6.055
 4747SOL    HW115140   1.651   4.078   6.115
 4747SOL    HW215141   1.597   4.097   5.962
 4748SOL     OW15142   1.194   4.623   0.766
 4748SOL    HW115143   1.231   4.697   0.823
 4748SOL    HW215144   1.155   4.552   0.825
 4749SOL     OW15145   3.050   6.416   5.414
 4749SOL    HW115146   2.970   6.407   5.355
 4749SOL    HW215147   3.034   6.489   5.480
 4750SOL     OW15148   0.193   4.138   3.710
 4750SOL    HW115149   0.169   4.227   3.672
 4750SOL    HW215150   0.179   4.140   3.809
 4751SOL     OW15151   3.420   2.060   1.339
 4751SOL    HW115152   3.358   2.124   1.385
 4751SOL    HW215153   3.462   2.000   1.407
 4752SOL     OW15154   3.832   0.730   6.689
 4752SOL    HW115155   3.914   0.704   6.741
 4752SOL    HW215156   3.831   0.828   6.675
 4753SOL     OW15157   5.243   0.108   3.767
 4753SOL    HW115158   5.258   0.068   3.677
 4753SOL    HW215159   5.306   0.067   3.833
 4754SOL     OW15160   5.816   6.720   4.729
 4754SOL    HW115161   5.828   6.680   4.820
 4754SOL    HW215162   5.844   6.815   4.730
 4755SOL     OW15163   2.004   0.529   0.945
 4755SOL    HW115164   1.910   0.499   0.929
 4755SOL    HW215165   2.067   0.453   0.932
 4756SOL     OW15166   6.277   3.212   1.178
 4756SOL    HW115167   6.285   3.166   1.090
 4756SOL    HW215168   6.314   3.153   1.250
 4757SOL     OW15169   2.462   1.798   0.789
 4757SOL    HW115170   2.467   1.862   0.866
 4757SOL    HW215171   2.523   1.828   0.717
 4758SOL     OW15172   2.585   6.714   4.476
 4758SOL    HW115173   2.647   6.636   4.464
 4758SOL    HW215174   2.542   6.736   4.388
 4759SOL     OW15175   5.387   5.008   4.731
 4759SOL    HW115176   5.399   5.045   4.639
 4759SOL    HW215177   5.430   4.918   4.737
 4760SOL     OW15178   2.640   1.976   0.645
 4760SOL    HW115179   2.711   1.976   0.573
 4760SOL    HW215180   2.669   2.037   0.719
 4761SOL     OW15181   0.579   6.019   0.195
 4761SOL    HW115182   0.667   5.982   0.164
 4761SOL    HW215183   0.517   6.026   0.118
 4762SOL     OW15184   1.670   5.873   2.488
 4762SOL    HW115185   1.586   5.833   2.452
 4762SOL    HW215186   1.654   5.967   2.516
 4763SOL     OW15187   6.594   6.482   3.229
 4763SOL    HW115188   6.559   6.514   3.317
 4763SOL    HW215189   6.521   6.488   3.160
 4764SOL     OW15190   4.940   3.840   4.904
 4764SOL    HW115191   4.922   3.926   4.953
 4764SOL    HW215192   4.878   3.769   4.937
 4765SOL     OW15193   4.401   0.901   3.952
 4765SOL    HW115194   4.382   0.935   3.861
 4765SOL    HW215195   4.373   0.968   4.021
 4766SOL     OW15196   5.283   5.380   4.114
 4766SOL    HW115197   5.193   5.343   4.089
 4766SOL    HW215198   5.272   5.464   4.165
 4767SOL     OW15199   3.698   5.280   5.927
 4767SOL    HW115200   3.611   5.251   5.886
 4767SOL    HW215201   3.746   5.200   5.963
 4768SOL     OW15202   4.327   1.536   5.670
 4768SOL    HW115203   4.304   1.556   5.575
 4768SOL    HW215204   4.286   1.605   5.730
 4769SOL     OW15205   5.049   4.186   0.078
 4769SOL    HW115206   4.990   4.266   0.069
 4769SOL    HW215207   5.012   4.111   0.025
 4770SOL     OW15208   1.200   0.740   4.494
 4770SOL    HW115209   1.205   0.686   4.410
 4770SOL    HW215210   1.113   0.723   4.539
 4771SOL     OW15211   3.835   5.784   5.198
 4771SOL    HW115212   3.804   5.690   5.211
 4771SOL    HW215213   3.889   5.790   5.115
 4772SOL     OW15214   3.318   4.767   1.344
 4772SOL    HW115215   3.225   4.741   1.319
 4772SOL    HW215216   3.354   4.832   1.277
 4773SOL     OW15217   0.012   5.494   4.167
 4773SOL    HW115218   0.041   5.534   4.254
 4773SOL    HW215219   6.932   5.503   4.158
 4774SOL     OW15220   1.210   2.870   2.124
 4774SOL    HW115221   1.206   2.812   2.205
 4774SOL    HW215222   1.196   2.815   2.042
 4775SOL     OW15223   4.869   6.161   2.717
 4775SOL    HW115224   4.966   6.183   2.700
 4775SOL    HW215225   4.860   6.064   2.735
 4776SOL     OW15226   1.666   6.604   5.299
 4776SOL    HW115227   1.612   6.608   5.384
 4776SOL    HW215228   1.610   6.638   5.223
 4777SOL     OW15229   2.399   4.562   0.948
 4777SOL    HW115230   2.400   4.528   0.853
 4777SOL    HW215231   2.470   4.631   0.959
 4778SOL     OW15232   6.722   2.683   3.282
 4778SOL    HW115233   6.642   2.741   3.264
 4778SOL    HW215234   6.797   2.711   3.223
 4779SOL     OW15235   6.358   6.426   2.793
 4779SOL    HW115236   6.445   6.377   2.784
 4779SOL    HW215237   6.334   6.468   2.705
 4780SOL     OW15238   5.560   0.860   0.024
 4780SOL    HW115239   5.471   0.849   0.068
 4780SOL    HW215240   5.632   0.846   0.092
 4781SOL     OW15241   2.373   5.963   1.865
 4781SOL    HW115242   2.417   6.052   1.877
 4781SOL    HW215243   2.277   5.976   1.839
 4782SOL     OW15244   4.290   5.850   0.238
 4782SOL    HW115245   4.384   5.867   0.208
 4782SOL    HW215246   4.291   5.788   0.317
 4783SOL     OW15247   4.512   4.122   0.422
 4783SOL    HW115248   4.582   4.193   0.421
 4783SOL    HW215249   4.554   4.033   0.404
 4784SOL     OW15250   6.253   4.417   0.086
 4784SOL    HW115251   6.257   4.411   7.006
 4784SOL    HW215252   6.185   4.352   0.121
 4785SOL     OW15253   0.244   6.499   2.286
 4785SOL    HW115254   0.325   6.531   2.237
 4785SOL    HW215255   0.217   6.568   2.353
 4786SOL     OW15256   2.661   1.811   0.253
 4786SOL    HW115257   2.743   1.777   0.299
 4786SOL    HW215258   2.687   1.884   0.189
 4787SOL     OW15259   4.004   1.789   2.687
 4787SOL    HW115260   4.065   1.827   2.618
 4787SOL    HW215261   4.018   1.836   2.774
 4788SOL     OW15262   0.558   5.562   5.172
 4788SOL    HW115263   0.599   5.485   5.124
 4788SOL    HW215264   0.630   5.625   5.202
 4789SOL     OW15265   5.131   1.529   0.937
 4789SOL    HW115266   5.075   1.453   0.969
 4789SOL    HW215267   5.226   1.501   0.932
 4790SOL     OW15268   6.451   2.151   5.376
 4790SOL    HW115269   6.449   2.250   5.359
 4790SOL    HW215270   6.369   2.109   5.338
 4791SOL     OW15271   6.481   2.612   1.770
 4791SOL    HW115272   6.472   2.531   1.827
 4791SOL    HW215273   6.578   2.633   1.757
 4792SOL     OW15274   2.008   3.986   3.359
 4792SOL    HW115275   1.913   3.962   3.378
 4792SOL    HW215276   2.012   4.069   3.304
 4793SOL     OW15277   1.897   2.620   5.663
 4793SOL    HW115278   1.896   2.638   5.564
 4793SOL    HW215279   1.868   2.702   5.711
 4794SOL     OW15280   4.608   0.526   3.466
 4794SOL    HW115281   4.540   0.558   3.532
 4794SOL    HW215282   4.586   0.562   3.375
 4795SOL     OW15283   5.739   2.962   3.938
 4795SOL    HW115284   5.715   2.988   4.032
 4795SOL    HW215285   5.722   3.039   3.877
 4796SOL     OW15286   5.099   1.666   5.426
 4796SOL    HW115287   5.183   1.654   5.478
 4796SOL    HW215288   5.089   1.591   5.360
 4797SOL     OW15289   1.205   6.226   5.574
 4797SOL    HW115290   1.217   6.221   5.674
 4797SOL    HW215291   1.283   6.274   5.534
 4798SOL     OW15292   0.012   3.613   4.438
 4798SOL    HW115293   7.016   3.599   4.535
 4798SOL    HW215294   0.109   3.598   4.417
 4799SOL     OW15295   5.392   2.354   0.024
 4799SOL    HW115296   5.335   2.299   0.085
 4799SOL    HW215297   5.418   2.299   6.964
 4800SOL     OW15298   3.402   2.857   6.062
 4800SOL    HW115299   3.349   2.875   5.979
 4800SOL    HW215300   3.441   2.943   6.096
 4801SOL     OW15301   2.634   2.386   6.326
 4801SOL    HW115302   2.542   2.412   6.356
 4801SOL    HW215303   2.665   2.306   6.377
 4802SOL     OW15304   1.057   6.584   2.096
 4802SOL    HW115305   1.095   6.519   2.163
 4802SOL    HW215306   0.963   6.559   2.077
 4803SOL     OW15307   0.848   5.100   1.001
 4803SOL    HW115308   0.833   5.138   0.909
 4803SOL    HW215309   0.898   5.014   0.993
 4804SOL     OW15310   5.307   5.857   0.355
 4804SOL    HW115311   5.301   5.957   0.353
 4804SOL    HW215312   5.294   5.821   0.263
 4805SOL     OW15313   5.293   1.708   2.523
 4805SOL    HW115314   5.305   1.715   2.622
 4805SOL    HW215315   5.366   1.651   2.484
 4806SOL     OW15316   1.495   4.663   3.104
 4806SOL    HW115317   1.406   4.705   3.087
 4806SOL    HW215318   1.547   4.720   3.168
 4807SOL     OW15319   0.886   4.937   0.439
 4807SOL    HW115320   0.791   4.961   0.417
 4807SOL    HW215321   0.944   4.953   0.359
 4808SOL     OW15322   5.313   4.117   7.011
 4808SOL    HW115323   5.220   4.141   0.019
 4808SOL    HW215324   5.323   4.129   6.912
 4809SOL     OW15325   3.438   4.209   0.128
 4809SOL    HW115326   3.485   4.214   0.216
 4809SOL    HW215327   3.342   4.233   0.139
 4810SOL     OW15328   1.442   4.694   2.724
 4810SOL    HW115329   1.437   4.622   2.794
 4810SOL    HW215330   1.366   4.684   2.660
 4811SOL     OW15331   2.809   3.806   1.771
 4811SOL    HW115332   2.876   3.876   1.794
 4811SOL    HW215333   2.834   3.720   1.816
 4812SOL     OW15334   6.595   5.264   3.595
 4812SOL    HW115335   6.525   5.205   3.636
 4812SOL    HW215336   6.680   5.212   3.585
 4813SOL     OW15337   5.428   2.467   1.586
 4813SOL    HW115338   5.401   2.552   1.632
 4813SOL    HW215339   5.484   2.489   1.506
 4814SOL     OW15340   6.749   3.915   0.939
 4814SOL    HW115341   6.733   3.845   1.009
 4814SOL    HW215342   6.694   3.896   0.859
 4815SOL     OW15343   5.616   4.334   2.826
 4815SOL    HW115344   5.585   4.379   2.910
 4815SOL    HW215345   5.638   4.239   2.845
 4816SOL     OW15346   1.785   4.463   0.762
 4816SOL    HW115347   1.727   4.396   0.716
 4816SOL    HW215348   1.830   4.420   0.840
 4817SOL     OW15349   0.194   2.063   6.348
 4817SOL    HW115350   0.233   2.057   6.256
 4817SOL    HW215351   0.107   2.112   6.344
 4818SOL     OW15352   1.455   6.137   3.864
 4818SOL    HW115353   1.442   6.104   3.771
 4818SOL    HW215354   1.369   6.176   3.898
 4819SOL     OW15355   1.709   1.718   0.436
 4819SOL    HW115356   1.612   1.744   0.436
 4819SOL    HW215357   1.755   1.762   0.359
 4820SOL     OW15358   6.034   2.165   2.142
 4820SOL    HW115359   6.015   2.203   2.233
 4820SOL    HW215360   5.993   2.223   2.072
 4821SOL     OW15361   1.398   6.400   2.366
 4821SOL    HW115362   1.456   6.446   2.299
 4821SOL    HW215363   1.403   6.449   2.453
 4822SOL     OW15364   2.171   2.350   5.109
 4822SOL    HW115365   2.156   2.448   5.124
 4822SOL    HW215366   2.208   2.336   5.017
 4823SOL     OW15367   1.688   1.010   4.564
 4823SOL    HW115368   1.625   0.937   4.536
 4823SOL    HW215369   1.713   1.065   4.485
 4824SOL     OW15370   4.819   2.080   4.926
 4824SOL    HW115371   4.896   2.019   4.946
 4824SOL    HW215372   4.762   2.039   4.855
 4825SOL     OW15373   2.155   3.319   4.839
 4825SOL    HW115374   2.072   3.291   4.888
 4825SOL    HW215375   2.213   3.239   4.825
 4826SOL     OW15376   5.430   1.677   6.992
 4826SOL    HW115377   5.404   1.584   6.967
 4826SOL    HW215378   5.349   1.729   0.001
 4827SOL     OW15379   6.317   1.594   0.957
 4827SOL    HW115380   6.257   1.516   0.945
 4827SOL    HW215381   6.401   1.581   0.904
 4828SOL     OW15382   4.939   2.780   1.305
 4828SOL    HW115383   4.906   2.696   1.262
 4828SOL    HW215384   5.021   2.812   1.256
 4829SOL     OW15385   4.000   6.379   5.879
 4829SOL    HW115386   4.028   6.304   5.819
 4829SOL    HW215387   3.927   6.348   5.940
 4830SOL     OW15388   4.174   6.559   4.420
 4830SOL    HW115389   4.273   6.568   4.418
 4830SOL    HW215390   4.142   6.520   4.333
 4831SOL     OW15391   1.082   4.056   6.233
 4831SOL    HW115392   1.066   3.961   6.204
 4831SOL    HW215393   1.174   4.084   6.207
 4832SOL     OW15394   4.058   3.528   4.028
 4832SOL    HW115395   3.959   3.529   4.016
 4832SOL    HW215396   4.081   3.560   4.121
 4833SOL     OW15397   4.945   2.165   2.717
 4833SOL    HW115398   4.992   2.138   2.801
 4833SOL    HW215399   4.984   2.250   2.683
 4834SOL     OW15400   3.292   6.432   1.003
 4834SOL    HW115401   3.277   6.514   0.948
 4834SOL    HW215402   3.203   6.392   1.027
 4835SOL     OW15403   5.769   1.907   6.937
 4835SOL    HW115404   5.722   1.939   7.019
 4835SOL    HW215405   5.728   1.821   6.906
 4836SOL     OW15406   4.936   2.336   4.757
 4836SOL    HW115407   4.970   2.428   4.774
 4836SOL    HW215408   4.935   2.284   4.842
 4837SOL     OW15409   6.785   3.768   3.095
 4837SOL    HW115410   6.692   3.803   3.080
 4837SOL    HW215411   6.789   3.671   3.068
 4838SOL     OW15412   1.243   5.374   0.409
 4838SOL    HW115413   1.231   5.297   0.346
 4838SOL    HW215414   1.220   5.344   0.501
 4839SOL     OW15415   1.876   3.327   0.116
 4839SOL    HW115416   1.809   3.378   0.170
 4839SOL    HW215417   1.907   3.383   0.039
 4840SOL     OW15418   6.536   4.458   6.497
 4840SOL    HW115419   6.479   4.390   6.544
 4840SOL    HW215420   6.478   4.530   6.460
 4841SOL     OW15421   2.278   5.228   2.311
 4841SOL    HW115422   2.225   5.196   2.390
 4841SOL    HW215423   2.375   5.231   2.335
 4842SOL     OW15424   3.711   5.335   2.359
 4842SOL    HW115425   3.751   5.270   2.294
 4842SOL    HW215426   3.725   5.428   2.326
 4843SOL     OW15427   6.510   3.498   1.766
 4843SOL    HW115428   6.440   3.428   1.757
 4843SOL    HW215429   6.553   3.491   1.856
 4844SOL     OW15430   0.822   3.368   6.800
 4844SOL    HW115431   0.728   3.365   6.764
 4844SOL    HW215432   0.863   3.456   6.775
 4845SOL     OW15433   4.781   5.510   6.656
 4845SOL    HW115434   4.844   5.440   6.625
 4845SOL    HW215435   4.743   5.558   6.577
 4846SOL     OW15436   6.450   2.537   3.825
 4846SOL    HW115437   6.454   2.442   3.794
 4846SOL    HW215438   6.534   2.559   3.875
 4847SOL     OW15439   2.496   0.072   6.477
 4847SOL    HW115440   2.525   0.044   6.569
 4847SOL    HW215441   2.402   0.040   6.461
 4848SOL     OW15442   1.739   1.233   4.716
 4848SOL    HW115443   1.684   1.158   4.678
 4848SOL    HW215444   1.836   1.211   4.707
 4849SOL     OW15445   0.880   6.038   6.736
 4849SOL    HW115446   0.904   6.017   6.641
 4849SOL    HW215447   0.963   6.037   6.791
 4850SOL     OW15448   4.097   1.290   1.888
 4850SOL    HW115449   4.103   1.196   1.921
 4850SOL    HW215450   4.142   1.351   1.953
 4851SOL     OW15451   3.420   6.663   5.754
 4851SOL    HW115452   3.339   6.721   5.747
 4851SOL    HW215453   3.465   6.657   5.665
 4852SOL     OW15454   2.164   5.780   5.147
 4852SOL    HW115455   2.117   5.697   5.175
 4852SOL    HW215456   2.145   5.799   5.051
 4853SOL     OW15457   3.038   1.263   3.377
 4853SOL    HW115458   3.050   1.325   3.454
 4853SOL    HW215459   3.121   1.260   3.322
 4854SOL     OW15460   4.627   6.093   1.721
 4854SOL    HW115461   4.561   6.086   1.796
 4854SOL    HW215462   4.606   6.173   1.665
 4855SOL     OW15463   5.751   2.644   3.894
 4855SOL    HW115464   5.709   2.727   3.931
 4855SOL    HW215465   5.839   2.629   3.939
 4856SOL     OW15466   1.581   3.327   3.158
 4856SOL    HW115467   1.622   3.349   3.070
 4856SOL    HW215468   1.484   3.351   3.156
 4857SOL     OW15469   3.183   2.115   3.890
 4857SOL    HW115470   3.130   2.164   3.960
 4857SOL    HW215471   3.122   2.056   3.838
 4858SOL     OW15472   0.131   0.428   4.976
 4858SOL    HW115473   0.103   0.420   4.880
 4858SOL    HW215474   0.052   0.407   5.034
 4859SOL     OW15475   0.981   5.727   2.935
 4859SOL    HW115476   1.030   5.785   2.870
 4859SOL    HW215477   0.897   5.773   2.964
 4860SOL     OW15478   4.356   4.870   0.652
 4860SOL    HW115479   4.307   4.783   0.645
 4860SOL    HW215480   4.422   4.878   0.576
 4861SOL     OW15481   5.751   5.095   7.016
 4861SOL    HW115482   5.689   5.128   6.944
 4861SOL    HW215483   5.783   5.003   6.993
 4862SOL     OW15484   1.826   4.569   4.979
 4862SOL    HW115485   1.856   4.607   4.891
 4862SOL    HW215486   1.845   4.471   4.982
 4863SOL     OW15487   5.191   3.771   1.875
 4863SOL    HW115488   5.175   3.788   1.973
 4863SOL    HW215489   5.139   3.690   1.847
 4864SOL     OW15490   3.473   1.829   2.244
 4864SOL    HW115491   3.415   1.910   2.247
 4864SOL    HW215492   3.445   1.771   2.168
 4865SOL     OW15493   2.141   6.473   4.554
 4865SOL    HW115494   2.109   6.425   4.473
 4865SOL    HW215495   2.198   6.412   4.610
 4866SOL     OW15496   6.493   4.056   1.179
 4866SOL    HW115497   6.499   4.128   1.110
 4866SOL    HW215498   6.582   4.043   1.222
 4867SOL     OW15499   4.862   5.551   2.488
 4867SOL    HW115500   4.955   5.515   2.494
 4867SOL    HW215501   4.860   5.644   2.527
 4868SOL     OW15502   0.130   5.072   1.976
 4868SOL    HW115503   0.163   4.997   1.919
 4868SOL    HW215504   0.163   5.159   1.939
 4869SOL     OW15505   0.049   1.919   1.678
 4869SOL    HW115506   0.022   1.829   1.643
 4869SOL    HW215507   0.100   1.969   1.608
 4870SOL     OW15508   6.781   5.803   1.747
 4870SOL    HW115509   6.725   5.759   1.677
 4870SOL    HW215510   6.874   5.765   1.744
 4871SOL     OW15511   0.549   1.795   4.865
 4871SOL    HW115512   0.452   1.770   4.865
 4871SOL    HW215513   0.600   1.730   4.809
 4872SOL     OW15514   6.868   5.809   4.231
 4872SOL    HW115515   6.805   5.883   4.209
 4872SOL    HW215516   6.943   5.809   4.165
 4873SOL     OW15517   6.635   4.806   3.972
 4873SOL    HW115518   6.646   4.810   4.071
 4873SOL    HW215519   6.722   4.782   3.929
 4874SOL     OW15520   5.789   3.332   3.179
 4874SOL    HW115521   5.772   3.337   3.081
 4874SOL    HW215522   5.798   3.425   3.216
 4875SOL     OW15523   5.544   3.414   1.344
 4875SOL    HW115524   5.522   3.402   1.247
 4875SOL    HW215525   5.564   3.325   1.385
 4876SOL     OW15526   5.498   1.044   3.755
 4876SOL    HW115527   5.400   1.032   3.771
 4876SOL    HW215528   5.541   1.083   3.837
 4877SOL     OW15529   0.221   1.821   0.352
 4877SOL    HW115530   0.260   1.733   0.327
 4877SOL    HW215531   0.244   1.842   0.448
 4878SOL     OW15532   6.173   0.966   3.064
 4878SOL    HW115533   6.081   0.987   3.030
 4878SOL    HW215534   6.182   0.868   3.078
 4879SOL     OW15535   4.744   5.579   3.529
 4879SOL    HW115536   4.676   5.556   3.599
 4879SOL    HW215537   4.826   5.616   3.573
 4880SOL     OW15538   5.792   3.133   6.633
 4880SOL    HW115539   5.794   3.035   6.655
 4880SOL    HW215540   5.699   3.159   6.605
 4881SOL     OW15541   2.318   6.780   7.013
 4881SOL    HW115542   2.239   6.727   6.982
 4881SOL    HW215543   2.394   6.718   0.014
 4882SOL     OW15544   5.279   1.321   4.098
 4882SOL    HW115545   5.297   1.410   4.139
 4882SOL    HW215546   5.297   1.326   3.999
 4883SOL     OW15547   4.906   4.987   2.612
 4883SOL    HW115548   4.971   4.912   2.607
 4883SOL    HW215549   4.827   4.959   2.666
 4884SOL     OW15550   3.910   0.271   0.842
 4884SOL    HW115551   3.991   0.314   0.802
 4884SOL    HW215552   3.894   0.182   0.799
 4885SOL     OW15553   2.395   5.733   2.026
 4885SOL    HW115554   2.422   5.807   1.965
 4885SOL    HW215555   2.302   5.704   2.004
 4886SOL     OW15556   7.003   5.928   0.293
 4886SOL    HW115557   0.024   5.980   0.369
 4886SOL    HW215558   6.925   5.876   0.327
 4887SOL     OW15559   0.133   0.550   3.434
 4887SOL    HW115560   0.149   0.539   3.336
 4887SOL    HW215561   0.117   0.461   3.476
 4888SOL     OW15562   2.403   6.488   4.342
 4888SOL    HW115563   2.400   6.396   4.382
 4888SOL    HW215564   2.460   6.547   4.399
 4889SOL     OW15565   6.233   0.629   6.893
 4889SOL    HW115566   6.304   0.685   6.936
 4889SOL    HW215567   6.152   0.686   6.877
 4890SOL     OW15568   0.397   1.827   5.933
 4890SOL    HW115569   0.328   1.759   5.907
 4890SOL    HW215570   0.395   1.903   5.868
 4891SOL     OW15571   1.618   5.743   0.650
 4891SOL    HW115572   1.621   5.653   0.607
 4891SOL    HW215573   1.623   5.815   0.580
 4892SOL     OW15574   2.506   5.987   1.439
 4892SOL    HW115575   2.593   5.954   1.473
 4892SOL    HW215576   2.504   6.087   1.444
 4893SOL     OW15577   0.060   4.586   1.152
 4893SOL    HW115578   7.004   4.562   1.213
 4893SOL    HW215579   0.063   4.520   1.076
 4894SOL     OW15580   2.353   2.156   2.417
 4894SOL    HW115581   2.366   2.236   2.476
 4894SOL    HW215582   2.257   2.131   2.415
 4895SOL     OW15583   0.863   5.376   2.639
 4895SOL    HW115584   0.888   5.450   2.576
 4895SOL    HW215585   0.841   5.414   2.728
 4896SOL     OW15586   2.438   5.112   1.981
 4896SOL    HW115587   2.465   5.208   1.982
 4896SOL    HW215588   2.342   5.104   2.008
 4897SOL     OW15589   2.014   4.863   5.792
 4897SOL    HW115590   1.988   4.908   5.706
 4897SOL    HW215591   1.959   4.780   5.804
 4898SOL     OW15592   4.689   0.882   4.388
 4898SOL    HW115593   4.614   0.942   4.416
 4898SOL    HW215594   4.745   0.860   4.467
 4899SOL     OW15595   6.151   5.020   3.304
 4899SOL    HW115596   6.103   4.936   3.332
 4899SOL    HW215597   6.085   5.085   3.267
 4900SOL     OW15598   2.165   5.457   5.099
 4900SOL    HW115599   2.231   5.388   5.128
 4900SOL    HW215600   2.089   5.460   5.164
 4901SOL     OW15601   3.046   6.870   5.351
 4901SOL    HW115602   2.967   6.898   5.295
 4901SOL    HW215603   3.107   6.949   5.364
 4902SOL     OW15604   2.439   2.645   4.695
 4902SOL    HW115605   2.404   2.671   4.785
 4902SOL    HW215606   2.455   2.727   4.641
 4903SOL     OW15607   2.979   6.100   6.661
 4903SOL    HW115608   3.063   6.104   6.716
 4903SOL    HW215609   3.001   6.063   6.571
 4904SOL     OW15610   1.445   0.417   3.971
 4904SOL    HW115611   1.462   0.505   4.015
 4904SOL    HW215612   1.422   0.349   4.041
 4905SOL     OW15613   4.267   1.188   2.233
 4905SOL    HW115614   4.200   1.262   2.224
 4905SOL    HW215615   4.254   1.121   2.160
 4906SOL     OW15616   4.276   1.749   6.807
 4906SOL    HW115617   4.192   1.696   6.803
 4906SOL    HW215618   4.274   1.820   6.737
 4907SOL     OW15619   5.396   5.998   1.078
 4907SOL    HW115620   5.302   5.964   1.071
 4907SOL    HW215621   5.402   6.064   1.152
 4908SOL     OW15622   4.837   5.114   6.500
 4908SOL    HW115623   4.832   5.103   6.599
 4908SOL    HW215624   4.750   5.150   6.466
 4909SOL     OW15625   6.904   0.129   5.034
 4909SOL    HW115626   6.951   0.178   4.961
 4909SOL    HW215627   6.858   0.049   4.997
 4910SOL     OW15628   5.310   6.518   4.442
 4910SOL    HW115629   5.324   6.595   4.505
 4910SOL    HW215630   5.297   6.434   4.494
 4911SOL     OW15631   6.953   3.140   5.374
 4911SOL    HW115632   7.004   3.189   5.444
 4911SOL    HW215633   6.855   3.160   5.385
 4912SOL     OW15634   5.361   2.804   1.260
 4912SOL    HW115635   5.358   2.715   1.214
 4912SOL    HW215636   5.380   2.790   1.358
 4913SOL     OW15637   3.513   3.384   3.778
 4913SOL    HW115638   3.555   3.303   3.737
 4913SOL    HW215639   3.475   3.441   3.706
 4914SOL     OW15640   3.307   6.825   4.963
 4914SOL    HW115641   3.242   6.773   4.908
 4914SOL    HW215642   3.383   6.766   4.991
 4915SOL     OW15643   4.566   0.565   4.333
 4915SOL    HW115644   4.539   0.593   4.425
 4915SOL    HW215645   4.559   0.643   4.271
 4916SOL     OW15646   2.031   1.698   4.000
 4916SOL    HW115647   2.044   1.717   3.902
 4916SOL    HW215648   1.948   1.642   4.012
 4917SOL     OW15649   1.774   4.721   0.636
 4917SOL    HW115650   1.865   4.759   0.622
 4917SOL    HW215651   1.781   4.637   0.689
 4918SOL     OW15652   3.053   6.556   2.249
 4918SOL    HW115653   3.117   6.564   2.325
 4918SOL    HW215654   3.058   6.464   2.210
 4919SOL     OW15655   1.925   1.853   6.805
 4919SOL    HW115656   1.839   1.803   6.816
 4919SOL    HW215657   1.912   1.949   6.831
 4920SOL     OW15658   5.053   0.738   5.804
 4920SOL    HW115659   4.964   0.701   5.779
 4920SOL    HW215660   5.090   0.792   5.729
 4921SOL     OW15661   2.059   3.966   0.685
 4921SOL    HW115662   2.003   3.935   0.609
 4921SOL    HW215663   2.045   4.064   0.700
 4922SOL     OW15664   1.967   3.082   4.630
 4922SOL    HW115665   2.028   3.105   4.706
 4922SOL    HW215666   1.981   2.987   4.603
 4923SOL     OW15667   3.381   1.329   0.832
 4923SOL    HW115668   3.379   1.249   0.893
 4923SOL    HW215669   3.434   1.401   0.875
 4924SOL     OW15670   1.970   2.449   6.021
 4924SOL    HW115671   1.934   2.371   6.073
 4924SOL    HW215672   2.060   2.426   5.984
 4925SOL     OW15673   5.912   6.627   1.831
 4925SOL    HW115674   5.943   6.601   1.923
 4925SOL    HW215675   5.812   6.638   1.832
 4926SOL     OW15676   5.594   2.652   0.552
 4926SOL    HW115677   5.616   2.619   0.643
 4926SOL    HW215678   5.666   2.627   0.488
 4927SOL     OW15679   3.815   3.630   4.358
 4927SOL    HW115680   3.882   3.703   4.350
 4927SOL    HW215681   3.723   3.669   4.365
 4928SOL     OW15682   6.965   0.379   6.189
 4928SOL    HW115683   6.869   0.368   6.214
 4928SOL    HW215684   6.994   0.473   6.209
 4929SOL     OW15685   1.524   4.709   4.733
 4929SOL    HW115686   1.481   4.619   4.734
 4929SOL    HW215687   1.525   4.747   4.825
 4930SOL     OW15688   5.161   1.045   1.617
 4930SOL    HW115689   5.072   1.062   1.575
 4930SOL    HW215690   5.151   1.045   1.717
 4931SOL     OW15691   6.358   6.999   1.574
 4931SOL    HW115692   6.320   0.070   1.557
 4931SOL    HW215693   6.455   7.007   1.599
 4932SOL     OW15694   2.273   2.709   1.832
 4932SOL    HW115695   2.262   2.806   1.809
 4932SOL    HW215696   2.359   2.676   1.794
 4933SOL     OW15697   2.431   6.746   3.630
 4933SOL    HW115698   2.412   6.838   3.663
 4933SOL    HW215699   2.345   6.696   3.616
 4934SOL     OW15700   1.743   4.623   2.998
 4934SOL    HW115701   1.660   4.609   3.051
 4934SOL    HW215702   1.747   4.556   2.924
 4935SOL     OW15703   1.183   1.386   6.584
 4935SOL    HW115704   1.210   1.389   6.680
 4935SOL    HW215705   1.264   1.382   6.526
 4936SOL     OW15706   2.138   4.997   1.597
 4936SOL    HW115707   2.059   4.947   1.633
 4936SOL    HW215708   2.219   4.975   1.651
 4937SOL     OW15709   6.583   3.383   5.941
 4937SOL    HW115710   6.520   3.461   5.941
 4937SOL    HW215711   6.564   3.325   5.861
 4938SOL     OW15712   2.599   5.672   6.864
 4938SOL    HW115713   2.657   5.693   6.786
 4938SOL    HW215714   2.619   5.580   6.898
 4939SOL     OW15715   0.391   1.789   4.174
 4939SOL    HW115716   0.474   1.732   4.175
 4939SOL    HW215717   0.409   1.872   4.121
 4940SOL     OW15718   0.493   1.490   5.559
 4940SOL    HW115719   0.528   1.584   5.562
 4940SOL    HW215720   0.533   1.437   5.634
 4941SOL     OW15721   4.471   2.625   5.208
 4941SOL    HW115722   4.377   2.639   5.178
 4941SOL    HW215723   4.502   2.704   5.260
 4942SOL     OW15724   5.060   3.018   5.522
 4942SOL    HW115725   5.099   2.927   5.537
 4942SOL    HW215726   5.000   3.040   5.598
 4943SOL     OW15727   5.244   4.494   5.990
 4943SOL    HW115728   5.212   4.588   6.000
 4943SOL    HW215729   5.330   4.493   5.940
 4944SOL     OW15730   2.632   4.236   1.582
 4944SOL    HW115731   2.576   4.310   1.618
 4944SOL    HW215732   2.597   4.148   1.614
 4945SOL     OW15733   1.278   6.881   4.652
 4945SOL    HW115734   1.201   6.826   4.684
 4945SOL    HW215735   1.281   6.880   4.552
 4946SOL     OW15736   1.059   5.435   6.615
 4946SOL    HW115737   1.102   5.525   6.610
 4946SOL    HW215738   1.115   5.368   6.566
 4947SOL     OW15739   2.176   0.354   0.866
 4947SOL    HW115740   2.271   0.324   0.873
 4947SOL    HW215741   2.165   0.409   0.784
 4948SOL     OW15742   2.215   2.517   3.248
 4948SOL    HW115743   2.152   2.529   3.171
 4948SOL    HW215744   2.245   2.606   3.281
 4949SOL     OW15745   6.442   4.771   5.463
 4949SOL    HW115746   6.474   4.838   5.396
 4949SOL    HW215747   6.347   4.746   5.442
 4950SOL     OW15748   2.171   4.647   4.960
 4950SOL    HW115749   2.160   4.643   4.861
 4950SOL    HW215750   2.198   4.558   4.995
 4951SOL     OW15751   5.878   1.252   3.926
 4951SOL    HW115752   5.849   1.290   3.838
 4951SOL    HW215753   5.963   1.201   3.913
 4952SOL     OW15754   6.915   6.753   6.102
 4952SOL    HW115755   6.918   6.820   6.177
 4952SOL    HW215756   7.006   6.715   6.087
 4953SOL     OW15757   1.838   6.848   3.362
 4953SOL    HW115758   1.787   6.842   3.447
 4953SOL    HW215759   1.797   6.787   3.294
 4954SOL     OW15760   2.906   3.241   0.086
 4954SOL    HW115761   2.870   3.175   0.021
 4954SOL    HW215762   2.956   3.312   0.037
 4955SOL     OW15763   3.446   6.656   0.141
 4955SOL    HW115764   3.404   6.627   0.227
 4955SOL    HW215765   3.538   6.689   0.158
 4956SOL     OW15766   2.472   0.109   5.628
 4956SOL    HW115767   2.524   0.144   5.706
 4956SOL    HW215768   2.421   0.185   5.586
 4957SOL     OW15769   5.977   2.319   1.937
 4957SOL    HW115770   5.978   2.419   1.928
 4957SOL    HW215771   6.027   2.279   1.860
 4958SOL     OW15772   0.871   4.995   5.550
 4958SOL    HW115773   0.796   4.956   5.602
 4958SOL    HW215774   0.943   5.025   5.612
 4959SOL     OW15775   6.228   1.968   0.973
 4959SOL    HW115776   6.204   1.919   1.058
 4959SOL    HW215777   6.278   2.051   0.996
 4960SOL     OW15778   3.952   4.804   3.513
 4960SOL    HW115779   3.864   4.805   3.465
 4960SOL    HW215780   4.021   4.762   3.455
 4961SOL     OW15781   4.185   0.657   5.598
 4961SOL    HW115782   4.159   0.740   5.647
 4961SOL    HW215783   4.283   0.639   5.611
 4962SOL     OW15784   5.874   2.971   0.273
 4962SOL    HW115785   5.932   2.991   0.352
 4962SOL    HW215786   5.924   2.992   0.189
 4963SOL     OW15787   0.661   6.781   0.546
 4963SOL    HW115788   0.689   6.739   0.460
 4963SOL    HW215789   0.622   6.871   0.528
 4964SOL     OW15790   2.700   6.935   4.811
 4964SOL    HW115791   2.697   6.876   4.891
 4964SOL    HW215792   2.704   0.011   4.841
 4965SOL     OW15793   0.427   0.281   2.101
 4965SOL    HW115794   0.514   0.316   2.134
 4965SOL    HW215795   0.431   0.268   2.002
 4966SOL     OW15796   2.828   6.507   5.176
 4966SOL    HW115797   2.778   6.425   5.203
 4966SOL    HW215798   2.792   6.586   5.227
 4967SOL     OW15799   3.880   4.933   5.248
 4967SOL    HW115800   3.814   4.943   5.323
 4967SOL    HW215801   3.835   4.952   5.161
 4968SOL     OW15802   0.523   1.171   3.308
 4968SOL    HW115803   0.496   1.266   3.297
 4968SOL    HW215804   0.443   1.112   3.299
 4969SOL     OW15805   1.693   5.257   2.711
 4969SOL    HW115806   1.782   5.294   2.739
 4969SOL    HW215807   1.655   5.200   2.784
 4970SOL     OW15808   2.562   2.211   1.777
 4970SOL    HW115809   2.493   2.282   1.795
 4970SOL    HW215810   2.587   2.166   1.863
 4971SOL     OW15811   5.487   5.435   3.216
 4971SOL    HW115812   5.578   5.405   3.242
 4971SOL    HW215813   5.455   5.381   3.138
 4972SOL     OW15814   0.575   3.604   1.403
 4972SOL    HW115815   0.588   3.528   1.340
 4972SOL    HW215816   0.571   3.569   1.497
 4973SOL     OW15817   1.068   6.796   1.718
 4973SOL    HW115818   1.035   6.864   1.783
 4973SOL    HW215819   1.053   6.704   1.754
 4974SOL     OW15820   6.878   4.463   1.292
 4974SOL    HW115821   6.819   4.544   1.295
 4974SOL    HW215822   6.880   4.420   1.382
 4975SOL     OW15823   5.983   4.223   5.970
 4975SOL    HW115824   6.027   4.208   6.058
 4975SOL    HW215825   6.010   4.311   5.933
 4976SOL     OW15826   2.259   1.811   4.104
 4976SOL    HW115827   2.173   1.764   4.085
 4976SOL    HW215828   2.309   1.827   4.018
 4977SOL     OW15829   4.333   4.360   0.181
 4977SOL    HW115830   4.431   4.374   0.196
 4977SOL    HW215831   4.304   4.413   0.102
 4978SOL     OW15832   6.310   4.699   5.099
 4978SOL    HW115833   6.402   4.681   5.133
 4978SOL    HW215834   6.250   4.722   5.175
 4979SOL     OW15835   6.773   6.822   5.865
 4979SOL    HW115836   6.818   6.802   5.952
 4979SOL    HW215837   6.679   6.851   5.881
 4980SOL     OW15838   5.450   5.938   3.309
 4980SOL    HW115839   5.486   5.850   3.277
 4980SOL    HW215840   5.470   6.009   3.242
 4981SOL     OW15841   3.950   4.934   0.803
 4981SOL    HW115842   3.904   5.022   0.815
 4981SOL    HW215843   4.036   4.935   0.854
 4982SOL     OW15844   2.785   1.175   5.245
 4982SOL    HW115845   2.858   1.243   5.233
 4982SOL    HW215846   2.826   1.084   5.251
 4983SOL     OW15847   6.029   3.656   5.968
 4983SOL    HW115848   6.043   3.754   5.955
 4983SOL    HW215849   6.023   3.611   5.879
 4984SOL     OW15850   5.610   4.519   3.260
 4984SOL    HW115851   5.571   4.495   3.349
 4984SOL    HW215852   5.539   4.514   3.190
 4985SOL     OW15853   5.298   0.429   3.068
 4985SOL    HW115854   5.308   0.450   2.971
 4985SOL    HW215855   5.361   0.355   3.092
 4986SOL     OW15856   0.121   4.565   1.443
 4986SOL    HW115857   0.205   4.613   1.420
 4986SOL    HW215858   0.087   4.517   1.362
 4987SOL     OW15859   0.372   6.888   2.370
 4987SOL    HW115860   0.335   6.981   2.360
 4987SOL    HW215861   0.408   6.876   2.463
 4988SOL     OW15862   5.239   0.712   2.439
 4988SOL    HW115863   5.166   0.758   2.389
 4988SOL    HW215864   5.228   0.729   2.537
 4989SOL     OW15865   5.330   6.571   1.986
 4989SOL    HW115866   5.286   6.512   1.919
 4989SOL    HW215867   5.425   6.541   2.001
 4990SOL     OW15868   2.712   2.237   5.554
 4990SOL    HW115869   2.686   2.284   5.638
 4990SOL    HW215870   2.654   2.269   5.479
 4991SOL     OW15871   6.282   5.781   3.466
 4991SOL    HW115872   6.203   5.747   3.517
 4991SOL    HW215873   6.347   5.706   3.452
 4992SOL     OW15874   4.870   0.928   2.057
 4992SOL    HW115875   4.871   0.828   2.044
 4992SOL    HW215876   4.935   0.970   1.995
 4993SOL     OW15877   3.344   5.734   5.007
 4993SOL    HW115878   3.310   5.653   5.054
 4993SOL    HW215879   3.414   5.708   4.942
 4994SOL     OW15880   2.173   0.213   4.042
 4994SOL    HW115881   2.166   0.309   4.015
 4994SOL    HW215882   2.141   0.155   3.967
 4995SOL     OW15883   0.501   2.334   5.427
 4995SOL    HW115884   0.494   2.256   5.490
 4995SOL    HW215885   0.454   2.312   5.342
 4996SOL     OW15886   0.510   0.859   2.925
 4996SOL    HW115887   0.506   0.807   2.839
 4996SOL    HW215888   0.417   0.877   2.957
 4997SOL     OW15889   4.854   2.529   2.347
 4997SOL    HW115890   4.843   2.437   2.383
 4997SOL    HW215891   4.804   2.537   2.260
 4998SOL     OW15892   2.066   4.008   4.944
 4998SOL    HW115893   2.062   4.055   4.856
 4998SOL    HW215894   2.161   4.008   4.977
 4999SOL     OW15895   6.866   4.008   6.729
 4999SOL    HW115896   6.837   4.014   6.825
 4999SOL    HW215897   6.871   3.911   6.703
 5000SOL     OW15898   4.019   6.396   3.539
 5000SOL    HW115899   4.104   6.351   3.567
 5000SOL    HW215900   3.951   6.387   3.612
 5001SOL     OW15901   0.266   4.120   2.196
 5001SOL    HW115902   0.333   4.085   2.261
 5001SOL    HW215903   0.265   4.062   2.115
 5002SOL     OW15904   0.399   3.148   1.736
 5002SOL    HW115905   0.363   3.057   1.759
 5002SOL    HW215906   0.416   3.199   1.821
 5003SOL     OW15907   2.723   5.675   2.436
 5003SOL    HW115908   2.659   5.700   2.363
 5003SOL    HW215909   2.682   5.605   2.494
 5004SOL     OW15910   2.340   4.929   5.662
 5004SOL    HW115911   2.310   4.917   5.757
 5004SOL    HW215912   2.319   5.022   5.632
 5005SOL     OW15913   3.049   2.966   0.962
 5005SOL    HW115914   3.048   2.913   1.047
 5005SOL    HW215915   3.001   2.916   0.890
 5006SOL     OW15916   4.871   0.559   1.144
 5006SOL    HW115917   4.914   0.501   1.075
 5006SOL    HW215918   4.800   0.615   1.102
 5007SOL     OW15919   0.832   7.011   0.538
 5007SOL    HW115920   0.767   6.948   0.582
 5007SOL    HW215921   0.884   6.962   0.468
 5008SOL     OW15922   5.587   6.465   1.593
 5008SOL    HW115923   5.549   6.379   1.627
 5008SOL    HW215924   5.673   6.485   1.641
 5009SOL     OW15925   0.701   1.095   0.594
 5009SOL    HW115926   0.625   1.118   0.654
 5009SOL    HW215927   0.668   1.039   0.518
 5010SOL     OW15928   4.031   3.069   2.367
 5010SOL    HW115929   4.012   3.144   2.430
 5010SOL    HW215930   4.127   3.042   2.376
 5011SOL     OW15931   1.688   4.207   2.300
 5011SOL    HW115932   1.703   4.230   2.396
 5011SOL    HW215933   1.775   4.180   2.259
 5012SOL     OW15934   5.847   4.400   6.173
 5012SOL    HW115935   5.792   4.348   6.108
 5012SOL    HW215936   5.901   4.468   6.124
 5013SOL     OW15937   5.043   1.285   0.421
 5013SOL    HW115938   5.116   1.228   0.384
 5013SOL    HW215939   4.955   1.240   0.406
 5014SOL     OW15940   6.642   4.777   0.804
 5014SOL    HW115941   6.564   4.746   0.859
 5014SOL    HW215942   6.649   4.721   0.721
 5015SOL     OW15943   4.517   1.865   4.477
 5015SOL    HW115944   4.469   1.791   4.429
 5015SOL    HW215945   4.461   1.895   4.554
 5016SOL     OW15946   1.621   3.084   7.017
 5016SOL    HW115947   1.539   3.031   0.016
 5016SOL    HW215948   1.702   3.027   0.011
 5017SOL     OW15949   1.903   2.894   0.948
 5017SOL    HW115950   1.968   2.829   0.909
 5017SOL    HW215951   1.920   2.904   1.046
 5018SOL     OW15952   1.043   3.838   1.795
 5018SOL    HW115953   1.102   3.916   1.819
 5018SOL    HW215954   0.951   3.872   1.776
 5019SOL     OW15955   0.914   4.908   5.806
 5019SOL    HW115956   0.995   4.963   5.827
 5019SOL    HW215957   0.875   4.871   5.890
 5020SOL     OW15958   5.245   0.398   6.773
 5020SOL    HW115959   5.235   0.436   6.865
 5020SOL    HW215960   5.334   0.423   6.735
 5021SOL     OW15961   0.799   1.282   0.278
 5021SOL    HW115962   0.841   1.360   0.231
 5021SOL    HW215963   0.822   1.286   0.375
 5022SOL     OW15964   1.363   1.105   0.462
 5022SOL    HW115965   1.354   1.125   0.560
 5022SOL    HW215966   1.442   1.155   0.425
 5023SOL     OW15967   6.796   2.985   1.003
 5023SOL    HW115968   6.751   3.069   1.034
 5023SOL    HW215969   6.820   2.930   1.083
 5024SOL     OW15970   6.419   5.524   1.791
 5024SOL    HW115971   6.499   5.477   1.754
 5024SOL    HW215972   6.446   5.615   1.823
 5025SOL     OW15973   3.392   1.699   2.019
 5025SOL    HW115974   3.457   1.652   1.959
 5025SOL    HW215975   3.343   1.768   1.966
 5026SOL     OW15976   6.110   6.100   5.544
 5026SOL    HW115977   6.132   6.167   5.473
 5026SOL    HW215978   6.114   6.144   5.633
 5027SOL     OW15979   6.910   6.648   1.865
 5027SOL    HW115980   6.960   6.601   1.937
 5027SOL    HW215981   6.949   6.740   1.851
 5028SOL     OW15982   0.433   2.007   2.305
 5028SOL    HW115983   0.463   2.045   2.217
 5028SOL    HW215984   0.413   1.910   2.294
 5029SOL     OW15985   6.635   1.991   1.785
 5029SOL    HW115986   6.675   2.068   1.736
 5029SOL    HW215987   6.699   1.914   1.785
 5030SOL     OW15988   0.281   6.677   0.749
 5030SOL    HW115989   0.352   6.689   0.818
 5030SOL    HW215990   0.296   6.591   0.700
 5031SOL     OW15991   6.015   0.403   5.477
 5031SOL    HW115992   5.927   0.407   5.429
 5031SOL    HW215993   6.003   0.439   5.570
 5032SOL     OW15994   2.130   2.068   0.684
 5032SOL    HW115995   2.063   2.002   0.718
 5032SOL    HW215996   2.204   2.078   0.750
 5033SOL     OW15997   1.888   0.169   5.481
 5033SOL    HW115998   1.862   0.243   5.419
 5033SOL    HW215999   1.845   0.183   5.570
 5034SOL     OW16000   5.861   0.456   3.344
 5034SOL    HW116001   5.847   0.547   3.304
 5034SOL    HW216002   5.811   0.449   3.430
 5035SOL     OW16003   1.167   3.724   0.229
 5035SOL    HW116004   1.221   3.803   0.260
 5035SOL    HW216005   1.227   3.644   0.219
 5036SOL     OW16006   0.716   4.593   6.738
 5036SOL    HW116007   0.636   4.612   6.794
 5036SOL    HW216008   0.721   4.495   6.719
 5037SOL     OW16009   5.221   4.375   2.348
 5037SOL    HW116010   5.242   4.455   2.293
 5037SOL    HW216011   5.223   4.293   2.291
 5038SOL     OW16012   3.497   3.941   5.997
 5038SOL    HW116013   3.407   3.897   5.999
 5038SOL    HW216014   3.510   3.986   5.909
 5039SOL     OW16015   2.917   4.593   5.598
 5039SOL    HW116016   2.948   4.688   5.597
 5039SOL    HW216017   2.996   4.532   5.592
 5040SOL     OW16018   1.866   5.894   5.860
 5040SOL    HW116019   1.814   5.895   5.946
 5040SOL    HW216020   1.814   5.846   5.790
 5041SOL     OW16021   2.327   1.467   2.691
 5041SOL    HW116022   2.348   1.398   2.622
 5041SOL    HW216023   2.306   1.554   2.645
 5042SOL     OW16024   6.578   2.641   0.157
 5042SOL    HW116025   6.566   2.740   0.165
 5042SOL    HW216026   6.505   2.594   0.206
 5043SOL     OW16027   3.285   0.157   6.011
 5043SOL    HW116028   3.281   0.058   5.999
 5043SOL    HW216029   3.324   0.178   6.101
 5044SOL     OW16030   0.547   6.535   0.117
 5044SOL    HW116031   0.447   6.536   0.127
 5044SOL    HW216032   0.576   6.448   0.076
 5045SOL     OW16033   4.915   0.724   6.787
 5045SOL    HW116034   4.918   0.678   6.698
 5045SOL    HW216035   4.879   0.662   6.856
 5046SOL     OW16036   3.356   4.020   2.962
 5046SOL    HW116037   3.436   4.073   2.932
 5046SOL    HW216038   3.294   4.005   2.885
 5047SOL     OW16039   0.581   4.127   2.217
 5047SOL    HW116040   0.667   4.093   2.179
 5047SOL    HW216041   0.551   4.067   2.290
 5048SOL     OW16042   0.701   1.309   2.106
 5048SOL    HW116043   0.645   1.235   2.068
 5048SOL    HW216044   0.798   1.286   2.096
 5049SOL     OW16045   5.769   2.365   6.069
 5049SOL    HW116046   5.779   2.361   5.969
 5049SOL    HW216047   5.720   2.448   6.094
 5050SOL     OW16048   1.430   1.618   1.519
 5050SOL    HW116049   1.403   1.713   1.502
 5050SOL    HW216050   1.424   1.566   1.434
 5051SOL     OW16051   4.945   4.996   0.952
 5051SOL    HW116052   4.966   5.071   1.015
 5051SOL    HW216053   4.882   5.029   0.881
 5052SOL     OW16054   2.505   0.865   6.404
 5052SOL    HW116055   2.557   0.943   6.369
 5052SOL    HW216056   2.413   0.866   6.364
 5053SOL     OW16057   2.305   4.331   2.849
 5053SOL    HW116058   2.270   4.238   2.834
 5053SOL    HW216059   2.283   4.360   2.942
 5054SOL     OW16060   3.669   5.258   5.286
 5054SOL    HW116061   3.632   5.323   5.220
 5054SOL    HW216062   3.594   5.220   5.340
 5055SOL     OW16063   1.454   2.074   5.654
 5055SOL    HW116064   1.522   2.009   5.620
 5055SOL    HW216065   1.498   2.142   5.712
 5056SOL     OW16066   6.620   4.079   6.645
 5056SOL    HW116067   6.717   4.067   6.664
 5056SOL    HW216068   6.599   4.047   6.553
 5057SOL     OW16069   0.527   6.200   4.043
 5057SOL    HW116070   0.496   6.295   4.047
 5057SOL    HW216071   0.457   6.140   4.082
 5058SOL     OW16072   2.910   3.350   5.655
 5058SOL    HW116073   2.857   3.290   5.593
 5058SOL    HW216074   2.853   3.427   5.683
 5059SOL     OW16075   5.604   1.526   3.793
 5059SOL    HW116076   5.642   1.481   3.713
 5059SOL    HW216077   5.613   1.625   3.784
 5060SOL     OW16078   0.522   1.768   5.593
 5060SOL    HW116079   0.587   1.843   5.602
 5060SOL    HW216080   0.431   1.804   5.571
 5061SOL     OW16081   3.999   2.959   1.696
 5061SOL    HW116082   4.051   2.902   1.759
 5061SOL    HW216083   3.996   2.915   1.606
 5062SOL     OW16084   4.941   0.961   2.919
 5062SOL    HW116085   4.919   1.056   2.942
 5062SOL    HW216086   5.040   0.949   2.920
 5063SOL     OW16087   0.856   6.903   2.099
 5063SOL    HW116088   0.939   6.894   2.153
 5063SOL    HW216089   0.776   6.905   2.159
 5064SOL     OW16090   5.293   4.113   1.907
 5064SOL    HW116091   5.246   4.105   1.819
 5064SOL    HW216092   5.328   4.024   1.934
 5065SOL     OW16093   1.984   1.235   3.757
 5065SOL    HW116094   2.032   1.171   3.697
 5065SOL    HW216095   2.039   1.254   3.838
 5066SOL     OW16096   4.437   4.913   2.058
 5066SOL    HW116097   4.468   5.007   2.064
 5066SOL    HW216098   4.346   4.905   2.100
 5067SOL     OW16099   4.630   0.910   1.592
 5067SOL    HW116100   4.580   0.824   1.602
 5067SOL    HW216101   4.568   0.987   1.608
 5068SOL     OW16102   2.440   4.600   6.910
 5068SOL    HW116103   2.418   4.625   6.815
 5068SOL    HW216104   2.500   4.520   6.909
 5069SOL     OW16105   2.294   3.396   5.699
 5069SOL    HW116106   2.350   3.370   5.621
 5069SOL    HW216107   2.197   3.382   5.677
 5070SOL     OW16108   4.298   4.935   3.437
 5070SOL    HW116109   4.247   4.863   3.390
 5070SOL    HW216110   4.345   4.992   3.370
 5071SOL     OW16111   4.053   2.246   3.144
 5071SOL    HW116112   4.068   2.291   3.232
 5071SOL    HW216113   3.977   2.182   3.152
 5072SOL     OW16114   1.052   0.061   1.569
 5072SOL    HW116115   1.047   0.020   1.660
 5072SOL    HW216116   1.069   0.159   1.578
 5073SOL     OW16117   7.006   5.691   1.583
 5073SOL    HW116118   6.960   5.711   1.497
 5073SOL    HW216119   0.052   5.617   1.570
 5074SOL     OW16120   3.407   3.046   1.239
 5074SOL    HW116121   3.331   3.103   1.208
 5074SOL    HW216122   3.463   3.020   1.161
 5075SOL     OW16123   1.104   1.939   6.355
 5075SOL    HW116124   1.090   2.034   6.383
 5075SOL    HW216125   1.161   1.893   6.423
 5076SOL     OW16126   4.494   0.952   0.511
 5076SOL    HW116127   4.575   0.895   0.494
 5076SOL    HW216128   4.482   1.016   0.436
 5077SOL     OW16129   1.846   4.593   5.514
 5077SOL    HW116130   1.930   4.616   5.464
 5077SOL    HW216131   1.819   4.499   5.492
 5078SOL     OW16132   0.634   0.964   4.021
 5078SOL    HW116133   0.682   0.941   4.106
 5078SOL    HW216134   0.632   0.883   3.962
 5079SOL     OW16135   1.858   2.960   5.532
 5079SOL    HW116136   1.849   2.883   5.469
 5079SOL    HW216137   1.920   2.936   5.606
 5080SOL     OW16138   6.025   6.947   6.215
 5080SOL    HW116139   6.118   6.943   6.178
 5080SOL    HW216140   5.964   6.990   6.148
 5081SOL     OW16141   3.215   3.278   4.318
 5081SOL    HW116142   3.235   3.196   4.371
 5081SOL    HW216143   3.226   3.359   4.375
 5082SOL     OW16144   4.868   5.618   0.568
 5082SOL    HW116145   4.879   5.631   0.667
 5082SOL    HW216146   4.771   5.619   0.545
 5083SOL     OW16147   2.397   6.476   1.853
 5083SOL    HW116148   2.305   6.451   1.883
 5083SOL    HW216149   2.392   6.549   1.786
 5084SOL     OW16150   0.378   4.779   4.314
 5084SOL    HW116151   0.296   4.741   4.272
 5084SOL    HW216152   0.382   4.752   4.410
 5085SOL     OW16153   5.386   3.383   6.592
 5085SOL    HW116154   5.402   3.478   6.620
 5085SOL    HW216155   5.324   3.340   6.657
 5086SOL     OW16156   1.319   5.730   3.090
 5086SOL    HW116157   1.390   5.663   3.111
 5086SOL    HW216158   1.233   5.703   3.133
 5087SOL     OW16159   1.861   5.158   2.388
 5087SOL    HW116160   1.816   5.130   2.472
 5087SOL    HW216161   1.955   5.124   2.387
 5088SOL     OW16162   6.144   1.310   4.988
 5088SOL    HW116163   6.151   1.227   5.043
 5088SOL    HW216164   6.228   1.324   4.937
 5089SOL     OW16165   4.953   4.184   4.101
 5089SOL    HW116166   4.903   4.193   4.015
 5089SOL    HW216167   4.889   4.192   4.178
 5090SOL     OW16168   1.958   4.129   2.715
 5090SOL    HW116169   1.965   4.052   2.652
 5090SOL    HW216170   2.037   4.128   2.777
 5091SOL     OW16171   0.699   0.526   2.378
 5091SOL    HW116172   0.652   0.464   2.441
 5091SOL    HW216173   0.765   0.475   2.323
 5092SOL     OW16174   3.220   3.858   1.814
 5092SOL    HW116175   3.145   3.860   1.881
 5092SOL    HW216176   3.304   3.828   1.860
 5093SOL     OW16177   2.755   1.008   1.469
 5093SOL    HW116178   2.718   1.088   1.421
 5093SOL    HW216179   2.725   0.925   1.423
 5094SOL     OW16180   2.522   5.547   6.057
 5094SOL    HW116181   2.430   5.529   6.024
 5094SOL    HW216182   2.576   5.589   5.984
 5095SOL     OW16183   6.084   2.219   4.814
 5095SOL    HW116184   6.124   2.151   4.875
 5095SOL    HW216185   6.066   2.303   4.864
 5096SOL     OW16186   3.968   4.406   0.501
 5096SOL    HW116187   4.053   4.440   0.461
 5096SOL    HW216188   3.902   4.481   0.508
 5097SOL     OW16189   1.546   1.122   6.479
 5097SOL    HW116190   1.525   1.024   6.484
 5097SOL    HW216191   1.508   1.168   6.559
 5098SOL     OW16192   1.982   0.221   1.581
 5098SOL    HW116193   1.935   0.305   1.606
 5098SOL    HW216194   2.072   0.218   1.625
 5099SOL     OW16195   0.526   6.631   6.755
 5099SOL    HW116196   0.518   6.534   6.779
 5099SOL    HW216197   0.518   6.641   6.656
 5100SOL     OW16198   3.826   5.213   5.055
 5100SOL    HW116199   3.750   5.229   5.118
 5100SOL    HW216200   3.902   5.171   5.104
 5101SOL     OW16201   4.864   6.650   0.126
 5101SOL    HW116202   4.846   6.720   0.195
 5101SOL    HW216203   4.845   6.687   0.035
 5102SOL     OW16204   5.128   0.022   4.300
 5102SOL    HW116205   5.142   6.985   4.219
 5102SOL    HW216206   5.061   0.094   4.280
 5103SOL     OW16207   0.051   1.407   4.268
 5103SOL    HW116208   0.102   1.488   4.295
 5103SOL    HW216209   0.108   1.350   4.208
 5104SOL     OW16210   1.676   6.396   2.576
 5104SOL    HW116211   1.642   6.312   2.535
 5104SOL    HW216212   1.705   6.460   2.505
 5105SOL     OW16213   3.608   2.666   0.434
 5105SOL    HW116214   3.670   2.593   0.405
 5105SOL    HW216215   3.649   2.755   0.413
 5106SOL     OW16216   3.609   1.245   0.325
 5106SOL    HW116217   3.530   1.300   0.300
 5106SOL    HW216218   3.612   1.234   0.425
 5107SOL     OW16219   3.196   0.756   0.277
 5107SOL    HW116220   3.264   0.799   0.219
 5107SOL    HW216221   3.167   0.669   0.237
 5108SOL     OW16222   2.949   3.311   4.617
 5108SOL    HW116223   2.909   3.344   4.702
 5108SOL    HW216224   3.031   3.363   4.595
 5109SOL     OW16225   1.307   0.949   0.742
 5109SOL    HW116226   1.395   0.922   0.703
 5109SOL    HW216227   1.308   1.047   0.763
 5110SOL     OW16228   0.410   0.274   6.268
 5110SOL    HW116229   0.320   0.267   6.311
 5110SOL    HW216230   0.408   0.346   6.198
 5111SOL     OW16231   2.325   0.909   5.222
 5111SOL    HW116232   2.322   0.839   5.151
 5111SOL    HW216233   2.233   0.925   5.258
 5112SOL     OW16234   1.211   0.166   2.717
 5112SOL    HW116235   1.173   0.135   2.804
 5112SOL    HW216236   1.173   0.112   2.642
 5113SOL     OW16237   2.224   6.807   0.806
 5113SOL    HW116238   2.251   6.848   0.718
 5113SOL    HW216239   2.132   6.838   0.829
 5114SOL     OW16240   2.927   1.189   0.160
 5114SOL    HW116241   2.985   1.184   0.242
 5114SOL    HW216242   2.866   1.110   0.157
 5115SOL     OW16243   2.040   5.126   4.497
 5115SOL    HW116244   1.975   5.087   4.563
 5115SOL    HW216245   2.025   5.085   4.407
 5116SOL     OW16246   6.234   6.941   6.880
 5116SOL    HW116247   6.329   6.910   6.875
 5116SOL    HW216248   6.215   6.976   6.971
 5117SOL     OW16249   2.636   4.737   4.836
 5117SOL    HW116250   2.710   4.719   4.902
 5117SOL    HW216251   2.604   4.651   4.797
 5118SOL     OW16252   4.696   0.828   0.394
 5118SOL    HW116253   4.692   0.850   0.296
 5118SOL    HW216254   4.790   0.836   0.426
 5119SOL     OW16255   5.201   0.783   1.729
 5119SOL    HW116256   5.163   0.868   1.692
 5119SOL    HW216257   5.300   0.792   1.740
 5120SOL     OW16258   3.876   1.270   4.139
 5120SOL    HW116259   3.922   1.330   4.074
 5120SOL    HW216260   3.942   1.239   4.208
 5121SOL     OW16261   3.027   2.060   7.015
 5121SOL    HW116262   3.073   1.982   0.038
 5121SOL    HW216263   3.022   2.046   6.916
 5122SOL     OW16264   2.982   6.763   2.554
 5122SOL    HW116265   2.894   6.802   2.529
 5122SOL    HW216266   2.975   6.715   2.641
 5123SOL     OW16267   4.827   1.768   5.217
 5123SOL    HW116268   4.887   1.757   5.297
 5123SOL    HW216269   4.881   1.758   5.133
 5124SOL     OW16270   3.302   5.015   5.014
 5124SOL    HW116271   3.343   4.970   4.935
 5124SOL    HW216272   3.208   4.982   5.026
 5125SOL     OW16273   6.493   3.305   4.111
 5125SOL    HW116274   6.476   3.374   4.182
 5125SOL    HW216275   6.405   3.275   4.073
 5126SOL     OW16276   6.561   5.635   5.664
 5126SOL    HW116277   6.607   5.670   5.583
 5126SOL    HW216278   6.620   5.645   5.743
 5127SOL     OW16279   0.696   3.682   0.325
 5127SOL    HW116280   0.740   3.620   0.260
 5127SOL    HW216281   0.609   3.713   0.288
 5128SOL     OW16282   6.681   0.534   6.472
 5128SOL    HW116283   6.750   0.480   6.522
 5128SOL    HW216284   6.604   0.475   6.448
 5129SOL     OW16285   5.056   0.472   2.837
 5129SOL    HW116286   5.051   0.372   2.837
 5129SOL    HW216287   5.021   0.508   2.924
 5130SOL     OW16288   2.072   5.021   3.770
 5130SOL    HW116289   2.073   4.945   3.705
 5130SOL    HW216290   2.155   5.020   3.824
 5131SOL     OW16291   2.797   5.385   3.796
 5131SOL    HW116292   2.867   5.454   3.817
 5131SOL    HW216293   2.749   5.359   3.880
 5132SOL     OW16294   3.303   2.036   6.176
 5132SOL    HW116295   3.261   2.126   6.190
 5132SOL    HW216296   3.402   2.045   6.180
 5133SOL     OW16297   1.822   5.146   6.642
 5133SOL    HW116298   1.787   5.055   6.622
 5133SOL    HW216299   1.804   5.168   6.738
 5134SOL     OW16300   6.756   0.823   2.190
 5134SOL    HW116301   6.839   0.777   2.160
 5134SOL    HW216302   6.682   0.804   2.126
 5135SOL     OW16303   5.062   3.732   4.642
 5135SOL    HW116304   5.008   3.648   4.644
 5135SOL    HW216305   5.067   3.770   4.735
 5136SOL     OW16306   5.575   0.690   6.814
 5136SOL    HW116307   5.568   0.742   6.898
 5136SOL    HW216308   5.484   0.671   6.779
 5137SOL     OW16309   4.787   3.582   5.627
 5137SOL    HW116310   4.772   3.680   5.614
 5137SOL    HW216311   4.749   3.532   5.550
 5138SOL     OW16312   3.695   2.907   4.307
 5138SOL    HW116313   3.665   2.967   4.381
 5138SOL    HW216314   3.653   2.817   4.317
 5139SOL     OW16315   0.934   0.304   4.004
 5139SOL    HW116316   1.012   0.264   3.955
 5139SOL    HW216317   0.937   0.277   4.100
 5140SOL     OW16318   4.115   1.970   5.584
 5140SOL    HW116319   4.176   1.892   5.595
 5140SOL    HW216320   4.040   1.946   5.522
 5141SOL     OW16321   6.469   4.020   0.630
 5141SOL    HW116322   6.512   4.101   0.592
 5141SOL    HW216323   6.437   4.040   0.723
 5142SOL     OW16324   5.455   6.345   3.677
 5142SOL    HW116325   5.545   6.379   3.650
 5142SOL    HW216326   5.466   6.272   3.745
 5143SOL     OW16327   0.243   4.517   4.045
 5143SOL    HW116328   0.169   4.515   3.978
 5143SOL    HW216329   0.248   4.607   4.087
 5144SOL     OW16330   1.173   4.711   5.450
 5144SOL    HW116331   1.073   4.704   5.441
 5144SOL    HW216332   1.213   4.620   5.442
 5145SOL     OW16333   3.468   5.806   6.732
 5145SOL    HW116334   3.464   5.905   6.717
 5145SOL    HW216335   3.563   5.776   6.730
 5146SOL     OW16336   3.360   3.365   5.158
 5146SOL    HW116337   3.458   3.363   5.178
 5146SOL    HW216338   3.314   3.293   5.210
 5147SOL     OW16339   6.498   5.598   3.744
 5147SOL    HW116340   6.422   5.644   3.790
 5147SOL    HW216341   6.584   5.644   3.768
 5148SOL     OW16342   0.262   1.111   2.038
 5148SOL    HW116343   0.188   1.177   2.051
 5148SOL    HW216344   0.277   1.096   1.941
 5149SOL     OW16345   6.418   5.427   4.111
 5149SOL    HW116346   6.495   5.429   4.047
 5149SOL    HW216347   6.443   5.476   4.195
 5150SOL     OW16348   2.523   5.605   3.467
 5150SOL    HW116349   2.446   5.656   3.505
 5150SOL    HW216350   2.604   5.622   3.523
 5151SOL     OW16351   6.987   3.781   2.279
 5151SOL    HW116352   6.938   3.858   2.238
 5151SOL    HW216353   6.920   3.719   2.321
 5152SOL     OW16354   1.362   5.511   0.079
 5152SOL    HW116355   1.405   5.471   0.160
 5152SOL    HW216356   1.434   5.537   0.014
 5153SOL     OW16357   0.835   2.202   0.545
 5153SOL    HW116358   0.777   2.205   0.626
 5153SOL    HW216359   0.804   2.270   0.479
 5154SOL     OW16360   0.770   2.731   6.129
 5154SOL    HW116361   0.693   2.790   6.152
 5154SOL    HW216362   0.809   2.759   6.042
 5155SOL     OW16363   4.009   6.648   2.165
 5155SOL    HW116364   3.969   6.739   2.163
 5155SOL    HW216365   4.108   6.655   2.149
 5156SOL     OW16366   5.483   4.910   5.887
 5156SOL    HW116367   5.407   4.871   5.940
 5156SOL    HW216368   5.467   4.895   5.790
 5157SOL     OW16369   3.090   1.574   3.143
 5157SOL    HW116370   3.102   1.639   3.069
 5157SOL    HW216371   2.997   1.538   3.143
 5158SOL     OW16372   4.049   2.055   1.145
 5158SOL    HW116373   4.003   2.142   1.157
 5158SOL    HW216374   4.028   2.018   1.055
 5159SOL     OW16375   5.591   3.366   5.750
 5159SOL    HW116376   5.586   3.271   5.780
 5159SOL    HW216377   5.533   3.422   5.809
 5160SOL     OW16378   0.274   4.942   3.149
 5160SOL    HW116379   0.273   4.843   3.166
 5160SOL    HW216380   0.288   4.959   3.052
 5161SOL     OW16381   1.958   3.472   6.923
 5161SOL    HW116382   1.924   3.555   6.879
 5161SOL    HW216383   2.058   3.471   6.921
 5162SOL     OW16384   0.876   5.908   2.553
 5162SOL    HW116385   0.924   5.951   2.477
 5162SOL    HW216386   0.929   5.919   2.637
 5163SOL     OW16387   2.829   6.937   0.974
 5163SOL    HW116388   2.847   7.009   0.908
 5163SOL    HW216389   2.914   6.890   0.997
 5164SOL     OW16390   3.691   2.378   0.106
 5164SOL    HW116391   3.595   2.408   0.107
 5164SOL    HW216392   3.730   2.390   0.197
 5165SOL     OW16393   0.569   4.028   5.888
 5165SOL    HW116394   0.538   3.991   5.976
 5165SOL    HW216395   0.552   3.962   5.815
 5166SOL     OW16396   1.926   5.738   2.475
 5166SOL    HW116397   1.861   5.813   2.490
 5166SOL    HW216398   1.977   5.756   2.390
 5167SOL     OW16399   6.376   4.918   5.683
 5167SOL    HW116400   6.451   4.984   5.688
 5167SOL    HW216401   6.379   4.871   5.595
 5168SOL     OW16402   5.491   3.399   1.689
 5168SOL    HW116403   5.529   3.307   1.690
 5168SOL    HW216404   5.489   3.433   1.595
 5169SOL     OW16405   3.917   1.920   3.940
 5169SOL    HW116406   3.999   1.893   3.889
 5169SOL    HW216407   3.932   2.011   3.979
 5170SOL     OW16408   1.522   3.432   4.715
 5170SOL    HW116409   1.550   3.357   4.656
 5170SOL    HW216410   1.539   3.519   4.669
 5171SOL     OW16411   0.166   4.215   5.745
 5171SOL    HW116412   0.220   4.133   5.764
 5171SOL    HW216413   0.217   4.296   5.773
 5172SOL     OW16414   1.537   3.233   2.419
 5172SOL    HW116415   1.621   3.253   2.370
 5172SOL    HW216416   1.468   3.200   2.355
 5173SOL     OW16417   4.859   5.250   4.768
 5173SOL    HW116418   4.803   5.167   4.776
 5173SOL    HW216419   4.956   5.225   4.770
 5174SOL     OW16420   2.559   4.898   3.625
 5174SOL    HW116421   2.536   4.946   3.540
 5174SOL    HW216422   2.554   4.962   3.701
 5175SOL     OW16423   3.132   3.847   6.847
 5175SOL    HW116424   3.045   3.844   6.798
 5175SOL    HW216425   3.164   3.941   6.852
 5176SOL     OW16426   5.446   3.757   0.205
 5176SOL    HW116427   5.435   3.659   0.189
 5176SOL    HW216428   5.375   3.789   0.268
 5177SOL     OW16429   5.595   6.957   0.862
 5177SOL    HW116430   5.499   6.927   0.867
 5177SOL    HW216431   5.653   6.879   0.839
 5178SOL     OW16432   1.106   3.605   2.775
 5178SOL    HW116433   1.084   3.567   2.685
 5178SOL    HW216434   1.066   3.546   2.846
 5179SOL     OW16435   4.798   4.489   4.444
 5179SOL    HW116436   4.755   4.446   4.365
 5179SOL    HW216437   4.797   4.588   4.434
 5180SOL     OW16438   2.811   1.365   1.032
 5180SOL    HW116439   2.718   1.362   0.996
 5180SOL    HW216440   2.876   1.369   0.956
 5181SOL     OW16441   5.095   1.443   2.448
 5181SOL    HW116442   5.095   1.536   2.483
 5181SOL    HW216443   5.180   1.427   2.397
 5182SOL     OW16444   4.241   4.774   1.839
 5182SOL    HW116445   4.257   4.872   1.849
 5182SOL    HW216446   4.258   4.727   1.926
 5183SOL     OW16447   3.576   1.746   2.896
 5183SOL    HW116448   3.506   1.756   2.967
 5183SOL    HW216449   3.544   1.790   2.812
 5184SOL     OW16450   0.513   2.369   3.764
 5184SOL    HW116451   0.483   2.464   3.765
 5184SOL    HW216452   0.471   2.319   3.839
 5185SOL     OW16453   5.258   0.939   2.888
 5185SOL    HW116454   5.275   1.025   2.936
 5185SOL    HW216455   5.280   0.950   2.791
 5186SOL     OW16456   6.004   1.747   0.329
 5186SOL    HW116457   6.009   1.814   0.256
 5186SOL    HW216458   5.914   1.704   0.329
 5187SOL     OW16459   1.433   6.033   4.584
 5187SOL    HW116460   1.487   5.994   4.658
 5187SOL    HW216461   1.336   6.014   4.601
 5188SOL     OW16462   6.643   5.622   1.578
 5188SOL    HW116463   6.712   5.620   1.505
 5188SOL    HW216464   6.680   5.580   1.660
 5189SOL     OW16465   4.084   5.199   0.896
 5189SOL    HW116466   3.992   5.217   0.863
 5189SOL    HW216467   4.083   5.197   0.996
 5190SOL     OW16468   0.371   3.139   4.575
 5190SOL    HW116469   0.442   3.168   4.638
 5190SOL    HW216470   0.412   3.088   4.499
 5191SOL     OW16471   3.883   6.885   2.179
 5191SOL    HW116472   3.793   6.873   2.221
 5191SOL    HW216473   3.897   6.982   2.157
 5192SOL     OW16474   1.683   5.350   1.163
 5192SOL    HW116475   1.689   5.350   1.063
 5192SOL    HW216476   1.735   5.427   1.200
 5193SOL     OW16477   5.386   5.536   5.459
 5193SOL    HW116478   5.381   5.465   5.389
 5193SOL    HW216479   5.298   5.583   5.466
 5194SOL     OW16480   4.074   2.169   0.109
 5194SOL    HW116481   4.159   2.116   0.109
 5194SOL    HW216482   4.093   2.262   0.076
 5195SOL     OW16483   6.886   0.243   4.403
 5195SOL    HW116484   6.974   0.199   4.420
 5195SOL    HW216485   6.813   0.188   4.443
 5196SOL     OW16486   4.542   6.600   1.801
 5196SOL    HW116487   4.588   6.667   1.742
 5196SOL    HW216488   4.573   6.612   1.895
 5197SOL     OW16489   2.180   4.130   6.147
 5197SOL    HW116490   2.264   4.133   6.093
 5197SOL    HW216491   2.166   4.219   6.191
 5198SOL     OW16492   4.685   6.020   3.356
 5198SOL    HW116493   4.701   5.921   3.358
 5198SOL    HW216494   4.587   6.038   3.343
 5199SOL     OW16495   1.177   6.232   0.028
 5199SOL    HW116496   1.126   6.298   0.083
 5199SOL    HW216497   1.226   6.169   0.089
 5200SOL     OW16498   0.136   3.755   5.545
 5200SOL    HW116499   0.100   3.842   5.579
 5200SOL    HW216500   0.182   3.770   5.457
 5201SOL     OW16501   0.278   0.255   2.849
 5201SOL    HW116502   0.297   0.281   2.943
 5201SOL    HW216503   0.192   0.204   2.845
 5202SOL     OW16504   5.645   2.914   6.363
 5202SOL    HW116505   5.559   2.940   6.408
 5202SOL    HW216506   5.667   2.819   6.386
 5203SOL     OW16507   2.093   2.454   6.833
 5203SOL    HW116508   2.022   2.518   6.861
 5203SOL    HW216509   2.051   2.377   6.785
 5204SOL     OW16510   3.454   5.211   6.276
 5204SOL    HW116511   3.523   5.164   6.222
 5204SOL    HW216512   3.495   5.289   6.323
 5205SOL     OW16513   0.561   6.564   0.715
 5205SOL    HW116514   0.490   6.515   0.665
 5205SOL    HW216515   0.606   6.629   0.654
 5206SOL     OW16516   0.539   4.330   5.918
 5206SOL    HW116517   0.593   4.251   5.890
 5206SOL    HW216518   0.569   4.361   6.008
 5207SOL     OW16519   1.320   5.525   3.850
 5207SOL    HW116520   1.418   5.516   3.833
 5207SOL    HW216521   1.297   5.622   3.858
 5208SOL     OW16522   3.745   1.808   5.986
 5208SOL    HW116523   3.695   1.797   5.900
 5208SOL    HW216524   3.699   1.874   6.044
 5209SOL     OW16525   5.761   5.701   3.390
 5209SOL    HW116526   5.852   5.661   3.382
 5209SOL    HW216527   5.693   5.628   3.398
 5210SOL     OW16528   4.584   2.942   5.708
 5210SOL    HW116529   4.557   3.021   5.763
 5210SOL    HW216530   4.503   2.886   5.687
 5211SOL     OW16531   2.969   3.032   5.190
 5211SOL    HW116532   3.038   3.001   5.124
 5211SOL    HW216533   2.879   3.030   5.147
 5212SOL     OW16534   6.766   2.327   0.972
 5212SOL    HW116535   6.829   2.403   0.988
 5212SOL    HW216536   6.691   2.357   0.913
 5213SOL     OW16537   4.312   3.821   6.664
 5213SOL    HW116538   4.301   3.811   6.565
 5213SOL    HW216539   4.388   3.765   6.695
 5214SOL     OW16540   4.637   1.949   5.767
 5214SOL    HW116541   4.699   1.909   5.699
 5214SOL    HW216542   4.691   2.001   5.834
 5215SOL     OW16543   6.377   4.831   3.504
 5215SOL    HW116544   6.329   4.912   3.537
 5215SOL    HW216545   6.401   4.844   3.408
 5216SOL     OW16546   4.871   5.006   1.840
 5216SOL    HW116547   4.801   4.939   1.817
 5216SOL    HW216548   4.939   4.964   1.900
 5217SOL     OW16549   3.876   5.340   4.634
 5217SOL    HW116550   3.951   5.287   4.595
 5217SOL    HW216551   3.839   5.402   4.566
 5218SOL     OW16552   0.626   0.708   3.872
 5218SOL    HW116553   0.658   0.620   3.909
 5218SOL    HW216554   0.577   0.692   3.787
 5219SOL     OW16555   4.103   0.900   5.722
 5219SOL    HW116556   4.042   0.908   5.801
 5219SOL    HW216557   4.194   0.933   5.747
 5220SOL     OW16558   1.693   5.825   2.752
 5220SOL    HW116559   1.735   5.744   2.794
 5220SOL    HW216560   1.704   5.820   2.653
 5221SOL     OW16561   5.585   2.498   4.099
 5221SOL    HW116562   5.504   2.491   4.041
 5221SOL    HW216563   5.666   2.509   4.041
 5222SOL     OW16564   3.229   6.070   3.582
 5222SOL    HW116565   3.248   5.990   3.640
 5222SOL    HW216566   3.220   6.041   3.487
 5223SOL     OW16567   6.330   2.221   0.967
 5223SOL    HW116568   6.384   2.225   1.052
 5223SOL    HW216569   6.305   2.314   0.939
 5224SOL     OW16570   0.046   2.640   4.166
 5224SOL    HW116571   0.002   2.551   4.158
 5224SOL    HW216572   6.999   2.713   4.148
 5225SOL     OW16573   0.333   0.184   3.536
 5225SOL    HW116574   0.244   0.227   3.552
 5225SOL    HW216575   0.322   0.084   3.535
 5226SOL     OW16576   0.354   6.316   4.525
 5226SOL    HW116577   0.404   6.361   4.451
 5226SOL    HW216578   0.257   6.311   4.502
 5227SOL     OW16579   1.278   3.344   4.160
 5227SOL    HW116580   1.267   3.304   4.251
 5227SOL    HW216581   1.251   3.441   4.164
 5228SOL     OW16582   6.373   2.543   1.510
 5228SOL    HW116583   6.396   2.627   1.460
 5228SOL    HW216584   6.373   2.561   1.608
 5229SOL     OW16585   1.647   5.819   0.011
 5229SOL    HW116586   1.580   5.870   6.976
 5229SOL    HW216587   1.637   5.721   7.014
 5230SOL     OW16588   0.796   6.570   0.879
 5230SOL    HW116589   0.760   6.605   0.792
 5230SOL    HW216590   0.808   6.471   0.873
 5231SOL     OW16591   4.066   3.314   5.783
 5231SOL    HW116592   4.038   3.286   5.875
 5231SOL    HW216593   4.089   3.233   5.729
 5232SOL     OW16594   3.495   2.186   5.780
 5232SOL    HW116595   3.428   2.252   5.815
 5232SOL    HW216596   3.462   2.147   5.694
 5233SOL     OW16597   4.982   1.091   2.299
 5233SOL    HW116598   4.936   1.086   2.210
 5233SOL    HW216599   4.942   1.164   2.354
 5234SOL     OW16600   2.414   0.772   6.868
 5234SOL    HW116601   2.460   0.793   6.782
 5234SOL    HW216602   2.325   0.730   6.848
 5235SOL     OW16603   1.594   2.749   0.983
 5235SOL    HW116604   1.601   2.788   1.075
 5235SOL    HW216605   1.503   2.709   0.970
 5236SOL     OW16606   5.621   3.878   2.478
 5236SOL    HW116607   5.525   3.867   2.454
 5236SOL    HW216608   5.649   3.801   2.536
 5237SOL     OW16609   2.055   1.012   5.223
 5237SOL    HW116610   2.043   0.970   5.133
 5237SOL    HW216611   2.071   1.110   5.212
 5238SOL     OW16612   1.308   4.291   0.753
 5238SOL    HW116613   1.262   4.311   0.840
 5238SOL    HW216614   1.407   4.289   0.767
 5239SOL     OW16615   3.359   3.084   3.929
 5239SOL    HW116616   3.413   3.004   3.954
 5239SOL    HW216617   3.407   3.137   3.859
 5240SOL     OW16618   3.331   1.640   6.325
 5240SOL    HW116619   3.416   1.688   6.303
 5240SOL    HW216620   3.253   1.699   6.302
 5241SOL     OW16621   1.049   5.278   5.252
 5241SOL    HW116622   1.011   5.369   5.272
 5241SOL    HW216623   1.092   5.279   5.162
 5242SOL     OW16624   0.152   6.006   6.318
 5242SOL    HW116625   0.229   6.011   6.382
 5242SOL    HW216626   0.183   5.967   6.231
 5243SOL     OW16627   1.000   5.410   1.590
 5243SOL    HW116628   1.019   5.313   1.601
 5243SOL    HW216629   0.901   5.426   1.594
 5244SOL     OW16630   3.545   4.349   6.584
 5244SOL    HW116631   3.565   4.369   6.488
 5244SOL    HW216632   3.600   4.270   6.614
 5245SOL     OW16633   4.494   4.403   0.625
 5245SOL    HW116634   4.450   4.326   0.578
 5245SOL    HW216635   4.423   4.465   0.660
 5246SOL     OW16636   5.731   4.106   2.622
 5246SOL    HW116637   5.732   4.068   2.715
 5246SOL    HW216638   5.729   4.031   2.556
 5247SOL     OW16639   0.894   0.352   0.258
 5247SOL    HW116640   0.913   0.364   0.355
 5247SOL    HW216641   0.966   0.296   0.217
 5248SOL     OW16642   5.668   0.697   4.045
 5248SOL    HW116643   5.718   0.611   4.035
 5248SOL    HW216644   5.696   0.760   3.972
 5249SOL     OW16645   6.665   4.471   4.973
 5249SOL    HW116646   6.651   4.501   4.879
 5249SOL    HW216647   6.698   4.377   4.974
 5250SOL     OW16648   1.172   0.619   5.503
 5250SOL    HW116649   1.153   0.521   5.512
 5250SOL    HW216650   1.271   0.633   5.504
 5251SOL     OW16651   0.604   3.252   0.601
 5251SOL    HW116652   0.523   3.199   0.579
 5251SOL    HW216653   0.642   3.221   0.688
 5252SOL     OW16654   2.279   5.855   0.327
 5252SOL    HW116655   2.331   5.779   0.367
 5252SOL    HW216656   2.342   5.918   0.283
 5253SOL     OW16657   5.588   3.895   4.331
 5253SOL    HW116658   5.680   3.903   4.369
 5253SOL    HW216659   5.549   3.806   4.354
 5254SOL     OW16660   4.276   1.694   2.820
 5254SOL    HW116661   4.308   1.614   2.770
 5254SOL    HW216662   4.180   1.682   2.845
 5255SOL     OW16663   4.824   0.561   5.861
 5255SOL    HW116664   4.759   0.487   5.845
 5255SOL    HW216665   4.841   0.571   5.959
 5256SOL     OW16666   4.305   0.858   3.284
 5256SOL    HW116667   4.352   0.925   3.340
 5256SOL    HW216668   4.252   0.797   3.343
 5257SOL     OW16669   4.665   6.210   2.454
 5257SOL    HW116670   4.696   6.257   2.372
 5257SOL    HW216671   4.743   6.166   2.499
 5258SOL     OW16672   5.830   3.549   1.567
 5258SOL    HW116673   5.747   3.588   1.527
 5258SOL    HW216674   5.813   3.528   1.664
 5259SOL     OW16675   4.955   6.315   0.473
 5259SOL    HW116676   4.857   6.325   0.453
 5259SOL    HW216677   4.979   6.370   0.552
 5260SOL     OW16678   5.661   3.929   1.110
 5260SOL    HW116679   5.754   3.919   1.144
 5260SOL    HW216680   5.642   3.856   1.044
 5261SOL     OW16681   1.198   3.527   6.625
 5261SOL    HW116682   1.277   3.474   6.594
 5261SOL    HW216683   1.193   3.525   6.725
 5262SOL     OW16684   2.873   0.464   3.250
 5262SOL    HW116685   2.881   0.376   3.203
 5262SOL    HW216686   2.944   0.526   3.216
 5263SOL     OW16687   2.086   1.450   5.256
 5263SOL    HW116688   2.079   1.363   5.207
 5263SOL    HW216689   2.001   1.502   5.244
 5264SOL     OW16690   5.748   1.428   2.449
 5264SOL    HW116691   5.689   1.364   2.498
 5264SOL    HW216692   5.817   1.378   2.398
 5265SOL     OW16693   5.497   4.068   3.720
 5265SOL    HW116694   5.434   4.020   3.781
 5265SOL    HW216695   5.479   4.042   3.625
 5266SOL     OW16696   2.742   6.408   1.608
 5266SOL    HW116697   2.757   6.497   1.651
 5266SOL    HW216698   2.819   6.386   1.548
 5267SOL     OW16699   4.824   4.189   5.179
 5267SOL    HW116700   4.802   4.092   5.165
 5267SOL    HW216701   4.853   4.203   5.273
 5268SOL     OW16702   6.245   0.524   6.241
 5268SOL    HW116703   6.214   0.594   6.305
 5268SOL    HW216704   6.325   0.558   6.190
 5269SOL     OW16705   2.020   0.017   3.922
 5269SOL    HW116706   1.964   0.009   3.839
 5269SOL    HW216707   2.049   6.945   3.951
 5270SOL     OW16708   5.254   1.694   1.362
 5270SOL    HW116709   5.205   1.721   1.279
 5270SOL    HW216710   5.271   1.775   1.418
 5271SOL     OW16711   5.814   5.826   4.928
 5271SOL    HW116712   5.725   5.846   4.968
 5271SOL    HW216713   5.841   5.733   4.951
 5272SOL     OW16714   2.149   6.075   1.753
 5272SOL    HW116715   2.071   6.115   1.802
 5272SOL    HW216716   2.164   6.125   1.668
 5273SOL     OW16717   6.668   3.056   3.290
 5273SOL    HW116718   6.619   3.142   3.302
 5273SOL    HW216719   6.602   2.982   3.275
 5274SOL     OW16720   6.578   6.211   1.869
 5274SOL    HW116721   6.654   6.163   1.824
 5274SOL    HW216722   6.614   6.280   1.931
 5275SOL     OW16723   3.739   1.982   6.443
 5275SOL    HW116724   3.805   1.975   6.518
 5275SOL    HW216725   3.724   1.891   6.404
 5276SOL     OW16726   1.244   0.445   0.818
 5276SOL    HW116727   1.209   0.470   0.728
 5276SOL    HW216728   1.272   0.528   0.867
 5277SOL     OW16729   1.776   2.218   3.068
 5277SOL    HW116730   1.822   2.188   3.151
 5277SOL    HW216731   1.683   2.180   3.066
 5278SOL     OW16732   4.718   0.371   4.249
 5278SOL    HW116733   4.672   0.450   4.288
 5278SOL    HW216734   4.724   0.381   4.149
 5279SOL     OW16735   1.487   5.107   6.545
 5279SOL    HW116736   1.557   5.165   6.585
 5279SOL    HW216737   1.433   5.159   6.479
 5280SOL     OW16738   3.309   6.457   5.485
 5280SOL    HW116739   3.217   6.441   5.449
 5280SOL    HW216740   3.355   6.370   5.499
 5281SOL     OW16741   0.762   1.661   2.695
 5281SOL    HW116742   0.760   1.573   2.647
 5281SOL    HW216743   0.831   1.658   2.767
 5282SOL     OW16744   2.178   1.859   3.169
 5282SOL    HW116745   2.147   1.887   3.079
 5282SOL    HW216746   2.244   1.927   3.204
 5283SOL     OW16747   3.873   6.806   1.817
 5283SOL    HW116748   3.957   6.800   1.872
 5283SOL    HW216749   3.821   6.887   1.843
 5284SOL     OW16750   5.358   3.824   3.134
 5284SOL    HW116751   5.352   3.741   3.190
 5284SOL    HW216752   5.266   3.857   3.113
 5285SOL     OW16753   2.028   4.269   4.207
 5285SOL    HW116754   2.052   4.302   4.116
 5285SOL    HW216755   2.027   4.169   4.207
 5286SOL     OW16756   0.373   3.807   1.245
 5286SOL    HW116757   0.443   3.751   1.287
 5286SOL    HW216758   0.302   3.827   1.312
 5287SOL     OW16759   1.512   5.727   1.471
 5287SOL    HW116760   1.610   5.746   1.481
 5287SOL    HW216761   1.469   5.800   1.418
 5288SOL     OW16762   4.160   0.416   2.312
 5288SOL    HW116763   4.260   0.418   2.318
 5288SOL    HW216764   4.130   0.465   2.230
 5289SOL     OW16765   1.943   5.670   6.090
 5289SOL    HW116766   2.034   5.692   6.126
 5289SOL    HW216767   1.952   5.637   5.996
 5290SOL     OW16768   1.551   4.699   5.606
 5290SOL    HW116769   1.606   4.717   5.524
 5290SOL    HW216770   1.544   4.600   5.620
 5291SOL     OW16771   2.907   4.865   5.514
 5291SOL    HW116772   2.837   4.848   5.445
 5291SOL    HW216773   2.958   4.948   5.491
 5292SOL     OW16774   6.544   4.650   0.277
 5292SOL    HW116775   6.544   4.687   0.184
 5292SOL    HW216776   6.556   4.550   0.272
 5293SOL     OW16777   1.002   0.786   4.061
 5293SOL    HW116778   1.017   0.880   4.032
 5293SOL    HW216779   1.058   0.724   4.006
 5294SOL     OW16780   5.403   3.107   5.164
 5294SOL    HW116781   5.406   3.113   5.065
 5294SOL    HW216782   5.351   3.184   5.202
 5295SOL     OW16783   4.298   0.741   2.531
 5295SOL    HW116784   4.380   0.737   2.589
 5295SOL    HW216785   4.267   0.647   2.513
 5296SOL     OW16786   1.576   5.454   0.578
 5296SOL    HW116787   1.557   5.356   0.572
 5296SOL    HW216788   1.661   5.469   0.629
 5297SOL     OW16789   3.089   1.826   1.027
 5297SOL    HW116790   3.006   1.820   1.082
 5297SOL    HW216791   3.091   1.914   0.980
 5298SOL     OW16792   1.320   5.973   6.265
 5298SOL    HW116793   1.345   5.971   6.168
 5298SOL    HW216794   1.310   5.879   6.299
 5299SOL     OW16795   2.835   2.546   1.092
 5299SOL    HW116796   2.903   2.585   1.153
 5299SOL    HW216797   2.767   2.616   1.069
 5300SOL     OW16798   0.478   6.091   1.621
 5300SOL    HW116799   0.466   6.108   1.719
 5300SOL    HW216800   0.556   6.031   1.606
 5301SOL     OW16801   4.018   2.670   6.701
 5301SOL    HW116802   3.922   2.696   6.690
 5301SOL    HW216803   4.051   2.701   6.790
 5302SOL     OW16804   5.727   4.860   3.483
 5302SOL    HW116805   5.638   4.848   3.526
 5302SOL    HW216806   5.797   4.877   3.553
 5303SOL     OW16807   6.863   6.011   2.876
 5303SOL    HW116808   6.954   5.977   2.901
 5303SOL    HW216809   6.794   5.971   2.938
 5304SOL     OW16810   5.865   1.612   6.757
 5304SOL    HW116811   5.785   1.663   6.787
 5304SOL    HW216812   5.937   1.619   6.825
 5305SOL     OW16813   1.619   5.200   4.027
 5305SOL    HW116814   1.703   5.188   3.974
 5305SOL    HW216815   1.540   5.197   3.966
 5306SOL     OW16816   0.552   5.072   5.004
 5306SOL    HW116817   0.579   4.989   5.052
 5306SOL    HW216818   0.457   5.065   4.975
 5307SOL     OW16819   3.941   0.020   0.701
 5307SOL    HW116820   3.972   6.955   0.743
 5307SOL    HW216821   3.947   0.012   0.601
 5308SOL     OW16822   1.101   6.407   3.594
 5308SOL    HW116823   1.003   6.394   3.587
 5308SOL    HW216824   1.130   6.395   3.690
 5309SOL     OW16825   3.855   4.679   1.648
 5309SOL    HW116826   3.798   4.761   1.642
 5309SOL    HW216827   3.799   4.597   1.634
 5310SOL     OW16828   6.048   3.493   1.768
 5310SOL    HW116829   6.069   3.451   1.856
 5310SOL    HW216830   6.012   3.585   1.783
 5311SOL     OW16831   0.272   6.597   0.229
 5311SOL    HW116832   0.197   6.533   0.213
 5311SOL    HW216833   0.316   6.576   0.317
 5312SOL     OW16834   0.621   4.657   1.647
 5312SOL    HW116835   0.598   4.587   1.715
 5312SOL    HW216836   0.538   4.709   1.625
 5313SOL     OW16837   1.391   4.697   6.799
 5313SOL    HW116838   1.444   4.652   6.727
 5313SOL    HW216839   1.309   4.644   6.819
 5314SOL     OW16840   3.772   6.607   6.872
 5314SOL    HW116841   3.758   6.534   6.938
 5314SOL    HW216842   3.862   6.649   6.887
 5315SOL     OW16843   4.773   3.574   1.599
 5315SOL    HW116844   4.776   3.664   1.641
 5315SOL    HW216845   4.763   3.584   1.500
 5316SOL     OW16846   6.981   4.646   4.932
 5316SOL    HW116847   0.028   4.611   4.997
 5316SOL    HW216848   6.888   4.623   4.963
 5317SOL     OW16849   6.922   0.018   4.590
 5317SOL    HW116850   7.014   0.018   4.551
 5317SOL    HW216851   6.925   0.063   4.680
 5318SOL     OW16852   6.659   2.205   6.064
 5318SOL    HW116853   6.711   2.130   6.105
 5318SOL    HW216854   6.715   2.287   6.058
 5319SOL     OW16855   4.946   7.016   6.791
 5319SOL    HW116856   4.860   7.005   6.841
 5319SOL    HW216857   4.926   0.026   6.697
 5320SOL     OW16858   5.740   4.711   0.243
 5320SOL    HW116859   5.735   4.622   0.198
 5320SOL    HW216860   5.648   4.741   0.268
 5321SOL     OW16861   0.947   4.153   3.152
 5321SOL    HW116862   0.990   4.220   3.213
 5321SOL    HW216863   0.959   4.183   3.057
 5322SOL     OW16864   3.949   6.068   6.140
 5322SOL    HW116865   3.979   6.020   6.058
 5322SOL    HW216866   4.028   6.087   6.199
 5323SOL     OW16867   3.872   3.418   6.813
 5323SOL    HW116868   3.930   3.389   6.890
 5323SOL    HW216869   3.778   3.427   6.845
 5324SOL     OW16870   4.042   2.754   1.491
 5324SOL    HW116871   3.984   2.672   1.493
 5324SOL    HW216872   4.129   2.734   1.536
 5325SOL     OW16873   5.181   0.418   4.176
 5325SOL    HW116874   5.101   0.358   4.166
 5325SOL    HW216875   5.168   0.500   4.121
 5326SOL     OW16876   0.127   5.492   3.655
 5326SOL    HW116877   0.119   5.432   3.735
 5326SOL    HW216878   0.222   5.521   3.646
 5327SOL     OW16879   5.584   4.270   5.169
 5327SOL    HW116880   5.507   4.321   5.207
 5327SOL    HW216881   5.604   4.191   5.226
 5328SOL     OW16882   4.158   3.107   5.612
 5328SOL    HW116883   4.226   3.037   5.633
 5328SOL    HW216884   4.173   3.143   5.520
 5329SOL     OW16885   6.893   4.127   0.621
 5329SOL    HW116886   6.830   4.050   0.617
 5329SOL    HW216887   6.841   4.213   0.620
 5330SOL     OW16888   3.816   3.594   5.873
 5330SOL    HW116889   3.746   3.665   5.877
 5330SOL    HW216890   3.807   3.535   5.953
 5331SOL     OW16891   5.247   0.959   1.361
 5331SOL    HW116892   5.265   0.984   1.456
 5331SOL    HW216893   5.152   0.930   1.351
 5332SOL     OW16894   0.718   3.862   0.921
 5332SOL    HW116895   0.734   3.879   0.824
 5332SOL    HW216896   0.622   3.837   0.935
 5333SOL     OW16897   0.912   0.626   3.614
 5333SOL    HW116898   1.009   0.649   3.611
 5333SOL    HW216899   0.887   0.597   3.706
 5334SOL     OW16900   3.893   6.620   4.807
 5334SOL    HW116901   3.910   6.526   4.839
 5334SOL    HW216902   3.809   6.623   4.754
 5335SOL     OW16903   6.776   5.673   2.772
 5335SOL    HW116904   6.718   5.746   2.807
 5335SOL    HW216905   6.837   5.709   2.702
 5336SOL     OW16906   2.134   1.571   3.207
 5336SOL    HW116907   2.061   1.558   3.140
 5336SOL    HW216908   2.180   1.659   3.189
 5337SOL     OW16909   5.334   4.854   1.899
 5337SOL    HW116910   5.284   4.842   1.814
 5337SOL    HW216911   5.404   4.783   1.907
 5338SOL     OW16912   6.091   0.750   6.008
 5338SOL    HW116913   6.096   0.758   5.909
 5338SOL    HW216914   6.007   0.702   6.034
 5339SOL     OW16915   5.758   2.010   3.166
 5339SOL    HW116916   5.709   1.925   3.147
 5339SOL    HW216917   5.798   2.006   3.257
 5340SOL     OW16918   5.796   3.680   1.188
 5340SOL    HW116919   5.867   3.736   1.231
 5340SOL    HW216920   5.713   3.683   1.243
 5341SOL     OW16921   3.597   5.224   5.647
 5341SOL    HW116922   3.693   5.203   5.628
 5341SOL    HW216923   3.564   5.292   5.582
 5342SOL     OW16924   4.628   0.168   4.748
 5342SOL    HW116925   4.620   0.134   4.654
 5342SOL    HW216926   4.712   0.221   4.758
 5343SOL     OW16927   4.100   3.685   5.177
 5343SOL    HW116928   4.088   3.713   5.082
 5343SOL    HW216929   4.139   3.593   5.179
 5344SOL     OW16930   1.714   1.626   0.875
 5344SOL    HW116931   1.639   1.603   0.812
 5344SOL    HW216932   1.679   1.630   0.968
 5345SOL     OW16933   4.426   6.301   0.325
 5345SOL    HW116934   4.438   6.390   0.368
 5345SOL    HW216935   4.329   6.286   0.306
 5346SOL     OW16936   3.279   5.181   3.754
 5346SOL    HW116937   3.264   5.099   3.699
 5346SOL    HW216938   3.371   5.179   3.793
 5347SOL     OW16939   0.140   2.973   2.641
 5347SOL    HW116940   0.202   3.026   2.699
 5347SOL    HW216941   0.139   2.878   2.671
 5348SOL     OW16942   6.772   1.614   0.642
 5348SOL    HW116943   6.784   1.542   0.573
 5348SOL    HW216944   6.728   1.693   0.600
 5349SOL     OW16945   2.204   2.952   0.104
 5349SOL    HW116946   2.183   2.858   0.129
 5349SOL    HW216947   2.304   2.965   0.106
 5350SOL     OW16948   1.468   0.026   4.742
 5350SOL    HW116949   1.390   6.985   4.755
 5350SOL    HW216950   1.502   0.019   4.648
 5351SOL     OW16951   6.712   5.318   2.022
 5351SOL    HW116952   6.739   5.395   2.081
 5351SOL    HW216953   6.775   5.242   2.037
 5352SOL     OW16954   2.069   5.146   2.887
 5352SOL    HW116955   2.044   5.081   2.815
 5352SOL    HW216956   2.163   5.129   2.916
 5353SOL     OW16957   3.880   5.160   4.282
 5353SOL    HW116958   3.944   5.170   4.207
 5353SOL    HW216959   3.798   5.215   4.264
 5354SOL     OW16960   2.096   4.217   0.777
 5354SOL    HW116961   2.040   4.264   0.845
 5354SOL    HW216962   2.166   4.280   0.742
 5355SOL     OW16963   5.974   4.910   4.922
 5355SOL    HW116964   5.913   4.979   4.962
 5355SOL    HW216965   5.920   4.830   4.895
 5356SOL     OW16966   6.547   3.525   2.344
 5356SOL    HW116967   6.545   3.437   2.298
 5356SOL    HW216968   6.485   3.589   2.298
 5357SOL     OW16969   2.829   5.754   0.189
 5357SOL    HW116970   2.829   5.744   0.288
 5357SOL    HW216971   2.837   5.664   0.146
 5358SOL     OW16972   4.482   1.714   0.690
 5358SOL    HW116973   4.405   1.776   0.703
 5358SOL    HW216974   4.479   1.642   0.759
 5359SOL     OW16975   2.598   1.266   6.116
 5359SOL    HW116976   2.634   1.356   6.142
 5359SOL    HW216977   2.516   1.278   6.060
 5360SOL     OW16978   3.477   5.887   3.350
 5360SOL    HW116979   3.482   5.965   3.287
 5360SOL    HW216980   3.537   5.903   3.428
 5361SOL     OW16981   2.385   0.504   4.787
 5361SOL    HW116982   2.340   0.476   4.703
 5361SOL    HW216983   2.427   0.425   4.830
 5362SOL     OW16984   6.193   6.537   2.565
 5362SOL    HW116985   6.208   6.497   2.474
 5362SOL    HW216986   6.135   6.477   2.619
 5363SOL     OW16987   6.006   6.451   5.691
 5363SOL    HW116988   5.964   6.456   5.600
 5363SOL    HW216989   6.101   6.423   5.682
 5364SOL     OW16990   6.608   0.049   2.021
 5364SOL    HW116991   6.550   0.130   2.012
 5364SOL    HW216992   6.578   6.999   1.957
 5365SOL     OW16993   3.686   3.041   1.424
 5365SOL    HW116994   3.739   3.116   1.464
 5365SOL    HW216995   3.603   3.078   1.382
 5366SOL     OW16996   6.107   6.229   0.931
 5366SOL    HW116997   6.063   6.145   0.900
 5366SOL    HW216998   6.114   6.293   0.855
 5367SOL     OW16999   0.157   0.172   1.418
 5367SOL    HW117000   0.057   0.171   1.417
 5367SOL    HW217001   0.190   0.107   1.486
 5368SOL     OW17002   5.881   6.968   2.429
 5368SOL    HW117003   5.884   7.000   2.334
 5368SOL    HW217004   5.818   6.891   2.436
 5369SOL     OW17005   2.616   6.725   0.638
 5369SOL    HW117006   2.584   6.718   0.732
 5369SOL    HW217007   2.545   6.766   0.582
 5370SOL     OW17008   4.997   2.819   0.730
 5370SOL    HW117009   4.947   2.889   0.680
 5370SOL    HW217010   5.027   2.747   0.667
 5371SOL     OW17011   0.530   3.835   5.439
 5371SOL    HW117012   0.501   3.760   5.378
 5371SOL    HW217013   0.584   3.901   5.387
 5372SOL     OW17014   1.087   5.908   2.769
 5372SOL    HW117015   1.160   5.863   2.717
 5372SOL    HW217016   1.128   5.964   2.841
 5373SOL     OW17017   4.225   6.672   5.350
 5373SOL    HW117018   4.139   6.623   5.360
 5373SOL    HW217019   4.263   6.656   5.259
 5374SOL     OW17020   2.242   3.740   0.465
 5374SOL    HW117021   2.269   3.695   0.380
 5374SOL    HW217022   2.145   3.723   0.483
 5375SOL     OW17023   0.377   6.414   4.794
 5375SOL    HW117024   0.293   6.405   4.847
 5375SOL    HW217025   0.368   6.364   4.709
 5376SOL     OW17026   1.045   2.287   1.456
 5376SOL    HW117027   1.053   2.194   1.492
 5376SOL    HW217028   1.130   2.312   1.410
 5377SOL     OW17029   0.018   0.194   2.277
 5377SOL    HW117030   7.014   0.280   2.322
 5377SOL    HW217031   0.111   0.168   2.300
 5378SOL     OW17032   6.796   0.356   2.633
 5378SOL    HW117033   6.869   0.413   2.669
 5378SOL    HW217034   6.752   0.403   2.556
 5379SOL     OW17035   0.611   4.052   4.989
 5379SOL    HW117036   0.635   4.023   4.896
 5379SOL    HW217037   0.511   4.055   4.999
 5380SOL     OW17038   3.241   0.015   2.479
 5380SOL    HW117039   3.163   0.051   2.530
 5380SOL    HW217040   3.274   0.084   2.415
 5381SOL     OW17041   6.174   5.133   2.199
 5381SOL    HW117042   6.103   5.204   2.201
 5381SOL    HW217043   6.236   5.149   2.122
 5382SOL     OW17044   3.029   1.441   1.835
 5382SOL    HW117045   3.027   1.470   1.740
 5382SOL    HW217046   2.991   1.349   1.843
 5383SOL     OW17047   1.893   2.557   4.829
 5383SOL    HW117048   1.906   2.653   4.854
 5383SOL    HW217049   1.873   2.550   4.732
 5384SOL     OW17050   5.426   0.418   5.154
 5384SOL    HW117051   5.414   0.492   5.088
 5384SOL    HW217052   5.498   0.443   5.219
 5385SOL     OW17053   3.850   3.445   5.015
 5385SOL    HW117054   3.946   3.417   5.023
 5385SOL    HW217055   3.834   3.481   4.923
 5386SOL     OW17056   4.649   1.114   3.943
 5386SOL    HW117057   4.631   1.158   4.031
 5386SOL    HW217058   4.585   1.039   3.930
 5387SOL     OW17059   2.042   6.224   3.343
 5387SOL    HW117060   1.994   6.305   3.308
 5387SOL    HW217061   1.975   6.154   3.368
 5388SOL     OW17062   0.915   1.065   2.992
 5388SOL    HW117063   0.889   0.999   2.922
 5388SOL    HW217064   0.853   1.057   3.070
 5389SOL     OW17065   3.499   1.606   3.321
 5389SOL    HW117066   3.558   1.674   3.364
 5389SOL    HW217067   3.536   1.514   3.338
 5390SOL     OW17068   5.023   4.147   3.754
 5390SOL    HW117069   5.098   4.159   3.819
 5390SOL    HW217070   4.963   4.073   3.786
 5391SOL     OW17071   2.625   1.398   0.680
 5391SOL    HW117072   2.649   1.494   0.665
 5391SOL    HW217073   2.538   1.378   0.636
 5392SOL     OW17074   6.214   3.491   1.156
 5392SOL    HW117075   6.124   3.507   1.115
 5392SOL    HW217076   6.235   3.394   1.155
 5393SOL     OW17077   5.433   0.587   5.557
 5393SOL    HW117078   5.395   0.506   5.512
 5393SOL    HW217079   5.410   0.584   5.654
 5394SOL     OW17080   0.523   5.823   1.153
 5394SOL    HW117081   0.560   5.770   1.229
 5394SOL    HW217082   0.563   5.790   1.068
 5395SOL     OW17083   4.689   1.017   1.202
 5395SOL    HW117084   4.669   1.112   1.176
 5395SOL    HW217085   4.677   1.007   1.301
 5396SOL     OW17086   5.659   4.597   1.313
 5396SOL    HW117087   5.723   4.528   1.347
 5396SOL    HW217088   5.569   4.582   1.355
 5397SOL     OW17089   6.869   2.663   1.420
 5397SOL    HW117090   6.911   2.605   1.490
 5397SOL    HW217091   6.778   2.627   1.397
 5398SOL     OW17092   2.907   2.287   3.727
 5398SOL    HW117093   2.923   2.304   3.824
 5398SOL    HW217094   2.966   2.212   3.696
 5399SOL     OW17095   2.868   6.522   0.256
 5399SOL    HW117096   2.957   6.556   0.226
 5399SOL    HW217097   2.875   6.487   0.349
 5400SOL     OW17098   3.123   3.276   6.517
 5400SOL    HW117099   3.056   3.350   6.505
 5400SOL    HW217100   3.083   3.205   6.575
 5401SOL     OW17101   6.483   4.233   2.538
 5401SOL    HW117102   6.513   4.191   2.452
 5401SOL    HW217103   6.386   4.214   2.552
 5402SOL     OW17104   2.174   5.731   1.380
 5402SOL    HW117105   2.131   5.772   1.460
 5402SOL    HW217106   2.257   5.783   1.357
 5403SOL     OW17107   5.268   3.601   5.697
 5403SOL    HW117108   5.309   3.515   5.727
 5403SOL    HW217109   5.171   3.587   5.679
 5404SOL     OW17110   0.883   0.333   2.624
 5404SOL    HW117111   0.938   0.250   2.617
 5404SOL    HW217112   0.931   0.400   2.679
 5405SOL     OW17113   5.328   5.549   6.769
 5405SOL    HW117114   5.241   5.579   6.730
 5405SOL    HW217115   5.326   5.560   6.868
 5406SOL     OW17116   1.817   0.373   5.293
 5406SOL    HW117117   1.885   0.428   5.245
 5406SOL    HW217118   1.785   0.424   5.373
 5407SOL     OW17119   3.143   1.935   0.708
 5407SOL    HW117120   3.155   1.989   0.792
 5407SOL    HW217121   3.180   1.843   0.721
 5408SOL     OW17122   3.891   0.456   5.900
 5408SOL    HW117123   3.970   0.472   5.840
 5408SOL    HW217124   3.834   0.538   5.901
 5409SOL     OW17125   6.755   1.564   3.417
 5409SOL    HW117126   6.781   1.648   3.370
 5409SOL    HW217127   6.717   1.499   3.351
 5410SOL     OW17128   0.856   2.357   6.383
 5410SOL    HW117129   0.817   2.373   6.292
 5410SOL    HW217130   0.802   2.286   6.430
 5411SOL     OW17131   6.011   5.515   6.035
 5411SOL    HW117132   6.000   5.481   5.941
 5411SOL    HW217133   5.983   5.443   6.099
 5412SOL     OW17134   3.626   1.577   6.591
 5412SOL    HW117135   3.665   1.646   6.652
 5412SOL    HW217136   3.555   1.526   6.639
 5413SOL     OW17137   0.078   0.455   0.795
 5413SOL    HW117138   7.015   0.476   0.743
 5413SOL    HW217139   0.121   0.540   0.826
 5414SOL     OW17140   6.253   4.216   4.653
 5414SOL    HW117141   6.199   4.246   4.731
 5414SOL    HW217142   6.247   4.283   4.580
 5415SOL     OW17143   1.540   6.371   1.975
 5415SOL    HW117144   1.568   6.278   1.995
 5415SOL    HW217145   1.441   6.380   1.986
 5416SOL     OW17146   3.367   5.074   5.754
 5416SOL    HW117147   3.428   5.136   5.705
 5416SOL    HW217148   3.298   5.037   5.691
 5417SOL     OW17149   4.356   6.505   4.785
 5417SOL    HW117150   4.426   6.445   4.824
 5417SOL    HW217151   4.367   6.598   4.821
 5418SOL     OW17152   5.492   0.376   4.642
 5418SOL    HW117153   5.405   0.329   4.658
 5418SOL    HW217154   5.566   0.309   4.640
 5419SOL     OW17155   3.469   5.558   0.408
 5419SOL    HW117156   3.544   5.601   0.358
 5419SOL    HW217157   3.490   5.461   0.423
 5420SOL     OW17158   2.039   2.594   1.679
 5420SOL    HW117159   2.096   2.601   1.760
 5420SOL    HW217160   1.943   2.594   1.705
 5421SOL     OW17161   3.078   5.300   3.082
 5421SOL    HW117162   3.145   5.229   3.102
 5421SOL    HW217163   2.986   5.265   3.100
 5422SOL     OW17164   0.640   5.702   4.309
 5422SOL    HW117165   0.707   5.702   4.236
 5422SOL    HW217166   0.557   5.654   4.279
 5423SOL     OW17167   5.870   4.366   0.413
 5423SOL    HW117168   5.942   4.421   0.457
 5423SOL    HW217169   5.911   4.295   0.357
 5424SOL     OW17170   5.849   3.905   4.406
 5424SOL    HW117171   5.911   3.941   4.336
 5424SOL    HW217172   5.888   3.921   4.497
 5425SOL     OW17173   5.073   2.283   4.509
 5425SOL    HW117174   5.129   2.202   4.496
 5425SOL    HW217175   5.027   2.278   4.598
 5426SOL     OW17176   6.159   5.620   3.706
 5426SOL    HW117177   6.111   5.537   3.678
 5426SOL    HW217178   6.187   5.612   3.802
 5427SOL     OW17179   5.400   3.990   0.660
 5427SOL    HW117180   5.347   3.974   0.743
 5427SOL    HW217181   5.469   3.918   0.650
 5428SOL     OW17182   6.125   6.848   2.298
 5428SOL    HW117183   6.027   6.841   2.283
 5428SOL    HW217184   6.173   6.837   2.210
 5429SOL     OW17185   2.064   1.162   5.703
 5429SOL    HW117186   2.148   1.143   5.653
 5429SOL    HW217187   2.015   1.237   5.659
 5430SOL     OW17188   2.233   2.473   5.941
 5430SOL    HW117189   2.262   2.551   5.886
 5430SOL    HW217190   2.304   2.453   6.009
 5431SOL     OW17191   3.414   3.912   6.403
 5431SOL    HW117192   3.477   3.947   6.472
 5431SOL    HW217193   3.463   3.855   6.338
 5432SOL     OW17194   3.737   5.529   6.586
 5432SOL    HW117195   3.801   5.589   6.633
 5432SOL    HW217196   3.685   5.476   6.653
 5433SOL     OW17197   0.241   0.934   2.988
 5433SOL    HW117198   0.159   0.922   3.044
 5433SOL    HW217199   0.217   0.934   2.891
 5434SOL     OW17200   4.331   0.882   4.630
 5434SOL    HW117201   4.316   0.898   4.728
 5434SOL    HW217202   4.412   0.932   4.600
 5435SOL     OW17203   5.808   1.800   1.441
 5435SOL    HW117204   5.805   1.882   1.499
 5435SOL    HW217205   5.903   1.771   1.430
 5436SOL     OW17206   5.527   4.389   4.415
 5436SOL    HW117207   5.619   4.396   4.376
 5436SOL    HW217208   5.506   4.294   4.437
 5437SOL     OW17209   3.080   5.505   5.609
 5437SOL    HW117210   3.158   5.564   5.587
 5437SOL    HW217211   3.009   5.558   5.654
 5438SOL     OW17212   6.325   3.266   1.723
 5438SOL    HW117213   6.296   3.194   1.659
 5438SOL    HW217214   6.294   3.244   1.815
 5439SOL     OW17215   6.938   2.398   0.197
 5439SOL    HW117216   6.934   2.325   0.128
 5439SOL    HW217217   6.916   2.485   0.154
 5440SOL     OW17218   6.876   6.982   3.710
 5440SOL    HW117219   6.803   6.988   3.778
 5440SOL    HW217220   6.840   7.008   3.620
 5441SOL     OW17221   5.034   2.782   3.456
 5441SOL    HW117222   5.016   2.855   3.522
 5441SOL    HW217223   4.968   2.708   3.471
 5442SOL     OW17224   3.338   6.860   2.988
 5442SOL    HW117225   3.288   6.776   2.966
 5442SOL    HW217226   3.329   6.925   2.912
 5443SOL     OW17227   3.625   5.652   3.847
 5443SOL    HW117228   3.594   5.584   3.781
 5443SOL    HW217229   3.701   5.615   3.900
 5444SOL     OW17230   0.132   0.285   3.668
 5444SOL    HW117231   0.175   0.358   3.722
 5444SOL    HW217232   0.034   0.282   3.688
 5445SOL     OW17233   6.266   3.812   3.837
 5445SOL    HW117234   6.337   3.810   3.907
 5445SOL    HW217235   6.303   3.852   3.753
 5446SOL     OW17236   5.696   5.286   4.858
 5446SOL    HW117237   5.760   5.346   4.905
 5446SOL    HW217238   5.614   5.337   4.834
 5447SOL     OW17239   1.518   1.661   0.705
 5447SOL    HW117240   1.499   1.707   0.617
 5447SOL    HW217241   1.452   1.587   0.718
 5448SOL     OW17242   5.739   4.841   4.626
 5448SOL    HW117243   5.737   4.788   4.710
 5448SOL    HW217244   5.775   4.933   4.645
 5449SOL     OW17245   1.862   1.418   0.937
 5449SOL    HW117246   1.962   1.425   0.936
 5449SOL    HW217247   1.822   1.509   0.927
 5450SOL     OW17248   2.945   0.447   0.859
 5450SOL    HW117249   3.018   0.507   0.891
 5450SOL    HW217250   2.903   0.487   0.777
 5451SOL     OW17251   2.350   6.359   3.725
 5451SOL    HW117252   2.430   6.418   3.725
 5451SOL    HW217253   2.292   6.382   3.804
 5452SOL     OW17254   2.392   3.909   6.778
 5452SOL    HW117255   2.400   3.848   6.699
 5452SOL    HW217256   2.400   4.004   6.747
 5453SOL     OW17257   5.263   4.178   2.165
 5453SOL    HW117258   5.247   4.154   2.070
 5453SOL    HW217259   5.361   4.194   2.179
 5454SOL     OW17260   4.786   5.953   6.692
 5454SOL    HW117261   4.766   5.949   6.595
 5454SOL    HW217262   4.856   6.022   6.709
 5455SOL     OW17263   0.157   2.578   2.963
 5455SOL    HW117264   0.245   2.554   2.922
 5455SOL    HW217265   0.125   2.503   3.021
 5456SOL     OW17266   3.018   0.186   0.115
 5456SOL    HW117267   2.940   0.147   0.066
 5456SOL    HW217268   3.028   0.283   0.091
 5457SOL     OW17269   6.474   1.837   1.537
 5457SOL    HW117270   6.447   1.791   1.452
 5457SOL    HW217271   6.487   1.935   1.519
 5458SOL     OW17272   0.418   5.205   0.481
 5458SOL    HW117273   0.371   5.158   0.555
 5458SOL    HW217274   0.449   5.295   0.512
 5459SOL     OW17275   3.445   3.629   6.014
 5459SOL    HW117276   3.523   3.672   6.061
 5459SOL    HW217277   3.478   3.581   5.933
 5460SOL     OW17278   3.497   6.552   3.038
 5460SOL    HW117279   3.577   6.587   2.990
 5460SOL    HW217280   3.525   6.484   3.106
 5461SOL     OW17281   0.172   0.887   5.177
 5461SOL    HW117282   0.105   0.820   5.145
 5461SOL    HW217283   0.265   0.853   5.157
 5462SOL     OW17284   5.333   6.599   0.092
 5462SOL    HW117285   5.255   6.612   0.153
 5462SOL    HW217286   5.357   6.686   0.049
 5463SOL     OW17287   0.411   1.255   6.925
 5463SOL    HW117288   0.467   1.190   6.976
 5463SOL    HW217289   0.460   1.342   6.917
 5464SOL     OW17290   6.172   0.250   4.641
 5464SOL    HW117291   6.161   0.215   4.734
 5464SOL    HW217292   6.098   0.315   4.621
 5465SOL     OW17293   5.260   0.854   4.422
 5465SOL    HW117294   5.311   0.913   4.360
 5465SOL    HW217295   5.218   0.779   4.372
 5466SOL     OW17296   5.108   2.944   5.245
 5466SOL    HW117297   5.096   2.990   5.333
 5466SOL    HW217298   5.206   2.943   5.222
 5467SOL     OW17299   5.522   3.741   3.602
 5467SOL    HW117300   5.591   3.705   3.540
 5467SOL    HW217301   5.457   3.797   3.551
 5468SOL     OW17302   6.303   2.298   4.463
 5468SOL    HW117303   6.331   2.294   4.559
 5468SOL    HW217304   6.353   2.229   4.411
 5469SOL     OW17305   3.074   6.445   5.751
 5469SOL    HW117306   3.026   6.529   5.726
 5469SOL    HW217307   3.068   6.432   5.850
 5470SOL     OW17308   3.523   5.454   3.695
 5470SOL    HW117309   3.586   5.461   3.618
 5470SOL    HW217310   3.449   5.520   3.683
 5471SOL     OW17311   6.118   0.507   3.478
 5471SOL    HW117312   6.035   0.515   3.422
 5471SOL    HW217313   6.173   0.589   3.467
 5472SOL     OW17314   3.146   3.578   6.042
 5472SOL    HW117315   3.109   3.493   6.004
 5472SOL    HW217316   3.246   3.574   6.040
 5473SOL     OW17317   1.541   3.340   1.725
 5473SOL    HW117318   1.504   3.314   1.813
 5473SOL    HW217319   1.502   3.428   1.696
 5474SOL     OW17320   1.064   4.162   4.350
 5474SOL    HW117321   1.130   4.176   4.424
 5474SOL    HW217322   1.036   4.250   4.312
 5475SOL     OW17323   1.890   2.212   0.954
 5475SOL    HW117324   1.868   2.245   1.046
 5475SOL    HW217325   1.984   2.236   0.932
 5476SOL     OW17326   1.983   4.781   5.130
 5476SOL    HW117327   2.067   4.754   5.083
 5476SOL    HW217328   1.930   4.700   5.154
 5477SOL     OW17329   2.286   4.170   2.403
 5477SOL    HW117330   2.257   4.249   2.457
 5477SOL    HW217331   2.210   4.106   2.393
 5478SOL     OW17332   3.175   6.302   4.892
 5478SOL    HW117333   3.085   6.300   4.848
 5478SOL    HW217334   3.246   6.302   4.822
 5479SOL     OW17335   5.521   1.687   5.937
 5479SOL    HW117336   5.544   1.614   6.002
 5479SOL    HW217337   5.605   1.732   5.906
 5480SOL     OW17338   5.925   6.001   3.849
 5480SOL    HW117339   5.914   5.945   3.931
 5480SOL    HW217340   5.837   6.038   3.822
 5481SOL     OW17341   4.476   1.059   4.459
 5481SOL    HW117342   4.522   1.147   4.443
 5481SOL    HW217343   4.386   1.075   4.498
 5482SOL     OW17344   3.600   4.321   1.416
 5482SOL    HW117345   3.609   4.359   1.509
 5482SOL    HW217346   3.548   4.236   1.420
 5483SOL     OW17347   7.012   2.735   5.521
 5483SOL    HW117348   0.063   2.712   5.455
 5483SOL    HW217349   6.925   2.693   5.493
 5484SOL     OW17350   4.140   1.112   3.500
 5484SOL    HW117351   4.200   1.138   3.424
 5484SOL    HW217352   4.191   1.057   3.566
 5485SOL     OW17353   3.866   6.977   4.604
 5485SOL    HW117354   3.788   0.015   4.628
 5485SOL    HW217355   3.912   6.947   4.688
 5486SOL     OW17356   2.057   5.971   5.328
 5486SOL    HW117357   2.013   6.030   5.260
 5486SOL    HW217358   2.090   5.888   5.283
 5487SOL     OW17359   5.488   3.405   6.910
 5487SOL    HW117360   5.402   3.433   6.866
 5487SOL    HW217361   5.560   3.468   6.883
 5488SOL     OW17362   6.056   0.577   0.819
 5488SOL    HW117363   6.054   0.651   0.751
 5488SOL    HW217364   5.975   0.519   0.807
 5489SOL     OW17365   0.793   3.980   1.716
 5489SOL    HW117366   0.807   4.075   1.686
 5489SOL    HW217367   0.760   3.925   1.639
 5490SOL     OW17368   3.110   6.821   0.995
 5490SOL    HW117369   3.147   6.787   0.908
 5490SOL    HW217370   3.152   6.909   1.017
 5491SOL     OW17371   1.795   3.979   0.835
 5491SOL    HW117372   1.778   3.940   0.926
 5491SOL    HW217373   1.888   3.956   0.806
 5492SOL     OW17374   6.726   3.163   6.044
 5492SOL    HW117375   6.713   3.154   6.143
 5492SOL    HW217376   6.645   3.207   6.004
 5493SOL     OW17377   3.425   4.171   4.208
 5493SOL    HW117378   3.442   4.073   4.200
 5493SOL    HW217379   3.354   4.187   4.277
 5494SOL     OW17380   6.508   2.913   6.135
 5494SOL    HW117381   6.468   2.916   6.043
 5494SOL    HW217382   6.435   2.910   6.203
 5495SOL     OW17383   3.271   1.681   0.690
 5495SOL    HW117384   3.227   1.632   0.615
 5495SOL    HW217385   3.369   1.692   0.670
 5496SOL     OW17386   3.519   0.884   3.547
 5496SOL    HW117387   3.556   0.791   3.547
 5496SOL    HW217388   3.464   0.897   3.630
 5497SOL     OW17389   0.249   2.187   4.161
 5497SOL    HW117390   0.249   2.116   4.232
 5497SOL    HW217391   0.155   2.209   4.136
 5498SOL     OW17392   6.416   6.334   1.008
 5498SOL    HW117393   6.430   6.428   1.037
 5498SOL    HW217394   6.320   6.309   1.022
 5499SOL     OW17395   0.587   0.456   4.836
 5499SOL    HW117396   0.581   0.537   4.895
 5499SOL    HW217397   0.620   0.378   4.890
 5500SOL     OW17398   1.178   0.522   0.555
 5500SOL    HW117399   1.147   0.613   0.581
 5500SOL    HW217400   1.243   0.529   0.479
 5501SOL     OW17401   3.325   0.516   0.489
 5501SOL    HW117402   3.400   0.566   0.445
 5501SOL    HW217403   3.335   0.418   0.471
 5502SOL     OW17404   5.304   3.304   0.396
 5502SOL    HW117405   5.294   3.286   0.298
 5502SOL    HW217406   5.236   3.372   0.425
 5503SOL     OW17407   0.772   4.792   2.307
 5503SOL    HW117408   0.724   4.732   2.244
 5503SOL    HW217409   0.715   4.872   2.327
 5504SOL     OW17410   4.236   0.775   5.127
 5504SOL    HW117411   4.202   0.755   5.035
 5504SOL    HW217412   4.220   0.872   5.148
 5505SOL     OW17413   2.305   5.007   4.457
 5505SOL    HW117414   2.344   4.929   4.506
 5505SOL    HW217415   2.227   5.042   4.508
 5506SOL     OW17416   1.118   2.165   0.135
 5506SOL    HW117417   1.197   2.214   0.171
 5506SOL    HW217418   1.147   2.105   0.060
 5507SOL     OW17419   3.788   1.073   4.517
 5507SOL    HW117420   3.833   1.060   4.429
 5507SOL    HW217421   3.735   0.991   4.540
 5508SOL     OW17422   1.579   1.160   6.185
 5508SOL    HW117423   1.588   1.150   6.284
 5508SOL    HW217424   1.554   1.072   6.145
 5509SOL     OW17425   0.135   6.577   6.851
 5509SOL    HW117426   0.114   6.620   6.939
 5509SOL    HW217427   0.085   6.624   6.779
 5510SOL     OW17428   4.616   5.295   6.731
 5510SOL    HW117429   4.641   5.390   6.751
 5510SOL    HW217430   4.691   5.235   6.759
 5511SOL     OW17431   2.257   1.487   3.857
 5511SOL    HW117432   2.199   1.422   3.907
 5511SOL    HW217433   2.203   1.567   3.833
 5512SOL     OW17434   5.474   2.238   1.271
 5512SOL    HW117435   5.533   2.173   1.223
 5512SOL    HW217436   5.379   2.207   1.263
 5513SOL     OW17437   4.489   4.494   6.392
 5513SOL    HW117438   4.442   4.557   6.329
 5513SOL    HW217439   4.424   4.461   6.460
 5514SOL     OW17440   4.119   6.864   4.234
 5514SOL    HW117441   4.124   6.777   4.185
 5514SOL    HW217442   4.043   6.862   4.299
 5515SOL     OW17443   1.039   5.815   2.006
 5515SOL    HW117444   0.988   5.901   2.006
 5515SOL    HW217445   0.983   5.744   1.961
 5516SOL     OW17446   1.873   4.142   6.194
 5516SOL    HW117447   1.836   4.144   6.286
 5516SOL    HW217448   1.962   4.096   6.195
 5517SOL     OW17449   2.175   2.977   1.828
 5517SOL    HW117450   2.079   2.998   1.808
 5517SOL    HW217451   2.230   3.060   1.815
 5518SOL     OW17452   5.678   6.468   6.562
 5518SOL    HW117453   5.618   6.506   6.492
 5518SOL    HW217454   5.767   6.449   6.523
 5519SOL     OW17455   5.649   3.513   3.509
 5519SOL    HW117456   5.724   3.519   3.443
 5519SOL    HW217457   5.683   3.476   3.595
 5520SOL     OW17458   5.789   6.391   2.451
 5520SOL    HW117459   5.860   6.320   2.453
 5520SOL    HW217460   5.832   6.481   2.446
 5521SOL     OW17461   5.522   5.921   1.716
 5521SOL    HW117462   5.445   5.869   1.679
 5521SOL    HW217463   5.608   5.873   1.695
 5522SOL     OW17464   6.739   5.209   0.312
 5522SOL    HW117465   6.669   5.173   0.251
 5522SOL    HW217466   6.708   5.295   0.351
 5523SOL     OW17467   3.878   0.804   1.992
 5523SOL    HW117468   3.818   0.765   2.062
 5523SOL    HW217469   3.889   0.901   2.008
 5524SOL     OW17470   5.469   0.120   4.823
 5524SOL    HW117471   5.380   0.106   4.779
 5524SOL    HW217472   5.459   0.179   4.903
 5525SOL     OW17473   0.058   1.750   1.229
 5525SOL    HW117474   7.000   1.687   1.228
 5525SOL    HW217475   0.092   1.763   1.136
 5526SOL     OW17476   4.706   5.753   3.801
 5526SOL    HW117477   4.703   5.844   3.759
 5526SOL    HW217478   4.631   5.745   3.866
 5527SOL     OW17479   4.845   3.701   4.014
 5527SOL    HW117480   4.840   3.603   4.033
 5527SOL    HW217481   4.760   3.746   4.042
 5528SOL     OW17482   1.630   1.233   6.735
 5528SOL    HW117483   1.633   1.272   6.643
 5528SOL    HW217484   1.592   1.301   6.798
 5529SOL     OW17485   3.023   6.831   3.473
 5529SOL    HW117486   3.064   6.742   3.491
 5529SOL    HW217487   3.090   6.903   3.490
 5530SOL     OW17488   5.543   2.179   1.829
 5530SOL    HW117489   5.463   2.237   1.837
 5530SOL    HW217490   5.579   2.183   1.736
 5531SOL     OW17491   3.253   3.688   2.180
 5531SOL    HW117492   3.248   3.787   2.169
 5531SOL    HW217493   3.348   3.658   2.167
 5532SOL     OW17494   1.866   3.032   0.440
 5532SOL    HW117495   1.859   3.079   0.352
 5532SOL    HW217496   1.942   3.070   0.492
 5533SOL     OW17497   3.392   1.733   3.109
 5533SOL    HW117498   3.342   1.818   3.116
 5533SOL    HW217499   3.442   1.716   3.194
 5534SOL     OW17500   0.260   1.199   6.423
 5534SOL    HW117501   0.203   1.281   6.417
 5534SOL    HW217502   0.223   1.137   6.493
 5535SOL     OW17503   0.032   2.949   3.372
 5535SOL    HW117504   0.124   2.943   3.333
 5535SOL    HW217505   6.984   2.927   3.301
 5536SOL     OW17506   3.207   1.190   4.346
 5536SOL    HW117507   3.248   1.281   4.353
 5536SOL    HW217508   3.216   1.156   4.252
 5537SOL     OW17509   2.939   0.734   2.555
 5537SOL    HW117510   2.860   0.701   2.607
 5537SOL    HW217511   2.907   0.795   2.483
 5538SOL     OW17512   2.416   5.963   5.977
 5538SOL    HW117513   2.487   6.013   5.928
 5538SOL    HW217514   2.362   5.909   5.912
 5539SOL     OW17515   1.333   3.322   1.254
 5539SOL    HW117516   1.319   3.246   1.191
 5539SOL    HW217517   1.266   3.317   1.328
 5540SOL     OW17518   4.890   4.506   3.452
 5540SOL    HW117519   4.801   4.465   3.432
 5540SOL    HW217520   4.926   4.551   3.370
 5541SOL     OW17521   5.998   0.441   6.100
 5541SOL    HW117522   6.073   0.484   6.149
 5541SOL    HW217523   5.911   0.462   6.146
 5542SOL     OW17524   5.457   3.872   6.187
 5542SOL    HW117525   5.449   3.782   6.231
 5542SOL    HW217526   5.424   3.866   6.093
 5543SOL     OW17527   4.039   4.772   5.641
 5543SOL    HW117528   4.092   4.713   5.703
 5543SOL    HW217529   4.015   4.856   5.688
 5544SOL     OW17530   4.830   5.954   6.124
 5544SOL    HW117531   4.882   5.973   6.207
 5544SOL    HW217532   4.886   5.976   6.044
 5545SOL     OW17533   3.860   1.071   2.067
 5545SOL    HW117534   3.814   1.125   1.996
 5545SOL    HW217535   3.910   1.133   2.128
 5546SOL     OW17536   0.977   5.035   4.706
 5546SOL    HW117537   1.052   4.980   4.672
 5546SOL    HW217538   0.959   5.111   4.644
 5547SOL     OW17539   2.527   6.965   5.164
 5547SOL    HW117540   2.587   0.011   5.119
 5547SOL    HW217541   2.448   6.946   5.105
 5548SOL     OW17542   5.803   3.012   4.840
 5548SOL    HW117543   5.728   2.970   4.789
 5548SOL    HW217544   5.845   2.942   4.899
 5549SOL     OW17545   4.441   4.089   6.338
 5549SOL    HW117546   4.446   3.990   6.346
 5549SOL    HW217547   4.533   4.126   6.320
 5550SOL     OW17548   2.723   5.255   1.879
 5550SOL    HW117549   2.660   5.300   1.943
 5550SOL    HW217550   2.784   5.193   1.930
 5551SOL     OW17551   2.312   0.882   3.209
 5551SOL    HW117552   2.223   0.905   3.250
 5551SOL    HW217553   2.357   0.812   3.264
 5552SOL     OW17554   6.623   0.605   0.028
 5552SOL    HW117555   6.707   0.641   0.068
 5552SOL    HW217556   6.635   0.593   6.949
 5553SOL     OW17557   4.602   6.639   7.006
 5553SOL    HW117558   4.645   6.682   6.926
 5553SOL    HW217559   4.592   6.541   6.989
 5554SOL     OW17560   3.926   1.081   5.342
 5554SOL    HW117561   3.861   1.143   5.299
 5554SOL    HW217562   4.001   1.060   5.279
 5555SOL     OW17563   0.992   4.434   4.285
 5555SOL    HW117564   0.900   4.434   4.325
 5555SOL    HW217565   1.015   4.525   4.251
 5556SOL     OW17566   6.790   2.267   3.913
 5556SOL    HW117567   6.757   2.253   3.820
 5556SOL    HW217568   6.712   2.276   3.975
 5557SOL     OW17569   3.482   6.078   3.148
 5557SOL    HW117570   3.581   6.089   3.142
 5557SOL    HW217571   3.443   6.075   3.056
 5558SOL     OW17572   4.941   3.431   6.622
 5558SOL    HW117573   5.022   3.488   6.615
 5558SOL    HW217574   4.859   3.487   6.616
 5559SOL     OW17575   2.965   6.889   2.006
 5559SOL    HW117576   2.876   6.928   1.980
 5559SOL    HW217577   2.982   6.909   2.102
 5560SOL     OW17578   0.859   6.748   3.441
 5560SOL    HW117579   0.898   6.657   3.454
 5560SOL    HW217580   0.861   6.772   3.343
 5561SOL     OW17581   2.034   2.765   4.245
 5561SOL    HW117582   2.098   2.840   4.225
 5561SOL    HW217583   1.951   2.802   4.287
 5562SOL     OW17584   2.772   2.399   6.650
 5562SOL    HW117585   2.828   2.442   6.721
 5562SOL    HW217586   2.830   2.367   6.576
 5563SOL     OW17587   4.506   6.232   2.833
 5563SOL    HW117588   4.482   6.258   2.740
 5563SOL    HW217589   4.563   6.150   2.831
 5564SOL     OW17590   4.243   1.519   1.750
 5564SOL    HW117591   4.238   1.616   1.773
 5564SOL    HW217592   4.206   1.465   1.825
 5565SOL     OW17593   5.196   1.810   6.681
 5565SOL    HW117594   5.116   1.797   6.740
 5565SOL    HW217595   5.166   1.819   6.586
 5566SOL     OW17596   1.590   5.171   0.552
 5566SOL    HW117597   1.673   5.201   0.598
 5566SOL    HW217598   1.596   5.073   0.533
 5567SOL     OW17599   0.694   4.502   1.874
 5567SOL    HW117600   0.705   4.515   1.972
 5567SOL    HW217601   0.632   4.426   1.856
 5568SOL     OW17602   4.406   2.472   2.905
 5568SOL    HW117603   4.401   2.554   2.962
 5568SOL    HW217604   4.480   2.483   2.838
 5569SOL     OW17605   2.593   1.015   1.731
 5569SOL    HW117606   2.621   0.919   1.725
 5569SOL    HW217607   2.649   1.070   1.670
 5570SOL     OW17608   5.395   5.204   4.963
 5570SOL    HW117609   5.417   5.177   5.057
 5570SOL    HW217610   5.418   5.129   4.901
 5571SOL     OW17611   0.685   6.700   0.291
 5571SOL    HW117612   0.636   6.786   0.308
 5571SOL    HW217613   0.650   6.658   0.208
 5572SOL     OW17614   1.847   2.697   5.395
 5572SOL    HW117615   1.800   2.614   5.365
 5572SOL    HW217616   1.914   2.725   5.326
 5573SOL     OW17617   2.151   3.201   6.993
 5573SOL    HW117618   2.189   3.121   0.019
 5573SOL    HW217619   2.194   3.284   0.011
 5574SOL     OW17620   6.108   1.426   4.096
 5574SOL    HW117621   6.139   1.515   4.061
 5574SOL    HW217622   6.035   1.391   4.038
 5575SOL     OW17623   0.676   1.452   1.775
 5575SOL    HW117624   0.605   1.503   1.727
 5575SOL    HW217625   0.670   1.355   1.751
 5576SOL     OW17626   0.137   6.261   1.871
 5576SOL    HW117627   0.194   6.180   1.885
 5576SOL    HW217628   0.044   6.241   1.904
 5577SOL     OW17629   2.792   2.575   6.215
 5577SOL    HW117630   2.759   2.669   6.206
 5577SOL    HW217631   2.718   2.517   6.247
 5578SOL     OW17632   4.571   3.712   0.697
 5578SOL    HW117633   4.484   3.687   0.740
 5578SOL    HW217634   4.553   3.761   0.612
 5579SOL     OW17635   6.411   3.904   6.752
 5579SOL    HW117636   6.354   3.970   6.801
 5579SOL    HW217637   6.491   3.951   6.714
 5580SOL     OW17638   4.812   1.973   6.288
 5580SOL    HW117639   4.796   2.038   6.363
 5580SOL    HW217640   4.754   1.892   6.302
 5581SOL     OW17641   2.133   0.116   1.054
 5581SOL    HW117642   2.105   0.198   1.003
 5581SOL    HW217643   2.052   0.068   1.087
 5582SOL     OW17644   3.537   3.158   3.612
 5582SOL    HW117645   3.446   3.136   3.578
 5582SOL    HW217646   3.604   3.096   3.571
 5583SOL     OW17647   3.914   6.623   2.743
 5583SOL    HW117648   3.986   6.659   2.803
 5583SOL    HW217649   3.940   6.637   2.648
 5584SOL     OW17650   5.703   3.898   4.694
 5584SOL    HW117651   5.792   3.944   4.689
 5584SOL    HW217652   5.716   3.800   4.677
 5585SOL     OW17653   4.709   0.435   3.972
 5585SOL    HW117654   4.753   0.374   3.906
 5585SOL    HW217655   4.618   0.460   3.939
 5586SOL     OW17656   1.161   2.344   6.748
 5586SOL    HW117657   1.226   2.275   6.780
 5586SOL    HW217658   1.205   2.434   6.748
 5587SOL     OW17659   4.651   6.376   2.245
 5587SOL    HW117660   4.582   6.428   2.295
 5587SOL    HW217661   4.611   6.341   2.160
 5588SOL     OW17662   1.394   6.901   3.801
 5588SOL    HW117663   1.467   6.841   3.769
 5588SOL    HW217664   1.344   6.938   3.722
 5589SOL     OW17665   5.506   3.149   6.547
 5589SOL    HW117666   5.473   3.077   6.609
 5589SOL    HW217667   5.465   3.236   6.572
 5590SOL     OW17668   0.216   5.400   3.075
 5590SOL    HW117669   0.237   5.421   3.171
 5590SOL    HW217670   0.138   5.337   3.072
 5591SOL     OW17671   5.918   0.942   6.639
 5591SOL    HW117672   5.896   0.844   6.643
 5591SOL    HW217673   5.834   0.995   6.650
 5592SOL     OW17674   2.248   4.651   2.857
 5592SOL    HW117675   2.224   4.716   2.786
 5592SOL    HW217676   2.347   4.648   2.867
 5593SOL     OW17677   6.650   2.321   5.775
 5593SOL    HW117678   6.590   2.401   5.781
 5593SOL    HW217679   6.603   2.247   5.726
 5594SOL     OW17680   2.636   1.320   6.774
 5594SOL    HW117681   2.707   1.383   6.742
 5594SOL    HW217682   2.654   1.297   6.870
 5595SOL     OW17683   6.264   1.103   5.131
 5595SOL    HW117684   6.361   1.120   5.114
 5595SOL    HW217685   6.241   1.010   5.102
 5596SOL     OW17686   5.021   0.187   1.996
 5596SOL    HW117687   5.018   0.285   2.015
 5596SOL    HW217688   5.069   0.172   1.909
 5597SOL     OW17689   5.692   2.142   4.911
 5597SOL    HW117690   5.757   2.182   4.846
 5597SOL    HW217691   5.632   2.077   4.863
 5598SOL     OW17692   5.043   2.589   3.795
 5598SOL    HW117693   5.076   2.503   3.834
 5598SOL    HW217694   5.001   2.571   3.706
 5599SOL     OW17695   6.310   3.378   2.076
 5599SOL    HW117696   6.325   3.475   2.055
 5599SOL    HW217697   6.341   3.359   2.169
 5600SOL     OW17698   1.725   0.014   2.694
 5600SOL    HW117699   1.659   0.083   2.723
 5600SOL    HW217700   1.736   0.018   2.594
 5601SOL     OW17701   4.448   2.292   6.063
 5601SOL    HW117702   4.444   2.318   5.966
 5601SOL    HW217703   4.535   2.246   6.081
 5602SOL     OW17704   0.106   0.921   2.741
 5602SOL    HW117705   0.077   0.840   2.689
 5602SOL    HW217706   0.111   1.000   2.680
 5603SOL     OW17707   5.125   2.321   5.220
 5603SOL    HW117708   5.027   2.302   5.226
 5603SOL    HW217709   5.144   2.376   5.139
 5604SOL     OW17710   0.669   2.128   4.560
 5604SOL    HW117711   0.762   2.158   4.580
 5604SOL    HW217712   0.610   2.146   4.639
 5605SOL     OW17713   1.492   6.991   5.141
 5605SOL    HW117714   1.554   6.955   5.071
 5605SOL    HW217715   1.524   0.062   5.170
 5606SOL     OW17716   4.300   0.784   0.439
 5606SOL    HW117717   4.337   0.692   0.448
 5606SOL    HW217718   4.372   0.851   0.458
 5607SOL     OW17719   5.180   2.322   3.908
 5607SOL    HW117720   5.184   2.301   3.810
 5607SOL    HW217721   5.097   2.281   3.947
 5608SOL     OW17722   5.834   1.464   3.381
 5608SOL    HW117723   5.737   1.469   3.405
 5608SOL    HW217724   5.849   1.506   3.291
 5609SOL     OW17725   4.907   5.791   0.143
 5609SOL    HW117726   4.854   5.717   0.103
 5609SOL    HW217727   4.982   5.815   0.082
 5610SOL     OW17728   5.947   3.951   1.240
 5610SOL    HW117729   6.044   3.933   1.250
 5610SOL    HW217730   5.906   3.967   1.329
 5611SOL     OW17731   0.762   5.074   2.186
 5611SOL    HW117732   0.727   5.034   2.271
 5611SOL    HW217733   0.690   5.128   2.142
 5612SOL     OW17734   3.341   2.892   0.807
 5612SOL    HW117735   3.334   2.989   0.831
 5612SOL    HW217736   3.257   2.846   0.833
 5613SOL     OW17737   6.969   4.770   5.401
 5613SOL    HW117738   6.881   4.762   5.448
 5613SOL    HW217739   6.961   4.834   5.325
 5614SOL     OW17740   5.980   2.753   4.630
 5614SOL    HW117741   5.931   2.687   4.573
 5614SOL    HW217742   5.999   2.835   4.576
 5615SOL     OW17743   0.276   1.211   3.092
 5615SOL    HW117744   0.314   1.263   3.016
 5615SOL    HW217745   0.256   1.118   3.062
 5616SOL     OW17746   2.294   2.751   4.912
 5616SOL    HW117747   2.246   2.680   4.963
 5616SOL    HW217748   2.311   2.829   4.972
 5617SOL     OW17749   1.738   3.881   5.017
 5617SOL    HW117750   1.835   3.856   5.021
 5617SOL    HW217751   1.704   3.870   4.924
 5618SOL     OW17752   6.616   4.905   3.223
 5618SOL    HW117753   6.550   4.969   3.262
 5618SOL    HW217754   6.573   4.854   3.148
 5619SOL     OW17755   3.609   3.308   3.268
 5619SOL    HW117756   3.698   3.303   3.313
 5619SOL    HW217757   3.605   3.238   3.196
 5620SOL     OW17758   4.893   3.858   6.462
 5620SOL    HW117759   4.934   3.868   6.372
 5620SOL    HW217760   4.834   3.777   6.464
 5621SOL     OW17761   1.131   3.015   6.385
 5621SOL    HW117762   1.101   2.919   6.379
 5621SOL    HW217763   1.069   3.065   6.445
 5622SOL     OW17764   5.119   6.532   5.395
 5622SOL    HW117765   5.076   6.620   5.415
 5622SOL    HW217766   5.208   6.527   5.441
 5623SOL     OW17767   4.787   6.088   5.452
 5623SOL    HW117768   4.747   6.043   5.371
 5623SOL    HW217769   4.715   6.107   5.519
 5624SOL     OW17770   0.774   5.028   3.791
 5624SOL    HW117771   0.737   4.972   3.866
 5624SOL    HW217772   0.870   5.004   3.776
 5625SOL     OW17773   0.355   4.831   5.281
 5625SOL    HW117774   0.399   4.743   5.261
 5625SOL    HW217775   0.424   4.895   5.314
 5626SOL     OW17776   2.746   5.421   4.686
 5626SOL    HW117777   2.711   5.327   4.691
 5626SOL    HW217778   2.728   5.458   4.595
 5627SOL     OW17779   0.215   5.784   6.076
 5627SOL    HW117780   0.186   5.690   6.057
 5627SOL    HW217781   0.314   5.786   6.092
 5628SOL     OW17782   2.660   2.580   1.322
 5628SOL    HW117783   2.718   2.541   1.251
 5628SOL    HW217784   2.716   2.605   1.401
 5629SOL     OW17785   4.569   2.691   1.453
 5629SOL    HW117786   4.552   2.733   1.542
 5629SOL    HW217787   4.572   2.762   1.382
 5630SOL     OW17788   1.744   3.793   6.202
 5630SOL    HW117789   1.813   3.865   6.199
 5630SOL    HW217790   1.789   3.704   6.188
 5631SOL     OW17791   5.500   1.595   1.187
 5631SOL    HW117792   5.438   1.609   1.264
 5631SOL    HW217793   5.459   1.633   1.104
 5632SOL     OW17794   5.340   2.006   5.174
 5632SOL    HW117795   5.369   2.101   5.160
 5632SOL    HW217796   5.257   2.004   5.230
 5633SOL     OW17797   6.689   5.267   4.786
 5633SOL    HW117798   6.621   5.308   4.726
 5633SOL    HW217799   6.644   5.212   4.856
 5634SOL     OW17800   2.224   4.725   3.908
 5634SOL    HW117801   2.269   4.779   3.980
 5634SOL    HW217802   2.293   4.673   3.858
 5635SOL     OW17803   2.664   6.213   6.980
 5635SOL    HW117804   2.666   6.114   6.983
 5635SOL    HW217805   2.668   6.250   0.054
 5636SOL     OW17806   6.212   0.834   5.515
 5636SOL    HW117807   6.255   0.768   5.454
 5636SOL    HW217808   6.131   0.872   5.472
 5637SOL     OW17809   4.346   6.950   3.599
 5637SOL    HW117810   4.399   6.927   3.681
 5637SOL    HW217811   4.250   6.965   3.626
 5638SOL     OW17812   6.359   5.348   0.916
 5638SOL    HW117813   6.329   5.361   0.822
 5638SOL    HW217814   6.281   5.321   0.973
 5639SOL     OW17815   2.103   0.646   1.596
 5639SOL    HW117816   2.182   0.652   1.657
 5639SOL    HW217817   2.119   0.577   1.526
 5640SOL     OW17818   3.058   6.967   2.243
 5640SOL    HW117819   2.996   7.010   2.308
 5640SOL    HW217820   3.127   6.914   2.293
 5641SOL     OW17821   6.930   4.910   6.111
 5641SOL    HW117822   7.014   4.898   6.164
 5641SOL    HW217823   6.950   4.904   6.013
 5642SOL     OW17824   1.264   5.066   5.306
 5642SOL    HW117825   1.276   5.005   5.384
 5642SOL    HW217826   1.226   5.154   5.337
 5643SOL     OW17827   3.938   0.891   4.759
 5643SOL    HW117828   3.846   0.922   4.782
 5643SOL    HW217829   3.952   0.895   4.660
 5644SOL     OW17830   3.951   0.451   3.812
 5644SOL    HW117831   3.904   0.503   3.741
 5644SOL    HW217832   3.900   0.368   3.832
 5645SOL     OW17833   6.350   4.184   2.980
 5645SOL    HW117834   6.323   4.095   2.943
 5645SOL    HW217835   6.410   4.170   3.059
 5646SOL     OW17836   2.262   5.737   3.287
 5646SOL    HW117837   2.310   5.717   3.373
 5646SOL    HW217838   2.163   5.743   3.306
 5647SOL     OW17839   6.412   6.343   0.231
 5647SOL    HW117840   6.398   6.414   0.163
 5647SOL    HW217841   6.442   6.384   0.317
 5648SOL     OW17842   1.755   1.320   2.695
 5648SOL    HW117843   1.797   1.236   2.728
 5648SOL    HW217844   1.802   1.350   2.612
 5649SOL     OW17845   0.093   6.692   5.761
 5649SOL    HW117846   0.040   6.660   5.682
 5649SOL    HW217847   0.189   6.700   5.734
 5650SOL     OW17848   0.693   5.796   0.888
 5650SOL    HW117849   0.670   5.804   0.790
 5650SOL    HW217850   0.654   5.712   0.924
 5651SOL     OW17851   0.657   1.188   1.712
 5651SOL    HW117852   0.666   1.109   1.771
 5651SOL    HW217853   0.560   1.204   1.690
 5652SOL     OW17854   5.602   6.442   2.283
 5652SOL    HW117855   5.635   6.500   2.209
 5652SOL    HW217856   5.681   6.408   2.336
 5653SOL     OW17857   0.372   6.086   6.534
 5653SOL    HW117858   0.468   6.099   6.556
 5653SOL    HW217859   0.326   6.175   6.528
 5654SOL     OW17860   6.554   6.709   5.366
 5654SOL    HW117861   6.542   6.804   5.337
 5654SOL    HW217862   6.497   6.690   5.446
 5655SOL     OW17863   1.006   3.418   4.815
 5655SOL    HW117864   1.075   3.378   4.756
 5655SOL    HW217865   0.916   3.380   4.792
 5656SOL     OW17866   1.523   3.238   0.214
 5656SOL    HW117867   1.575   3.322   0.230
 5656SOL    HW217868   1.549   3.199   0.126
 5657SOL     OW17869   5.599   0.766   1.064
 5657SOL    HW117870   5.531   0.813   1.008
 5657SOL    HW217871   5.557   0.735   1.150
 5658SOL     OW17872   3.208   5.508   5.939
 5658SOL    HW117873   3.223   5.414   5.968
 5658SOL    HW217874   3.271   5.530   5.864
 5659SOL     OW17875   3.998   3.894   3.390
 5659SOL    HW117876   3.961   3.881   3.482
 5659SOL    HW217877   3.997   3.991   3.367
 5660SOL     OW17878   5.789   0.193   5.661
 5660SOL    HW117879   5.724   0.237   5.722
 5660SOL    HW217880   5.881   0.229   5.677
 5661SOL     OW17881   0.024   4.002   5.540
 5661SOL    HW117882   6.970   4.047   5.489
 5661SOL    HW217883   0.047   4.056   5.621
 5662SOL     OW17884   2.914   5.538   3.243
 5662SOL    HW117885   2.964   5.503   3.165
 5662SOL    HW217886   2.851   5.467   3.277
 5663SOL     OW17887   2.129   3.177   6.585
 5663SOL    HW117888   2.214   3.224   6.607
 5663SOL    HW217889   2.128   3.088   6.630
 5664SOL     OW17890   6.884   4.282   4.457
 5664SOL    HW117891   6.849   4.257   4.367
 5664SOL    HW217892   6.876   4.381   4.470
 5665SOL     OW17893   1.294   2.096   6.735
 5665SOL    HW117894   1.335   2.039   6.664
 5665SOL    HW217895   1.365   2.144   6.786
 5666SOL     OW17896   5.882   5.784   1.003
 5666SOL    HW117897   5.893   5.686   0.986
 5666SOL    HW217898   5.880   5.832   0.916
 5667SOL     OW17899   1.257   4.311   3.531
 5667SOL    HW117900   1.282   4.220   3.564
 5667SOL    HW217901   1.229   4.367   3.609
 5668SOL     OW17902   5.101   1.714   5.017
 5668SOL    HW117903   5.183   1.670   5.053
 5668SOL    HW217904   5.110   1.813   5.022
 5669SOL     OW17905   0.864   2.719   0.054
 5669SOL    HW117906   0.884   2.745   0.149
 5669SOL    HW217907   0.814   2.794   0.009
 5670SOL     OW17908   0.181   2.398   3.688
 5670SOL    HW117909   0.265   2.424   3.736
 5670SOL    HW217910   0.165   2.300   3.701
 5671SOL     OW17911   0.629   6.276   6.340
 5671SOL    HW117912   0.672   6.362   6.365
 5671SOL    HW217913   0.617   6.219   6.421
 5672SOL     OW17914   4.297   4.492   6.587
 5672SOL    HW117915   4.296   4.592   6.584
 5672SOL    HW217916   4.203   4.459   6.596
 5673SOL     OW17917   0.851   6.083   1.879
 5673SOL    HW117918   0.939   6.118   1.848
 5673SOL    HW217919   0.790   6.159   1.901
 5674SOL     OW17920   6.536   4.298   4.020
 5674SOL    HW117921   6.544   4.325   3.924
 5674SOL    HW217922   6.590   4.359   4.077
 5675SOL     OW17923   4.721   2.533   5.779
 5675SOL    HW117924   4.712   2.598   5.855
 5675SOL    HW217925   4.818   2.514   5.763
 5676SOL     OW17926   2.066   2.145   2.577
 5676SOL    HW117927   2.134   2.180   2.641
 5676SOL    HW217928   1.987   2.110   2.627
 5677SOL     OW17929   0.633   2.145   3.152
 5677SOL    HW117930   0.679   2.142   3.063
 5677SOL    HW217931   0.576   2.063   3.164
 5678SOL     OW17932   3.244   6.368   2.623
 5678SOL    HW117933   3.268   6.458   2.660
 5678SOL    HW217934   3.148   6.348   2.644
 5679SOL     OW17935   1.452   0.806   3.493
 5679SOL    HW117936   1.513   0.878   3.462
 5679SOL    HW217937   1.479   0.719   3.452
 5680SOL     OW17938   1.217   5.511   0.717
 5680SOL    HW117939   1.131   5.552   0.748
 5680SOL    HW217940   1.202   5.415   0.694
 5681SOL     OW17941   0.419   3.717   0.210
 5681SOL    HW117942   0.425   3.758   0.119
 5681SOL    HW217943   0.382   3.624   0.202
 5682SOL     OW17944   2.191   4.686   5.640
 5682SOL    HW117945   2.291   4.678   5.639
 5682SOL    HW217946   2.162   4.731   5.724
 5683SOL     OW17947   3.257   1.148   0.233
 5683SOL    HW117948   3.160   1.147   0.253
 5683SOL    HW217949   3.302   1.221   0.284
 5684SOL     OW17950   3.379   2.893   4.834
 5684SOL    HW117951   3.415   2.984   4.856
 5684SOL    HW217952   3.454   2.827   4.833
 5685SOL     OW17953   1.749   3.259   2.242
 5685SOL    HW117954   1.785   3.198   2.171
 5685SOL    HW217955   1.812   3.335   2.256
 5686SOL     OW17956   2.904   6.800   6.231
 5686SOL    HW117957   2.833   6.865   6.259
 5686SOL    HW217958   2.888   6.711   6.274
 5687SOL     OW17959   0.653   4.243   5.528
 5687SOL    HW117960   0.709   4.232   5.610
 5687SOL    HW217961   0.613   4.154   5.503
 5688SOL     OW17962   6.773   1.879   0.060
 5688SOL    HW117963   6.852   1.865   0.119
 5688SOL    HW217964   6.802   1.917   6.992
 5689SOL     OW17965   4.426   0.532   0.487
 5689SOL    HW117966   4.369   0.517   0.406
 5689SOL    HW217967   4.441   0.446   0.534
 5690SOL     OW17968   2.169   6.038   0.532
 5690SOL    HW117969   2.088   6.044   0.591
 5690SOL    HW217970   2.142   6.008   0.441
 5691SOL     OW17971   2.676   5.993   1.684
 5691SOL    HW117972   2.604   6.043   1.732
 5691SOL    HW217973   2.661   5.894   1.693
 5692SOL     OW17974   6.786   3.534   6.098
 5692SOL    HW117975   6.746   3.456   6.049
 5692SOL    HW217976   6.787   3.514   6.196
 5693SOL     OW17977   5.994   2.520   2.202
 5693SOL    HW117978   5.979   2.553   2.108
 5693SOL    HW217979   6.092   2.506   2.217
 5694SOL     OW17980   1.280   1.983   3.802
 5694SOL    HW117981   1.355   1.931   3.759
 5694SOL    HW217982   1.316   2.067   3.841
 5695SOL     OW17983   1.297   2.468   3.283
 5695SOL    HW117984   1.205   2.468   3.322
 5695SOL    HW217985   1.358   2.519   3.344
 5696SOL     OW17986   1.621   0.469   3.437
 5696SOL    HW117987   1.523   0.480   3.424
 5696SOL    HW217988   1.667   0.556   3.421
 5697SOL     OW17989   6.238   2.441   1.302
 5697SOL    HW117990   6.214   2.520   1.244
 5697SOL    HW217991   6.289   2.473   1.381
 5698SOL     OW17992   0.543   3.302   2.694
 5698SOL    HW117993   0.514   3.281   2.600
 5698SOL    HW217994   0.642   3.292   2.701
 5699SOL     OW17995   6.460   1.821   2.744
 5699SOL    HW117996   6.379   1.879   2.759
 5699SOL    HW217997   6.453   1.777   2.655
 5700SOL     OW17998   6.459   6.518   4.104
 5700SOL    HW117999   6.370   6.562   4.097
 5700SOL    HW218000   6.506   6.549   4.187
 5701SOL     OW18001   1.293   6.479   3.433
 5701SOL    HW118002   1.225   6.432   3.489
 5701SOL    HW218003   1.290   6.442   3.340
 5702SOL     OW18004   1.839   6.982   5.735
 5702SOL    HW118005   1.892   6.933   5.666
 5702SOL    HW218006   1.900   0.019   5.790
 5703SOL     OW18007   5.483   4.913   1.475
 5703SOL    HW118008   5.396   4.903   1.523
 5703SOL    HW218009   5.467   4.903   1.376
 5704SOL     OW18010   4.118   5.729   2.092
 5704SOL    HW118011   4.165   5.794   2.031
 5704SOL    HW218012   4.026   5.712   2.057
 5705SOL     OW18013   4.787   0.969   0.935
 5705SOL    HW118014   4.752   0.960   1.028
 5705SOL    HW218015   4.732   0.911   0.874
 5706SOL     OW18016   0.565   2.611   0.300
 5706SOL    HW118017   0.507   2.534   0.325
 5706SOL    HW218018   0.621   2.587   0.221
 5707SOL     OW18019   6.978   0.127   0.044
 5707SOL    HW118020   0.001   0.199   0.099
 5707SOL    HW218021   6.942   0.055   0.104
 5708SOL     OW18022   5.397   6.479   1.179
 5708SOL    HW118023   5.493   6.449   1.176
 5708SOL    HW218024   5.368   6.488   1.274
 5709SOL     OW18025   1.870   0.025   3.698
 5709SOL    HW118026   1.772   0.033   3.713
 5709SOL    HW218027   1.890   0.037   3.600
 5710SOL     OW18028   2.372   3.091   6.182
 5710SOL    HW118029   2.454   3.121   6.231
 5710SOL    HW218030   2.296   3.080   6.247
 5711SOL     OW18031   4.540   0.860   2.879
 5711SOL    HW118032   4.463   0.855   2.943
 5711SOL    HW218033   4.528   0.940   2.819
 5712SOL     OW18034   1.061   5.188   5.623
 5712SOL    HW118035   0.970   5.225   5.606
 5712SOL    HW218036   1.123   5.262   5.648
 5713SOL     OW18037   1.833   2.295   1.686
 5713SOL    HW118038   1.772   2.234   1.738
 5713SOL    HW218039   1.919   2.306   1.736
 5714SOL     OW18040   0.599   6.276   6.084
 5714SOL    HW118041   0.693   6.285   6.052
 5714SOL    HW218042   0.598   6.273   6.184
 5715SOL     OW18043   1.388   6.717   3.285
 5715SOL    HW118044   1.368   6.640   3.346
 5715SOL    HW218045   1.439   6.684   3.206
 5716SOL     OW18046   1.287   4.883   0.002
 5716SOL    HW118047   1.327   4.830   6.947
 5716SOL    HW218048   1.270   4.977   6.991
 5717SOL     OW18049   1.628   6.252   0.865
 5717SOL    HW118050   1.723   6.228   0.843
 5717SOL    HW218051   1.574   6.257   0.781
 5718SOL     OW18052   1.515   3.667   6.096
 5718SOL    HW118053   1.536   3.569   6.095
 5718SOL    HW218054   1.590   3.717   6.138
 5719SOL     OW18055   2.432   1.500   6.267
 5719SOL    HW118056   2.348   1.490   6.213
 5719SOL    HW218057   2.497   1.556   6.216
 5720SOL     OW18058   1.282   5.008   4.519
 5720SOL    HW118059   1.330   5.030   4.604
 5720SOL    HW218060   1.281   5.087   4.459
 5721SOL     OW18061   0.495   3.602   0.819
 5721SOL    HW118062   0.573   3.552   0.857
 5721SOL    HW218063   0.474   3.681   0.877
 5722SOL     OW18064   6.332   1.841   5.059
 5722SOL    HW118065   6.397   1.794   5.000
 5722SOL    HW218066   6.240   1.808   5.039
 5723SOL     OW18067   4.597   3.232   6.706
 5723SOL    HW118068   4.650   3.268   6.630
 5723SOL    HW218069   4.658   3.183   6.769
 5724SOL     OW18070   4.140   2.780   5.364
 5724SOL    HW118071   4.102   2.736   5.445
 5724SOL    HW218072   4.151   2.712   5.291
 5725SOL     OW18073   6.471   6.039   3.984
 5725SOL    HW118074   6.434   6.045   4.077
 5725SOL    HW218075   6.396   6.026   3.919
 5726SOL     OW18076   6.754   4.195   4.209
 5726SOL    HW118077   6.756   4.185   4.110
 5726SOL    HW218078   6.662   4.180   4.243
 5727SOL     OW18079   0.925   2.814   3.987
 5727SOL    HW118080   0.942   2.721   4.020
 5727SOL    HW218081   1.009   2.868   3.995
 5728SOL     OW18082   4.489   1.586   6.849
 5728SOL    HW118083   4.448   1.496   6.860
 5728SOL    HW218084   4.418   1.656   6.848
 5729SOL     OW18085   1.245   1.563   0.410
 5729SOL    HW118086   1.186   1.639   0.384
 5729SOL    HW218087   1.196   1.503   0.474
 5730SOL     OW18088   4.306   5.348   5.705
 5730SOL    HW118089   4.318   5.344   5.606
 5730SOL    HW218090   4.225   5.297   5.732
 5731SOL     OW18091   2.257   6.549   4.122
 5731SOL    HW118092   2.229   6.469   4.069
 5731SOL    HW218093   2.315   6.520   4.198
 5732SOL     OW18094   6.800   5.087   5.384
 5732SOL    HW118095   6.846   5.169   5.417
 5732SOL    HW218096   6.808   5.083   5.284
 5733SOL     OW18097   3.703   0.413   5.680
 5733SOL    HW118098   3.783   0.430   5.622
 5733SOL    HW218099   3.731   0.415   5.776
 5734SOL     OW18100   1.633   5.906   6.047
 5734SOL    HW118101   1.624   5.815   6.087
 5734SOL    HW218102   1.542   5.939   6.020
 5735SOL     OW18103   3.848   1.483   2.433
 5735SOL    HW118104   3.813   1.476   2.340
 5735SOL    HW218105   3.870   1.391   2.467
 5736SOL     OW18106   6.585   4.434   1.006
 5736SOL    HW118107   6.639   4.517   1.013
 5736SOL    HW218108   6.526   4.425   1.087
 5737SOL     OW18109   4.793   5.572   0.025
 5737SOL    HW118110   4.801   5.628   6.962
 5737SOL    HW218111   4.698   5.569   0.054
 5738SOL     OW18112   3.090   2.307   6.623
 5738SOL    HW118113   3.052   2.362   6.549
 5738SOL    HW218114   3.188   2.323   6.629
 5739SOL     OW18115   1.173   6.707   5.412
 5739SOL    HW118116   1.193   6.653   5.494
 5739SOL    HW218117   1.113   6.654   5.352
 5740SOL     OW18118   3.678   3.817   1.301
 5740SOL    HW118119   3.747   3.843   1.233
 5740SOL    HW218120   3.723   3.787   1.385
 5741SOL     OW18121   6.421   3.812   4.870
 5741SOL    HW118122   6.421   3.720   4.832
 5741SOL    HW218123   6.328   3.836   4.901
 5742SOL     OW18124   4.412   6.512   2.378
 5742SOL    HW118125   4.408   6.495   2.476
 5742SOL    HW218126   4.389   6.608   2.359
 5743SOL     OW18127   2.498   5.650   5.560
 5743SOL    HW118128   2.461   5.739   5.532
 5743SOL    HW218129   2.520   5.652   5.658
 5744SOL     OW18130   4.764   1.380   1.042
 5744SOL    HW118131   4.785   1.463   1.093
 5744SOL    HW218132   4.849   1.330   1.022
 5745SOL     OW18133   2.357   1.431   3.598
 5745SOL    HW118134   2.426   1.359   3.592
 5745SOL    HW218135   2.315   1.430   3.689
 5746SOL     OW18136   5.230   0.230   1.798
 5746SOL    HW118137   5.312   0.173   1.811
 5746SOL    HW218138   5.229   0.265   1.704
 5747SOL     OW18139   1.305   5.011   2.079
 5747SOL    HW118140   1.360   4.951   2.138
 5747SOL    HW218141   1.211   5.014   2.113
 5748SOL     OW18142   0.953   0.462   0.969
 5748SOL    HW118143   1.018   0.386   0.965
 5748SOL    HW218144   0.880   0.447   0.903
 5749SOL     OW18145   1.236   6.270   4.831
 5749SOL    HW118146   1.220   6.237   4.924
 5749SOL    HW218147   1.156   6.251   4.774
 5750SOL     OW18148   6.552   6.475   4.923
 5750SOL    HW118149   6.523   6.569   4.909
 5750SOL    HW218150   6.593   6.440   4.839
 5751SOL     OW18151   2.238   3.065   4.755
 5751SOL    HW118152   2.313   3.031   4.813
 5751SOL    HW218153   2.260   3.048   4.659
 5752SOL     OW18154   6.048   0.018   0.341
 5752SOL    HW118155   6.091   0.054   0.424
 5752SOL    HW218156   5.952   7.016   0.359
 5753SOL     OW18157   3.947   3.937   4.396
 5753SOL    HW118158   3.923   3.986   4.312
 5753SOL    HW218159   3.928   3.996   4.475
 5754SOL     OW18160   0.555   5.512   2.067
 5754SOL    HW118161   0.621   5.464   2.124
 5754SOL    HW218162   0.537   5.459   1.985
 5755SOL     OW18163   2.209   2.079   6.755
 5755SOL    HW118164   2.186   2.025   6.835
 5755SOL    HW218165   2.286   2.037   6.707
 5756SOL     OW18166   6.560   0.527   3.678
 5756SOL    HW118167   6.581   0.547   3.583
 5756SOL    HW218168   6.491   0.454   3.683
 5757SOL     OW18169   0.455   5.731   3.222
 5757SOL    HW118170   0.444   5.719   3.123
 5757SOL    HW218171   0.499   5.650   3.260
 5758SOL     OW18172   2.372   1.335   4.388
 5758SOL    HW118173   2.430   1.411   4.415
 5758SOL    HW218174   2.322   1.301   4.468
 5759SOL     OW18175   4.885   1.103   6.776
 5759SOL    HW118176   4.943   1.049   6.714
 5759SOL    HW218177   4.795   1.060   6.785
 5760SOL     OW18178   6.819   3.214   0.557
 5760SOL    HW118179   6.738   3.162   0.584
 5760SOL    HW218180   6.901   3.159   0.576
 5761SOL     OW18181   5.955   5.281   6.166
 5761SOL    HW118182   5.881   5.270   6.099
 5761SOL    HW218183   6.019   5.205   6.158
 5762SOL     OW18184   4.955   4.293   0.905
 5762SOL    HW118185   4.942   4.286   0.806
 5762SOL    HW218186   4.946   4.202   0.945
 5763SOL     OW18187   6.455   6.169   0.556
 5763SOL    HW118188   6.529   6.174   0.488
 5763SOL    HW218189   6.476   6.230   0.632
 5764SOL     OW18190   4.990   5.053   5.401
 5764SOL    HW118191   4.909   5.007   5.438
 5764SOL    HW218192   5.071   5.023   5.450
 5765SOL     OW18193   6.383   2.592   0.639
 5765SOL    HW118194   6.455   2.659   0.656
 5765SOL    HW218195   6.309   2.634   0.586
 5766SOL     OW18196   1.915   1.573   5.859
 5766SOL    HW118197   2.015   1.576   5.862
 5766SOL    HW218198   1.879   1.567   5.952
 5767SOL     OW18199   1.714   0.746   0.483
 5767SOL    HW118200   1.716   0.834   0.436
 5767SOL    HW218201   1.807   0.718   0.506
 5768SOL     OW18202   1.295   5.802   3.916
 5768SOL    HW118203   1.278   5.879   3.854
 5768SOL    HW218204   1.381   5.817   3.965
 5769SOL     OW18205   2.683   5.793   4.682
 5769SOL    HW118206   2.711   5.799   4.778
 5769SOL    HW218207   2.677   5.697   4.655
 5770SOL     OW18208   6.378   5.810   6.887
 5770SOL    HW118209   6.290   5.769   6.866
 5770SOL    HW218210   6.439   5.802   6.809
 5771SOL     OW18211   1.376   0.258   4.182
 5771SOL    HW118212   1.330   0.270   4.270
 5771SOL    HW218213   1.414   0.166   4.176
 5772SOL     OW18214   5.091   1.760   1.686
 5772SOL    HW118215   5.079   1.753   1.587
 5772SOL    HW218216   5.001   1.773   1.729
 5773SOL     OW18217   4.208   0.573   3.158
 5773SOL    HW118218   4.158   0.642   3.105
 5773SOL    HW218219   4.149   0.537   3.230
 5774SOL     OW18220   2.766   6.217   3.928
 5774SOL    HW118221   2.793   6.291   3.989
 5774SOL    HW218222   2.782   6.129   3.973
 5775SOL     OW18223   1.918   0.601   2.396
 5775SOL    HW118224   2.012   0.591   2.364
 5775SOL    HW218225   1.917   0.601   2.496
 5776SOL     OW18226   6.911   0.497   4.490
 5776SOL    HW118227   6.837   0.545   4.443
 5776SOL    HW218228   6.907   0.399   4.468
 5777SOL     OW18229   6.549   0.593   5.026
 5777SOL    HW118230   6.537   0.608   4.928
 5777SOL    HW218231   6.559   0.682   5.073
 5778SOL     OW18232   1.552   1.280   1.432
 5778SOL    HW118233   1.569   1.351   1.501
 5778SOL    HW218234   1.609   1.201   1.452
 5779SOL     OW18235   4.393   3.269   1.058
 5779SOL    HW118236   4.356   3.261   0.966
 5779SOL    HW218237   4.344   3.341   1.108
 5780SOL     OW18238   6.004   5.904   3.617
 5780SOL    HW118239   5.977   5.948   3.703
 5780SOL    HW218240   6.018   5.806   3.632
 5781SOL     OW18241   6.687   4.509   4.179
 5781SOL    HW118242   6.626   4.506   4.259
 5781SOL    HW218243   6.782   4.508   4.209
 5782SOL     OW18244   1.465   1.472   0.296
 5782SOL    HW118245   1.516   1.551   0.263
 5782SOL    HW218246   1.371   1.497   0.315
 5783SOL     OW18247   2.261   0.320   1.694
 5783SOL    HW118248   2.339   0.370   1.730
 5783SOL    HW218249   2.253   0.336   1.596
 5784SOL     OW18250   6.891   5.611   6.874
 5784SOL    HW118251   6.931   5.644   6.789
 5784SOL    HW218252   6.864   5.688   6.931
 5785SOL     OW18253   2.279   1.598   0.696
 5785SOL    HW118254   2.320   1.680   0.736
 5785SOL    HW218255   2.181   1.613   0.685
 5786SOL     OW18256   0.854   3.421   0.467
 5786SOL    HW118257   0.785   3.383   0.527
 5786SOL    HW218258   0.817   3.430   0.375
 5787SOL     OW18259   4.041   1.641   5.125
 5787SOL    HW118260   4.089   1.578   5.186
 5787SOL    HW218261   4.098   1.659   5.045
 5788SOL     OW18262   3.246   1.649   1.431
 5788SOL    HW118263   3.158   1.661   1.476
 5788SOL    HW218264   3.257   1.719   1.360
 5789SOL     OW18265   2.809   4.426   0.138
 5789SOL    HW118266   2.731   4.401   0.195
 5789SOL    HW218267   2.813   4.525   0.128
 5790SOL     OW18268   0.610   4.492   4.947
 5790SOL    HW118269   0.559   4.573   4.918
 5790SOL    HW218270   0.595   4.418   4.881
 5791SOL     OW18271   3.034   1.169   2.681
 5791SOL    HW118272   3.028   1.241   2.750
 5791SOL    HW218273   2.971   1.190   2.606
 5792SOL     OW18274   5.987   2.783   2.587
 5792SOL    HW118275   6.028   2.795   2.678
 5792SOL    HW218276   5.997   2.688   2.558
 5793SOL     OW18277   5.274   0.697   3.626
 5793SOL    HW118278   5.315   0.670   3.713
 5793SOL    HW218279   5.190   0.644   3.610
 5794SOL     OW18280   2.192   0.987   6.763
 5794SOL    HW118281   2.166   0.997   6.859
 5794SOL    HW218282   2.212   0.891   6.744
 5795SOL     OW18283   6.588   7.017   6.646
 5795SOL    HW118284   6.567   6.975   6.734
 5795SOL    HW218285   6.508   0.047   6.612
 5796SOL     OW18286   5.212   1.363   6.082
 5796SOL    HW118287   5.270   1.335   6.159
 5796SOL    HW218288   5.123   1.319   6.090
 5797SOL     OW18289   4.629   2.199   0.084
 5797SOL    HW118290   4.597   2.110   0.054
 5797SOL    HW218291   4.626   2.204   0.184
 5798SOL     OW18292   0.864   5.609   4.463
 5798SOL    HW118293   0.775   5.632   4.425
 5798SOL    HW218294   0.918   5.559   4.395
 5799SOL     OW18295   0.262   0.462   3.837
 5799SOL    HW118296   0.269   0.556   3.803
 5799SOL    HW218297   0.346   0.412   3.813
 5800SOL     OW18298   6.338   6.171   1.750
 5800SOL    HW118299   6.259   6.208   1.799
 5800SOL    HW218300   6.420   6.180   1.807
 5801SOL     OW18301   1.681   2.583   3.262
 5801SOL    HW118302   1.701   2.547   3.171
 5801SOL    HW218303   1.664   2.682   3.256
 5802SOL     OW18304   0.402   3.629   2.111
 5802SOL    HW118305   0.454   3.630   2.196
 5802SOL    HW218306   0.304   3.628   2.131
 5803SOL     OW18307   2.260   5.239   1.472
 5803SOL    HW118308   2.355   5.228   1.501
 5803SOL    HW218309   2.201   5.177   1.525
 5804SOL     OW18310   0.612   5.199   3.619
 5804SOL    HW118311   0.580   5.246   3.701
 5804SOL    HW218312   0.647   5.108   3.644
 5805SOL     OW18313   2.507   3.182   0.580
 5805SOL    HW118314   2.423   3.216   0.538
 5805SOL    HW218315   2.579   3.173   0.511
 5806SOL     OW18316   7.000   5.238   5.098
 5806SOL    HW118317   6.969   5.247   5.004
 5806SOL    HW218318   6.935   5.283   5.159
 5807SOL     OW18319   1.058   3.745   0.676
 5807SOL    HW118320   1.003   3.756   0.594
 5807SOL    HW218321   1.002   3.707   0.749
 5808SOL     OW18322   6.212   5.023   4.063
 5808SOL    HW118323   6.302   4.998   4.098
 5808SOL    HW218324   6.153   5.048   4.140
 5809SOL     OW18325   6.672   2.295   4.539
 5809SOL    HW118326   6.736   2.326   4.609
 5809SOL    HW218327   6.618   2.218   4.574
 5810SOL     OW18328   4.222   1.392   5.068
 5810SOL    HW118329   4.314   1.353   5.073
 5810SOL    HW218330   4.155   1.319   5.057
 5811SOL     OW18331   3.448   0.576   5.365
 5811SOL    HW118332   3.495   0.650   5.318
 5811SOL    HW218333   3.388   0.528   5.301
 5812SOL     OW18334   6.137   3.126   4.919
 5812SOL    HW118335   6.149   3.031   4.950
 5812SOL    HW218336   6.204   3.146   4.848
 5813SOL     OW18337   1.782   1.554   1.214
 5813SOL    HW118338   1.807   1.638   1.263
 5813SOL    HW218339   1.845   1.481   1.239
 5814SOL     OW18340   6.421   4.128   2.231
 5814SOL    HW118341   6.415   4.228   2.226
 5814SOL    HW218342   6.488   4.096   2.164
 5815SOL     OW18343   4.260   1.216   4.547
 5815SOL    HW118344   4.208   1.226   4.632
 5815SOL    HW218345   4.288   1.306   4.514
 5816SOL     OW18346   4.577   4.817   0.456
 5816SOL    HW118347   4.662   4.764   0.461
 5816SOL    HW218348   4.518   4.778   0.385
 5817SOL     OW18349   5.776   4.522   5.860
 5817SOL    HW118350   5.860   4.518   5.915
 5817SOL    HW218351   5.793   4.576   5.778
 5818SOL     OW18352   6.944   5.702   5.075
 5818SOL    HW118353   6.918   5.793   5.044
 5818SOL    HW218354   6.971   5.705   5.171
 5819SOL     OW18355   3.418   0.113   6.537
 5819SOL    HW118356   3.367   0.158   6.610
 5819SOL    HW218357   3.513   0.101   6.565
 5820SOL     OW18358   4.721   4.890   3.195
 5820SOL    HW118359   4.647   4.870   3.260
 5820SOL    HW218360   4.701   4.846   3.108
 5821SOL     OW18361   6.907   0.222   1.414
 5821SOL    HW118362   6.889   0.150   1.347
 5821SOL    HW218363   6.878   0.310   1.377
 5822SOL     OW18364   1.397   2.907   1.207
 5822SOL    HW118365   1.453   2.827   1.228
 5822SOL    HW218366   1.335   2.925   1.284
 5823SOL     OW18367   2.630   0.153   5.038
 5823SOL    HW118368   2.708   0.207   5.068
 5823SOL    HW218369   2.583   0.200   4.964
 5824SOL     OW18370   0.324   5.700   2.456
 5824SOL    HW118371   0.237   5.653   2.475
 5824SOL    HW218372   0.321   5.791   2.498
 5825SOL     OW18373   6.811   1.369   5.143
 5825SOL    HW118374   6.873   1.338   5.072
 5825SOL    HW218375   6.794   1.467   5.132
 5826SOL     OW18376   0.129   5.018   5.922
 5826SOL    HW118377   0.109   5.030   5.825
 5826SOL    HW218378   0.218   4.973   5.932
 5827SOL     OW18379   1.911   4.173   4.744
 5827SOL    HW118380   1.934   4.257   4.695
 5827SOL    HW218381   1.899   4.098   4.678
 5828SOL     OW18382   6.226   1.438   1.674
 5828SOL    HW118383   6.236   1.497   1.754
 5828SOL    HW218384   6.281   1.355   1.685
 5829SOL     OW18385   1.132   0.396   3.563
 5829SOL    HW118386   1.182   0.382   3.649
 5829SOL    HW218387   1.105   0.492   3.555
 5830SOL     OW18388   5.208   6.557   5.959
 5830SOL    HW118389   5.189   6.609   6.043
 5830SOL    HW218390   5.148   6.477   5.955
 5831SOL     OW18391   1.316   1.358   5.540
 5831SOL    HW118392   1.368   1.431   5.586
 5831SOL    HW218393   1.223   1.388   5.524
 5832SOL     OW18394   2.632   4.402   6.899
 5832SOL    HW118395   2.655   4.310   6.866
 5832SOL    HW218396   2.667   4.413   6.992
 5833SOL     OW18397   3.514   3.972   5.037
 5833SOL    HW118398   3.564   3.935   5.115
 5833SOL    HW218399   3.426   3.925   5.029
 5834SOL     OW18400   6.759   2.769   0.556
 5834SOL    HW118401   6.855   2.795   0.540
 5834SOL    HW218402   6.751   2.670   0.554
 5835SOL     OW18403   5.532   3.148   3.178
 5835SOL    HW118404   5.526   3.060   3.225
 5835SOL    HW218405   5.623   3.186   3.190
 5836SOL     OW18406   2.581   6.892   1.562
 5836SOL    HW118407   2.487   6.907   1.533
 5836SOL    HW218408   2.628   6.834   1.495
 5837SOL     OW18409   3.480   4.091   6.759
 5837SOL    HW118410   3.528   4.025   6.701
 5837SOL    HW218411   3.418   4.146   6.703
 5838SOL     OW18412   2.906   1.934   0.521
 5838SOL    HW118413   2.917   1.857   0.458
 5838SOL    HW218414   2.958   1.916   0.605
 5839SOL     OW18415   0.670   2.024   2.461
 5839SOL    HW118416   0.676   2.011   2.560
 5839SOL    HW218417   0.574   2.033   2.435
 5840SOL     OW18418   0.844   4.855   6.745
 5840SOL    HW118419   0.790   4.771   6.737
 5840SOL    HW218420   0.917   4.854   6.676
 5841SOL     OW18421   5.081   1.858   2.131
 5841SOL    HW118422   4.996   1.908   2.146
 5841SOL    HW218423   5.124   1.889   2.046
 5842SOL     OW18424   5.199   3.385   1.622
 5842SOL    HW118425   5.251   3.328   1.558
 5842SOL    HW218426   5.150   3.456   1.571
 5843SOL     OW18427   1.236   3.967   2.862
 5843SOL    HW118428   1.167   3.923   2.920
 5843SOL    HW218429   1.202   3.971   2.768
 5844SOL     OW18430   2.199   5.721   6.197
 5844SOL    HW118431   2.296   5.746   6.192
 5844SOL    HW218432   2.171   5.716   6.293
 5845SOL     OW18433   0.606   0.358   2.590
 5845SOL    HW118434   0.705   0.345   2.586
 5845SOL    HW218435   0.584   0.426   2.659
 5846SOL     OW18436   6.268   2.990   5.307
 5846SOL    HW118437   6.213   2.911   5.331
 5846SOL    HW218438   6.325   2.969   5.227
 5847SOL     OW18439   3.045   2.217   1.764
 5847SOL    HW118440   2.988   2.264   1.832
 5847SOL    HW218441   3.107   2.154   1.810
 5848SOL     OW18442   1.493   5.554   2.844
 5848SOL    HW118443   1.476   5.550   2.746
 5848SOL    HW218444   1.591   5.556   2.862
 5849SOL     OW18445   0.860   0.847   5.700
 5849SOL    HW118446   0.849   0.930   5.755
 5849SOL    HW218447   0.904   0.776   5.756
 5850SOL     OW18448   6.879   3.893   1.720
 5850SOL    HW118449   6.875   3.828   1.796
 5850SOL    HW218450   6.823   3.860   1.644
 5851SOL     OW18451   4.900   3.473   2.745
 5851SOL    HW118452   4.994   3.486   2.777
 5851SOL    HW218453   4.899   3.413   2.666
 5852SOL     OW18454   5.696   6.689   3.408
 5852SOL    HW118455   5.707   6.766   3.472
 5852SOL    HW218456   5.664   6.723   3.320
 5853SOL     OW18457   3.539   5.391   4.774
 5853SOL    HW118458   3.585   5.302   4.766
 5853SOL    HW218459   3.469   5.386   4.844
 5854SOL     OW18460   4.883   4.744   6.128
 5854SOL    HW118461   4.838   4.668   6.174
 5854SOL    HW218462   4.904   4.815   6.195
 5855SOL     OW18463   0.862   1.641   4.946
 5855SOL    HW118464   0.941   1.696   4.921
 5855SOL    HW218465   0.824   1.596   4.865
 5856SOL     OW18466   1.830   5.800   3.875
 5856SOL    HW118467   1.758   5.767   3.936
 5856SOL    HW218468   1.890   5.863   3.925
 5857SOL     OW18469   6.068   2.449   6.087
 5857SOL    HW118470   5.976   2.415   6.107
 5857SOL    HW218471   6.136   2.385   6.122
 5858SOL     OW18472   2.762   1.900   2.754
 5858SOL    HW118473   2.838   1.963   2.736
 5858SOL    HW218474   2.798   1.808   2.768
 5859SOL     OW18475   5.885   6.021   1.920
 5859SOL    HW118476   5.970   5.969   1.930
 5859SOL    HW218477   5.807   5.961   1.937
 5860SOL     OW18478   0.156   3.278   2.175
 5860SOL    HW118479   0.171   3.219   2.096
 5860SOL    HW218480   0.184   3.229   2.258
 5861SOL     OW18481   4.646   1.289   4.429
 5861SOL    HW118482   4.658   1.366   4.366
 5861SOL    HW218483   4.735   1.255   4.457
 5862SOL     OW18484   6.212   5.535   1.149
 5862SOL    HW118485   6.183   5.610   1.090
 5862SOL    HW218486   6.311   5.539   1.162
 5863SOL     OW18487   3.585   2.123   5.299
 5863SOL    HW118488   3.609   2.044   5.355
 5863SOL    HW218489   3.488   2.144   5.310
 5864SOL     OW18490   3.879   3.913   2.102
 5864SOL    HW118491   3.835   3.985   2.157
 5864SOL    HW218492   3.931   3.853   2.162
 5865SOL     OW18493   5.953   0.375   5.029
 5865SOL    HW118494   5.878   0.377   4.964
 5865SOL    HW218495   5.982   0.469   5.050
 5866SOL     OW18496   3.854   4.335   0.062
 5866SOL    HW118497   3.935   4.284   0.032
 5866SOL    HW218498   3.774   4.303   0.013
 5867SOL     OW18499   2.266   3.125   0.956
 5867SOL    HW118500   2.335   3.196   0.969
 5867SOL    HW218501   2.184   3.164   0.914
 5868SOL     OW18502   0.640   1.695   5.324
 5868SOL    HW118503   0.723   1.741   5.355
 5868SOL    HW218504   0.569   1.704   5.395
 5869SOL     OW18505   1.973   6.301   3.706
 5869SOL    HW118506   1.907   6.230   3.682
 5869SOL    HW218507   1.945   6.388   3.665
 5870SOL     OW18508   4.445   6.384   4.547
 5870SOL    HW118509   4.462   6.290   4.577
 5870SOL    HW218510   4.416   6.439   4.625
 5871SOL     OW18511   3.375   3.254   1.433
 5871SOL    HW118512   3.396   3.187   1.362
 5871SOL    HW218513   3.276   3.269   1.436
 5872SOL     OW18514   4.125   5.880   1.355
 5872SOL    HW118515   4.066   5.957   1.333
 5872SOL    HW218516   4.202   5.911   1.410
 5873SOL     OW18517   3.456   1.602   1.602
 5873SOL    HW118518   3.391   1.623   1.529
 5873SOL    HW218519   3.512   1.524   1.575
 5874SOL     OW18520   3.278   4.181   6.589
 5874SOL    HW118521   3.267   4.267   6.539
 5874SOL    HW218522   3.223   4.109   6.545
 5875SOL     OW18523   4.391   1.326   6.925
 5875SOL    HW118524   4.300   1.310   6.964
 5875SOL    HW218525   4.417   1.248   6.869
 5876SOL     OW18526   3.828   3.143   0.481
 5876SOL    HW118527   3.730   3.134   0.467
 5876SOL    HW218528   3.848   3.148   0.579
 5877SOL     OW18529   0.626   0.728   1.108
 5877SOL    HW118530   0.654   0.740   1.013
 5877SOL    HW218531   0.697   0.763   1.169
 5878SOL     OW18532   6.043   5.021   4.294
 5878SOL    HW118533   6.010   4.929   4.271
 5878SOL    HW218534   5.965   5.083   4.303
 5879SOL     OW18535   1.828   4.183   6.722
 5879SOL    HW118536   1.770   4.204   6.644
 5879SOL    HW218537   1.795   4.099   6.766
 5880SOL     OW18538   5.052   4.814   6.585
 5880SOL    HW118539   5.143   4.793   6.620
 5880SOL    HW218540   5.059   4.871   6.504
 5881SOL     OW18541   0.893   7.008   2.692
 5881SOL    HW118542   0.820   6.946   2.720
 5881SOL    HW218543   0.902   0.063   2.759
 5882SOL     OW18544   0.488   5.525   0.038
 5882SOL    HW118545   0.485   5.536   6.958
 5882SOL    HW218546   0.446   5.438   0.063
 5883SOL     OW18547   0.395   1.497   6.578
 5883SOL    HW118548   0.421   1.593   6.573
 5883SOL    HW218549   0.450   1.444   6.513
 5884SOL     OW18550   4.542   0.778   4.170
 5884SOL    HW118551   4.485   0.829   4.106
 5884SOL    HW218552   4.597   0.842   4.224
 5885SOL     OW18553   0.414   6.165   2.261
 5885SOL    HW118554   0.500   6.116   2.242
 5885SOL    HW218555   0.433   6.263   2.269
 5886SOL     OW18556   6.928   2.039   3.701
 5886SOL    HW118557   7.000   2.099   3.666
 5886SOL    HW218558   6.905   2.065   3.795
 5887SOL     OW18559   2.713   2.142   2.005
 5887SOL    HW118560   2.783   2.212   2.021
 5887SOL    HW218561   2.658   2.131   2.088
 5888SOL     OW18562   1.734   0.551   1.263
 5888SOL    HW118563   1.790   0.634   1.270
 5888SOL    HW218564   1.663   0.553   1.334
 5889SOL     OW18565   0.356   0.621   0.279
 5889SOL    HW118566   0.446   0.592   0.248
 5889SOL    HW218567   0.294   0.543   0.279
 5890SOL     OW18568   2.411   1.113   2.918
 5890SOL    HW118569   2.322   1.137   2.957
 5890SOL    HW218570   2.426   1.166   2.835
 5891SOL     OW18571   3.273   3.101   0.028
 5891SOL    HW118572   3.282   3.193   7.009
 5891SOL    HW218573   3.264   3.107   0.127
 5892SOL     OW18574   0.926   4.771   2.529
 5892SOL    HW118575   0.896   4.861   2.561
 5892SOL    HW218576   0.904   4.761   2.432
 5893SOL     OW18577   1.672   3.943   3.885
 5893SOL    HW118578   1.683   4.011   3.958
 5893SOL    HW218579   1.578   3.908   3.886
 5894SOL     OW18580   0.311   6.024   4.129
 5894SOL    HW118581   0.238   6.090   4.110
 5894SOL    HW218582   0.291   5.938   4.082
 5895SOL     OW18583   4.889   3.397   4.013
 5895SOL    HW118584   4.978   3.441   4.000
 5895SOL    HW218585   4.862   3.351   3.929
 5896SOL     OW18586   3.676   0.991   1.388
 5896SOL    HW118587   3.682   0.927   1.311
 5896SOL    HW218588   3.695   0.943   1.473
 5897SOL     OW18589   4.150   0.034   1.664
 5897SOL    HW118590   4.132   6.992   1.740
 5897SOL    HW218591   4.065   0.052   1.614
 5898SOL     OW18592   2.854   0.313   4.556
 5898SOL    HW118593   2.892   0.404   4.575
 5898SOL    HW218594   2.774   0.323   4.496
 5899SOL     OW18595   6.462   5.130   6.983
 5899SOL    HW118596   6.549   5.149   6.937
 5899SOL    HW218597   6.407   5.069   6.926
 5900SOL     OW18598   6.237   5.425   3.499
 5900SOL    HW118599   6.326   5.467   3.487
 5900SOL    HW218600   6.232   5.378   3.587
 5901SOL     OW18601   2.439   0.951   0.318
 5901SOL    HW118602   2.463   1.041   0.281
 5901SOL    HW218603   2.375   0.963   0.394
 5902SOL     OW18604   5.967   2.209   5.340
 5902SOL    HW118605   5.933   2.130   5.391
 5902SOL    HW218606   5.969   2.289   5.401
 5903SOL     OW18607   4.731   3.507   6.907
 5903SOL    HW118608   4.802   3.442   6.935
 5903SOL    HW218609   4.750   3.596   6.947
 5904SOL     OW18610   1.758   4.693   1.061
 5904SOL    HW118611   1.800   4.706   0.971
 5904SOL    HW218612   1.753   4.780   1.109
 5905SOL     OW18613   6.375   0.478   4.094
 5905SOL    HW118614   6.447   0.523   4.145
 5905SOL    HW218615   6.415   0.430   4.015
 5906SOL     OW18616   3.841   1.818   3.607
 5906SOL    HW118617   3.818   1.823   3.705
 5906SOL    HW218618   3.892   1.899   3.580
 5907SOL     OW18619   0.943   5.913   0.365
 5907SOL    HW118620   1.035   5.890   0.331
 5907SOL    HW218621   0.948   5.998   0.418
 5908SOL     OW18622   6.854   3.178   0.273
 5908SOL    HW118623   6.842   3.273   0.242
 5908SOL    HW218624   6.877   3.178   0.371
 5909SOL     OW18625   6.698   5.062   0.832
 5909SOL    HW118626   6.675   4.965   0.824
 5909SOL    HW218627   6.798   5.072   0.839
 5910SOL     OW18628   0.445   4.211   3.013
 5910SOL    HW118629   0.370   4.188   3.076
 5910SOL    HW218630   0.531   4.212   3.064
 5911SOL     OW18631   6.837   5.111   6.290
 5911SOL    HW118632   6.854   5.063   6.376
 5911SOL    HW218633   6.870   5.056   6.214
 5912SOL     OW18634   5.811   2.867   6.646
 5912SOL    HW118635   5.754   2.798   6.603
 5912SOL    HW218636   5.897   2.825   6.678
 5913SOL     OW18637   4.988   2.832   6.353
 5913SOL    HW118638   5.074   2.873   6.384
 5913SOL    HW218639   4.955   2.767   6.421
 5914SOL     OW18640   1.639   5.185   6.869
 5914SOL    HW118641   1.654   5.208   6.965
 5914SOL    HW218642   1.548   5.214   6.841
 5915SOL     OW18643   5.146   5.343   1.301
 5915SOL    HW118644   5.236   5.319   1.263
 5915SOL    HW218645   5.121   5.435   1.271
 5916SOL     OW18646   4.188   5.332   4.619
 5916SOL    HW118647   4.257   5.321   4.690
 5916SOL    HW218648   4.167   5.243   4.578
 5917SOL     OW18649   3.378   3.482   3.999
 5917SOL    HW118650   3.445   3.497   3.926
 5917SOL    HW218651   3.402   3.401   4.051
 5918SOL     OW18652   1.793   3.518   5.867
 5918SOL    HW118653   1.720   3.583   5.844
 5918SOL    HW218654   1.881   3.554   5.836
 5919SOL     OW18655   3.771   3.322   1.501
 5919SOL    HW118656   3.848   3.371   1.460
 5919SOL    HW218657   3.703   3.389   1.533
 5920SOL     OW18658   4.083   0.632   6.778
 5920SOL    HW118659   4.102   0.598   6.686
 5920SOL    HW218660   4.118   0.567   6.846
 5921SOL     OW18661   4.051   5.560   6.048
 5921SOL    HW118662   3.976   5.534   5.987
 5921SOL    HW218663   4.015   5.576   6.140
 5922SOL     OW18664   6.897   5.435   2.814
 5922SOL    HW118665   6.854   5.525   2.803
 5922SOL    HW218666   6.856   5.371   2.749
 5923SOL     OW18667   5.470   0.875   1.719
 5923SOL    HW118668   5.487   0.970   1.746
 5923SOL    HW218669   5.540   0.846   1.654
 5924SOL     OW18670   0.184   1.515   3.728
 5924SOL    HW118671   0.108   1.566   3.769
 5924SOL    HW218672   0.152   1.468   3.646
 5925SOL     OW18673   3.820   5.478   1.536
 5925SOL    HW118674   3.856   5.405   1.593
 5925SOL    HW218675   3.751   5.529   1.586
 5926SOL     OW18676   4.249   5.450   1.570
 5926SOL    HW118677   4.244   5.484   1.664
 5926SOL    HW218678   4.190   5.506   1.512
 5927SOL     OW18679   1.075   3.929   2.586
 5927SOL    HW118680   1.034   3.839   2.600
 5927SOL    HW218681   1.045   3.966   2.498
 5928SOL     OW18682   3.226   0.197   0.788
 5928SOL    HW118683   3.249   0.201   0.885
 5928SOL    HW218684   3.131   0.226   0.775
 5929SOL     OW18685   0.814   6.748   6.638
 5929SOL    HW118686   0.829   6.819   6.707
 5929SOL    HW218687   0.810   6.659   6.682
 5930SOL     OW18688   6.451   2.806   3.602
 5930SOL    HW118689   6.381   2.859   3.554
 5930SOL    HW218690   6.454   2.713   3.566
 5931SOL     OW18691   6.949   5.794   3.095
 5931SOL    HW118692   0.001   5.807   3.026
 5931SOL    HW218693   6.912   5.702   3.088
 5932SOL     OW18694   2.046   0.104   0.712
 5932SOL    HW118695   2.104   0.182   0.691
 5932SOL    HW218696   2.075   0.025   0.657
 5933SOL     OW18697   0.414   6.153   3.638
 5933SOL    HW118698   0.329   6.167   3.688
 5933SOL    HW218699   0.475   6.096   3.691
 5934SOL     OW18700   3.823   2.974   4.060
 5934SOL    HW118701   3.784   2.940   4.146
 5934SOL    HW218702   3.888   3.048   4.080
 5935SOL     OW18703   4.761   4.564   6.295
 5935SOL    HW118704   4.682   4.504   6.282
 5935SOL    HW218705   4.773   4.582   6.393
 5936SOL     OW18706   3.562   3.110   0.686
 5936SOL    HW118707   3.546   3.188   0.625
 5936SOL    HW218708   3.530   3.027   0.642
 5937SOL     OW18709   0.857   4.573   2.914
 5937SOL    HW118710   0.883   4.651   2.971
 5937SOL    HW218711   0.762   4.548   2.933
 5938SOL     OW18712   0.832   5.353   3.596
 5938SOL    HW118713   0.860   5.398   3.681
 5938SOL    HW218714   0.769   5.278   3.617
 5939SOL     OW18715   2.819   6.454   3.163
 5939SOL    HW118716   2.747   6.507   3.208
 5939SOL    HW218717   2.905   6.466   3.213
 5940SOL     OW18718   4.467   5.744   0.665
 5940SOL    HW118719   4.442   5.737   0.761
 5940SOL    HW218720   4.498   5.837   0.645
 5941SOL     OW18721   5.808   3.306   1.891
 5941SOL    HW118722   5.795   3.335   1.985
 5941SOL    HW218723   5.904   3.318   1.866
 5942SOL     OW18724   5.004   3.247   0.620
 5942SOL    HW118725   5.046   3.277   0.706
 5942SOL    HW218726   5.058   3.281   0.543
 5943SOL     OW18727   3.719   5.358   0.361
 5943SOL    HW118728   3.750   5.453   0.364
 5943SOL    HW218729   3.776   5.307   0.297
 5944SOL     OW18730   6.473   2.773   1.426
 5944SOL    HW118731   6.496   2.806   1.335
 5944SOL    HW218732   6.496   2.844   1.494
 5945SOL     OW18733   6.002   5.283   5.573
 5945SOL    HW118734   6.050   5.210   5.623
 5945SOL    HW218735   6.063   5.318   5.502
 5946SOL     OW18736   3.719   3.125   6.299
 5946SOL    HW118737   3.685   3.069   6.375
 5946SOL    HW218738   3.645   3.141   6.234
 5947SOL     OW18739   3.888   3.604   1.783
 5947SOL    HW118740   3.838   3.631   1.700
 5947SOL    HW218741   3.986   3.617   1.768
 5948SOL     OW18742   4.487   5.067   3.253
 5948SOL    HW118743   4.517   5.042   3.161
 5948SOL    HW218744   4.515   5.161   3.273
 5949SOL     OW18745   4.747   3.823   1.688
 5949SOL    HW118746   4.785   3.891   1.751
 5949SOL    HW218747   4.670   3.864   1.638
 5950SOL     OW18748   4.515   2.320   5.792
 5950SOL    HW118749   4.591   2.380   5.769
 5950SOL    HW218750   4.497   2.258   5.716
 5951SOL     OW18751   0.850   5.631   4.104
 5951SOL    HW118752   0.894   5.616   4.016
 5951SOL    HW218753   0.885   5.564   4.170
 5952SOL     OW18754   5.753   4.554   4.127
 5952SOL    HW118755   5.720   4.479   4.071
 5952SOL    HW218756   5.844   4.532   4.162
 5953SOL     OW18757   6.688   3.174   5.350
 5953SOL    HW118758   6.627   3.228   5.409
 5953SOL    HW218759   6.676   3.202   5.255
 5954SOL     OW18760   0.873   4.268   5.691
 5954SOL    HW118761   0.946   4.253   5.624
 5954SOL    HW218762   0.914   4.282   5.781
 5955SOL     OW18763   5.158   6.204   2.688
 5955SOL    HW118764   5.167   6.112   2.727
 5955SOL    HW218765   5.202   6.270   2.749
 5956SOL     OW18766   4.784   1.029   6.042
 5956SOL    HW118767   4.712   1.027   6.111
 5956SOL    HW218768   4.790   0.940   5.996
 5957SOL     OW18769   4.095   0.624   5.317
 5957SOL    HW118770   4.121   0.631   5.413
 5957SOL    HW218771   4.139   0.697   5.265
 5958SOL     OW18772   5.845   6.901   3.166
 5958SOL    HW118773   5.817   6.971   3.101
 5958SOL    HW218774   5.944   6.901   3.175
 5959SOL     OW18775   4.029   2.452   5.445
 5959SOL    HW118776   3.934   2.426   5.426
 5959SOL    HW218777   4.032   2.548   5.474
 5960SOL     OW18778   3.647   5.175   4.672
 5960SOL    HW118779   3.643   5.078   4.696
 5960SOL    HW218780   3.743   5.203   4.664
 5961SOL     OW18781   5.395   1.425   2.897
 5961SOL    HW118782   5.463   1.362   2.859
 5961SOL    HW218783   5.414   1.441   2.994
 5962SOL     OW18784   5.321   6.354   0.581
 5962SOL    HW118785   5.237   6.323   0.624
 5962SOL    HW218786   5.362   6.426   0.637
 5963SOL     OW18787   3.578   3.570   5.409
 5963SOL    HW118788   3.578   3.666   5.437
 5963SOL    HW218789   3.656   3.552   5.350
 5964SOL     OW18790   0.425   5.507   5.394
 5964SOL    HW118791   0.392   5.420   5.359
 5964SOL    HW218792   0.473   5.557   5.321
 5965SOL     OW18793   0.930   2.340   6.948
 5965SOL    HW118794   0.992   2.386   6.884
 5965SOL    HW218795   0.983   2.301   0.003
 5966SOL     OW18796   2.979   5.900   5.502
 5966SOL    HW118797   3.051   5.955   5.543
 5966SOL    HW218798   3.018   5.840   5.432
 5967SOL     OW18799   4.168   6.873   6.763
 5967SOL    HW118800   4.099   6.820   6.813
 5967SOL    HW218801   4.239   6.811   6.729
 5968SOL     OW18802   4.528   1.652   1.294
 5968SOL    HW118803   4.557   1.563   1.328
 5968SOL    HW218804   4.472   1.697   1.363
 5969SOL     OW18805   0.293   6.840   6.716
 5969SOL    HW118806   0.364   6.770   6.717
 5969SOL    HW218807   0.259   6.855   6.809
 5970SOL     OW18808   0.345   4.558   2.448
 5970SOL    HW118809   0.441   4.580   2.432
 5970SOL    HW218810   0.307   4.513   2.367
 5971SOL     OW18811   1.344   0.913   2.426
 5971SOL    HW118812   1.368   0.961   2.342
 5971SOL    HW218813   1.247   0.929   2.448
 5972SOL     OW18814   5.361   5.565   0.023
 5972SOL    HW118815   5.419   5.601   0.096
 5972SOL    HW218816   5.335   5.471   0.044
 5973SOL     OW18817   1.949   3.470   2.604
 5973SOL    HW118818   1.938   3.485   2.506
 5973SOL    HW218819   1.871   3.508   2.653
 5974SOL     OW18820   5.774   5.230   6.374
 5974SOL    HW118821   5.738   5.159   6.313
 5974SOL    HW218822   5.837   5.288   6.323
 5975SOL     OW18823   3.219   1.381   0.596
 5975SOL    HW118824   3.244   1.384   0.693
 5975SOL    HW218825   3.126   1.346   0.586
 5976SOL     OW18826   3.127   3.207   5.329
 5976SOL    HW118827   3.050   3.164   5.281
 5976SOL    HW218828   3.206   3.145   5.327
 5977SOL     OW18829   2.679   5.437   6.967
 5977SOL    HW118830   2.637   5.462   0.035
 5977SOL    HW218831   2.762   5.384   6.983
 5978SOL     OW18832   5.336   5.763   2.978
 5978SOL    HW118833   5.364   5.753   3.073
 5978SOL    HW218834   5.417   5.758   2.919
 5979SOL     OW18835   5.428   0.512   2.487
 5979SOL    HW118836   5.490   0.555   2.552
 5979SOL    HW218837   5.342   0.564   2.483
 5980SOL     OW18838   3.755   4.109   0.821
 5980SOL    HW118839   3.768   4.066   0.732
 5980SOL    HW218840   3.689   4.056   0.875
 5981SOL     OW18841   5.637   2.027   1.151
 5981SOL    HW118842   5.578   1.994   1.077
 5981SOL    HW218843   5.705   1.957   1.173
 5982SOL     OW18844   6.786   3.132   1.961
 5982SOL    HW118845   6.776   3.105   2.056
 5982SOL    HW218846   6.698   3.122   1.914
 5983SOL     OW18847   0.773   2.068   4.192
 5983SOL    HW118848   0.752   2.075   4.095
 5983SOL    HW218849   0.849   2.128   4.214
 5984SOL     OW18850   6.578   5.632   4.279
 5984SOL    HW118851   6.498   5.680   4.243
 5984SOL    HW218852   6.588   5.653   4.376
 5985SOL     OW18853   6.855   2.832   4.149
 5985SOL    HW118854   6.755   2.829   4.151
 5985SOL    HW218855   6.884   2.906   4.088
 5986SOL     OW18856   3.109   3.661   4.801
 5986SOL    HW118857   3.076   3.663   4.707
 5986SOL    HW218858   3.082   3.574   4.844
 5987SOL     OW18859   4.638   0.460   4.630
 5987SOL    HW118860   4.656   0.389   4.562
 5987SOL    HW218861   4.560   0.516   4.600
 5988SOL     OW18862   5.010   6.795   5.529
 5988SOL    HW118863   5.088   6.839   5.573
 5988SOL    HW218864   4.946   6.864   5.495
 5989SOL     OW18865   2.749   6.582   6.825
 5989SOL    HW118866   2.693   6.503   6.800
 5989SOL    HW218867   2.830   6.587   6.767
 5990SOL     OW18868   3.955   4.600   0.100
 5990SOL    HW118869   3.949   4.648   0.187
 5990SOL    HW218870   3.921   4.507   0.111
 5991SOL     OW18871   3.473   4.974   6.994
 5991SOL    HW118872   3.444   4.888   6.951
 5991SOL    HW218873   3.476   4.962   0.074
 5992SOL     OW18874   3.541   0.101   2.662
 5992SOL    HW118875   3.591   0.128   2.580
 5992SOL    HW218876   3.518   0.183   2.716
 5993SOL     OW18877   2.792   6.276   6.743
 5993SOL    HW118878   2.762   6.270   6.838
 5993SOL    HW218879   2.831   6.189   6.714
 5994SOL     OW18880   5.999   2.579   1.913
 5994SOL    HW118881   6.072   2.645   1.898
 5994SOL    HW218882   5.948   2.566   1.828
 5995SOL     OW18883   5.316   4.648   3.169
 5995SOL    HW118884   5.350   4.742   3.172
 5995SOL    HW218885   5.301   4.614   3.262
 5996SOL     OW18886   1.072   6.600   0.752
 5996SOL    HW118887   0.989   6.632   0.797
 5996SOL    HW218888   1.085   6.648   0.666
 5997SOL     OW18889   1.029   5.360   2.259
 5997SOL    HW118890   0.942   5.396   2.293
 5997SOL    HW218891   1.102   5.426   2.278
 5998SOL     OW18892   5.818   1.745   2.989
 5998SOL    HW118893   5.914   1.766   3.007
 5998SOL    HW218894   5.810   1.694   2.904
 5999SOL     OW18895   1.556   1.806   2.385
 5999SOL    HW118896   1.541   1.881   2.450
 5999SOL    HW218897   1.468   1.763   2.363
 6000SOL     OW18898   4.637   6.568   0.911
 6000SOL    HW118899   4.604   6.560   0.817
 6000SOL    HW218900   4.561   6.550   0.974
 6001SOL     OW18901   0.928   3.808   0.148
 6001SOL    HW118902   0.891   3.740   0.085
 6001SOL    HW218903   1.019   3.778   0.178
 6002SOL     OW18904   6.219   0.088   1.180
 6002SOL    HW118905   6.123   0.092   1.155
 6002SOL    HW218906   6.273   0.140   1.113
 6003SOL     OW18907   6.344   2.393   4.070
 6003SOL    HW118908   6.265   2.398   4.132
 6003SOL    HW218909   6.331   2.457   3.994
 6004SOL     OW18910   0.658   3.582   2.931
 6004SOL    HW118911   0.640   3.677   2.906
 6004SOL    HW218912   0.594   3.522   2.882
 6005SOL     OW18913   5.237   5.699   4.597
 6005SOL    HW118914   5.165   5.758   4.560
 6005SOL    HW218915   5.304   5.755   4.646
 6006SOL     OW18916   2.990   1.160   5.940
 6006SOL    HW118917   2.916   1.221   5.967
 6006SOL    HW218918   3.035   1.124   6.021
 6007SOL     OW18919   4.955   3.538   5.283
 6007SOL    HW118920   4.892   3.551   5.207
 6007SOL    HW218921   4.933   3.452   5.329
 6008SOL     OW18922   2.056   4.553   5.880
 6008SOL    HW118923   2.045   4.463   5.920
 6008SOL    HW218924   1.971   4.582   5.837
 6009SOL     OW18925   3.681   0.698   3.807
 6009SOL    HW118926   3.652   0.683   3.712
 6009SOL    HW218927   3.650   0.622   3.863
 6010SOL     OW18928   1.182   4.385   4.098
 6010SOL    HW118929   1.249   4.450   4.136
 6010SOL    HW218930   1.099   4.388   4.153
 6011SOL     OW18931   5.018   3.397   2.244
 6011SOL    HW118932   4.981   3.311   2.208
 6011SOL    HW218933   5.097   3.426   2.190
 6012SOL     OW18934   5.206   1.300   0.110
 6012SOL    HW118935   5.125   1.292   0.052
 6012SOL    HW218936   5.209   1.225   0.176
 6013SOL     OW18937   4.782   2.021   3.186
 6013SOL    HW118938   4.767   1.938   3.133
 6013SOL    HW218939   4.782   1.999   3.284
 6014SOL     OW18940   4.076   3.721   1.410
 6014SOL    HW118941   4.162   3.682   1.445
 6014SOL    HW218942   4.096   3.779   1.331
 6015SOL     OW18943   5.388   2.701   4.133
 6015SOL    HW118944   5.392   2.627   4.065
 6015SOL    HW218945   5.479   2.742   4.142
 6016SOL     OW18946   5.865   1.921   6.072
 6016SOL    HW118947   5.837   1.976   6.151
 6016SOL    HW218948   5.960   1.892   6.084
 6017SOL     OW18949   6.787   4.124   2.681
 6017SOL    HW118950   6.826   4.216   2.691
 6017SOL    HW218951   6.740   4.099   2.766
 6018SOL     OW18952   3.221   0.886   6.396
 6018SOL    HW118953   3.158   0.811   6.415
 6018SOL    HW218954   3.278   0.862   6.317
 6019SOL     OW18955   6.683   2.143   4.306
 6019SOL    HW118956   6.715   2.206   4.377
 6019SOL    HW218957   6.657   2.195   4.225
 6020SOL     OW18958   1.477   4.378   0.983
 6020SOL    HW118959   1.403   4.420   1.035
 6020SOL    HW218960   1.507   4.440   0.910
 6021SOL     OW18961   4.760   0.654   2.411
 6021SOL    HW118962   4.673   0.697   2.387
 6021SOL    HW218963   4.757   0.623   2.507
 6022SOL     OW18964   4.261   2.266   4.064
 6022SOL    HW118965   4.305   2.273   4.154
 6022SOL    HW218966   4.274   2.351   4.014
 6023SOL     OW18967   6.489   6.990   2.287
 6023SOL    HW118968   6.469   0.054   2.237
 6023SOL    HW218969   6.508   6.916   2.222
 6024SOL     OW18970   1.427   5.018   3.220
 6024SOL    HW118971   1.347   5.028   3.160
 6024SOL    HW218972   1.440   5.101   3.274
 6025SOL     OW18973   3.377   1.351   2.685
 6025SOL    HW118974   3.343   1.444   2.670
 6025SOL    HW218975   3.405   1.311   2.597
 6026SOL     OW18976   0.206   4.033   5.241
 6026SOL    HW118977   0.194   4.123   5.201
 6026SOL    HW218978   0.145   4.022   5.320
 6027SOL     OW18979   1.618   4.275   6.526
 6027SOL    HW118980   1.581   4.296   6.436
 6027SOL    HW218981   1.686   4.344   6.552
 6028SOL     OW18982   0.397   5.130   6.868
 6028SOL    HW118983   0.488   5.115   6.831
 6028SOL    HW218984   0.349   5.198   6.812
 6029SOL     OW18985   2.305   6.016   5.192
 6029SOL    HW118986   2.316   6.017   5.292
 6029SOL    HW218987   2.254   5.935   5.165
 6030SOL     OW18988   3.752   6.067   3.073
 6030SOL    HW118989   3.772   6.165   3.066
 6030SOL    HW218990   3.800   6.018   3.000
 6031SOL     OW18991   3.229   5.579   3.133
 6031SOL    HW118992   3.160   5.633   3.086
 6031SOL    HW218993   3.204   5.482   3.129
 6032SOL     OW18994   2.176   4.611   3.115
 6032SOL    HW118995   2.184   4.703   3.152
 6032SOL    HW218996   2.191   4.613   3.016
 6033SOL     OW18997   3.081   1.760   2.951
 6033SOL    HW118998   3.138   1.720   2.879
 6033SOL    HW218999   3.095   1.859   2.953
 6034SOL     OW19000   0.617   5.036   4.719
 6034SOL    HW119001   0.618   5.023   4.818
 6034SOL    HW219002   0.657   5.125   4.697
 6035SOL     OW19003   6.838   0.776   2.513
 6035SOL    HW119004   6.788   0.746   2.594
 6035SOL    HW219005   6.795   0.858   2.476
 6036SOL     OW19006   6.148   5.552   3.986
 6036SOL    HW119007   6.193   5.470   4.021
 6036SOL    HW219008   6.215   5.625   3.978
 6037SOL     OW19009   4.401   4.701   6.252
 6037SOL    HW119010   4.334   4.731   6.320
 6037SOL    HW219011   4.441   4.780   6.207
 6038SOL     OW19012   1.811   2.682   6.003
 6038SOL    HW119013   1.895   2.627   6.002
 6038SOL    HW219014   1.736   2.626   6.037
 6039SOL     OW19015   2.953   3.878   2.520
 6039SOL    HW119016   2.895   3.865   2.600
 6039SOL    HW219017   3.024   3.808   2.519
 6040SOL     OW19018   0.668   2.181   6.573
 6040SOL    HW119019   0.617   2.214   6.653
 6040SOL    HW219020   0.720   2.100   6.599
 6041SOL     OW19021   2.001   0.541   5.175
 6041SOL    HW119022   1.989   0.629   5.129
 6041SOL    HW219023   2.066   0.485   5.124
 6042SOL     OW19024   5.393   5.575   1.634
 6042SOL    HW119025   5.395   5.515   1.714
 6042SOL    HW219026   5.344   5.659   1.657
 6043SOL     OW19027   0.879   4.534   5.643
 6043SOL    HW119028   0.863   4.583   5.557
 6043SOL    HW219029   0.878   4.435   5.625
 6044SOL     OW19030   1.341   1.893   1.920
 6044SOL    HW119031   1.324   1.979   1.969
 6044SOL    HW219032   1.355   1.820   1.986
 6045SOL     OW19033   6.508   4.883   2.242
 6045SOL    HW119034   6.422   4.931   2.258
 6045SOL    HW219035   6.529   4.824   2.320
 6046SOL     OW19036   4.117   2.134   0.429
 6046SOL    HW119037   4.118   2.192   0.348
 6046SOL    HW219038   4.205   2.088   0.439
 6047SOL     OW19039   5.199   2.129   2.025
 6047SOL    HW119040   5.238   2.209   1.978
 6047SOL    HW219041   5.150   2.160   2.107
 6048SOL     OW19042   4.939   5.957   4.317
 6048SOL    HW119043   4.889   5.883   4.272
 6048SOL    HW219044   4.965   5.930   4.410
 6049SOL     OW19045   5.873   3.870   6.115
 6049SOL    HW119046   5.937   3.846   6.189
 6049SOL    HW219047   5.815   3.946   6.145
 6050SOL     OW19048   3.491   5.851   4.412
 6050SOL    HW119049   3.462   5.853   4.316
 6050SOL    HW219050   3.443   5.777   4.459
 6051SOL     OW19051   2.719   0.977   4.302
 6051SOL    HW119052   2.669   1.040   4.360
 6051SOL    HW219053   2.758   1.027   4.224
 6052SOL     OW19054   6.128   0.231   0.799
 6052SOL    HW119055   6.113   0.133   0.795
 6052SOL    HW219056   6.043   0.277   0.822
 6053SOL     OW19057   4.385   1.482   6.424
 6053SOL    HW119058   4.394   1.520   6.332
 6053SOL    HW219059   4.362   1.385   6.418
 6054SOL     OW19060   3.245   3.298   0.695
 6054SOL    HW119061   3.256   3.259   0.603
 6054SOL    HW219062   3.239   3.397   0.689
 6055SOL     OW19063   5.121   0.920   5.627
 6055SOL    HW119064   5.071   0.930   5.541
 6055SOL    HW219065   5.218   0.940   5.613
 6056SOL     OW19066   4.612   2.616   4.505
 6056SOL    HW119067   4.635   2.697   4.558
 6056SOL    HW219068   4.646   2.535   4.551
 6057SOL     OW19069   5.278   2.748   3.800
 6057SOL    HW119070   5.201   2.688   3.819
 6057SOL    HW219071   5.288   2.815   3.874
 6058SOL     OW19072   4.765   3.026   0.989
 6058SOL    HW119073   4.741   3.096   1.056
 6058SOL    HW219074   4.728   3.052   0.899
 6059SOL     OW19075   5.155   5.354   5.002
 6059SOL    HW119076   5.140   5.433   5.061
 6059SOL    HW219077   5.253   5.337   4.993
 6060SOL     OW19078   2.735   3.859   6.483
 6060SOL    HW119079   2.815   3.877   6.540
 6060SOL    HW219080   2.677   3.941   6.481
 6061SOL     OW19081   3.662   2.411   1.270
 6061SOL    HW119082   3.684   2.314   1.262
 6061SOL    HW219083   3.586   2.422   1.334
 6062SOL     OW19084   2.287   1.838   4.866
 6062SOL    HW119085   2.197   1.882   4.873
 6062SOL    HW219086   2.276   1.739   4.870
 6063SOL     OW19087   3.614   1.717   6.351
 6063SOL    HW119088   3.572   1.669   6.429
 6063SOL    HW219089   3.705   1.680   6.334
 6064SOL     OW19090   1.519   5.721   1.100
 6064SOL    HW119091   1.570   5.663   1.163
 6064SOL    HW219092   1.423   5.693   1.099
 6065SOL     OW19093   6.295   0.299   1.897
 6065SOL    HW119094   6.278   0.275   1.992
 6065SOL    HW219095   6.223   0.260   1.839
 6066SOL     OW19096   5.061   1.949   5.917
 6066SOL    HW119097   5.048   1.853   5.894
 6066SOL    HW219098   5.079   1.958   6.015
 6067SOL     OW19099   5.201   1.867   6.151
 6067SOL    HW119100   5.234   1.780   6.113
 6067SOL    HW219101   5.252   1.889   6.234
 6068SOL     OW19102   5.666   2.819   4.617
 6068SOL    HW119103   5.607   2.830   4.538
 6068SOL    HW219104   5.756   2.858   4.598
 6069SOL     OW19105   6.841   3.540   4.723
 6069SOL    HW119106   6.938   3.526   4.702
 6069SOL    HW219107   6.787   3.465   4.685
 6070SOL     OW19108   2.381   2.545   0.586
 6070SOL    HW119109   2.310   2.487   0.545
 6070SOL    HW219110   2.461   2.489   0.607
 6071SOL     OW19111   6.460   5.699   4.546
 6071SOL    HW119112   6.410   5.749   4.616
 6071SOL    HW219113   6.489   5.611   4.583
 6072SOL     OW19114   0.557   7.014   2.007
 6072SOL    HW119115   0.617   0.068   1.978
 6072SOL    HW219116   0.489   6.996   1.936
 6073SOL     OW19117   6.544   4.126   0.243
 6073SOL    HW119118   6.600   4.092   0.318
 6073SOL    HW219119   6.603   4.164   0.171
 6074SOL     OW19120   1.090   6.324   4.385
 6074SOL    HW119121   1.154   6.395   4.412
 6074SOL    HW219122   1.050   6.347   4.296
 6075SOL     OW19123   6.597   1.103   6.356
 6075SOL    HW119124   6.595   1.144   6.447
 6075SOL    HW219125   6.627   1.008   6.362
 6076SOL     OW19126   2.247   5.541   4.825
 6076SOL    HW119127   2.336   5.499   4.807
 6076SOL    HW219128   2.229   5.538   4.923
 6077SOL     OW19129   5.772   5.772   1.712
 6077SOL    HW119130   5.806   5.716   1.788
 6077SOL    HW219131   5.735   5.712   1.641
 6078SOL     OW19132   3.821   5.160   0.852
 6078SOL    HW119133   3.780   5.225   0.916
 6078SOL    HW219134   3.818   5.199   0.760
 6079SOL     OW19135   3.862   3.076   6.590
 6079SOL    HW119136   3.795   3.078   6.663
 6079SOL    HW219137   3.853   3.159   6.534
 6080SOL     OW19138   0.301   1.182   1.759
 6080SOL    HW119139   0.309   1.268   1.809
 6080SOL    HW219140   0.207   1.169   1.728
 6081SOL     OW19141   6.402   3.410   5.496
 6081SOL    HW119142   6.345   3.356   5.433
 6081SOL    HW219143   6.434   3.492   5.449
 6082SOL     OW19144   2.146   1.976   3.590
 6082SOL    HW119145   2.244   1.959   3.580
 6082SOL    HW219146   2.113   2.033   3.515
 6083SOL     OW19147   0.355   4.870   0.127
 6083SOL    HW119148   0.314   4.895   0.215
 6083SOL    HW219149   0.291   4.893   0.054
 6084SOL     OW19150   0.336   6.360   3.245
 6084SOL    HW119151   0.362   6.455   3.264
 6084SOL    HW219152   0.418   6.306   3.227
 6085SOL     OW19153   0.943   4.405   0.644
 6085SOL    HW119154   1.001   4.449   0.712
 6085SOL    HW219155   0.905   4.320   0.682
 6086SOL     OW19156   3.823   1.200   5.864
 6086SOL    HW119157   3.839   1.297   5.882
 6086SOL    HW219158   3.758   1.190   5.789
 6087SOL     OW19159   4.046   5.730   0.997
 6087SOL    HW119160   4.041   5.740   0.898
 6087SOL    HW219161   4.127   5.778   1.032
 6088SOL     OW19162   6.095   5.851   4.198
 6088SOL    HW119163   6.128   5.932   4.150
 6088SOL    HW219164   6.030   5.803   4.139
 6089SOL     OW19165   6.220   3.139   0.877
 6089SOL    HW119166   6.215   3.052   0.829
 6089SOL    HW219167   6.220   3.214   0.810
 6090SOL     OW19168   2.381   6.180   5.560
 6090SOL    HW119169   2.471   6.224   5.560
 6090SOL    HW219170   2.310   6.250   5.549
 6091SOL     OW19171   1.633   1.699   1.692
 6091SOL    HW119172   1.557   1.686   1.628
 6091SOL    HW219173   1.686   1.780   1.665
 6092SOL     OW19174   3.648   6.698   2.675
 6092SOL    HW119175   3.737   6.654   2.674
 6092SOL    HW219176   3.656   6.789   2.714
 6093SOL     OW19177   1.841   3.073   3.093
 6093SOL    HW119178   1.906   3.134   3.138
 6093SOL    HW219179   1.769   3.127   3.050
 6094SOL     OW19180   3.964   0.791   1.134
 6094SOL    HW119181   3.916   0.704   1.147
 6094SOL    HW219182   3.898   0.863   1.111
 6095SOL     OW19183   4.840   3.522   0.224
 6095SOL    HW119184   4.774   3.553   0.156
 6095SOL    HW219185   4.833   3.579   0.306
 6096SOL     OW19186   6.375   0.933   3.808
 6096SOL    HW119187   6.438   0.868   3.852
 6096SOL    HW219188   6.418   0.971   3.727
 6097SOL     OW19189   1.940   6.880   2.105
 6097SOL    HW119190   1.974   6.965   2.065
 6097SOL    HW219191   2.015   6.815   2.114
 6098SOL     OW19192   1.457   2.802   6.294
 6098SOL    HW119193   1.451   2.749   6.378
 6098SOL    HW219194   1.553   2.820   6.272
 6099SOL     OW19195   6.677   5.785   0.900
 6099SOL    HW119196   6.771   5.782   0.933
 6099SOL    HW219197   6.619   5.829   0.968
 6100SOL     OW19198   4.490   3.810   0.464
 6100SOL    HW119199   4.404   3.841   0.425
 6100SOL    HW219200   4.539   3.754   0.397
 6101SOL     OW19201   6.136   2.078   4.367
 6101SOL    HW119202   6.151   2.174   4.391
 6101SOL    HW219203   6.220   2.041   4.327
 6102SOL     OW19204   3.387   6.556   3.406
 6102SOL    HW119205   3.410   6.470   3.360
 6102SOL    HW219206   3.395   6.632   3.341
 6103SOL     OW19207   6.961   2.549   2.623
 6103SOL    HW119208   6.903   2.621   2.585
 6103SOL    HW219209   6.905   2.484   2.675
 6104SOL     OW19210   6.144   1.355   5.534
 6104SOL    HW119211   6.159   1.296   5.613
 6104SOL    HW219212   6.110   1.300   5.457
 6105SOL     OW19213   1.670   0.153   5.931
 6105SOL    HW119214   1.711   0.073   5.886
 6105SOL    HW219215   1.644   0.129   6.025
 6106SOL     OW19216   2.026   4.183   5.393
 6106SOL    HW119217   2.090   4.258   5.378
 6106SOL    HW219218   2.016   4.130   5.310
 6107SOL     OW19219   2.426   4.549   4.772
 6107SOL    HW119220   2.332   4.584   4.770
 6107SOL    HW219221   2.446   4.514   4.863
 6108SOL     OW19222   0.298   2.455   1.771
 6108SOL    HW119223   0.288   2.522   1.844
 6108SOL    HW219224   0.325   2.367   1.810
 6109SOL     OW19225   5.243   2.927   5.933
 6109SOL    HW119226   5.173   2.893   5.995
 6109SOL    HW219227   5.239   3.026   5.928
 6110SOL     OW19228   4.249   3.532   0.053
 6110SOL    HW119229   4.323   3.477   0.093
 6110SOL    HW219230   4.213   3.594   0.123
 6111SOL     OW19231   2.246   4.125   2.062
 6111SOL    HW119232   2.197   4.057   2.118
 6111SOL    HW219233   2.251   4.092   1.968
 6112SOL     OW19234   3.685   6.946   2.795
 6112SOL    HW119235   3.674   6.964   2.892
 6112SOL    HW219236   3.633   7.014   2.743
 6113SOL     OW19237   1.559   1.765   5.943
 6113SOL    HW119238   1.511   1.809   6.019
 6113SOL    HW219239   1.496   1.706   5.894
 6114SOL     OW19240   5.239   5.332   0.968
 6114SOL    HW119241   5.149   5.374   0.958
 6114SOL    HW219242   5.301   5.395   1.014
 6115SOL     OW19243   4.432   0.184   3.801
 6115SOL    HW119244   4.508   0.143   3.751
 6115SOL    HW219245   4.347   0.138   3.775
 6116SOL     OW19246   2.916   0.193   0.592
 6116SOL    HW119247   2.909   0.137   0.674
 6116SOL    HW219248   2.843   0.260   0.591
 6117SOL     OW19249   0.554   0.586   5.712
 6117SOL    HW119250   0.592   0.525   5.782
 6117SOL    HW219251   0.609   0.578   5.629
 6118SOL     OW19252   6.056   0.495   1.985
 6118SOL    HW119253   5.957   0.494   1.993
 6118SOL    HW219254   6.090   0.587   2.006
 6119SOL     OW19255   1.319   3.783   5.726
 6119SOL    HW119256   1.270   3.701   5.755
 6119SOL    HW219257   1.309   3.854   5.795
 6120SOL     OW19258   3.699   6.677   4.597
 6120SOL    HW119259   3.656   6.709   4.512
 6120SOL    HW219260   3.702   6.577   4.597
 6121SOL     OW19261   0.583   2.992   5.413
 6121SOL    HW119262   0.584   2.968   5.316
 6121SOL    HW219263   0.531   2.923   5.464
 6122SOL     OW19264   3.936   6.761   1.160
 6122SOL    HW119265   4.002   6.723   1.225
 6122SOL    HW219266   3.848   6.714   1.171
 6123SOL     OW19267   6.420   0.244   6.660
 6123SOL    HW119268   6.452   0.331   6.697
 6123SOL    HW219269   6.330   0.223   6.698
 6124SOL     OW19270   2.132   1.095   6.511
 6124SOL    HW119271   2.227   1.099   6.481
 6124SOL    HW219272   2.127   1.050   6.600
 6125SOL     OW19273   1.192   5.885   0.240
 6125SOL    HW119274   1.186   5.796   0.285
 6125SOL    HW219275   1.286   5.902   0.211
 6126SOL     OW19276   0.124   6.762   4.071
 6126SOL    HW119277   0.086   6.826   4.138
 6126SOL    HW219278   0.219   6.786   4.053
 6127SOL     OW19279   3.825   0.308   1.799
 6127SOL    HW119280   3.923   0.321   1.809
 6127SOL    HW219281   3.777   0.392   1.827
 6128SOL     OW19282   6.508   3.100   6.822
 6128SOL    HW119283   6.498   3.002   6.805
 6128SOL    HW219284   6.531   3.115   6.918
 6129SOL     OW19285   6.573   3.915   3.005
 6129SOL    HW119286   6.478   3.919   2.974
 6129SOL    HW219287   6.614   4.006   2.998
 6130SOL     OW19288   6.120   2.324   3.331
 6130SOL    HW119289   6.077   2.304   3.419
 6130SOL    HW219290   6.111   2.245   3.270
 6131SOL     OW19291   6.540   1.184   5.089
 6131SOL    HW119292   6.563   1.131   5.008
 6131SOL    HW219293   6.600   1.158   5.164
 6132SOL     OW19294   4.736   1.432   0.779
 6132SOL    HW119295   4.746   1.406   0.875
 6132SOL    HW219296   4.662   1.378   0.738
 6133SOL     OW19297   1.047   2.547   2.605
 6133SOL    HW119298   1.141   2.572   2.627
 6133SOL    HW219299   0.988   2.572   2.681
 6134SOL     OW19300   3.750   4.475   6.358
 6134SOL    HW119301   3.745   4.534   6.278
 6134SOL    HW219302   3.798   4.390   6.335
 6135SOL     OW19303   0.607   6.948   2.264
 6135SOL    HW119304   0.518   6.907   2.282
 6135SOL    HW219305   0.604   6.997   2.177
 6136SOL     OW19306   0.816   2.165   2.924
 6136SOL    HW119307   0.843   2.211   2.840
 6136SOL    HW219308   0.889   2.172   2.992
 6137SOL     OW19309   6.025   2.613   3.626
 6137SOL    HW119310   6.080   2.627   3.544
 6137SOL    HW219311   5.936   2.658   3.614
 6138SOL     OW19312   4.629   6.191   3.066
 6138SOL    HW119313   4.710   6.135   3.049
 6138SOL    HW219314   4.603   6.240   2.983
 6139SOL     OW19315   1.334   1.968   5.898
 6139SOL    HW119316   1.368   1.996   5.808
 6139SOL    HW219317   1.382   2.018   5.970
 6140SOL     OW19318   0.421   6.528   1.426
 6140SOL    HW119319   0.408   6.551   1.330
 6140SOL    HW219320   0.346   6.565   1.480
 6141SOL     OW19321   6.637   5.683   6.314
 6141SOL    HW119322   6.621   5.693   6.216
 6141SOL    HW219323   6.555   5.708   6.365
 6142SOL     OW19324   0.628   5.543   0.983
 6142SOL    HW119325   0.622   5.496   1.071
 6142SOL    HW219326   0.721   5.539   0.948
 6143SOL     OW19327   6.969   4.067   0.912
 6143SOL    HW119328   6.888   4.010   0.920
 6143SOL    HW219329   6.974   4.107   0.820
 6144SOL     OW19330   6.484   4.169   3.243
 6144SOL    HW119331   6.460   4.188   3.338
 6144SOL    HW219332   6.523   4.250   3.201
 6145SOL     OW19333   4.521   5.518   3.651
 6145SOL    HW119334   4.475   5.604   3.674
 6145SOL    HW219335   4.464   5.465   3.589
 6146SOL     OW19336   3.208   6.808   3.829
 6146SOL    HW119337   3.109   6.812   3.844
 6146SOL    HW219338   3.227   6.754   3.747
 6147SOL     OW19339   1.248   3.338   4.686
 6147SOL    HW119340   1.221   3.335   4.589
 6147SOL    HW219341   1.337   3.383   4.694
 6148SOL     OW19342   6.743   0.375   4.183
 6148SOL    HW119343   6.693   0.322   4.114
 6148SOL    HW219344   6.748   0.322   4.268
 6149SOL     OW19345   3.501   5.312   1.333
 6149SOL    HW119346   3.444   5.282   1.257
 6149SOL    HW219347   3.487   5.410   1.350
 6150SOL     OW19348   4.429   5.166   6.525
 6150SOL    HW119349   4.477   5.197   6.607
 6150SOL    HW219350   4.482   5.190   6.444
 6151SOL     OW19351   5.783   5.045   5.389
 6151SOL    HW119352   5.881   5.047   5.410
 6151SOL    HW219353   5.737   4.984   5.454
 6152SOL     OW19354   6.643   5.829   5.060
 6152SOL    HW119355   6.625   5.731   5.071
 6152SOL    HW219356   6.557   5.878   5.051
 6153SOL     OW19357   5.489   3.890   1.524
 6153SOL    HW119358   5.544   3.973   1.521
 6153SOL    HW219359   5.457   3.874   1.618
 6154SOL     OW19360   6.038   2.225   2.472
 6154SOL    HW119361   5.946   2.186   2.475
 6154SOL    HW219362   6.075   2.231   2.565
 6155SOL     OW19363   1.873   2.277   4.516
 6155SOL    HW119364   1.955   2.267   4.460
 6155SOL    HW219365   1.793   2.248   4.463
 6156SOL     OW19366   4.317   4.699   1.582
 6156SOL    HW119367   4.296   4.719   1.678
 6156SOL    HW219368   4.411   4.665   1.575
 6157SOL     OW19369   1.096   1.183   4.193
 6157SOL    HW119370   1.098   1.137   4.282
 6157SOL    HW219371   1.186   1.224   4.175
 6158SOL     OW19372   4.561   1.149   6.199
 6158SOL    HW119373   4.512   1.121   6.117
 6158SOL    HW219374   4.645   1.197   6.174
 6159SOL     OW19375   5.207   2.386   1.439
 6159SOL    HW119376   5.306   2.385   1.450
 6159SOL    HW219377   5.167   2.451   1.503
 6160SOL     OW19378   5.121   0.284   6.281
 6160SOL    HW119379   5.205   0.251   6.238
 6160SOL    HW219380   5.127   0.271   6.380
 6161SOL     OW19381   4.862   1.595   4.484
 6161SOL    HW119382   4.794   1.575   4.555
 6161SOL    HW219383   4.911   1.679   4.508
 6162SOL     OW19384   1.537   6.506   3.565
 6162SOL    HW119385   1.553   6.529   3.661
 6162SOL    HW219386   1.440   6.518   3.545
 6163SOL     OW19387   6.255   5.959   1.168
 6163SOL    HW119388   6.207   6.029   1.220
 6163SOL    HW219389   6.270   5.879   1.226
 6164SOL     OW19390   3.404   2.907   1.967
 6164SOL    HW119391   3.424   2.998   1.930
 6164SOL    HW219392   3.488   2.869   2.006
 6165SOL     OW19393   4.653   0.875   6.562
 6165SOL    HW119394   4.635   0.919   6.650
 6165SOL    HW219395   4.728   0.921   6.516
 6166SOL     OW19396   4.747   1.322   6.134
 6166SOL    HW119397   4.782   1.366   6.217
 6166SOL    HW219398   4.823   1.293   6.077
 6167SOL     OW19399   0.501   4.205   3.614
 6167SOL    HW119400   0.405   4.210   3.586
 6167SOL    HW219401   0.507   4.166   3.705
 6168SOL     OW19402   0.743   3.456   0.875
 6168SOL    HW119403   0.764   3.368   0.832
 6168SOL    HW219404   0.818   3.519   0.860
 6169SOL     OW19405   1.764   2.565   1.146
 6169SOL    HW119406   1.729   2.618   1.223
 6169SOL    HW219407   1.737   2.609   1.061
 6170SOL     OW19408   1.185   3.638   5.256
 6170SOL    HW119409   1.251   3.564   5.241
 6170SOL    HW219410   1.207   3.714   5.195
 6171SOL     OW19411   0.343   2.867   0.564
 6171SOL    HW119412   0.265   2.877   0.626
 6171SOL    HW219413   0.420   2.826   0.613
 6172SOL     OW19414   2.232   2.653   2.236
 6172SOL    HW119415   2.220   2.744   2.196
 6172SOL    HW219416   2.297   2.601   2.181
 6173SOL     OW19417   0.570   5.603   2.419
 6173SOL    HW119418   0.472   5.620   2.419
 6173SOL    HW219419   0.613   5.656   2.492
 6174SOL     OW19420   5.090   5.902   3.909
 6174SOL    HW119421   5.142   5.933   3.829
 6174SOL    HW219422   5.069   5.805   3.900
 6175SOL     OW19423   3.585   7.018   3.032
 6175SOL    HW119424   3.511   6.951   3.040
 6175SOL    HW219425   3.573   0.070   3.101
 6176SOL     OW19426   5.188   4.716   5.429
 6176SOL    HW119427   5.191   4.624   5.468
 6176SOL    HW219428   5.112   4.722   5.365
 6177SOL     OW19429   5.701   1.242   1.704
 6177SOL    HW119430   5.665   1.320   1.652
 6177SOL    HW219431   5.794   1.222   1.675
 6178SOL     OW19432   5.257   4.635   2.224
 6178SOL    HW119433   5.343   4.587   2.208
 6178SOL    HW219434   5.209   4.647   2.137
 6179SOL     OW19435   6.574   4.367   3.752
 6179SOL    HW119436   6.558   4.460   3.785
 6179SOL    HW219437   6.568   4.365   3.652
 6180SOL     OW19438   2.567   4.445   0.288
 6180SOL    HW119439   2.497   4.376   0.268
 6180SOL    HW219440   2.523   4.529   0.320
 6181SOL     OW19441   4.750   6.641   6.032
 6181SOL    HW119442   4.848   6.630   6.015
 6181SOL    HW219443   4.699   6.586   5.966
 6182SOL     OW19444   4.758   2.886   4.934
 6182SOL    HW119445   4.746   2.925   5.025
 6182SOL    HW219446   4.856   2.871   4.917
 6183SOL     OW19447   1.176   2.290   3.555
 6183SOL    HW119448   1.201   2.358   3.624
 6183SOL    HW219449   1.228   2.308   3.471
 6184SOL     OW19450   2.920   6.107   0.125
 6184SOL    HW119451   2.941   6.191   0.075
 6184SOL    HW219452   2.859   6.050   0.070
 6185SOL     OW19453   7.013   4.114   6.503
 6185SOL    HW119454   6.962   4.108   6.589
 6185SOL    HW219455   6.996   4.202   6.460
 6186SOL     OW19456   6.674   0.916   0.170
 6186SOL    HW119457   6.668   1.007   0.212
 6186SOL    HW219458   6.694   0.925   0.073
 6187SOL     OW19459   5.231   4.436   4.353
 6187SOL    HW119460   5.331   4.443   4.354
 6187SOL    HW219461   5.204   4.340   4.361
 6188SOL     OW19462   1.721   1.570   6.046
 6188SOL    HW119463   1.704   1.552   6.143
 6188SOL    HW219464   1.684   1.660   6.022
 6189SOL     OW19465   4.168   4.723   2.288
 6189SOL    HW119466   4.187   4.691   2.195
 6189SOL    HW219467   4.254   4.729   2.339
 6190SOL     OW19468   0.526   3.856   5.704
 6190SOL    HW119469   0.530   3.768   5.751
 6190SOL    HW219470   0.526   3.842   5.606
 6191SOL     OW19471   2.547   2.555   6.739
 6191SOL    HW119472   2.602   2.478   6.706
 6191SOL    HW219473   2.519   2.611   6.661
 6192SOL     OW19474   2.928   2.208   6.004
 6192SOL    HW119475   2.972   2.171   5.923
 6192SOL    HW219476   2.967   2.297   6.026
 6193SOL     OW19477   5.249   5.927   1.318
 6193SOL    HW119478   5.276   5.833   1.338
 6193SOL    HW219479   5.173   5.926   1.253
 6194SOL     OW19480   0.352   0.445   6.544
 6194SOL    HW119481   0.437   0.450   6.492
 6194SOL    HW219482   0.283   0.395   6.492
 6195SOL     OW19483   4.453   5.623   4.431
 6195SOL    HW119484   4.508   5.547   4.467
 6195SOL    HW219485   4.511   5.704   4.420
 6196SOL     OW19486   5.848   4.018   1.484
 6196SOL    HW119487   5.766   4.036   1.539
 6196SOL    HW219488   5.899   3.941   1.524
 6197SOL     OW19489   3.165   5.574   1.224
 6197SOL    HW119490   3.166   5.668   1.256
 6197SOL    HW219491   3.178   5.512   1.301
 6198SOL     OW19492   4.119   6.754   0.693
 6198SOL    HW119493   4.137   6.656   0.700
 6198SOL    HW219494   4.175   6.793   0.620
 6199SOL     OW19495   0.884   0.955   0.247
 6199SOL    HW119496   0.865   0.873   0.300
 6199SOL    HW219497   0.955   1.009   0.292
 6200SOL     OW19498   1.066   1.295   5.801
 6200SOL    HW119499   1.149   1.243   5.820
 6200SOL    HW219500   1.060   1.314   5.703
 6201SOL     OW19501   1.062   3.759   5.845
 6201SOL    HW119502   1.021   3.850   5.833
 6201SOL    HW219503   1.128   3.762   5.920
 6202SOL     OW19504   4.794   1.613   1.499
 6202SOL    HW119505   4.794   1.598   1.598
 6202SOL    HW219506   4.887   1.602   1.463
 6203SOL     OW19507   6.475   5.818   2.472
 6203SOL    HW119508   6.496   5.863   2.559
 6203SOL    HW219509   6.420   5.737   2.490
 6204SOL     OW19510   0.543   6.082   4.505
 6204SOL    HW119511   0.483   6.003   4.516
 6204SOL    HW219512   0.493   6.166   4.527
 6205SOL     OW19513   6.392   5.397   1.496
 6205SOL    HW119514   6.425   5.474   1.441
 6205SOL    HW219515   6.354   5.432   1.582
 6206SOL     OW19516   6.521   1.604   2.526
 6206SOL    HW119517   6.614   1.637   2.514
 6206SOL    HW219518   6.522   1.522   2.584
 6207SOL     OW19519   1.903   5.523   5.202
 6207SOL    HW119520   1.873   5.499   5.109
 6207SOL    HW219521   1.833   5.496   5.268
 6208SOL     OW19522   3.763   2.442   5.410
 6208SOL    HW119523   3.695   2.489   5.354
 6208SOL    HW219524   3.725   2.423   5.501
 6209SOL     OW19525   3.271   5.680   6.887
 6209SOL    HW119526   3.207   5.746   6.928
 6209SOL    HW219527   3.330   5.727   6.822
 6210SOL     OW19528   4.845   3.838   3.258
 6210SOL    HW119529   4.832   3.764   3.193
 6210SOL    HW219530   4.834   3.926   3.212
 6211SOL     OW19531   2.805   6.250   6.179
 6211SOL    HW119532   2.819   6.173   6.241
 6211SOL    HW219533   2.893   6.292   6.158
 6212SOL     OW19534   3.055   4.993   4.826
 6212SOL    HW119535   3.021   5.087   4.829
 6212SOL    HW219536   3.010   4.939   4.897
 6213SOL     OW19537   5.102   0.284   0.102
 6213SOL    HW119538   5.026   0.293   0.166
 6213SOL    HW219539   5.092   0.198   0.052
 6214SOL     OW19540   5.724   5.631   5.438
 6214SOL    HW119541   5.682   5.719   5.461
 6214SOL    HW219542   5.658   5.558   5.456
 6215SOL     OW19543   3.828   2.400   6.874
 6215SOL    HW119544   3.924   2.411   6.899
 6215SOL    HW219545   3.771   2.408   6.956
 6216SOL     OW19546   5.797   2.426   2.623
 6216SOL    HW119547   5.773   2.337   2.584
 6216SOL    HW219548   5.721   2.460   2.679
 6217SOL     OW19549   0.673   3.366   2.023
 6217SOL    HW119550   0.622   3.368   2.108
 6217SOL    HW219551   0.771   3.371   2.043
 6218SOL     OW19552   3.549   6.876   6.790
 6218SOL    HW119553   3.459   6.845   6.820
 6218SOL    HW219554   3.617   6.853   6.859
 6219SOL     OW19555   0.985   1.774   4.697
 6219SOL    HW119556   0.900   1.810   4.658
 6219SOL    HW219557   1.052   1.848   4.703
 6220SOL     OW19558   2.800   1.578   5.381
 6220SOL    HW119559   2.869   1.643   5.413
 6220SOL    HW219560   2.729   1.626   5.330
 6221SOL     OW19561   5.392   0.191   0.392
 6221SOL    HW119562   5.341   0.126   0.336
 6221SOL    HW219563   5.481   0.152   0.415
 6222SOL     OW19564   1.301   6.952   1.946
 6222SOL    HW119565   1.361   6.975   1.869
 6222SOL    HW219566   1.344   6.880   2.001
 6223SOL     OW19567   1.852   4.960   3.353
 6223SOL    HW119568   1.941   5.002   3.339
 6223SOL    HW219569   1.826   4.968   3.449
 6224SOL     OW19570   4.207   1.686   5.851
 6224SOL    HW119571   4.209   1.633   5.935
 6224SOL    HW219572   4.136   1.756   5.858
 6225SOL     OW19573   3.604   2.098   6.143
 6225SOL    HW119574   3.658   2.163   6.089
 6225SOL    HW219575   3.639   2.096   6.237
 6226SOL     OW19576   0.719   1.783   4.090
 6226SOL    HW119577   0.723   1.790   3.990
 6226SOL    HW219578   0.810   1.801   4.128
 6227SOL     OW19579   3.702   4.911   5.509
 6227SOL    HW119580   3.733   4.880   5.599
 6227SOL    HW219581   3.659   4.835   5.460
 6228SOL     OW19582   0.529   2.928   2.361
 6228SOL    HW119583   0.613   2.898   2.405
 6228SOL    HW219584   0.450   2.903   2.417
 6229SOL     OW19585   0.776   1.968   5.303
 6229SOL    HW119586   0.840   1.913   5.249
 6229SOL    HW219587   0.798   2.065   5.291
 6230SOL     OW19588   0.633   2.404   4.200
 6230SOL    HW119589   0.597   2.319   4.160
 6230SOL    HW219590   0.732   2.395   4.213
 6231SOL     OW19591   5.771   5.399   0.381
 6231SOL    HW119592   5.780   5.382   0.479
 6231SOL    HW219593   5.708   5.332   0.341
 6232SOL     OW19594   6.423   1.142   0.793
 6232SOL    HW119595   6.344   1.187   0.749
 6232SOL    HW219596   6.459   1.202   0.865
 6233SOL     OW19597   6.262   3.041   1.552
 6233SOL    HW119598   6.288   3.056   1.457
 6233SOL    HW219599   6.331   2.985   1.598
 6234SOL     OW19600   6.851   6.848   5.580
 6234SOL    HW119601   6.829   6.757   5.542
 6234SOL    HW219602   6.841   6.846   5.679
 6235SOL     OW19603   0.260   0.308   1.199
 6235SOL    HW119604   0.198   0.280   1.125
 6235SOL    HW219605   0.231   0.265   1.285
 6236SOL     OW19606   0.654   4.246   0.737
 6236SOL    HW119607   0.575   4.192   0.767
 6236SOL    HW219608   0.727   4.237   0.804
 6237SOL     OW19609   3.434   0.174   6.961
 6237SOL    HW119610   3.475   0.123   6.885
 6237SOL    HW219611   3.364   0.117   7.004
 6238SOL     OW19612   4.904   5.888   2.790
 6238SOL    HW119613   4.849   5.870   2.871
 6238SOL    HW219614   4.990   5.932   2.816
 6239SOL     OW19615   3.341   1.374   1.449
 6239SOL    HW119616   3.306   1.451   1.395
 6239SOL    HW219617   3.413   1.328   1.399
 6240SOL     OW19618   2.946   3.909   4.892
 6240SOL    HW119619   3.011   3.834   4.879
 6240SOL    HW219620   2.946   3.967   4.811
 6241SOL     OW19621   3.407   0.711   2.849
 6241SOL    HW119622   3.390   0.615   2.868
 6241SOL    HW219623   3.340   0.744   2.782
 6242SOL     OW19624   4.157   6.502   3.280
 6242SOL    HW119625   4.124   6.592   3.253
 6242SOL    HW219626   4.096   6.463   3.349
 6243SOL     OW19627   0.240   6.612   5.388
 6243SOL    HW119628   0.205   6.706   5.380
 6243SOL    HW219629   0.340   6.613   5.381
 6244SOL     OW19630   5.206   3.560   3.470
 6244SOL    HW119631   5.267   3.625   3.425
 6244SOL    HW219632   5.129   3.610   3.511
 6245SOL     OW19633   1.550   3.862   1.676
 6245SOL    HW119634   1.550   3.790   1.607
 6245SOL    HW219635   1.586   3.947   1.636
 6246SOL     OW19636   1.026   1.322   5.011
 6246SOL    HW119637   1.084   1.390   5.058
 6246SOL    HW219638   0.973   1.368   4.940
 6247SOL     OW19639   1.448   6.116   3.375
 6247SOL    HW119640   1.364   6.102   3.323
 6247SOL    HW219641   1.446   6.060   3.458
 6248SOL     OW19642   3.648   3.985   0.184
 6248SOL    HW119643   3.657   4.053   0.257
 6248SOL    HW219644   3.727   3.991   0.123
 6249SOL     OW19645   6.909   3.516   0.725
 6249SOL    HW119646   6.839   3.446   0.715
 6249SOL    HW219647   6.960   3.524   0.639
 6250SOL     OW19648   6.503   6.582   1.089
 6250SOL    HW119649   6.602   6.570   1.078
 6250SOL    HW219650   6.481   6.594   1.186
 6251SOL     OW19651   4.162   5.988   5.217
 6251SOL    HW119652   4.095   6.046   5.170
 6251SOL    HW219653   4.139   5.985   5.315
 6252SOL     OW19654   2.807   4.559   6.280
 6252SOL    HW119655   2.885   4.497   6.269
 6252SOL    HW219656   2.792   4.576   6.378
 6253SOL     OW19657   2.656   4.896   4.284
 6253SOL    HW119658   2.743   4.861   4.248
 6253SOL    HW219659   2.613   4.825   4.340
 6254SOL     OW19660   5.852   0.909   1.375
 6254SOL    HW119661   5.794   0.972   1.323
 6254SOL    HW219662   5.903   0.960   1.444
 6255SOL     OW19663   2.705   1.637   0.956
 6255SOL    HW119664   2.738   1.627   1.049
 6255SOL    HW219665   2.618   1.589   0.946
 6256SOL     OW19666   4.004   5.398   1.933
 6256SOL    HW119667   3.923   5.340   1.926
 6256SOL    HW219668   3.976   5.494   1.935
 6257SOL     OW19669   4.005   3.078   6.942
 6257SOL    HW119670   4.016   3.171   6.978
 6257SOL    HW219671   3.921   3.072   6.888
 6258SOL     OW19672   3.447   6.548   4.318
 6258SOL    HW119673   3.385   6.575   4.245
 6258SOL    HW219674   3.406   6.475   4.372
 6259SOL     OW19675   1.923   0.615   6.442
 6259SOL    HW119676   1.858   0.680   6.480
 6259SOL    HW219677   1.940   0.541   6.508
 6260SOL     OW19678   3.435   6.361   0.138
 6260SOL    HW119679   3.424   6.304   0.057
 6260SOL    HW219680   3.438   6.303   0.220
 6261SOL     OW19681   5.259   0.483   0.009
 6261SOL    HW119682   5.349   0.474   0.053
 6261SOL    HW219683   5.205   0.401   0.028
 6262SOL     OW19684   2.093   5.714   1.912
 6262SOL    HW119685   1.997   5.728   1.886
 6262SOL    HW219686   2.152   5.752   1.841
 6263SOL     OW19687   1.130   6.669   4.749
 6263SOL    HW119688   1.217   6.633   4.782
 6263SOL    HW219689   1.060   6.598   4.755
 6264SOL     OW19690   2.317   0.168   2.105
 6264SOL    HW119691   2.247   0.134   2.042
 6264SOL    HW219692   2.353   0.255   2.071
 6265SOL     OW19693   3.918   3.527   0.843
 6265SOL    HW119694   3.980   3.589   0.891
 6265SOL    HW219695   3.917   3.438   0.889
 6266SOL     OW19696   4.657   0.265   3.356
 6266SOL    HW119697   4.565   0.225   3.361
 6266SOL    HW219698   4.651   0.364   3.370
 6267SOL     OW19699   2.244   6.952   5.011
 6267SOL    HW119700   2.196   7.004   4.941
 6267SOL    HW219701   2.233   6.854   4.993
 6268SOL     OW19702   2.705   0.531   1.947
 6268SOL    HW119703   2.795   0.529   1.906
 6268SOL    HW219704   2.701   0.466   2.023
 6269SOL     OW19705   6.977   0.500   2.352
 6269SOL    HW119706   6.992   0.590   2.310
 6269SOL    HW219707   0.041   0.470   2.399
 6270SOL     OW19708   0.212   0.128   6.769
 6270SOL    HW119709   0.139   0.060   6.765
 6270SOL    HW219710   0.264   0.128   6.683
 6271SOL     OW19711   5.927   2.457   5.516
 6271SOL    HW119712   5.939   2.450   5.615
 6271SOL    HW219713   5.831   2.446   5.493
 6272SOL     OW19714   0.389   2.077   0.740
 6272SOL    HW119715   0.365   1.982   0.721
 6272SOL    HW219716   0.487   2.090   0.730
 6273SOL     OW19717   0.570   6.467   2.673
 6273SOL    HW119718   0.488   6.524   2.676
 6273SOL    HW219719   0.566   6.407   2.593
 6274SOL     OW19720   3.404   6.922   4.374
 6274SOL    HW119721   3.324   6.930   4.315
 6274SOL    HW219722   3.394   6.983   4.453
 6275SOL     OW19723   1.798   6.390   0.094
 6275SOL    HW119724   1.782   6.475   0.144
 6275SOL    HW219725   1.713   6.360   0.050
 6276SOL     OW19726   2.692   5.620   3.025
 6276SOL    HW119727   2.737   5.661   3.105
 6276SOL    HW219728   2.762   5.593   2.958
 6277SOL     OW19729   4.644   3.131   0.757
 6277SOL    HW119730   4.566   3.093   0.707
 6277SOL    HW219731   4.627   3.228   0.776
 6278SOL     OW19732   3.940   0.448   4.594
 6278SOL    HW119733   3.909   0.523   4.535
 6278SOL    HW219734   3.862   0.388   4.615
 6279SOL     OW19735   3.486   6.278   0.420
 6279SOL    HW119736   3.498   6.188   0.462
 6279SOL    HW219737   3.573   6.327   0.423
 6280SOL     OW19738   0.276   0.737   6.528
 6280SOL    HW119739   0.282   0.637   6.527
 6280SOL    HW219740   0.346   0.775   6.587
 6281SOL     OW19741   6.439   4.937   4.187
 6281SOL    HW119742   6.400   4.850   4.155
 6281SOL    HW219743   6.503   4.919   4.262
 6282SOL     OW19744   6.495   4.456   5.603
 6282SOL    HW119745   6.508   4.541   5.655
 6282SOL    HW219746   6.571   4.394   5.620
 6283SOL     OW19747   0.162   4.123   3.988
 6283SOL    HW119748   0.096   4.050   3.968
 6283SOL    HW219749   0.231   4.088   4.051
 6284SOL     OW19750   1.694   4.861   6.125
 6284SOL    HW119751   1.613   4.836   6.071
 6284SOL    HW219752   1.750   4.924   6.072
 6285SOL     OW19753   1.323   3.384   3.113
 6285SOL    HW119754   1.297   3.334   3.196
 6285SOL    HW219755   1.303   3.327   3.032
 6286SOL     OW19756   0.096   3.110   4.575
 6286SOL    HW119757   0.195   3.094   4.578
 6286SOL    HW219758   0.071   3.138   4.482
 6287SOL     OW19759   3.539   4.728   5.284
 6287SOL    HW119760   3.450   4.686   5.269
 6287SOL    HW219761   3.549   4.807   5.225
 6288SOL     OW19762   5.549   4.674   1.652
 6288SOL    HW119763   5.617   4.649   1.583
 6288SOL    HW219764   5.526   4.771   1.643
 6289SOL     OW19765   2.330   4.771   6.735
 6289SOL    HW119766   2.371   4.716   6.663
 6289SOL    HW219767   2.320   4.865   6.704
 6290SOL     OW19768   5.813   5.277   5.904
 6290SOL    HW119769   5.733   5.283   5.845
 6290SOL    HW219770   5.878   5.350   5.880
 6291SOL     OW19771   3.992   3.882   3.943
 6291SOL    HW119772   3.908   3.900   3.892
 6291SOL    HW219773   4.059   3.838   3.883
 6292SOL     OW19774   2.564   2.285   5.310
 6292SOL    HW119775   2.503   2.208   5.329
 6292SOL    HW219776   2.651   2.251   5.273
 6293SOL     OW19777   4.763   1.761   0.861
 6293SOL    HW119778   4.701   1.769   0.783
 6293SOL    HW219779   4.747   1.673   0.907
 6294SOL     OW19780   4.017   0.506   3.345
 6294SOL    HW119781   4.083   0.434   3.368
 6294SOL    HW219782   3.940   0.466   3.295
 6295SOL     OW19783   5.448   4.121   4.469
 6295SOL    HW119784   5.474   4.027   4.446
 6295SOL    HW219785   5.456   4.136   4.567
 6296SOL     OW19786   6.916   4.880   5.819
 6296SOL    HW119787   6.945   4.792   5.781
 6296SOL    HW219788   6.950   4.954   5.761
 6297SOL     OW19789   6.061   0.597   5.248
 6297SOL    HW119790   6.043   0.624   5.154
 6297SOL    HW219791   5.993   0.530   5.277
 6298SOL     OW19792   0.827   3.607   6.370
 6298SOL    HW119793   0.893   3.669   6.412
 6298SOL    HW219794   0.737   3.619   6.413
 6299SOL     OW19795   6.294   3.125   1.950
 6299SOL    HW119796   6.278   3.204   2.009
 6299SOL    HW219797   6.211   3.069   1.946
 6300SOL     OW19798   6.399   0.762   0.090
 6300SOL    HW119799   6.473   0.695   0.091
 6300SOL    HW219800   6.437   0.855   0.087
 6301SOL     OW19801   2.605   6.592   0.304
 6301SOL    HW119802   2.700   6.562   0.295
 6301SOL    HW219803   2.602   6.689   0.328
 6302SOL     OW19804   1.932   2.146   4.746
 6302SOL    HW119805   1.903   2.201   4.824
 6302SOL    HW219806   1.902   2.190   4.661
 6303SOL     OW19807   0.469   0.238   5.707
 6303SOL    HW119808   0.403   0.298   5.662
 6303SOL    HW219809   0.435   0.144   5.705
 6304SOL     OW19810   3.635   1.335   1.954
 6304SOL    HW119811   3.660   1.274   1.879
 6304SOL    HW219812   3.606   1.424   1.918
 6305SOL     OW19813   6.119   6.010   0.284
 6305SOL    HW119814   6.111   6.063   0.200
 6305SOL    HW219815   6.052   5.936   0.284
 6306SOL     OW19816   0.028   3.886   4.039
 6306SOL    HW119817   6.952   3.865   4.058
 6306SOL    HW219818   0.077   3.803   4.014
 6307SOL     OW19819   3.364   3.507   3.556
 6307SOL    HW119820   3.314   3.426   3.524
 6307SOL    HW219821   3.433   3.533   3.489
 6308SOL     OW19822   1.495   2.419   4.830
 6308SOL    HW119823   1.472   2.357   4.755
 6308SOL    HW219824   1.529   2.366   4.908
 6309SOL     OW19825   6.868   6.463   4.374
 6309SOL    HW119826   6.787   6.505   4.334
 6309SOL    HW219827   6.844   6.374   4.413
 6310SOL     OW19828   1.393   6.615   2.524
 6310SOL    HW119829   1.467   6.680   2.540
 6310SOL    HW219830   1.335   6.649   2.450
 6311SOL     OW19831   5.026   2.038   5.586
 6311SOL    HW119832   4.971   2.118   5.562
 6311SOL    HW219833   5.101   2.066   5.645
 6312SOL     OW19834   0.820   6.942   5.503
 6312SOL    HW119835   0.788   6.881   5.430
 6312SOL    HW219836   0.863   6.888   5.575
 6313SOL     OW19837   6.381   6.287   3.732
 6313SOL    HW119838   6.375   6.342   3.649
 6313SOL    HW219839   6.459   6.316   3.786
 6314SOL     OW19840   3.705   7.014   1.883
 6314SOL    HW119841   3.640   6.959   1.936
 6314SOL    HW219842   3.656   0.052   1.818
 6315SOL     OW19843   3.419   1.854   5.931
 6315SOL    HW119844   3.404   1.939   5.982
 6315SOL    HW219845   3.332   1.809   5.913
 6316SOL     OW19846   5.287   2.408   5.422
 6316SOL    HW119847   5.290   2.334   5.488
 6316SOL    HW219848   5.244   2.376   5.337
 6317SOL     OW19849   5.055   4.571   2.031
 6317SOL    HW119850   5.067   4.502   1.959
 6317SOL    HW219851   4.982   4.541   2.093
 6318SOL     OW19852   4.523   0.722   6.129
 6318SOL    HW119853   4.519   0.810   6.176
 6318SOL    HW219854   4.471   0.727   6.043
 6319SOL     OW19855   6.557   2.437   5.443
 6319SOL    HW119856   6.528   2.468   5.353
 6319SOL    HW219857   6.640   2.382   5.434
 6320SOL     OW19858   0.033   6.603   4.847
 6320SOL    HW119859   0.066   6.511   4.868
 6320SOL    HW219860   6.976   6.598   4.783
 6321SOL     OW19861   4.251   3.250   0.803
 6321SOL    HW119862   4.188   3.299   0.742
 6321SOL    HW219863   4.326   3.212   0.749
 6322SOL     OW19864   2.916   2.777   0.816
 6322SOL    HW119865   2.827   2.781   0.862
 6322SOL    HW219866   2.904   2.792   0.718
 6323SOL     OW19867   1.241   2.093   2.089
 6323SOL    HW119868   1.188   2.115   2.008
 6323SOL    HW219869   1.299   2.171   2.113
 6324SOL     OW19870   3.976   0.928   0.505
 6324SOL    HW119871   3.949   0.910   0.600
 6324SOL    HW219872   4.075   0.914   0.496
 6325SOL     OW19873   1.715   3.249   2.634
 6325SOL    HW119874   1.720   3.349   2.640
 6325SOL    HW219875   1.667   3.223   2.550
 6326SOL     OW19876   5.166   4.847   0.326
 6326SOL    HW119877   5.208   4.931   0.293
 6326SOL    HW219878   5.184   4.773   0.261
 6327SOL     OW19879   6.940   1.953   4.191
 6327SOL    HW119880   6.882   1.925   4.268
 6327SOL    HW219881   6.955   2.052   4.195
 6328SOL     OW19882   4.541   3.317   0.031
 6328SOL    HW119883   4.575   3.283   6.963
 6328SOL    HW219884   4.598   3.280   0.105
 6329SOL     OW19885   1.372   2.652   4.947
 6329SOL    HW119886   1.394   2.561   4.912
 6329SOL    HW219887   1.309   2.643   5.025
 6330SOL     OW19888   5.820   6.777   2.150
 6330SOL    HW119889   5.804   6.875   2.136
 6330SOL    HW219890   5.742   6.725   2.117
 6331SOL     OW19891   0.044   3.975   4.788
 6331SOL    HW119892   0.094   3.889   4.787
 6331SOL    HW219893   0.022   4.001   4.694
 6332SOL     OW19894   0.735   2.630   1.002
 6332SOL    HW119895   0.680   2.591   1.077
 6332SOL    HW219896   0.812   2.681   1.041
 6333SOL     OW19897   5.093   0.209   5.505
 6333SOL    HW119898   5.170   0.272   5.513
 6333SOL    HW219899   5.098   0.162   5.418
 6334SOL     OW19900   3.095   0.578   2.383
 6334SOL    HW119901   3.017   0.523   2.354
 6334SOL    HW219902   3.063   0.656   2.438
 6335SOL     OW19903   3.989   0.614   0.295
 6335SOL    HW119904   3.912   0.553   0.280
 6335SOL    HW219905   4.013   0.616   0.392
 6336SOL     OW19906   0.322   1.948   6.549
 6336SOL    HW119907   0.275   1.986   6.469
 6336SOL    HW219908   0.347   2.023   6.611
 6337SOL     OW19909   4.069   5.105   4.523
 6337SOL    HW119910   4.015   5.035   4.569
 6337SOL    HW219911   4.052   5.102   4.425
 6338SOL     OW19912   2.486   2.589   4.046
 6338SOL    HW119913   2.555   2.517   4.056
 6338SOL    HW219914   2.479   2.640   4.131
 6339SOL     OW19915   0.664   3.366   4.425
 6339SOL    HW119916   0.700   3.455   4.398
 6339SOL    HW219917   0.585   3.378   4.485
 6340SOL     OW19918   2.444   4.273   0.911
 6340SOL    HW119919   2.525   4.308   0.957
 6340SOL    HW219920   2.367   4.275   0.974
 6341SOL     OW19921   6.518   3.346   4.846
 6341SOL    HW119922   6.471   3.272   4.799
 6341SOL    HW219923   6.552   3.412   4.779
 6342SOL     OW19924   2.998   1.374   0.830
 6342SOL    HW119925   3.074   1.424   0.872
 6342SOL    HW219926   2.982   1.410   0.738
 6343SOL     OW19927   3.697   0.420   6.907
 6343SOL    HW119928   3.699   0.494   6.973
 6343SOL    HW219929   3.730   0.453   6.818
 6344SOL     OW19930   4.811   2.348   3.866
 6344SOL    HW119931   4.862   2.316   3.946
 6344SOL    HW219932   4.727   2.394   3.897
 6345SOL     OW19933   5.159   2.582   1.711
 6345SOL    HW119934   5.088   2.589   1.641
 6345SOL    HW219935   5.203   2.671   1.721
 6346SOL     OW19936   0.147   5.305   4.627
 6346SOL    HW119937   0.235   5.322   4.671
 6346SOL    HW219938   0.073   5.324   4.692
 6347SOL     OW19939   1.807   1.553   0.630
 6347SOL    HW119940   1.757   1.598   0.705
 6347SOL    HW219941   1.816   1.617   0.554
 6348SOL     OW19942   1.373   3.042   6.824
 6348SOL    HW119943   1.304   3.002   6.885
 6348SOL    HW219944   1.414   3.122   6.868
 6349SOL     OW19945   1.944   1.152   0.966
 6349SOL    HW119946   2.043   1.153   0.952
 6349SOL    HW219947   1.906   1.243   0.947
 6350SOL     OW19948   0.816   5.250   4.289
 6350SOL    HW119949   0.784   5.247   4.383
 6350SOL    HW219950   0.753   5.199   4.230
 6351SOL     OW19951   6.108   3.343   3.604
 6351SOL    HW119952   6.075   3.427   3.647
 6351SOL    HW219953   6.167   3.294   3.669
 6352SOL     OW19954   2.926   0.557   4.994
 6352SOL    HW119955   2.855   0.542   4.925
 6352SOL    HW219956   2.949   0.655   4.996
 6353SOL     OW19957   1.238   5.715   5.792
 6353SOL    HW119958   1.262   5.696   5.697
 6353SOL    HW219959   1.271   5.641   5.850
 6354SOL     OW19960   3.331   5.993   2.920
 6354SOL    HW119961   3.353   5.896   2.935
 6354SOL    HW219962   3.290   6.005   2.830
 6355SOL     OW19963   3.149   5.330   6.904
 6355SOL    HW119964   3.151   5.420   6.860
 6355SOL    HW219965   3.226   5.322   6.968
 6356SOL     OW19966   5.564   4.551   0.762
 6356SOL    HW119967   5.607   4.604   0.835
 6356SOL    HW219968   5.547   4.611   0.684
 6357SOL     OW19969   5.805   3.872   2.276
 6357SOL    HW119970   5.723   3.878   2.332
 6357SOL    HW219971   5.820   3.778   2.247
 6358SOL     OW19972   0.075   1.756   6.347
 6358SOL    HW119973   0.044   1.721   6.436
 6358SOL    HW219974   0.134   1.835   6.362
 6359SOL     OW19975   6.032   6.629   0.221
 6359SOL    HW119976   5.970   6.703   0.195
 6359SOL    HW219977   5.998   6.584   0.304
 6360SOL     OW19978   1.060   3.661   4.914
 6360SOL    HW119979   1.023   3.663   5.007
 6360SOL    HW219980   1.062   3.567   4.881
 6361SOL     OW19981   0.941   1.053   0.700
 6361SOL    HW119982   0.944   0.956   0.675
 6361SOL    HW219983   0.853   1.092   0.672
 6362SOL     OW19984   0.548   5.605   5.947
 6362SOL    HW119985   0.510   5.515   5.964
 6362SOL    HW219986   0.648   5.600   5.949
 6363SOL     OW19987   2.735   5.654   3.607
 6363SOL    HW119988   2.829   5.665   3.573
 6363SOL    HW219989   2.715   5.725   3.674
 6364SOL     OW19990   2.973   2.169   5.534
 6364SOL    HW119991   2.884   2.212   5.549
 6364SOL    HW219992   3.028   2.227   5.474
 6365SOL     OW19993   5.067   6.292   4.055
 6365SOL    HW119994   5.125   6.313   3.977
 6365SOL    HW219995   5.107   6.216   4.107
 6366SOL     OW19996   0.793   5.749   5.184
 6366SOL    HW119997   0.832   5.700   5.261
 6366SOL    HW219998   0.796   5.848   5.202
 6367SOL     OW19999   3.530   2.067   3.425
 6367SOL    HW120000   3.445   2.088   3.377
 6367SOL    HW220001   3.520   2.086   3.522
 6368SOL     OW20002   3.968   4.794   4.226
 6368SOL    HW120003   3.911   4.836   4.155
 6368SOL    HW220004   4.065   4.806   4.203
 6369SOL     OW20005   1.513   0.699   4.624
 6369SOL    HW120006   1.421   0.739   4.624
 6369SOL    HW220007   1.511   0.611   4.672
 6370SOL     OW20008   5.381   3.930   3.440
 6370SOL    HW120009   5.294   3.969   3.468
 6370SOL    HW220010   5.380   3.913   3.342
 6371SOL     OW20011   5.787   4.730   2.936
 6371SOL    HW120012   5.753   4.739   3.030
 6371SOL    HW220013   5.711   4.711   2.874
 6372SOL     OW20014   1.278   1.162   1.985
 6372SOL    HW120015   1.238   1.090   2.042
 6372SOL    HW220016   1.252   1.251   2.022
 6373SOL     OW20017   5.451   4.395   3.038
 6373SOL    HW120018   5.355   4.414   3.016
 6373SOL    HW220019   5.466   4.296   3.041
 6374SOL     OW20020   4.203   3.297   1.436
 6374SOL    HW120021   4.296   3.328   1.455
 6374SOL    HW220022   4.161   3.263   1.520
 6375SOL     OW20023   0.016   2.796   2.251
 6375SOL    HW120024   0.054   2.768   2.339
 6375SOL    HW220025   0.020   2.896   2.243
 6376SOL     OW20026   4.719   2.149   6.451
 6376SOL    HW120027   4.766   2.213   6.511
 6376SOL    HW220028   4.621   2.151   6.469
 6377SOL     OW20029   6.389   1.393   5.169
 6377SOL    HW120030   6.320   1.432   5.108
 6377SOL    HW220031   6.430   1.312   5.126
 6378SOL     OW20032   5.470   5.002   3.616
 6378SOL    HW120033   5.491   5.099   3.603
 6378SOL    HW220034   5.438   4.964   3.529
 6379SOL     OW20035   0.326   4.025   4.990
 6379SOL    HW120036   0.277   4.022   5.077
 6379SOL    HW220037   0.277   4.082   4.926
 6380SOL     OW20038   0.426   2.120   5.205
 6380SOL    HW120039   0.406   2.166   5.118
 6380SOL    HW220040   0.460   2.028   5.187
 6381SOL     OW20041   4.094   2.992   0.839
 6381SOL    HW120042   4.177   3.047   0.840
 6381SOL    HW220043   4.087   2.940   0.924
 6382SOL     OW20044   3.073   1.662   0.103
 6382SOL    HW120045   2.992   1.630   0.054
 6382SOL    HW220046   3.154   1.649   0.046
 6383SOL     OW20047   2.462   2.455   2.557
 6383SOL    HW120048   2.553   2.413   2.557
 6383SOL    HW220049   2.440   2.489   2.466
 6384SOL     OW20050   5.714   3.945   2.836
 6384SOL    HW120051   5.791   3.884   2.818
 6384SOL    HW220052   5.640   3.893   2.880
 6385SOL     OW20053   6.700   3.483   3.402
 6385SOL    HW120054   6.663   3.396   3.370
 6385SOL    HW220055   6.732   3.473   3.496
 6386SOL     OW20056   2.638   3.205   6.347
 6386SOL    HW120057   2.682   3.280   6.296
 6386SOL    HW220058   2.678   3.199   6.438
 6387SOL     OW20059   6.632   1.719   6.722
 6387SOL    HW120060   6.628   1.819   6.722
 6387SOL    HW220061   6.645   1.687   6.815
 6388SOL     OW20062   5.287   5.604   1.045
 6388SOL    HW120063   5.195   5.642   1.037
 6388SOL    HW220064   5.338   5.623   0.961
 6389SOL     OW20065   0.537   0.006   0.652
 6389SOL    HW120066   0.442   7.002   0.636
 6389SOL    HW220067   0.566   6.992   0.742
 6390SOL     OW20068   6.288   0.613   5.386
 6390SOL    HW120069   6.212   0.636   5.325
 6390SOL    HW220070   6.325   0.524   5.360
 6391SOL     OW20071   1.819   0.886   6.481
 6391SOL    HW120072   1.830   0.961   6.546
 6391SOL    HW220073   1.789   0.923   6.393
 6392SOL     OW20074   2.829   4.789   2.802
 6392SOL    HW120075   2.780   4.722   2.858
 6392SOL    HW220076   2.809   4.881   2.837
 6393SOL     OW20077   0.149   6.052   2.143
 6393SOL    HW120078   0.161   6.124   2.212
 6393SOL    HW220079   0.059   6.011   2.153
 6394SOL     OW20080   1.445   5.290   0.803
 6394SOL    HW120081   1.382   5.303   0.879
 6394SOL    HW220082   1.437   5.367   0.740
 6395SOL     OW20083   6.578   3.128   1.808
 6395SOL    HW120084   6.484   3.151   1.785
 6395SOL    HW220085   6.640   3.190   1.759
 6396SOL     OW20086   6.504   3.613   6.231
 6396SOL    HW120087   6.425   3.597   6.172
 6396SOL    HW220088   6.472   3.641   6.322
 6397SOL     OW20089   5.642   0.797   1.514
 6397SOL    HW120090   5.650   0.697   1.510
 6397SOL    HW220091   5.722   0.838   1.469
 6398SOL     OW20092   3.076   6.949   1.763
 6398SOL    HW120093   3.170   6.984   1.759
 6398SOL    HW220094   3.051   6.933   1.858
 6399SOL     OW20095   1.736   0.399   6.594
 6399SOL    HW120096   1.720   0.493   6.623
 6399SOL    HW220097   1.713   0.337   6.669
 6400SOL     OW20098   1.994   4.855   2.333
 6400SOL    HW120099   1.934   4.800   2.393
 6400SOL    HW220100   2.089   4.842   2.361
 6401SOL     OW20101   5.323   5.362   2.974
 6401SOL    HW120102   5.293   5.268   2.991
 6401SOL    HW220103   5.388   5.363   2.898
 6402SOL     OW20104   2.142   3.203   3.585
 6402SOL    HW120105   2.145   3.300   3.610
 6402SOL    HW220106   2.047   3.173   3.580
 6403SOL     OW20107   5.708   6.140   5.726
 6403SOL    HW120108   5.736   6.205   5.655
 6403SOL    HW220109   5.652   6.187   5.795
 6404SOL     OW20110   4.442   1.545   2.672
 6404SOL    HW120111   4.419   1.448   2.676
 6404SOL    HW220112   4.524   1.563   2.727
 6405SOL     OW20113   4.151   0.672   4.253
 6405SOL    HW120114   4.198   0.613   4.187
 6405SOL    HW220115   4.160   0.634   4.345
 6406SOL     OW20116   0.365   2.798   2.843
 6406SOL    HW120117   0.389   2.890   2.814
 6406SOL    HW220118   0.424   2.771   2.920
 6407SOL     OW20119   2.361   0.050   4.658
 6407SOL    HW120120   2.392   6.974   4.654
 6407SOL    HW220121   2.339   0.081   4.566
 6408SOL     OW20122   5.142   1.442   1.394
 6408SOL    HW120123   5.193   1.527   1.380
 6408SOL    HW220124   5.172   1.374   1.328
 6409SOL     OW20125   6.572   4.320   3.478
 6409SOL    HW120126   6.594   4.417   3.472
 6409SOL    HW220127   6.642   4.266   3.431
 6410SOL     OW20128   2.016   1.181   6.282
 6410SOL    HW120129   2.043   1.151   6.373
 6410SOL    HW220130   2.029   1.280   6.274
 6411SOL     OW20131   0.475   2.408   2.604
 6411SOL    HW120132   0.428   2.321   2.620
 6411SOL    HW220133   0.551   2.393   2.540
 6412SOL     OW20134   1.752   1.180   5.999
 6412SOL    HW120135   1.731   1.264   5.948
 6412SOL    HW220136   1.694   1.176   6.080
 6413SOL     OW20137   3.728   4.955   3.771
 6413SOL    HW120138   3.794   5.030   3.766
 6413SOL    HW220139   3.770   4.878   3.818
 6414SOL     OW20140   5.077   0.986   6.600
 6414SOL    HW120141   5.031   0.944   6.522
 6414SOL    HW220142   5.146   0.923   6.636
 6415SOL     OW20143   1.539   3.318   4.038
 6415SOL    HW120144   1.442   3.337   4.053
 6415SOL    HW220145   1.580   3.394   3.985
 6416SOL     OW20146   2.436   6.578   6.178
 6416SOL    HW120147   2.342   6.572   6.144
 6416SOL    HW220148   2.495   6.516   6.125
 6417SOL     OW20149   5.814   3.854   0.629
 6417SOL    HW120150   5.777   3.945   0.649
 6417SOL    HW220151   5.865   3.857   0.543
 6418SOL     OW20152   4.792   4.154   3.118
 6418SOL    HW120153   4.773   4.131   3.023
 6418SOL    HW220154   4.818   4.250   3.126
 6419SOL     OW20155   1.411   5.331   3.021
 6419SOL    HW120156   1.422   5.395   2.945
 6419SOL    HW220157   1.487   5.265   3.021
 6420SOL     OW20158   2.454   0.926   4.146
 6420SOL    HW120159   2.520   0.918   4.220
 6420SOL    HW220160   2.499   0.960   4.063
 6421SOL     OW20161   4.978   0.068   1.541
 6421SOL    HW120162   4.986   6.989   1.550
 6421SOL    HW220163   5.065   0.107   1.511
 6422SOL     OW20164   6.553   1.702   4.940
 6422SOL    HW120165   6.623   1.754   4.989
 6422SOL    HW220166   6.537   1.615   4.986
 6423SOL     OW20167   5.129   5.055   4.572
 6423SOL    HW120168   5.217   5.008   4.580
 6423SOL    HW220169   5.096   5.078   4.664
 6424SOL     OW20170   0.779   3.776   4.809
 6424SOL    HW120171   0.849   3.776   4.880
 6424SOL    HW220172   0.749   3.870   4.793
 6425SOL     OW20173   6.620   5.924   3.055
 6425SOL    HW120174   6.601   5.895   2.961
 6425SOL    HW220175   6.611   6.024   3.061
 6426SOL     OW20176   6.976   5.297   3.019
 6426SOL    HW120177   6.959   5.351   2.936
 6426SOL    HW220178   6.961   5.200   2.999
 6427SOL     OW20179   3.736   3.998   3.796
 6427SOL    HW120180   3.669   4.010   3.723
 6427SOL    HW220181   3.697   4.031   3.882
 6428SOL     OW20182   6.161   3.567   0.165
 6428SOL    HW120183   6.134   3.628   0.091
 6428SOL    HW220184   6.087   3.560   0.232
 6429SOL     OW20185   6.939   0.762   5.451
 6429SOL    HW120186   0.016   0.783   5.464
 6429SOL    HW220187   6.885   0.803   5.525
 6430SOL     OW20188   6.392   1.336   4.142
 6430SOL    HW120189   6.421   1.379   4.228
 6430SOL    HW220190   6.295   1.354   4.126
 6431SOL     OW20191   3.930   6.110   3.700
 6431SOL    HW120192   3.996   6.064   3.640
 6431SOL    HW220193   3.874   6.042   3.746
 6432SOL     OW20194   4.323   4.839   5.525
 6432SOL    HW120195   4.303   4.742   5.513
 6432SOL    HW220196   4.422   4.853   5.522
 6433SOL     OW20197   2.522   4.678   6.363
 6433SOL    HW120198   2.436   4.725   6.343
 6433SOL    HW220199   2.594   4.746   6.377
 6434SOL     OW20200   3.135   0.231   6.454
 6434SOL    HW120201   3.063   0.231   6.523
 6434SOL    HW220202   3.192   0.150   6.466
 6435SOL     OW20203   5.838   6.732   0.653
 6435SOL    HW120204   5.880   6.806   0.706
 6435SOL    HW220205   5.768   6.687   0.708
 6436SOL     OW20206   1.463   3.551   2.528
 6436SOL    HW120207   1.425   3.622   2.587
 6436SOL    HW220208   1.389   3.491   2.497
 6437SOL     OW20209   1.566   1.935   0.778
 6437SOL    HW120210   1.580   1.836   0.767
 6437SOL    HW220211   1.654   1.982   0.766
 6438SOL     OW20212   0.612   4.668   5.595
 6438SOL    HW120213   0.664   4.620   5.666
 6438SOL    HW220214   0.538   4.610   5.563
 6439SOL     OW20215   5.206   0.839   2.089
 6439SOL    HW120216   5.238   0.753   2.050
 6439SOL    HW220217   5.146   0.819   2.168
 6440SOL     OW20218   2.802   1.518   5.797
 6440SOL    HW120219   2.811   1.615   5.774
 6440SOL    HW220220   2.736   1.475   5.737
 6441SOL     OW20221   0.541   0.709   1.619
 6441SOL    HW120222   0.482   0.663   1.553
 6441SOL    HW220223   0.562   0.802   1.587
 6442SOL     OW20224   2.952   1.797   5.433
 6442SOL    HW120225   2.920   1.861   5.503
 6442SOL    HW220226   2.929   1.832   5.343
 6443SOL     OW20227   3.346   3.075   5.246
 6443SOL    HW120228   3.427   3.034   5.288
 6443SOL    HW220229   3.307   3.011   5.180
 6444SOL     OW20230   5.600   2.755   4.875
 6444SOL    HW120231   5.680   2.714   4.918
 6444SOL    HW220232   5.614   2.761   4.776
 6445SOL     OW20233   3.875   3.338   3.378
 6445SOL    HW120234   3.972   3.354   3.363
 6445SOL    HW220235   3.855   3.341   3.476
 6446SOL     OW20236   0.702   1.678   0.139
 6446SOL    HW120237   0.614   1.687   0.094
 6446SOL    HW220238   0.700   1.727   0.227
 6447SOL     OW20239   6.962   4.499   3.021
 6447SOL    HW120240   6.955   4.399   3.031
 6447SOL    HW220241   6.974   4.522   2.924
 6448SOL     OW20242   5.032   5.095   1.264
 6448SOL    HW120243   5.085   5.180   1.265
 6448SOL    HW220244   4.978   5.088   1.348
 6449SOL     OW20245   3.594   5.575   1.968
 6449SOL    HW120246   3.572   5.565   2.066
 6449SOL    HW220247   3.524   5.527   1.914
 6450SOL     OW20248   1.781   2.664   0.803
 6450SOL    HW120249   1.722   2.709   0.869
 6450SOL    HW220250   1.876   2.668   0.835
 6451SOL     OW20251   2.262   0.874   6.278
 6451SOL    HW120252   2.195   0.803   6.258
 6451SOL    HW220253   2.272   0.933   6.198
 6452SOL     OW20254   4.749   4.046   2.875
 6452SOL    HW120255   4.704   3.959   2.894
 6452SOL    HW220256   4.797   4.041   2.787
 6453SOL     OW20257   2.334   6.960   1.495
 6453SOL    HW120258   2.260   6.905   1.535
 6453SOL    HW220259   2.300   7.007   1.414
 6454SOL     OW20260   1.216   1.366   2.819
 6454SOL    HW120261   1.202   1.435   2.890
 6454SOL    HW220262   1.311   1.334   2.821
 6455SOL     OW20263   6.836   3.228   3.883
 6455SOL    HW120264   6.800   3.210   3.974
 6455SOL    HW220265   6.911   3.163   3.863
 6456SOL     OW20266   1.467   1.377   3.771
 6456SOL    HW120267   1.467   1.305   3.702
 6456SOL    HW220268   1.382   1.374   3.823
 6457SOL     OW20269   5.404   0.348   1.519
 6457SOL    HW120270   5.380   0.445   1.528
 6457SOL    HW220271   5.448   0.317   1.603
 6458SOL     OW20272   1.313   5.002   4.057
 6458SOL    HW120273   1.361   5.049   3.983
 6458SOL    HW220274   1.307   5.064   4.136
 6459SOL     OW20275   6.404   2.892   2.064
 6459SOL    HW120276   6.385   2.990   2.050
 6459SOL    HW220277   6.502   2.875   2.055
 6460SOL     OW20278   5.862   5.941   6.220
 6460SOL    HW120279   5.865   5.975   6.126
 6460SOL    HW220280   5.781   5.978   6.266
 6461SOL     OW20281   2.381   4.241   6.990
 6461SOL    HW120282   2.401   4.157   0.021
 6461SOL    HW220283   2.391   4.225   6.892
 6462SOL     OW20284   1.623   2.978   4.622
 6462SOL    HW120285   1.722   2.979   4.637
 6462SOL    HW220286   1.578   2.938   4.701
 6463SOL     OW20287   5.573   0.783   0.472
 6463SOL    HW120288   5.561   0.712   0.542
 6463SOL    HW220289   5.484   0.823   0.451
 6464SOL     OW20290   1.884   5.199   5.562
 6464SOL    HW120291   1.802   5.250   5.534
 6464SOL    HW220292   1.875   5.103   5.535
 6465SOL     OW20293   6.902   3.049   2.512
 6465SOL    HW120294   6.985   3.036   2.565
 6465SOL    HW220295   6.846   2.966   2.516
 6466SOL     OW20296   5.886   1.665   6.253
 6466SOL    HW120297   5.879   1.627   6.161
 6466SOL    HW220298   5.959   1.618   6.303
 6467SOL     OW20299   3.978   0.414   1.090
 6467SOL    HW120300   4.078   0.416   1.097
 6467SOL    HW220301   3.951   0.381   1.000
 6468SOL     OW20302   2.769   6.294   1.189
 6468SOL    HW120303   2.856   6.284   1.140
 6468SOL    HW220304   2.773   6.246   1.276
 6469SOL     OW20305   3.922   2.054   3.508
 6469SOL    HW120306   3.858   2.099   3.446
 6469SOL    HW220307   4.000   2.114   3.525
 6470SOL     OW20308   5.694   2.993   0.909
 6470SOL    HW120309   5.652   2.978   0.820
 6470SOL    HW220310   5.638   2.949   0.980
 6471SOL     OW20311   0.499   6.295   5.649
 6471SOL    HW120312   0.443   6.258   5.575
 6471SOL    HW220313   0.447   6.294   5.734
 6472SOL     OW20314   6.907   5.963   2.180
 6472SOL    HW120315   6.846   6.011   2.243
 6472SOL    HW220316   6.853   5.898   2.126
 6473SOL     OW20317   2.747   2.377   4.954
 6473SOL    HW120318   2.817   2.336   4.895
 6473SOL    HW220319   2.669   2.406   4.897
 6474SOL     OW20320   4.293   5.953   5.626
 6474SOL    HW120321   4.196   5.944   5.604
 6474SOL    HW220322   4.344   5.875   5.589
 6475SOL     OW20323   5.932   4.620   3.627
 6475SOL    HW120324   5.854   4.560   3.614
 6475SOL    HW220325   5.910   4.688   3.697
 6476SOL     OW20326   5.342   2.826   0.745
 6476SOL    HW120327   5.431   2.803   0.705
 6476SOL    HW220328   5.282   2.863   0.675
 6477SOL     OW20329   6.403   5.492   0.196
 6477SOL    HW120330   6.427   5.571   0.140
 6477SOL    HW220331   6.360   5.422   0.138
 6478SOL     OW20332   3.496   6.437   2.249
 6478SOL    HW120333   3.593   6.463   2.256
 6478SOL    HW220334   3.461   6.414   2.339
 6479SOL     OW20335   4.077   5.629   4.029
 6479SOL    HW120336   4.031   5.701   3.977
 6479SOL    HW220337   4.011   5.586   4.091
 6480SOL     OW20338   2.390   1.139   0.074
 6480SOL    HW120339   2.456   1.109   0.004
 6480SOL    HW220340   2.312   1.077   0.075
 6481SOL     OW20341   3.511   2.016   1.915
 6481SOL    HW120342   3.548   1.928   1.944
 6481SOL    HW220343   3.558   2.089   1.964
 6482SOL     OW20344   6.284   1.863   6.403
 6482SOL    HW120345   6.191   1.888   6.375
 6482SOL    HW220346   6.294   1.764   6.403
 6483SOL     OW20347   6.902   0.073   3.240
 6483SOL    HW120348   6.845   0.074   3.158
 6483SOL    HW220349   6.867   0.140   3.306
 6484SOL     OW20350   3.373   0.527   2.556
 6484SOL    HW120351   3.346   0.461   2.626
 6484SOL    HW220352   3.331   0.616   2.576
 6485SOL     OW20353   2.287   5.073   3.948
 6485SOL    HW120354   2.278   5.169   3.922
 6485SOL    HW220355   2.314   5.066   4.044
 6486SOL     OW20356   0.717   4.536   2.166
 6486SOL    HW120357   0.811   4.507   2.187
 6486SOL    HW220358   0.655   4.497   2.234
 6487SOL     OW20359   1.545   6.591   5.574
 6487SOL    HW120360   1.600   6.565   5.653
 6487SOL    HW220361   1.526   6.689   5.577
 6488SOL     OW20362   3.931   6.031   4.248
 6488SOL    HW120363   3.899   6.090   4.322
 6488SOL    HW220364   4.005   5.973   4.280
 6489SOL     OW20365   3.541   3.600   6.423
 6489SOL    HW120366   3.533   3.630   6.518
 6489SOL    HW220367   3.493   3.513   6.412
 6490SOL     OW20368   4.305   1.207   6.422
 6490SOL    HW120369   4.232   1.154   6.466
 6490SOL    HW220370   4.278   1.230   6.329
 6491SOL     OW20371   2.602   0.337   0.875
 6491SOL    HW120372   2.644   0.411   0.822
 6491SOL    HW220373   2.629   0.249   0.835
 6492SOL     OW20374   3.571   3.976   5.495
 6492SOL    HW120375   3.507   4.042   5.533
 6492SOL    HW220376   3.652   3.971   5.554
 6493SOL     OW20377   1.446   4.336   6.269
 6493SOL    HW120378   1.432   4.379   6.180
 6493SOL    HW220379   1.405   4.245   6.269
 6494SOL     OW20380   0.033   0.137   2.775
 6494SOL    HW120381   7.002   0.132   2.689
 6494SOL    HW220382   0.030   0.048   2.821
 6495SOL     OW20383   6.755   0.627   4.308
 6495SOL    HW120384   6.794   0.703   4.258
 6495SOL    HW220385   6.761   0.543   4.253
 6496SOL     OW20386   5.805   0.984   2.932
 6496SOL    HW120387   5.750   1.015   2.855
 6496SOL    HW220388   5.886   1.042   2.942
 6497SOL     OW20389   0.873   0.501   1.490
 6497SOL    HW120390   0.870   0.463   1.398
 6497SOL    HW220391   0.968   0.521   1.515
 6498SOL     OW20392   1.020   2.898   4.853
 6498SOL    HW120393   1.029   2.992   4.888
 6498SOL    HW220394   1.103   2.873   4.805
 6499SOL     OW20395   5.531   4.256   5.514
 6499SOL    HW120396   5.462   4.313   5.468
 6499SOL    HW220397   5.568   4.190   5.449
 6500SOL     OW20398   6.743   3.619   3.880
 6500SOL    HW120399   6.645   3.604   3.891
 6500SOL    HW220400   6.776   3.676   3.955
 6501SOL     OW20401   6.418   1.082   0.074
 6501SOL    HW120402   6.374   1.157   0.024
 6501SOL    HW220403   6.517   1.087   0.061
 6502SOL     OW20404   6.806   3.600   2.402
 6502SOL    HW120405   6.828   3.502   2.398
 6502SOL    HW220406   6.713   3.614   2.369
 6503SOL     OW20407   5.217   1.093   3.825
 6503SOL    HW120408   5.134   1.094   3.770
 6503SOL    HW220409   5.192   1.083   3.922
 6504SOL     OW20410   3.778   6.375   6.054
 6504SOL    HW120411   3.724   6.299   6.091
 6504SOL    HW220412   3.773   6.453   6.117
 6505SOL     OW20413   5.314   5.917   6.305
 6505SOL    HW120414   5.291   5.997   6.250
 6505SOL    HW220415   5.390   5.868   6.263
 6506SOL     OW20416   0.176   2.739   3.199
 6506SOL    HW120417   0.236   2.818   3.187
 6506SOL    HW220418   0.171   2.688   3.113
 6507SOL     OW20419   2.826   5.387   6.722
 6507SOL    HW120420   2.771   5.377   6.805
 6507SOL    HW220421   2.904   5.446   6.740
 6508SOL     OW20422   1.721   0.356   3.175
 6508SOL    HW120423   1.665   0.402   3.245
 6508SOL    HW220424   1.715   0.408   3.090
 6509SOL     OW20425   4.411   2.063   4.326
 6509SOL    HW120426   4.456   2.018   4.404
 6509SOL    HW220427   4.399   1.996   4.252
 6510SOL     OW20428   6.005   5.162   0.088
 6510SOL    HW120429   6.037   5.073   0.122
 6510SOL    HW220430   5.917   5.151   0.042
 6511SOL     OW20431   4.199   0.482   4.453
 6511SOL    HW120432   4.121   0.465   4.513
 6511SOL    HW220433   4.217   0.401   4.397
 6512SOL     OW20434   3.731   6.530   1.901
 6512SOL    HW120435   3.750   6.615   1.852
 6512SOL    HW220436   3.738   6.453   1.838
 6513SOL     OW20437   2.660   5.424   3.319
 6513SOL    HW120438   2.620   5.512   3.345
 6513SOL    HW220439   2.622   5.395   3.231
 6514SOL     OW20440   5.625   1.748   4.724
 6514SOL    HW120441   5.549   1.776   4.665
 6514SOL    HW220442   5.692   1.823   4.729
 6515SOL     OW20443   1.198   3.795   3.361
 6515SOL    HW120444   1.173   3.794   3.457
 6515SOL    HW220445   1.120   3.825   3.306
 6516SOL     OW20446   0.347   2.778   1.505
 6516SOL    HW120447   0.267   2.817   1.459
 6516SOL    HW220448   0.412   2.744   1.437
 6517SOL     OW20449   0.078   1.659   1.598
 6517SOL    HW120450   0.028   1.572   1.602
 6517SOL    HW220451   0.086   1.689   1.503
 6518SOL     OW20452   0.465   0.321   0.947
 6518SOL    HW120453   0.450   0.223   0.959
 6518SOL    HW220454   0.379   0.370   0.963
 6519SOL     OW20455   1.138   1.815   2.690
 6519SOL    HW120456   1.210   1.745   2.691
 6519SOL    HW220457   1.071   1.791   2.620
 6520SOL     OW20458   0.093   5.554   7.015
 6520SOL    HW120459   0.178   5.583   6.970
 6520SOL    HW220460   0.016   5.570   6.954
 6521SOL     OW20461   1.667   2.568   4.337
 6521SOL    HW120462   1.755   2.614   4.329
 6521SOL    HW220463   1.669   2.482   4.286
 6522SOL     OW20464   3.271   4.764   5.645
 6522SOL    HW120465   3.342   4.781   5.713
 6522SOL    HW220466   3.245   4.668   5.646
 6523SOL     OW20467   3.662   1.420   6.970
 6523SOL    HW120468   3.566   1.445   6.966
 6523SOL    HW220469   3.675   1.345   0.016
 6524SOL     OW20470   2.762   3.730   1.463
 6524SOL    HW120471   2.733   3.789   1.538
 6524SOL    HW220472   2.788   3.640   1.500
 6525SOL     OW20473   2.191   4.797   2.581
 6525SOL    HW120474   2.270   4.855   2.560
 6525SOL    HW220475   2.197   4.712   2.529
 6526SOL     OW20476   1.861   0.470   1.608
 6526SOL    HW120477   1.921   0.548   1.587
 6526SOL    HW220478   1.808   0.489   1.690
 6527SOL     OW20479   6.709   1.644   6.286
 6527SOL    HW120480   6.670   1.568   6.234
 6527SOL    HW220481   6.786   1.610   6.341
 6528SOL     OW20482   5.633   1.624   5.170
 6528SOL    HW120483   5.560   1.672   5.218
 6528SOL    HW220484   5.690   1.576   5.236
 6529SOL     OW20485   1.872   0.512   2.690
 6529SOL    HW120486   1.934   0.433   2.696
 6529SOL    HW220487   1.778   0.480   2.682
 6530SOL     OW20488   6.334   1.489   1.224
 6530SOL    HW120489   6.386   1.527   1.300
 6530SOL    HW220490   6.338   1.551   1.146
 6531SOL     OW20491   4.917   3.176   4.983
 6531SOL    HW120492   4.986   3.231   5.031
 6531SOL    HW220493   4.868   3.119   5.049
 6532SOL     OW20494   0.721   1.238   1.278
 6532SOL    HW120495   0.752   1.163   1.218
 6532SOL    HW220496   0.764   1.228   1.368
 6533SOL     OW20497   4.393   6.674   0.143
 6533SOL    HW120498   4.469   6.669   0.078
 6533SOL    HW220499   4.340   6.757   0.126
 6534SOL     OW20500   5.032   4.844   1.973
 6534SOL    HW120501   5.089   4.910   2.022
 6534SOL    HW220502   5.057   4.751   2.001
 6535SOL     OW20503   0.016   4.524   3.857
 6535SOL    HW120504   6.990   4.463   3.922
 6535SOL    HW220505   6.970   4.589   3.820
 6536SOL     OW20506   0.306   1.622   5.141
 6536SOL    HW120507   0.230   1.636   5.204
 6536SOL    HW220508   0.370   1.699   5.149
 6537SOL     OW20509   0.052   4.608   6.844
 6537SOL    HW120510   6.993   4.668   6.825
 6537SOL    HW220511   0.069   4.549   6.765
 6538SOL     OW20512   1.997   3.664   5.728
 6538SOL    HW120513   1.948   3.730   5.784
 6538SOL    HW220514   2.050   3.712   5.658
 6539SOL     OW20515   4.694   0.592   0.074
 6539SOL    HW120516   4.793   0.586   0.057
 6539SOL    HW220517   4.668   0.523   0.142
 6540SOL     OW20518   4.085   2.484   6.488
 6540SOL    HW120519   4.180   2.453   6.494
 6540SOL    HW220520   4.072   2.563   6.547
 6541SOL     OW20521   5.035   1.450   5.298
 6541SOL    HW120522   4.964   1.417   5.359
 6541SOL    HW220523   5.001   1.449   5.204
 6542SOL     OW20524   7.002   2.614   3.747
 6542SOL    HW120525   0.023   2.541   3.692
 6542SOL    HW220526   0.051   2.649   3.811
 6543SOL     OW20527   4.200   3.228   5.350
 6543SOL    HW120528   4.245   3.144   5.320
 6543SOL    HW220529   4.115   3.241   5.299
 6544SOL     OW20530   1.640   6.287   3.444
 6544SOL    HW120531   1.560   6.237   3.411
 6544SOL    HW220532   1.613   6.380   3.468
 6545SOL     OW20533   4.241   0.163   0.818
 6545SOL    HW120534   4.164   0.194   0.874
 6545SOL    HW220535   4.210   0.147   0.724
 6546SOL     OW20536   2.716   4.178   6.085
 6546SOL    HW120537   2.748   4.250   6.024
 6546SOL    HW220538   2.770   4.179   6.170
 6547SOL     OW20539   4.505   1.315   0.176
 6547SOL    HW120540   4.508   1.400   0.229
 6547SOL    HW220541   4.453   1.330   0.092
 6548SOL     OW20542   0.973   3.813   1.284
 6548SOL    HW120543   0.975   3.791   1.381
 6548SOL    HW220544   1.035   3.752   1.234
 6549SOL     OW20545   4.541   1.030   1.980
 6549SOL    HW120546   4.596   1.014   2.062
 6549SOL    HW220547   4.526   1.128   1.968
 6550SOL     OW20548   0.222   6.665   4.331
 6550SOL    HW120549   0.176   6.658   4.243
 6550SOL    HW220550   0.305   6.609   4.331
 6551SOL     OW20551   1.846   3.696   1.752
 6551SOL    HW120552   1.780   3.701   1.827
 6551SOL    HW220553   1.892   3.607   1.754
 6552SOL     OW20554   1.338   0.256   0.384
 6552SOL    HW120555   1.358   0.344   0.427
 6552SOL    HW220556   1.261   0.213   0.431
 6553SOL     OW20557   6.611   1.847   3.626
 6553SOL    HW120558   6.612   1.836   3.526
 6553SOL    HW220559   6.689   1.799   3.665
 6554SOL     OW20560   1.203   0.346   4.408
 6554SOL    HW120561   1.252   0.401   4.476
 6554SOL    HW220562   1.115   0.388   4.388
 6555SOL     OW20563   4.902   2.364   3.199
 6555SOL    HW120564   4.852   2.439   3.157
 6555SOL    HW220565   4.992   2.355   3.156
 6556SOL     OW20566   5.361   4.628   3.600
 6556SOL    HW120567   5.428   4.558   3.576
 6556SOL    HW220568   5.408   4.709   3.635
 6557SOL     OW20569   3.000   0.110   2.611
 6557SOL    HW120570   2.960   0.033   2.661
 6557SOL    HW220571   3.031   0.180   2.675
 6558SOL     OW20572   6.851   4.835   0.490
 6558SOL    HW120573   6.899   4.790   0.414
 6558SOL    HW220574   6.894   4.923   0.509
 6559SOL     OW20575   1.101   4.050   0.430
 6559SOL    HW120576   1.133   4.145   0.425
 6559SOL    HW220577   1.048   4.029   0.348
 6560SOL     OW20578   4.510   5.067   1.463
 6560SOL    HW120579   4.418   5.104   1.469
 6560SOL    HW220580   4.535   5.025   1.550
 6561SOL     OW20581   3.224   4.425   1.295
 6561SOL    HW120582   3.224   4.410   1.196
 6561SOL    HW220583   3.153   4.369   1.338
 6562SOL     OW20584   6.301   2.467   0.874
 6562SOL    HW120585   6.297   2.531   0.952
 6562SOL    HW220586   6.339   2.514   0.795
 6563SOL     OW20587   5.132   5.388   6.107
 6563SOL    HW120588   5.037   5.357   6.113
 6563SOL    HW220589   5.153   5.411   6.012
 6564SOL     OW20590   6.783   3.278   2.783
 6564SOL    HW120591   6.746   3.281   2.876
 6564SOL    HW220592   6.713   3.245   2.720
 6565SOL     OW20593   5.537   1.233   2.449
 6565SOL    HW120594   5.548   1.187   2.537
 6565SOL    HW220595   5.447   1.276   2.445
 6566SOL     OW20596   4.062   6.275   1.883
 6566SOL    HW120597   4.087   6.371   1.886
 6566SOL    HW220598   3.976   6.264   1.833
 6567SOL     OW20599   4.661   1.003   2.210
 6567SOL    HW120600   4.628   0.924   2.262
 6567SOL    HW220601   4.759   0.992   2.193
 6568SOL     OW20602   3.354   1.435   4.342
 6568SOL    HW120603   3.424   1.397   4.403
 6568SOL    HW220604   3.390   1.441   4.249
 6569SOL     OW20605   2.683   3.292   0.335
 6569SOL    HW120606   2.669   3.194   0.325
 6569SOL    HW220607   2.603   3.341   0.300
 6570SOL     OW20608   2.845   0.455   2.376
 6570SOL    HW120609   2.776   0.443   2.305
 6570SOL    HW220610   2.868   0.366   2.416
 6571SOL     OW20611   3.264   5.102   1.774
 6571SOL    HW120612   3.285   5.004   1.769
 6571SOL    HW220613   3.346   5.155   1.753
 6572SOL     OW20614   6.570   4.491   4.425
 6572SOL    HW120615   6.492   4.552   4.418
 6572SOL    HW220616   6.551   4.420   4.493
 6573SOL     OW20617   0.837   1.734   2.176
 6573SOL    HW120618   0.905   1.757   2.245
 6573SOL    HW220619   0.871   1.660   2.119
 6574SOL     OW20620   2.267   5.817   2.753
 6574SOL    HW120621   2.275   5.916   2.765
 6574SOL    HW220622   2.296   5.792   2.661
 6575SOL     OW20623   0.505   6.558   3.573
 6575SOL    HW120624   0.408   6.581   3.565
 6575SOL    HW220625   0.541   6.532   3.484
 6576SOL     OW20626   2.141   5.806   0.042
 6576SOL    HW120627   2.159   5.740   0.115
 6576SOL    HW220628   2.061   5.862   0.066
 6577SOL     OW20629   0.657   1.943   3.538
 6577SOL    HW120630   0.679   1.888   3.458
 6577SOL    HW220631   0.645   2.039   3.510
 6578SOL     OW20632   0.618   6.076   2.867
 6578SOL    HW120633   0.672   6.139   2.923
 6578SOL    HW220634   0.521   6.099   2.874
 6579SOL     OW20635   0.612   3.146   3.629
 6579SOL    HW120636   0.654   3.065   3.588
 6579SOL    HW220637   0.514   3.129   3.644
 6580SOL     OW20638   0.277   1.848   0.632
 6580SOL    HW120639   0.214   1.868   0.707
 6580SOL    HW220640   0.309   1.754   0.640
 6581SOL     OW20641   2.358   0.402   0.044
 6581SOL    HW120642   2.379   0.304   0.037
 6581SOL    HW220643   2.443   0.454   0.037
 6582SOL     OW20644   6.937   1.296   2.822
 6582SOL    HW120645   0.017   1.297   2.809
 6582SOL    HW220646   6.904   1.201   2.819
 6583SOL     OW20647   4.682   0.285   6.115
 6583SOL    HW120648   4.694   0.191   6.085
 6583SOL    HW220649   4.653   0.341   6.037
 6584SOL     OW20650   4.620   2.713   0.582
 6584SOL    HW120651   4.584   2.715   0.675
 6584SOL    HW220652   4.558   2.661   0.523
 6585SOL     OW20653   6.569   6.131   0.285
 6585SOL    HW120654   6.570   6.074   0.203
 6585SOL    HW220655   6.512   6.212   0.269
 6586SOL     OW20656   5.537   1.145   5.984
 6586SOL    HW120657   5.473   1.216   5.953
 6586SOL    HW220658   5.563   1.087   5.908
 6587SOL     OW20659   2.105   5.138   5.762
 6587SOL    HW120660   2.032   5.155   5.696
 6587SOL    HW220661   2.104   5.042   5.790
 6588SOL     OW20662   0.224   2.606   1.997
 6588SOL    HW120663   0.161   2.528   2.004
 6588SOL    HW220664   0.207   2.670   2.071
 6589SOL     OW20665   4.691   0.301   1.249
 6589SOL    HW120666   4.675   0.220   1.194
 6589SOL    HW220667   4.790   0.315   1.261
 6590SOL     OW20668   0.165   1.040   6.679
 6590SOL    HW120669   0.114   0.963   6.643
 6590SOL    HW220670   0.158   1.041   6.779
 6591SOL     OW20671   6.312   5.786   3.140
 6591SOL    HW120672   6.322   5.883   3.159
 6591SOL    HW220673   6.392   5.753   3.090
 6592SOL     OW20674   5.356   0.076   2.963
 6592SOL    HW120675   5.392   0.028   2.883
 6592SOL    HW220676   5.417   0.152   2.986
 6593SOL     OW20677   2.212   2.168   2.981
 6593SOL    HW120678   2.134   2.231   2.981
 6593SOL    HW220679   2.257   2.170   3.070
 6594SOL     OW20680   3.844   1.375   6.168
 6594SOL    HW120681   3.881   1.403   6.257
 6594SOL    HW220682   3.810   1.455   6.119
 6595SOL     OW20683   1.071   4.410   6.843
 6595SOL    HW120684   1.093   4.508   6.844
 6595SOL    HW220685   1.155   4.357   6.854
 6596SOL     OW20686   3.142   6.902   4.269
 6596SOL    HW120687   3.102   6.899   4.361
 6596SOL    HW220688   3.082   6.954   4.208
 6597SOL     OW20689   0.838   5.247   1.222
 6597SOL    HW120690   0.845   5.201   1.310
 6597SOL    HW220691   0.832   5.179   1.149
 6598SOL     OW20692   1.841   5.108   3.848
 6598SOL    HW120693   1.796   5.019   3.857
 6598SOL    HW220694   1.939   5.094   3.831
 6599SOL     OW20695   4.304   6.156   5.911
 6599SOL    HW120696   4.389   6.104   5.917
 6599SOL    HW220697   4.293   6.211   5.994
 6600SOL     OW20698   3.680   5.801   5.539
 6600SOL    HW120699   3.617   5.808   5.617
 6600SOL    HW220700   3.735   5.884   5.533
 6601SOL     OW20701   1.621   1.910   4.992
 6601SOL    HW120702   1.543   1.971   4.980
 6601SOL    HW220703   1.630   1.886   5.089
 6602SOL     OW20704   1.874   1.206   1.675
 6602SOL    HW120705   1.954   1.186   1.618
 6602SOL    HW220706   1.791   1.181   1.626
 6603SOL     OW20707   0.187   2.718   3.537
 6603SOL    HW120708   0.097   2.736   3.497
 6603SOL    HW220709   0.177   2.685   3.630
 6604SOL     OW20710   1.157   6.932   1.288
 6604SOL    HW120711   1.226   7.001   1.268
 6604SOL    HW220712   1.068   6.964   1.256
 6605SOL     OW20713   5.656   5.322   1.401
 6605SOL    HW120714   5.650   5.249   1.469
 6605SOL    HW220715   5.727   5.299   1.334
 6606SOL     OW20716   0.601   5.801   2.062
 6606SOL    HW120717   0.511   5.811   2.104
 6606SOL    HW220718   0.623   5.704   2.055
 6607SOL     OW20719   1.979   4.204   2.281
 6607SOL    HW120720   2.055   4.258   2.246
 6607SOL    HW220721   2.010   4.111   2.299
 6608SOL     OW20722   6.786   6.552   0.098
 6608SOL    HW120723   6.807   6.566   0.195
 6608SOL    HW220724   6.784   6.640   0.051
 6609SOL     OW20725   5.522   1.141   0.317
 6609SOL    HW120726   5.522   1.211   0.246
 6609SOL    HW220727   5.615   1.129   0.352
 6610SOL     OW20728   2.286   6.323   0.029
 6610SOL    HW120729   2.349   6.305   6.974
 6610SOL    HW220730   2.337   6.359   0.107
 6611SOL     OW20731   4.882   3.229   2.877
 6611SOL    HW120732   4.869   3.326   2.858
 6611SOL    HW220733   4.909   3.182   2.793
 6612SOL     OW20734   6.205   1.894   6.797
 6612SOL    HW120735   6.254   1.918   6.713
 6612SOL    HW220736   6.107   1.883   6.776
 6613SOL     OW20737   6.720   6.455   5.161
 6613SOL    HW120738   6.677   6.366   5.170
 6613SOL    HW220739   6.675   6.507   5.088
 6614SOL     OW20740   4.080   5.435   6.891
 6614SOL    HW120741   3.997   5.380   6.885
 6614SOL    HW220742   4.151   5.383   6.937
 6615SOL     OW20743   1.294   5.582   1.107
 6615SOL    HW120744   1.203   5.543   1.119
 6615SOL    HW220745   1.363   5.519   1.142
 6616SOL     OW20746   4.835   0.377   6.336
 6616SOL    HW120747   4.901   0.304   6.356
 6616SOL    HW220748   4.755   0.339   6.291
 6617SOL     OW20749   4.563   5.323   3.245
 6617SOL    HW120750   4.652   5.350   3.210
 6617SOL    HW220751   4.512   5.403   3.274
 6618SOL     OW20752   1.603   2.326   2.762
 6618SOL    HW120753   1.618   2.229   2.775
 6618SOL    HW220754   1.506   2.342   2.743
 6619SOL     OW20755   5.334   0.399   3.569
 6619SOL    HW120756   5.243   0.371   3.538
 6619SOL    HW220757   5.344   0.379   3.666
 6620SOL     OW20758   1.465   2.808   5.401
 6620SOL    HW120759   1.513   2.721   5.414
 6620SOL    HW220760   1.485   2.844   5.310
 6621SOL     OW20761   3.413   3.107   6.171
 6621SOL    HW120762   3.326   3.093   6.219
 6621SOL    HW220763   3.412   3.194   6.123
 6622SOL     OW20764   5.813   6.273   2.038
 6622SOL    HW120765   5.813   6.231   1.947
 6622SOL    HW220766   5.774   6.208   2.104
 6623SOL     OW20767   3.507   3.143   4.890
 6623SOL    HW120768   3.468   3.222   4.842
 6623SOL    HW220769   3.564   3.175   4.965
 6624SOL     OW20770   6.972   4.347   5.641
 6624SOL    HW120771   0.023   4.306   5.699
 6624SOL    HW220772   7.006   4.433   5.603
 6625SOL     OW20773   5.077   1.983   5.046
 6625SOL    HW120774   5.139   2.058   5.024
 6625SOL    HW220775   5.073   1.970   5.145
 6626SOL     OW20776   3.486   6.139   5.543
 6626SOL    HW120777   3.545   6.060   5.555
 6626SOL    HW220778   3.539   6.223   5.553
 6627SOL     OW20779   1.869   6.335   5.642
 6627SOL    HW120780   1.969   6.340   5.650
 6627SOL    HW220781   1.831   6.295   5.725
 6628SOL     OW20782   6.477   5.085   4.674
 6628SOL    HW120783   6.457   4.987   4.681
 6628SOL    HW220784   6.520   5.116   4.759
 6629SOL     OW20785   4.779   6.495   6.313
 6629SOL    HW120786   4.833   6.412   6.297
 6629SOL    HW220787   4.788   6.556   6.235
 6630SOL     OW20788   3.523   1.642   1.181
 6630SOL    HW120789   3.564   1.584   1.252
 6630SOL    HW220790   3.432   1.607   1.158
 6631SOL     OW20791   2.494   5.609   4.220
 6631SOL    HW120792   2.539   5.530   4.179
 6631SOL    HW220793   2.411   5.580   4.268
 6632SOL     OW20794   0.964   0.148   1.280
 6632SOL    HW120795   0.916   0.236   1.272
 6632SOL    HW220796   0.971   0.123   1.377
 6633SOL     OW20797   1.861   4.680   6.627
 6633SOL    HW120798   1.845   4.771   6.665
 6633SOL    HW220799   1.783   4.652   6.572
 6634SOL     OW20800   4.929   1.494   5.058
 6634SOL    HW120801   4.930   1.486   4.958
 6634SOL    HW220802   4.974   1.580   5.084
 6635SOL     OW20803   4.644   4.306   2.854
 6635SOL    HW120804   4.654   4.206   2.853
 6635SOL    HW220805   4.648   4.340   2.760
 6636SOL     OW20806   4.781   1.869   6.657
 6636SOL    HW120807   4.766   1.880   6.559
 6636SOL    HW220808   4.750   1.778   6.685
 6637SOL     OW20809   0.359   0.034   6.542
 6637SOL    HW120810   0.431   0.011   6.476
 6637SOL    HW220811   0.340   6.974   6.600
 6638SOL     OW20812   3.283   3.673   3.122
 6638SOL    HW120813   3.269   3.720   3.034
 6638SOL    HW220814   3.194   3.658   3.165
 6639SOL     OW20815   4.710   4.835   6.874
 6639SOL    HW120816   4.649   4.850   6.796
 6639SOL    HW220817   4.661   4.782   6.944
 6640SOL     OW20818   0.063   1.877   4.885
 6640SOL    HW120819   0.005   1.945   4.929
 6640SOL    HW220820   0.020   1.787   4.894
 6641SOL     OW20821   2.814   1.549   6.696
 6641SOL    HW120822   2.901   1.501   6.705
 6641SOL    HW220823   2.789   1.589   6.784
 6642SOL     OW20824   2.324   6.210   6.686
 6642SOL    HW120825   2.340   6.307   6.665
 6642SOL    HW220826   2.226   6.194   6.697
 6643SOL     OW20827   5.365   6.105   0.239
 6643SOL    HW120828   5.403   6.191   0.272
 6643SOL    HW220829   5.283   6.124   0.184
 6644SOL     OW20830   2.712   4.994   1.165
 6644SOL    HW120831   2.646   4.976   1.092
 6644SOL    HW220832   2.675   5.064   1.227
 6645SOL     OW20833   6.036   4.092   0.654
 6645SOL    HW120834   6.099   4.152   0.703
 6645SOL    HW220835   6.080   4.003   0.639
 6646SOL     OW20836   4.613   0.955   5.289
 6646SOL    HW120837   4.670   0.930   5.368
 6646SOL    HW220838   4.596   0.875   5.232
 6647SOL     OW20839   5.143   0.282   1.507
 6647SOL    HW120840   5.090   0.361   1.480
 6647SOL    HW220841   5.239   0.294   1.480
 6648SOL     OW20842   3.164   6.429   3.739
 6648SOL    HW120843   3.126   6.461   3.826
 6648SOL    HW220844   3.111   6.351   3.706
 6649SOL     OW20845   5.633   1.713   6.833
 6649SOL    HW120846   5.591   1.687   6.746
 6649SOL    HW220847   5.571   1.692   6.908
 6650SOL     OW20848   4.116   1.333   5.685
 6650SOL    HW120849   4.187   1.403   5.675
 6650SOL    HW220850   4.087   1.328   5.781
 6651SOL     OW20851   2.834   0.614   6.415
 6651SOL    HW120852   2.737   0.628   6.395
 6651SOL    HW220853   2.888   0.643   6.336
 6652SOL     OW20854   0.478   4.311   6.961
 6652SOL    HW120855   0.551   4.249   6.991
 6652SOL    HW220856   0.467   4.385   0.008
 6653SOL     OW20857   4.079   4.205   1.389
 6653SOL    HW120858   3.992   4.155   1.384
 6653SOL    HW220859   4.109   4.229   1.297
 6654SOL     OW20860   1.739   5.058   1.058
 6654SOL    HW120861   1.715   5.027   1.150
 6654SOL    HW220862   1.731   5.157   1.054
 6655SOL     OW20863   1.146   6.601   3.979
 6655SOL    HW120864   1.089   6.526   4.011
 6655SOL    HW220865   1.240   6.569   3.969
 6656SOL     OW20866   5.187   2.254   3.648
 6656SOL    HW120867   5.092   2.257   3.616
 6656SOL    HW220868   5.225   2.163   3.631
 6657SOL     OW20869   5.637   4.778   6.450
 6657SOL    HW120870   5.545   4.813   6.467
 6657SOL    HW220871   5.633   4.678   6.442
 6658SOL     OW20872   5.407   1.245   4.423
 6658SOL    HW120873   5.367   1.192   4.348
 6658SOL    HW220874   5.491   1.200   4.454
 6659SOL     OW20875   2.523   2.904   0.104
 6659SOL    HW120876   2.503   2.809   0.130
 6659SOL    HW220877   2.500   2.918   0.008
 6660SOL     OW20878   1.345   4.512   1.428
 6660SOL    HW120879   1.385   4.589   1.378
 6660SOL    HW220880   1.259   4.541   1.470
 6661SOL     OW20881   1.602   0.223   5.221
 6661SOL    HW120882   1.645   0.306   5.187
 6661SOL    HW220883   1.625   0.211   5.318
 6662SOL     OW20884   0.943   0.352   0.537
 6662SOL    HW120885   1.028   0.400   0.557
 6662SOL    HW220886   0.929   0.279   0.604
 6663SOL     OW20887   6.247   6.186   4.441
 6663SOL    HW120888   6.167   6.245   4.431
 6663SOL    HW220889   6.223   6.106   4.497
 6664SOL     OW20890   2.117   6.912   0.527
 6664SOL    HW120891   2.036   6.855   0.542
 6664SOL    HW220892   2.193   6.854   0.498
 6665SOL     OW20893   1.644   6.106   4.435
 6665SOL    HW120894   1.691   6.189   4.464
 6665SOL    HW220895   1.552   6.105   4.474
 6666SOL     OW20896   5.913   6.343   6.273
 6666SOL    HW120897   5.970   6.355   6.192
 6666SOL    HW220898   5.921   6.424   6.331
 6667SOL     OW20899   6.255   6.865   6.075
 6667SOL    HW120900   6.312   6.820   6.144
 6667SOL    HW220901   6.260   6.813   5.989
 6668SOL     OW20902   6.937   5.796   0.934
 6668SOL    HW120903   6.964   5.712   0.885
 6668SOL    HW220904   6.956   5.875   0.876
 6669SOL     OW20905   2.549   2.236   2.235
 6669SOL    HW120906   2.482   2.182   2.286
 6669SOL    HW220907   2.638   2.230   2.281
 6670SOL     OW20908   3.201   1.490   5.289
 6670SOL    HW120909   3.263   1.432   5.237
 6670SOL    HW220910   3.245   1.516   5.375
 6671SOL     OW20911   4.264   6.806   0.481
 6671SOL    HW120912   4.192   6.805   0.412
 6671SOL    HW220913   4.324   6.727   0.468
 6672SOL     OW20914   6.545   2.750   6.511
 6672SOL    HW120915   6.559   2.667   6.566
 6672SOL    HW220916   6.447   2.769   6.503
 6673SOL     OW20917   4.806   4.730   3.874
 6673SOL    HW120918   4.871   4.656   3.859
 6673SOL    HW220919   4.760   4.716   3.962
 6674SOL     OW20920   0.839   3.658   6.962
 6674SOL    HW120921   0.742   3.648   6.940
 6674SOL    HW220922   0.894   3.645   6.879
 6675SOL     OW20923   5.903   3.896   0.370
 6675SOL    HW120924   5.953   3.982   0.367
 6675SOL    HW220925   5.814   3.907   0.326
 6676SOL     OW20926   0.911   3.807   5.510
 6676SOL    HW120927   0.922   3.829   5.607
 6676SOL    HW220928   0.892   3.709   5.500
 6677SOL     OW20929   0.978   1.805   6.178
 6677SOL    HW120930   1.027   1.854   6.250
 6677SOL    HW220931   0.969   1.709   6.203
 6678SOL     OW20932   3.311   3.365   0.029
 6678SOL    HW120933   3.292   3.371   0.127
 6678SOL    HW220934   3.292   3.453   7.005
 6679SOL     OW20935   3.100   0.759   4.025
 6679SOL    HW120936   3.018   0.785   4.076
 6679SOL    HW220937   3.087   0.669   3.984
 6680SOL     OW20938   4.689   6.725   6.752
 6680SOL    HW120939   4.683   6.655   6.681
 6680SOL    HW220940   4.625   6.800   6.730
 6681SOL     OW20941   4.179   5.435   1.251
 6681SOL    HW120942   4.201   5.531   1.232
 6681SOL    HW220943   4.260   5.389   1.287
 6682SOL     OW20944   1.533   4.104   1.069
 6682SOL    HW120945   1.624   4.063   1.072
 6682SOL    HW220946   1.539   4.195   1.030
 6683SOL     OW20947   5.488   3.504   5.157
 6683SOL    HW120948   5.450   3.471   5.070
 6683SOL    HW220949   5.587   3.501   5.153
 6684SOL     OW20950   3.332   5.902   1.895
 6684SOL    HW120951   3.237   5.872   1.883
 6684SOL    HW220952   3.339   5.999   1.870
 6685SOL     OW20953   5.928   3.063   5.876
 6685SOL    HW120954   6.001   3.131   5.877
 6685SOL    HW220955   5.846   3.102   5.834
 6686SOL     OW20956   4.918   5.459   4.085
 6686SOL    HW120957   4.886   5.518   4.159
 6686SOL    HW220958   4.989   5.506   4.033
 6687SOL     OW20959   0.957   3.304   1.229
 6687SOL    HW120960   1.019   3.366   1.181
 6687SOL    HW220961   0.895   3.357   1.287
 6688SOL     OW20962   6.404   4.630   1.738
 6688SOL    HW120963   6.373   4.661   1.828
 6688SOL    HW220964   6.352   4.549   1.710
 6689SOL     OW20965   3.794   3.654   6.666
 6689SOL    HW120966   3.842   3.569   6.690
 6689SOL    HW220967   3.713   3.664   6.723
 6690SOL     OW20968   0.385   0.807   0.484
 6690SOL    HW120969   0.365   0.766   0.573
 6690SOL    HW220970   0.373   0.738   0.413
 6691SOL     OW20971   2.694   0.003   2.050
 6691SOL    HW120972   2.625   6.987   2.113
 6691SOL    HW220973   2.661   7.013   1.956
 6692SOL     OW20974   4.050   3.318   3.827
 6692SOL    HW120975   4.110   3.394   3.851
 6692SOL    HW220976   4.008   3.281   3.910
 6693SOL     OW20977   3.817   2.239   5.216
 6693SOL    HW120978   3.830   2.323   5.268
 6693SOL    HW220979   3.726   2.203   5.232
 6694SOL     OW20980   4.277   5.687   1.232
 6694SOL    HW120981   4.351   5.679   1.299
 6694SOL    HW220982   4.216   5.762   1.258
 6695SOL     OW20983   2.583   2.208   6.738
 6695SOL    HW120984   2.662   2.257   6.701
 6695SOL    HW220985   2.540   2.263   6.809
 6696SOL     OW20986   3.237   3.319   4.662
 6696SOL    HW120987   3.282   3.344   4.748
 6696SOL    HW220988   3.219   3.221   4.661
 6697SOL     OW20989   4.538   2.181   3.157
 6697SOL    HW120990   4.514   2.136   3.071
 6697SOL    HW220991   4.636   2.167   3.175
 6698SOL     OW20992   3.098   2.282   0.597
 6698SOL    HW120993   3.115   2.205   0.657
 6698SOL    HW220994   3.178   2.299   0.540
 6699SOL     OW20995   2.797   5.721   5.641
 6699SOL    HW120996   2.835   5.812   5.627
 6699SOL    HW220997   2.793   5.672   5.554
 6700SOL     OW20998   0.910   0.820   1.157
 6700SOL    HW120999   0.920   0.855   1.250
 6700SOL    HW221000   0.979   0.749   1.140
 6701SOL     OW21001   5.744   5.092   2.171
 6701SOL    HW121002   5.738   5.147   2.087
 6701SOL    HW221003   5.656   5.047   2.187
 6702SOL     OW21004   2.909   2.168   1.490
 6702SOL    HW121005   2.974   2.145   1.417
 6702SOL    HW221006   2.959   2.202   1.570
 6703SOL     OW21007   5.995   0.980   0.394
 6703SOL    HW121008   6.045   0.932   0.321
 6703SOL    HW221009   6.050   1.057   0.426
 6704SOL     OW21010   3.994   1.839   3.341
 6704SOL    HW121011   3.951   1.919   3.383
 6704SOL    HW221012   3.923   1.778   3.305
 6705SOL     OW21013   6.268   4.186   1.263
 6705SOL    HW121014   6.296   4.280   1.242
 6705SOL    HW221015   6.338   4.122   1.230
 6706SOL     OW21016   1.627   4.479   1.416
 6706SOL    HW121017   1.672   4.458   1.503
 6706SOL    HW221018   1.530   4.496   1.432
 6707SOL     OW21019   6.330   6.457   3.538
 6707SOL    HW121020   6.235   6.487   3.543
 6707SOL    HW221021   6.385   6.527   3.491
 6708SOL     OW21022   6.987   4.634   0.712
 6708SOL    HW121023   6.943   4.674   0.632
 6708SOL    HW221024   6.974   4.694   0.791
 6709SOL     OW21025   2.422   6.516   2.384
 6709SOL    HW121026   2.338   6.571   2.383
 6709SOL    HW221027   2.502   6.577   2.378
 6710SOL     OW21028   4.111   1.593   6.451
 6710SOL    HW121029   4.194   1.537   6.448
 6710SOL    HW221030   4.118   1.666   6.383
 6711SOL     OW21031   5.004   6.340   6.097
 6711SOL    HW121032   5.083   6.297   6.053
 6711SOL    HW221033   5.010   6.329   6.196
 6712SOL     OW21034   5.445   4.188   0.422
 6712SOL    HW121035   5.500   4.257   0.469
 6712SOL    HW221036   5.435   4.108   0.481
 6713SOL     OW21037   2.257   0.338   2.602
 6713SOL    HW121038   2.208   0.277   2.540
 6713SOL    HW221039   2.351   0.351   2.569
 6714SOL     OW21040   6.815   0.908   5.639
 6714SOL    HW121041   6.729   0.950   5.608
 6714SOL    HW221042   6.888   0.976   5.636
 6715SOL     OW21043   0.343   0.270   0.423
 6715SOL    HW121044   0.281   0.332   0.471
 6715SOL    HW221045   0.433   0.270   0.468
 6716SOL     OW21046   0.242   5.587   2.193
 6716SOL    HW121047   0.221   5.561   2.287
 6716SOL    HW221048   0.293   5.673   2.193
 6717SOL     OW21049   3.590   2.415   6.690
 6717SOL    HW121050   3.527   2.395   6.765
 6717SOL    HW221051   3.679   2.375   6.711
 6718SOL     OW21052   5.227   0.845   0.738
 6718SOL    HW121053   5.214   0.747   0.726
 6718SOL    HW221054   5.278   0.882   0.660
 6719SOL     OW21055   2.827   6.577   6.352
 6719SOL    HW121056   2.873   6.488   6.353
 6719SOL    HW221057   2.739   6.570   6.398
 6720SOL     OW21058   1.652   0.628   4.348
 6720SOL    HW121059   1.628   0.531   4.353
 6720SOL    HW221060   1.591   0.680   4.408
 6721SOL     OW21061   6.811   6.498   0.373
 6721SOL    HW121062   6.714   6.477   0.387
 6721SOL    HW221063   6.861   6.412   0.359
 6722SOL     OW21064   0.149   2.934   1.370
 6722SOL    HW121065   0.200   2.970   1.291
 6722SOL    HW221066   0.055   2.915   1.342
 6723SOL     OW21067   1.961   6.330   4.306
 6723SOL    HW121068   1.919   6.359   4.220
 6723SOL    HW221069   1.890   6.295   4.367
 6724SOL     OW21070   2.181   3.635   5.951
 6724SOL    HW121071   2.121   3.643   5.871
 6724SOL    HW221072   2.212   3.540   5.960
 6725SOL     OW21073   0.184   3.669   1.819
 6725SOL    HW121074   0.210   3.583   1.776
 6725SOL    HW221075   0.150   3.651   1.911
 6726SOL     OW21076   1.209   2.308   5.074
 6726SOL    HW121077   1.150   2.233   5.106
 6726SOL    HW221078   1.300   2.298   5.114
 6727SOL     OW21079   0.647   4.797   5.055
 6727SOL    HW121080   0.704   4.765   4.979
 6727SOL    HW221081   0.651   4.732   5.130
 6728SOL     OW21082   3.319   2.085   2.271
 6728SOL    HW121083   3.237   2.125   2.229
 6728SOL    HW221084   3.380   2.159   2.299
 6729SOL     OW21085   6.166   0.892   2.618
 6729SOL    HW121086   6.107   0.854   2.547
 6729SOL    HW221087   6.199   0.818   2.677
 6730SOL     OW21088   1.707   6.734   1.220
 6730SOL    HW121089   1.667   6.667   1.282
 6730SOL    HW221090   1.802   6.710   1.201
 6731SOL     OW21091   1.395   6.318   1.007
 6731SOL    HW121092   1.320   6.343   0.946
 6731SOL    HW221093   1.474   6.290   0.953
 6732SOL     OW21094   5.626   4.637   5.006
 6732SOL    HW121095   5.548   4.576   4.990
 6732SOL    HW221096   5.675   4.607   5.088
 6733SOL     OW21097   3.782   5.462   6.154
 6733SOL    HW121098   3.778   5.415   6.066
 6733SOL    HW221099   3.690   5.492   6.180
 6734SOL     OW21100   5.643   2.791   4.202
 6734SOL    HW121101   5.720   2.733   4.229
 6734SOL    HW221102   5.622   2.854   4.277
 6735SOL     OW21103   6.773   4.217   4.706
 6735SOL    HW121104   6.812   4.234   4.615
 6735SOL    HW221105   6.845   4.188   4.769
 6736SOL     OW21106   3.526   3.737   0.300
 6736SOL    HW121107   3.441   3.748   0.351
 6736SOL    HW221108   3.555   3.826   0.264
 6737SOL     OW21109   1.454   2.275   0.890
 6737SOL    HW121110   1.526   2.330   0.848
 6737SOL    HW221111   1.421   2.208   0.824
 6738SOL     OW21112   1.297   6.011   3.144
 6738SOL    HW121113   1.320   5.914   3.138
 6738SOL    HW221114   1.265   6.042   3.054
 6739SOL     OW21115   4.564   5.888   4.359
 6739SOL    HW121116   4.581   5.864   4.264
 6739SOL    HW221117   4.622   5.966   4.385
 6740SOL     OW21118   1.246   0.565   4.929
 6740SOL    HW121119   1.198   0.497   4.874
 6740SOL    HW221120   1.195   0.584   5.012
 6741SOL     OW21121   4.393   1.940   5.008
 6741SOL    HW121122   4.446   1.950   5.092
 6741SOL    HW221123   4.349   2.026   4.986
 6742SOL     OW21124   5.630   5.799   2.872
 6742SOL    HW121125   5.682   5.884   2.863
 6742SOL    HW221126   5.644   5.762   2.964
 6743SOL     OW21127   4.235   4.749   6.506
 6743SOL    HW121128   4.252   4.844   6.532
 6743SOL    HW221129   4.146   4.720   6.542
 6744SOL     OW21130   6.017   4.575   6.043
 6744SOL    HW121131   5.999   4.673   6.041
 6744SOL    HW221132   6.116   4.559   6.050
 6745SOL     OW21133   0.038   6.575   3.438
 6745SOL    HW121134   7.010   6.555   3.352
 6745SOL    HW221135   6.993   6.567   3.514
 6746SOL     OW21136   1.093   1.051   3.422
 6746SOL    HW121137   1.064   1.037   3.517
 6746SOL    HW221138   1.016   1.082   3.368
 6747SOL     OW21139   5.179   1.584   4.629
 6747SOL    HW121140   5.178   1.517   4.703
 6747SOL    HW221141   5.135   1.668   4.660
 6748SOL     OW21142   3.151   1.643   4.383
 6748SOL    HW121143   3.207   1.564   4.407
 6748SOL    HW221144   3.133   1.698   4.465
 6749SOL     OW21145   3.730   5.045   0.187
 6749SOL    HW121146   3.635   5.033   0.215
 6749SOL    HW221147   3.791   5.004   0.255
 6750SOL     OW21148   3.699   1.949   5.032
 6750SOL    HW121149   3.652   2.022   5.082
 6750SOL    HW221150   3.635   1.874   5.016
 6751SOL     OW21151   4.939   6.920   3.251
 6751SOL    HW121152   4.967   6.854   3.321
 6751SOL    HW221153   5.019   6.973   3.221
 6752SOL     OW21154   1.324   1.011   3.288
 6752SOL    HW121155   1.241   1.009   3.344
 6752SOL    HW221156   1.383   1.086   3.319
 6753SOL     OW21157   3.080   0.664   6.514
 6753SOL    HW121158   2.991   0.654   6.470
 6753SOL    HW221159   3.069   0.653   6.613
 6754SOL     OW21160   6.845   1.937   0.904
 6754SOL    HW121161   6.792   2.016   0.936
 6754SOL    HW221162   6.798   1.853   0.930
 6755SOL     OW21163   4.134   1.267   2.516
 6755SOL    HW121164   4.198   1.198   2.549
 6755SOL    HW221165   4.050   1.265   2.570
 6756SOL     OW21166   4.025   5.754   5.009
 6756SOL    HW121167   4.058   5.673   4.960
 6756SOL    HW221168   4.077   5.765   5.093
 6757SOL     OW21169   3.994   2.304   0.812
 6757SOL    HW121170   3.956   2.232   0.870
 6757SOL    HW221171   4.071   2.347   0.859
 6758SOL     OW21172   6.146   1.605   2.262
 6758SOL    HW121173   6.213   1.678   2.272
 6758SOL    HW221174   6.060   1.642   2.229
 6759SOL     OW21175   1.241   4.170   4.570
 6759SOL    HW121176   1.213   4.265   4.578
 6759SOL    HW221177   1.333   4.165   4.531
 6760SOL     OW21178   6.356   3.775   2.548
 6760SOL    HW121179   6.413   3.694   2.533
 6760SOL    HW221180   6.293   3.758   2.623
 6761SOL     OW21181   6.773   2.628   5.505
 6761SOL    HW121182   6.709   2.587   5.441
 6761SOL    HW221183   6.724   2.657   5.588
 6762SOL     OW21184   0.864   5.044   5.041
 6762SOL    HW121185   0.958   5.037   5.073
 6762SOL    HW221186   0.819   4.954   5.047
 6763SOL     OW21187   0.536   5.196   3.360
 6763SOL    HW121188   0.573   5.195   3.453
 6763SOL    HW221189   0.440   5.169   3.363
 6764SOL     OW21190   1.314   5.247   1.055
 6764SOL    HW121191   1.215   5.247   1.061
 6764SOL    HW221192   1.353   5.261   1.146
 6765SOL     OW21193   5.516   4.291   3.995
 6765SOL    HW121194   5.580   4.269   3.922
 6765SOL    HW221195   5.538   4.236   4.076
 6766SOL     OW21196   5.103   6.599   6.252
 6766SOL    HW121197   5.125   6.508   6.289
 6766SOL    HW221198   5.086   6.662   6.327
 6767SOL     OW21199   2.178   1.970   1.363
 6767SOL    HW121200   2.236   2.006   1.290
 6767SOL    HW221201   2.085   1.960   1.330
 6768SOL     OW21202   1.447   6.652   4.237
 6768SOL    HW121203   1.505   6.733   4.229
 6768SOL    HW221204   1.502   6.575   4.268
 6769SOL     OW21205   2.946   0.653   6.141
 6769SOL    HW121206   2.963   0.557   6.162
 6769SOL    HW221207   3.022   0.690   6.088
 6770SOL     OW21208   5.337   1.978   3.344
 6770SOL    HW121209   5.298   1.936   3.262
 6770SOL    HW221210   5.421   2.025   3.320
 6771SOL     OW21211   3.756   1.716   2.569
 6771SOL    HW121212   3.830   1.760   2.620
 6771SOL    HW221213   3.791   1.636   2.521
 6772SOL     OW21214   4.603   2.522   2.208
 6772SOL    HW121215   4.560   2.489   2.124
 6772SOL    HW221216   4.602   2.622   2.209
 6773SOL     OW21217   0.357   5.828   1.718
 6773SOL    HW121218   0.422   5.819   1.643
 6773SOL    HW221219   0.280   5.884   1.689
 6774SOL     OW21220   1.184   4.113   5.301
 6774SOL    HW121221   1.223   4.023   5.321
 6774SOL    HW221222   1.209   4.140   5.208
 6775SOL     OW21223   2.567   2.186   2.760
 6775SOL    HW121224   2.598   2.257   2.696
 6775SOL    HW221225   2.586   2.216   2.854
 6776SOL     OW21226   4.324   3.228   0.157
 6776SOL    HW121227   4.399   3.251   0.095
 6776SOL    HW221228   4.321   3.129   0.170
 6777SOL     OW21229   4.941   4.580   0.876
 6777SOL    HW121230   4.879   4.559   0.800
 6777SOL    HW221231   4.988   4.496   0.905
 6778SOL     OW21232   6.948   5.476   1.820
 6778SOL    HW121233   6.963   5.502   1.916
 6778SOL    HW221234   6.853   5.491   1.795
 6779SOL     OW21235   5.192   5.768   5.730
 6779SOL    HW121236   5.135   5.701   5.777
 6779SOL    HW221237   5.267   5.796   5.790
 6780SOL     OW21238   1.961   2.606   2.356
 6780SOL    HW121239   2.052   2.607   2.315
 6780SOL    HW221240   1.968   2.613   2.455
 6781SOL     OW21241   6.348   2.305   4.755
 6781SOL    HW121242   6.398   2.222   4.778
 6781SOL    HW221243   6.250   2.291   4.770
 6782SOL     OW21244   0.893   1.212   3.302
 6782SOL    HW121245   0.851   1.172   3.221
 6782SOL    HW221246   0.823   1.227   3.372
 6783SOL     OW21247   6.802   1.241   6.048
 6783SOL    HW121248   6.726   1.179   6.028
 6783SOL    HW221249   6.889   1.197   6.026
 6784SOL     OW21250   1.758   3.249   0.828
 6784SOL    HW121251   1.693   3.173   0.833
 6784SOL    HW221252   1.852   3.213   0.828
 6785SOL     OW21253   6.295   5.685   4.848
 6785SOL    HW121254   6.239   5.621   4.794
 6785SOL    HW221255   6.274   5.673   4.945
 6786SOL     OW21256   2.030   1.846   0.901
 6786SOL    HW121257   1.967   1.844   0.979
 6786SOL    HW221258   2.123   1.827   0.933
 6787SOL     OW21259   2.761   2.380   0.008
 6787SOL    HW121260   2.808   2.422   6.950
 6787SOL    HW221261   2.672   2.345   6.997
 6788SOL     OW21262   1.147   4.164   1.182
 6788SOL    HW121263   1.198   4.124   1.259
 6788SOL    HW221264   1.051   4.134   1.188
 6789SOL     OW21265   1.206   5.353   3.204
 6789SOL    HW121266   1.290   5.342   3.152
 6789SOL    HW221267   1.177   5.449   3.201
 6790SOL     OW21268   0.944   3.738   0.430
 6790SOL    HW121269   0.860   3.707   0.385
 6790SOL    HW221270   1.021   3.729   0.367
 6791SOL     OW21271   3.648   2.064   2.275
 6791SOL    HW121272   3.628   2.132   2.205
 6791SOL    HW221273   3.586   1.986   2.265
 6792SOL     OW21274   5.561   6.886   4.731
 6792SOL    HW121275   5.544   6.970   4.782
 6792SOL    HW221276   5.594   6.815   4.793
 6793SOL     OW21277   1.813   1.584   0.028
 6793SOL    HW121278   1.743   1.548   6.986
 6793SOL    HW221279   1.810   1.533   0.115
 6794SOL     OW21280   5.367   1.682   5.537
 6794SOL    HW121281   5.437   1.612   5.551
 6794SOL    HW221282   5.318   1.698   5.622
 6795SOL     OW21283   1.428   6.472   1.230
 6795SOL    HW121284   1.357   6.542   1.229
 6795SOL    HW221285   1.425   6.421   1.144
 6796SOL     OW21286   5.748   0.949   3.200
 6796SOL    HW121287   5.748   1.049   3.210
 6796SOL    HW221288   5.754   0.925   3.103
 6797SOL     OW21289   6.717   2.336   1.794
 6797SOL    HW121290   6.652   2.328   1.718
 6797SOL    HW221291   6.799   2.283   1.772
 6798SOL     OW21292   6.129   6.109   1.596
 6798SOL    HW121293   6.215   6.118   1.645
 6798SOL    HW221294   6.090   6.019   1.612
 6799SOL     OW21295   6.684   0.973   2.389
 6799SOL    HW121296   6.586   0.955   2.383
 6799SOL    HW221297   6.728   0.949   2.302
 6800SOL     OW21298   2.349   2.436   1.840
 6800SOL    HW121299   2.307   2.488   1.913
 6800SOL    HW221300   2.380   2.498   1.768
 6801SOL     OW21301   1.205   0.362   3.296
 6801SOL    HW121302   1.116   0.339   3.258
 6801SOL    HW221303   1.200   0.360   3.396
 6802SOL     OW21304   3.755   6.006   1.569
 6802SOL    HW121305   3.687   5.933   1.571
 6802SOL    HW221306   3.761   6.044   1.477
 6803SOL     OW21307   4.155   3.797   5.831
 6803SOL    HW121308   4.089   3.801   5.906
 6803SOL    HW221309   4.239   3.844   5.857
 6804SOL     OW21310   3.878   5.170   3.764
 6804SOL    HW121311   3.908   5.262   3.791
 6804SOL    HW221312   3.918   5.147   3.675
 6805SOL     OW21313   0.030   4.822   6.590
 6805SOL    HW121314   0.090   4.888   6.634
 6805SOL    HW221315   0.071   4.731   6.595
 6806SOL     OW21316   6.686   1.407   3.168
 6806SOL    HW121317   6.674   1.458   3.083
 6806SOL    HW221318   6.777   1.364   3.168
 6807SOL     OW21319   3.176   3.195   1.734
 6807SOL    HW121320   3.150   3.142   1.654
 6807SOL    HW221321   3.274   3.186   1.750
 6808SOL     OW21322   6.565   1.883   6.301
 6808SOL    HW121323   6.607   1.793   6.305
 6808SOL    HW221324   6.465   1.874   6.305
 6809SOL     OW21325   0.439   2.979   1.151
 6809SOL    HW121326   0.468   2.969   1.246
 6809SOL    HW221327   0.514   2.955   1.090
 6810SOL     OW21328   2.145   1.177   2.225
 6810SOL    HW121329   2.206   1.216   2.157
 6810SOL    HW221330   2.063   1.141   2.180
 6811SOL     OW21331   5.593   4.140   1.564
 6811SOL    HW121332   5.608   4.150   1.465
 6811SOL    HW221333   5.530   4.211   1.595
 6812SOL     OW21334   3.237   3.828   4.508
 6812SOL    HW121335   3.291   3.857   4.429
 6812SOL    HW221336   3.297   3.814   4.587
 6813SOL     OW21337   5.497   3.798   2.906
 6813SOL    HW121338   5.458   3.808   2.998
 6813SOL    HW221339   5.436   3.744   2.849
 6814SOL     OW21340   4.127   2.111   6.102
 6814SOL    HW121341   4.109   2.172   6.026
 6814SOL    HW221342   4.216   2.068   6.089
 6815SOL     OW21343   3.239   6.160   0.287
 6815SOL    HW121344   3.306   6.192   0.355
 6815SOL    HW221345   3.188   6.082   0.325
 6816SOL     OW21346   6.698   0.891   6.169
 6816SOL    HW121347   6.721   0.799   6.137
 6816SOL    HW221348   6.646   0.885   6.254
 6817SOL     OW21349   2.377   2.582   2.979
 6817SOL    HW121350   2.357   2.680   2.981
 6817SOL    HW221351   2.293   2.530   2.994
 6818SOL     OW21352   1.955   6.492   0.817
 6818SOL    HW121353   1.920   6.401   0.794
 6818SOL    HW221354   2.053   6.495   0.797
 6819SOL     OW21355   3.827   1.640   3.268
 6819SOL    HW121356   3.780   1.666   3.352
 6819SOL    HW221357   3.867   1.549   3.279
 6820SOL     OW21358   2.256   6.105   1.141
 6820SOL    HW121359   2.206   6.149   1.215
 6820SOL    HW221360   2.311   6.030   1.177
 6821SOL     OW21361   4.185   2.172   5.259
 6821SOL    HW121362   4.173   2.155   5.161
 6821SOL    HW221363   4.144   2.096   5.311
 6822SOL     OW21364   5.668   2.157   5.796
 6822SOL    HW121365   5.628   2.077   5.751
 6822SOL    HW221366   5.768   2.153   5.788
 6823SOL     OW21367   5.608   3.826   5.803
 6823SOL    HW121368   5.628   3.738   5.848
 6823SOL    HW221369   5.661   3.898   5.847
 6824SOL     OW21370   1.562   1.711   0.170
 6824SOL    HW121371   1.611   1.689   0.085
 6824SOL    HW221372   1.488   1.775   0.149
 6825SOL     OW21373   5.788   0.353   0.544
 6825SOL    HW121374   5.852   0.388   0.475
 6825SOL    HW221375   5.808   0.396   0.632
 6826SOL     OW21376   1.839   3.209   3.532
 6826SOL    HW121377   1.810   3.267   3.456
 6826SOL    HW221378   1.792   3.237   3.616
 6827SOL     OW21379   4.760   5.081   5.768
 6827SOL    HW121380   4.783   5.059   5.863
 6827SOL    HW221381   4.672   5.128   5.765
 6828SOL     OW21382   3.158   1.274   1.634
 6828SOL    HW121383   3.199   1.292   1.724
 6828SOL    HW221384   3.200   1.334   1.566
 6829SOL     OW21385   4.651   6.116   4.930
 6829SOL    HW121386   4.650   6.175   5.011
 6829SOL    HW221387   4.564   6.125   4.882
 6830SOL     OW21388   5.073   0.759   3.209
 6830SOL    HW121389   4.992   0.701   3.220
 6830SOL    HW221390   5.155   0.702   3.204
 6831SOL     OW21391   1.386   0.811   6.865
 6831SOL    HW121392   1.375   0.908   6.887
 6831SOL    HW221393   1.300   0.777   6.826
 6832SOL     OW21394   2.356   4.062   0.752
 6832SOL    HW121395   2.257   4.076   0.752
 6832SOL    HW221396   2.400   4.133   0.807
 6833SOL     OW21397   3.364   4.833   6.415
 6833SOL    HW121398   3.360   4.816   6.317
 6833SOL    HW221399   3.373   4.932   6.431
 6834SOL     OW21400   5.479   0.370   0.986
 6834SOL    HW121401   5.419   0.445   1.014
 6834SOL    HW221402   5.574   0.396   1.001
 6835SOL     OW21403   4.580   0.587   4.918
 6835SOL    HW121404   4.637   0.507   4.938
 6835SOL    HW221405   4.484   0.562   4.926
 6836SOL     OW21406   3.183   4.493   0.621
 6836SOL    HW121407   3.215   4.497   0.527
 6836SOL    HW221408   3.137   4.405   0.637
 6837SOL     OW21409   1.067   2.023   3.019
 6837SOL    HW121410   1.014   1.943   2.992
 6837SOL    HW221411   1.112   2.062   2.938
 6838SOL     OW21412   3.687   6.368   0.007
 6838SOL    HW121413   3.757   6.324   0.063
 6838SOL    HW221414   3.608   6.390   0.064
 6839SOL     OW21415   5.625   1.503   6.097
 6839SOL    HW121416   5.678   1.421   6.077
 6839SOL    HW221417   5.621   1.517   6.196
 6840SOL     OW21418   3.373   0.585   4.044
 6840SOL    HW121419   3.465   0.557   4.017
 6840SOL    HW221420   3.333   0.642   3.972
 6841SOL     OW21421   3.861   4.677   0.366
 6841SOL    HW121422   3.912   4.719   0.441
 6841SOL    HW221423   3.775   4.726   0.353
 6842SOL     OW21424   2.494   3.355   1.022
 6842SOL    HW121425   2.546   3.340   0.938
 6842SOL    HW221426   2.403   3.388   1.000
 6843SOL     OW21427   6.104   6.341   1.809
 6843SOL    HW121428   6.132   6.393   1.729
 6843SOL    HW221429   6.119   6.396   1.891
 6844SOL     OW21430   4.448   0.638   3.647
 6844SOL    HW121431   4.445   0.563   3.713
 6844SOL    HW221432   4.355   0.664   3.621
 6845SOL     OW21433   6.249   5.086   3.592
 6845SOL    HW121434   6.314   5.057   3.661
 6845SOL    HW221435   6.193   5.161   3.628
 6846SOL     OW21436   4.055   2.520   0.295
 6846SOL    HW121437   4.086   2.614   0.284
 6846SOL    HW221438   4.077   2.488   0.387
 6847SOL     OW21439   0.152   4.379   3.263
 6847SOL    HW121440   0.166   4.439   3.343
 6847SOL    HW221441   0.078   4.416   3.207
 6848SOL     OW21442   4.102   0.063   3.713
 6848SOL    HW121443   4.010   0.025   3.725
 6848SOL    HW221444   4.099   0.137   3.646
 6849SOL     OW21445   4.015   4.861   4.660
 6849SOL    HW121446   4.056   4.835   4.573
 6849SOL    HW221447   3.918   4.836   4.660
 6850SOL     OW21448   6.156   4.058   1.909
 6850SOL    HW121449   6.241   4.088   1.865
 6850SOL    HW221450   6.177   3.988   1.977
 6851SOL     OW21451   0.789   2.509   3.095
 6851SOL    HW121452   0.851   2.547   3.164
 6851SOL    HW221453   0.738   2.433   3.134
 6852SOL     OW21454   2.522   4.983   0.797
 6852SOL    HW121455   2.529   4.940   0.707
 6852SOL    HW221456   2.547   4.916   0.868
 6853SOL     OW21457   6.734   3.935   0.310
 6853SOL    HW121458   6.733   3.951   0.211
 6853SOL    HW221459   6.795   3.858   0.330
 6854SOL     OW21460   4.991   2.064   6.514
 6854SOL    HW121461   5.038   2.148   6.487
 6854SOL    HW221462   4.943   2.079   6.600
 6855SOL     OW21463   3.497   5.625   3.286
 6855SOL    HW121464   3.489   5.723   3.305
 6855SOL    HW221465   3.410   5.591   3.250
 6856SOL     OW21466   5.114   3.700   5.425
 6856SOL    HW121467   5.123   3.710   5.524
 6856SOL    HW221468   5.051   3.625   5.404
 6857SOL     OW21469   2.961   2.477   6.817
 6857SOL    HW121470   3.012   2.425   6.749
 6857SOL    HW221471   3.025   2.518   6.883
 6858SOL     OW21472   3.853   3.833   3.614
 6858SOL    HW121473   3.874   3.738   3.637
 6858SOL    HW221474   3.818   3.880   3.694
 6859SOL     OW21475   0.298   1.048   0.360
 6859SOL    HW121476   0.389   1.069   0.324
 6859SOL    HW221477   0.300   0.961   0.408
 6860SOL     OW21478   6.785   4.984   1.291
 6860SOL    HW121479   6.851   5.032   1.233
 6860SOL    HW221480   6.777   5.031   1.379
 6861SOL     OW21481   4.544   5.088   0.226
 6861SOL    HW121482   4.487   5.046   0.297
 6861SOL    HW221483   4.569   5.180   0.253
 6862SOL     OW21484   1.819   4.674   5.778
 6862SOL    HW121485   1.725   4.708   5.787
 6862SOL    HW221486   1.829   4.627   5.690
 6863SOL     OW21487   5.596   0.036   5.966
 6863SOL    HW121488   5.530   0.023   5.893
 6863SOL    HW221489   5.571   6.999   6.045
 6864SOL     OW21490   2.720   5.594   4.420
 6864SOL    HW121491   2.783   5.670   4.437
 6864SOL    HW221492   2.673   5.609   4.333
 6865SOL     OW21493   1.290   6.343   3.135
 6865SOL    HW121494   1.371   6.285   3.131
 6865SOL    HW221495   1.295   6.413   3.064
 6866SOL     OW21496   6.415   5.054   3.320
 6866SOL    HW121497   6.322   5.025   3.341
 6866SOL    HW221498   6.414   5.148   3.286
 6867SOL     OW21499   2.557   3.965   1.660
 6867SOL    HW121500   2.628   3.918   1.712
 6867SOL    HW221501   2.484   3.994   1.721
 6868SOL     OW21502   1.241   5.319   6.059
 6868SOL    HW121503   1.280   5.231   6.085
 6868SOL    HW221504   1.314   5.386   6.046
 6869SOL     OW21505   6.158   1.180   5.765
 6869SOL    HW121506   6.096   1.129   5.824
 6869SOL    HW221507   6.231   1.220   5.820
 6870SOL     OW21508   0.329   4.818   1.876
 6870SOL    HW121509   0.309   4.784   1.785
 6870SOL    HW221510   0.422   4.855   1.878
 6871SOL     OW21511   6.017   4.567   2.987
 6871SOL    HW121512   5.961   4.500   3.035
 6871SOL    HW221513   5.966   4.652   2.977
 6872SOL     OW21514   0.141   2.729   1.104
 6872SOL    HW121515   0.230   2.711   1.062
 6872SOL    HW221516   0.069   2.685   1.050
 6873SOL     OW21517   6.903   3.781   5.745
 6873SOL    HW121518   6.808   3.805   5.768
 6873SOL    HW221519   6.911   3.767   5.647
 6874SOL     OW21520   0.365   5.983   2.482
 6874SOL    HW121521   0.351   6.044   2.560
 6874SOL    HW221522   0.368   6.037   2.398
 6875SOL     OW21523   2.523   2.584   3.313
 6875SOL    HW121524   2.489   2.532   3.235
 6875SOL    HW221525   2.482   2.675   3.313
 6876SOL     OW21526   3.505   6.730   3.606
 6876SOL    HW121527   3.537   6.706   3.698
 6876SOL    HW221528   3.451   6.654   3.568
 6877SOL     OW21529   2.563   4.022   1.153
 6877SOL    HW121530   2.569   3.937   1.101
 6877SOL    HW221531   2.590   4.098   1.094
 6878SOL     OW21532   3.290   1.129   5.164
 6878SOL    HW121533   3.198   1.149   5.130
 6878SOL    HW221534   3.294   1.035   5.196
 6879SOL     OW21535   0.687   2.103   0.775
 6879SOL    HW121536   0.677   2.184   0.833
 6879SOL    HW221537   0.677   2.021   0.830
 6880SOL     OW21538   1.500   4.809   4.487
 6880SOL    HW121539   1.502   4.771   4.580
 6880SOL    HW221540   1.429   4.879   4.482
 6881SOL     OW21541   1.546   3.938   0.686
 6881SOL    HW121542   1.629   3.926   0.741
 6881SOL    HW221543   1.478   3.988   0.740
 6882SOL     OW21544   2.948   0.590   6.866
 6882SOL    HW121545   2.865   0.564   6.817
 6882SOL    HW221546   2.931   0.673   6.918
 6883SOL     OW21547   4.451   1.282   0.661
 6883SOL    HW121548   4.494   1.211   0.716
 6883SOL    HW221549   4.358   1.254   0.637
 6884SOL     OW21550   2.532   4.645   4.373
 6884SOL    HW121551   2.499   4.568   4.428
 6884SOL    HW221552   2.573   4.610   4.289
 6885SOL     OW21553   3.893   5.485   3.750
 6885SOL    HW121554   3.992   5.473   3.743
 6885SOL    HW221555   3.861   5.540   3.673
 6886SOL     OW21556   6.667   0.834   4.506
 6886SOL    HW121557   6.729   0.767   4.465
 6886SOL    HW221558   6.686   0.842   4.603
 6887SOL     OW21559   5.192   5.480   6.355
 6887SOL    HW121560   5.155   5.462   6.264
 6887SOL    HW221561   5.228   5.395   6.394
 6888SOL     OW21562   5.377   6.289   6.813
 6888SOL    HW121563   5.348   6.274   6.908
 6888SOL    HW221564   5.393   6.201   6.770
 6889SOL     OW21565   1.908   2.334   4.980
 6889SOL    HW121566   1.897   2.408   4.914
 6889SOL    HW221567   2.004   2.327   5.008
 6890SOL     OW21568   4.706   6.389   1.706
 6890SOL    HW121569   4.663   6.455   1.767
 6890SOL    HW221570   4.719   6.429   1.616
 6891SOL     OW21571   2.183   4.363   3.264
 6891SOL    HW121572   2.178   4.440   3.199
 6891SOL    HW221573   2.171   4.398   3.357
 6892SOL     OW21574   3.269   1.981   3.433
 6892SOL    HW121575   3.199   2.044   3.467
 6892SOL    HW221576   3.260   1.893   3.480
 6893SOL     OW21577   4.105   4.146   0.073
 6893SOL    HW121578   4.152   4.107   0.152
 6893SOL    HW221579   4.162   4.136   7.011
 6894SOL     OW21580   6.679   4.664   1.093
 6894SOL    HW121581   6.748   4.713   1.041
 6894SOL    HW221582   6.690   4.684   1.191
 6895SOL     OW21583   3.311   5.260   0.121
 6895SOL    HW121584   3.217   5.267   0.154
 6895SOL    HW221585   3.329   5.166   0.092
 6896SOL     OW21586   2.382   0.010   3.681
 6896SOL    HW121587   2.385   0.109   3.664
 6896SOL    HW221588   2.433   7.008   3.764
 6897SOL     OW21589   4.871   4.252   6.236
 6897SOL    HW121590   4.775   4.277   6.245
 6897SOL    HW221591   4.907   4.289   6.150
 6898SOL     OW21592   3.569   1.221   1.404
 6898SOL    HW121593   3.631   1.299   1.404
 6898SOL    HW221594   3.620   1.137   1.385
 6899SOL     OW21595   5.634   6.346   1.174
 6899SOL    HW121596   5.730   6.318   1.167
 6899SOL    HW221597   5.587   6.288   1.241
 6900SOL     OW21598   6.458   6.637   5.633
 6900SOL    HW121599   6.554   6.628   5.659
 6900SOL    HW221600   6.401   6.585   5.697
 6901SOL     OW21601   0.018   6.120   6.108
 6901SOL    HW121602   6.938   6.110   6.098
 6901SOL    HW221603   0.049   6.070   6.188
 6902SOL     OW21604   5.391   6.016   6.680
 6902SOL    HW121605   5.337   6.003   6.763
 6902SOL    HW221606   5.413   5.927   6.641
 6903SOL     OW21607   3.051   5.506   4.739
 6903SOL    HW121608   3.044   5.588   4.796
 6903SOL    HW221609   2.961   5.485   4.699
 6904SOL     OW21610   5.893   0.631   4.464
 6904SOL    HW121611   5.793   0.629   4.471
 6904SOL    HW221612   5.922   0.716   4.419
 6905SOL     OW21613   5.758   6.757   6.218
 6905SOL    HW121614   5.748   6.701   6.135
 6905SOL    HW221615   5.848   6.799   6.219
 6906SOL     OW21616   4.674   1.373   3.504
 6906SOL    HW121617   4.636   1.333   3.587
 6906SOL    HW221618   4.773   1.380   3.512
 6907SOL     OW21619   5.420   2.792   1.534
 6907SOL    HW121620   5.516   2.818   1.543
 6907SOL    HW221621   5.375   2.799   1.623
 6908SOL     OW21622   0.902   5.349   6.096
 6908SOL    HW121623   1.000   5.332   6.081
 6908SOL    HW221624   0.880   5.338   6.193
 6909SOL     OW21625   5.314   4.338   1.182
 6909SOL    HW121626   5.264   4.385   1.109
 6909SOL    HW221627   5.256   4.332   1.264
 6910SOL     OW21628   6.584   1.967   3.264
 6910SOL    HW121629   6.511   2.036   3.266
 6910SOL    HW221630   6.589   1.926   3.173
 6911SOL     OW21631   4.415   5.984   4.079
 6911SOL    HW121632   4.438   5.893   4.116
 6911SOL    HW221633   4.316   5.994   4.074
 6912SOL     OW21634   3.798   4.559   6.616
 6912SOL    HW121635   3.704   4.562   6.651
 6912SOL    HW221636   3.799   4.507   6.531
 6913SOL     OW21637   4.830   5.603   4.303
 6913SOL    HW121638   4.752   5.581   4.361
 6913SOL    HW221639   4.915   5.579   4.351
 6914SOL     OW21640   5.766   3.697   5.029
 6914SOL    HW121641   5.741   3.639   4.952
 6914SOL    HW221642   5.783   3.639   5.109
 6915SOL     OW21643   5.981   3.087   1.620
 6915SOL    HW121644   6.068   3.038   1.612
 6915SOL    HW221645   5.962   3.135   1.534
 6916SOL     OW21646   6.365   2.479   0.010
 6916SOL    HW121647   6.455   2.472   6.986
 6916SOL    HW221648   6.348   2.396   0.064
 6917SOL     OW21649   3.098   5.809   0.984
 6917SOL    HW121650   3.171   5.811   0.915
 6917SOL    HW221651   3.014   5.775   0.942
 6918SOL     OW21652   0.138   3.168   4.096
 6918SOL    HW121653   0.236   3.187   4.108
 6918SOL    HW221654   0.126   3.088   4.038
 6919SOL     OW21655   0.079   6.317   3.056
 6919SOL    HW121656   0.094   6.227   3.016
 6919SOL    HW221657   0.136   6.327   3.138
 6920SOL     OW21658   4.402   5.887   5.090
 6920SOL    HW121659   4.442   5.944   5.018
 6920SOL    HW221660   4.328   5.937   5.136
 6921SOL     OW21661   5.528   5.545   3.515
 6921SOL    HW121662   5.431   5.559   3.492
 6921SOL    HW221663   5.557   5.614   3.581
 6922SOL     OW21664   2.140   5.798   5.593
 6922SOL    HW121665   2.104   5.890   5.611
 6922SOL    HW221666   2.069   5.743   5.548
 6923SOL     OW21667   4.652   5.757   3.350
 6923SOL    HW121668   4.554   5.743   3.344
 6923SOL    HW221669   4.690   5.696   3.420
 6924SOL     OW21670   2.777   3.650   6.819
 6924SOL    HW121671   2.734   3.735   6.790
 6924SOL    HW221672   2.747   3.628   6.912
 6925SOL     OW21673   4.493   6.105   4.597
 6925SOL    HW121674   4.440   6.021   4.611
 6925SOL    HW221675   4.547   6.096   4.513
 6926SOL     OW21676   3.536   2.864   1.046
 6926SOL    HW121677   3.552   2.798   1.120
 6926SOL    HW221678   3.456   2.835   0.993
 6927SOL     OW21679   4.429   2.898   6.382
 6927SOL    HW121680   4.520   2.863   6.363
 6927SOL    HW221681   4.435   2.994   6.409
 6928SOL     OW21682   6.099   5.606   0.820
 6928SOL    HW121683   6.110   5.706   0.820
 6928SOL    HW221684   6.182   5.564   0.784
 6929SOL     OW21685   5.868   5.208   1.257
 6929SOL    HW121686   5.824   5.159   1.182
 6929SOL    HW221687   5.863   5.153   1.340
 6930SOL     OW21688   0.293   0.161   2.330
 6930SOL    HW121689   0.339   0.175   2.418
 6930SOL    HW221690   0.361   0.158   2.257
 6931SOL     OW21691   2.203   0.819   2.421
 6931SOL    HW121692   2.207   0.745   2.355
 6931SOL    HW221693   2.213   0.782   2.514
 6932SOL     OW21694   4.550   6.496   0.664
 6932SOL    HW121695   4.513   6.536   0.581
 6932SOL    HW221696   4.574   6.400   0.647
 6933SOL     OW21697   3.467   6.115   4.827
 6933SOL    HW121698   3.401   6.071   4.887
 6933SOL    HW221699   3.457   6.080   4.734
 6934SOL     OW21700   5.230   3.620   6.085
 6934SOL    HW121701   5.136   3.639   6.056
 6934SOL    HW221702   5.229   3.561   6.165
 6935SOL     OW21703   4.658   5.187   2.771
 6935SOL    HW121704   4.719   5.133   2.829
 6935SOL    HW221705   4.696   5.278   2.758
 6936SOL     OW21706   5.956   1.709   3.562
 6936SOL    HW121707   5.973   1.613   3.540
 6936SOL    HW221708   6.039   1.749   3.601
 6937SOL     OW21709   6.855   6.290   0.068
 6937SOL    HW121710   6.793   6.368   0.069
 6937SOL    HW221711   6.805   6.207   0.043
 6938SOL     OW21712   5.170   3.304   5.181
 6938SOL    HW121713   5.082   3.282   5.222
 6938SOL    HW221714   5.173   3.401   5.158
 6939SOL     OW21715   1.206   4.620   2.132
 6939SOL    HW121716   1.218   4.583   2.039
 6939SOL    HW221717   1.286   4.676   2.155
 6940SOL     OW21718   4.265   0.864   6.711
 6940SOL    HW121719   4.245   0.835   6.804
 6940SOL    HW221720   4.317   0.793   6.663
 6941SOL     OW21721   3.793   4.122   1.888
 6941SOL    HW121722   3.851   4.073   1.953
 6941SOL    HW221723   3.718   4.167   1.937
 6942SOL     OW21724   5.471   0.519   1.265
 6942SOL    HW121725   5.456   0.516   1.166
 6942SOL    HW221726   5.440   0.608   1.300
 6943SOL     OW21727   4.160   6.175   0.316
 6943SOL    HW121728   4.180   6.077   0.320
 6943SOL    HW221729   4.140   6.200   0.221
 6944SOL     OW21730   0.676   4.138   6.710
 6944SOL    HW121731   0.593   4.096   6.673
 6944SOL    HW221732   0.710   4.083   6.786
 6945SOL     OW21733   6.190   0.959   6.770
 6945SOL    HW121734   6.113   0.927   6.714
 6945SOL    HW221735   6.156   1.020   6.842
 6946SOL     OW21736   5.788   6.570   1.086
 6946SOL    HW121737   5.731   6.495   1.119
 6946SOL    HW221738   5.882   6.557   1.118
 6947SOL     OW21739   3.359   6.046   6.669
 6947SOL    HW121740   3.402   6.136   6.657
 6947SOL    HW221741   3.275   6.042   6.614
 6948SOL     OW21742   0.096   0.181   0.689
 6948SOL    HW121743   0.055   0.222   0.608
 6948SOL    HW221744   0.119   0.253   0.755
 6949SOL     OW21745   4.335   0.012   2.607
 6949SOL    HW121746   4.390   6.973   2.666
 6949SOL    HW221747   4.251   0.038   2.655
 6950SOL     OW21748   2.141   2.029   4.612
 6950SOL    HW121749   2.056   2.066   4.649
 6950SOL    HW221750   2.195   1.988   4.686
 6951SOL     OW21751   6.563   5.738   6.055
 6951SOL    HW121752   6.470   5.701   6.058
 6951SOL    HW221753   6.562   5.829   6.014
 6952SOL     OW21754   1.014   6.355   3.133
 6952SOL    HW121755   1.108   6.321   3.132
 6952SOL    HW221756   1.007   6.430   3.199
 6953SOL     OW21757   4.443   6.237   0.893
 6953SOL    HW121758   4.395   6.150   0.886
 6953SOL    HW221759   4.511   6.244   0.819
 6954SOL     OW21760   6.681   3.517   3.114
 6954SOL    HW121761   6.700   3.519   3.213
 6954SOL    HW221762   6.702   3.426   3.078
 6955SOL     OW21763   6.095   0.067   2.662
 6955SOL    HW121764   6.011   0.034   2.621
 6955SOL    HW221765   6.173   0.032   2.611
 6956SOL     OW21766   5.581   5.241   3.562
 6956SOL    HW121767   5.681   5.244   3.566
 6956SOL    HW221768   5.546   5.333   3.546
 6957SOL     OW21769   6.458   5.077   0.644
 6957SOL    HW121770   6.543   5.087   0.697
 6957SOL    HW221771   6.478   5.025   0.561
 6958SOL     OW21772   3.331   3.068   4.474
 6958SOL    HW121773   3.337   2.995   4.405
 6958SOL    HW221774   3.251   3.052   4.531
 6959SOL     OW21775   1.885   2.198   4.144
 6959SOL    HW121776   1.933   2.230   4.062
 6959SOL    HW221777   1.899   2.099   4.154
 6960SOL     OW21778   2.458   4.312   1.213
 6960SOL    HW121779   2.402   4.373   1.269
 6960SOL    HW221780   2.406   4.229   1.191
 6961SOL     OW21781   5.794   1.851   3.406
 6961SOL    HW121782   5.734   1.797   3.346
 6961SOL    HW221783   5.855   1.790   3.456
 6962SOL     OW21784   4.814   5.902   1.729
 6962SOL    HW121785   4.743   5.972   1.724
 6962SOL    HW221786   4.898   5.943   1.766
 6963SOL     OW21787   5.668   6.101   0.933
 6963SOL    HW121788   5.632   6.032   0.995
 6963SOL    HW221789   5.649   6.193   0.969
 6964SOL     OW21790   3.542   0.555   5.024
 6964SOL    HW121791   3.447   0.525   5.033
 6964SOL    HW221792   3.586   0.502   4.952
 6965SOL     OW21793   1.037   1.927   0.710
 6965SOL    HW121794   1.117   1.910   0.767
 6965SOL    HW221795   0.954   1.907   0.762
 6966SOL     OW21796   0.053   2.129   3.413
 6966SOL    HW121797   0.029   2.062   3.343
 6966SOL    HW221798   6.997   2.194   3.423
 6967SOL     OW21799   2.325   0.580   5.392
 6967SOL    HW121800   2.415   0.618   5.373
 6967SOL    HW221801   2.323   0.484   5.362
 6968SOL     OW21802   4.355   6.622   2.627
 6968SOL    HW121803   4.435   6.635   2.685
 6968SOL    HW221804   4.353   6.695   2.558
 6969SOL     OW21805   3.600   2.460   1.009
 6969SOL    HW121806   3.624   2.421   1.097
 6969SOL    HW221807   3.510   2.504   1.015
 6970SOL     OW21808   4.338   4.238   5.749
 6970SOL    HW121809   4.293   4.194   5.672
 6970SOL    HW221810   4.320   4.336   5.747
 6971SOL     OW21811   6.604   4.331   2.124
 6971SOL    HW121812   6.602   4.248   2.068
 6971SOL    HW221813   6.644   4.406   2.071
 6972SOL     OW21814   4.922   4.379   3.149
 6972SOL    HW121815   4.844   4.440   3.137
 6972SOL    HW221816   5.000   4.414   3.096
 6973SOL     OW21817   0.750   3.027   4.235
 6973SOL    HW121818   0.728   2.952   4.172
 6973SOL    HW221819   0.838   3.011   4.278
 6974SOL     OW21820   3.018   3.829   2.838
 6974SOL    HW121821   2.995   3.760   2.907
 6974SOL    HW221822   3.058   3.783   2.758
 6975SOL     OW21823   2.118   6.348   6.234
 6975SOL    HW121824   2.157   6.265   6.192
 6975SOL    HW221825   2.058   6.322   6.309
 6976SOL     OW21826   5.096   5.521   4.727
 6976SOL    HW121827   5.143   5.445   4.773
 6976SOL    HW221828   5.161   5.596   4.712
 6977SOL     OW21829   3.755   3.060   1.837
 6977SOL    HW121830   3.814   3.007   1.776
 6977SOL    HW221831   3.780   3.157   1.831
 6978SOL     OW21832   5.627   1.366   2.067
 6978SOL    HW121833   5.566   1.371   2.145
 6978SOL    HW221834   5.579   1.328   1.988
 6979SOL     OW21835   0.214   4.326   1.308
 6979SOL    HW121836   0.182   4.287   1.394
 6979SOL    HW221837   0.227   4.253   1.241
 6980SOL     OW21838   2.019   0.830   4.034
 6980SOL    HW121839   1.980   0.843   4.125
 6980SOL    HW221840   1.947   0.839   3.966
 6981SOL     OW21841   3.707   2.387   5.681
 6981SOL    HW121842   3.724   2.481   5.711
 6981SOL    HW221843   3.632   2.348   5.733
 6982SOL     OW21844   1.294   0.366   5.120
 6982SOL    HW121845   1.226   0.301   5.155
 6982SOL    HW221846   1.350   0.320   5.051
 6983SOL     OW21847   3.419   2.108   4.013
 6983SOL    HW121848   3.329   2.113   3.970
 6983SOL    HW221849   3.490   2.114   3.942
 6984SOL     OW21850   2.285   2.140   3.242
 6984SOL    HW121851   2.381   2.164   3.226
 6984SOL    HW221852   2.248   2.196   3.316
 6985SOL     OW21853   5.878   5.018   1.444
 6985SOL    HW121854   5.974   5.012   1.471
 6985SOL    HW221855   5.820   5.018   1.526
 6986SOL     OW21856   2.159   0.133   5.429
 6986SOL    HW121857   2.064   0.150   5.455
 6986SOL    HW221858   2.164   0.050   5.373
 6987SOL     OW21859   5.780   1.281   6.022
 6987SOL    HW121860   5.701   1.225   6.045
 6987SOL    HW221861   5.862   1.242   6.064
 6988SOL     OW21862   0.422   0.686   5.444
 6988SOL    HW121863   0.429   0.766   5.504
 6988SOL    HW221864   0.489   0.693   5.371
 6989SOL     OW21865   0.955   3.785   3.210
 6989SOL    HW121866   0.979   3.798   3.114
 6989SOL    HW221867   0.867   3.830   3.229
 6990SOL     OW21868   4.777   2.598   1.161
 6990SOL    HW121869   4.690   2.549   1.158
 6990SOL    HW221870   4.806   2.621   1.068
 6991SOL     OW21871   4.125   4.749   2.918
 6991SOL    HW121872   4.102   4.825   2.858
 6991SOL    HW221873   4.095   4.770   3.011
 6992SOL     OW21874   5.031   6.301   6.384
 6992SOL    HW121875   4.994   6.351   6.463
 6992SOL    HW221876   5.115   6.254   6.412
 6993SOL     OW21877   5.280   0.614   2.726
 6993SOL    HW121878   5.212   0.547   2.756
 6993SOL    HW221879   5.269   0.698   2.779
 6994SOL     OW21880   0.278   2.359   4.370
 6994SOL    HW121881   0.264   2.264   4.341
 6994SOL    HW221882   0.368   2.369   4.411
 6995SOL     OW21883   6.765   4.762   6.319
 6995SOL    HW121884   6.828   4.800   6.251
 6995SOL    HW221885   6.672   4.759   6.280
 6996SOL     OW21886   1.588   6.885   6.831
 6996SOL    HW121887   1.546   6.872   6.742
 6996SOL    HW221888   1.640   6.804   6.856
 6997SOL     OW21889   0.008   6.120   5.040
 6997SOL    HW121890   0.060   6.044   5.079
 6997SOL    HW221891   6.952   6.084   4.985
 6998SOL     OW21892   2.088   0.723   1.999
 6998SOL    HW121893   2.156   0.732   1.926
 6998SOL    HW221894   1.999   0.756   1.966
 6999SOL     OW21895   2.603   1.963   6.600
 6999SOL    HW121896   2.542   1.954   6.522
 6999SOL    HW221897   2.597   2.055   6.637
 7000SOL     OW21898   4.974   6.879   0.946
 7000SOL    HW121899   5.022   6.918   0.867
 7000SOL    HW221900   4.972   6.946   1.021
 7001SOL     OW21901   1.628   3.332   5.734
 7001SOL    HW121902   1.536   3.369   5.721
 7001SOL    HW221903   1.685   3.401   5.778
 7002SOL     OW21904   1.884   5.293   4.364
 7002SOL    HW121905   1.870   5.216   4.303
 7002SOL    HW221906   1.947   5.267   4.437
 7003SOL     OW21907   4.098   5.238   0.511
 7003SOL    HW121908   4.174   5.298   0.533
 7003SOL    HW221909   4.082   5.238   0.412
 7004SOL     OW21910   1.353   4.969   2.466
 7004SOL    HW121911   1.282   5.013   2.522
 7004SOL    HW221912   1.334   4.871   2.462
 7005SOL     OW21913   1.452   0.278   0.903
 7005SOL    HW121914   1.378   0.346   0.897
 7005SOL    HW221915   1.520   0.310   0.969
 7006SOL     OW21916   5.130   4.836   4.158
 7006SOL    HW121917   5.075   4.754   4.141
 7006SOL    HW221918   5.109   4.871   4.249
 7007SOL     OW21919   4.106   0.823   3.845
 7007SOL    HW121920   4.189   0.767   3.848
 7007SOL    HW221921   4.033   0.777   3.896
 7008SOL     OW21922   0.436   3.460   4.852
 7008SOL    HW121923   0.399   3.528   4.789
 7008SOL    HW221924   0.373   3.447   4.928
 7009SOL     OW21925   5.580   5.953   2.049
 7009SOL    HW121926   5.506   5.916   2.105
 7009SOL    HW221927   5.554   5.947   1.952
 7010SOL     OW21928   5.341   3.937   3.882
 7010SOL    HW121929   5.281   4.009   3.918
 7010SOL    HW221930   5.375   3.881   3.957
 7011SOL     OW21931   3.184   6.764   6.243
 7011SOL    HW121932   3.089   6.797   6.240
 7011SOL    HW221933   3.225   6.773   6.152
 7012SOL     OW21934   0.204   2.093   1.546
 7012SOL    HW121935   0.294   2.076   1.584
 7012SOL    HW221936   0.212   2.115   1.449
 7013SOL     OW21937   0.190   0.397   0.218
 7013SOL    HW121938   0.195   0.386   0.119
 7013SOL    HW221939   0.248   0.329   0.263
 7014SOL     OW21940   4.306   3.625   0.737
 7014SOL    HW121941   4.266   3.578   0.816
 7014SOL    HW221942   4.257   3.598   0.654
 7015SOL     OW21943   6.306   4.637   2.239
 7015SOL    HW121944   6.280   4.566   2.305
 7015SOL    HW221945   6.266   4.724   2.267
 7016SOL     OW21946   3.377   4.992   1.483
 7016SOL    HW121947   3.360   4.914   1.422
 7016SOL    HW221948   3.382   4.960   1.577
 7017SOL     OW21949   2.451   5.167   2.674
 7017SOL    HW121950   2.357   5.200   2.674
 7017SOL    HW221951   2.469   5.115   2.590
 7018SOL     OW21952   5.519   3.658   4.427
 7018SOL    HW121953   5.420   3.664   4.441
 7018SOL    HW221954   5.565   3.649   4.516
 7019SOL     OW21955   3.623   4.222   0.362
 7019SOL    HW121956   3.622   4.186   0.455
 7019SOL    HW221957   3.718   4.238   0.333
 7020SOL     OW21958   6.611   5.007   6.639
 7020SOL    HW121959   6.632   5.087   6.695
 7020SOL    HW221960   6.689   4.985   6.580
 7021SOL     OW21961   1.013   1.817   5.644
 7021SOL    HW121962   1.003   1.850   5.738
 7021SOL    HW221963   1.079   1.875   5.595
 7022SOL     OW21964   4.983   6.638   5.822
 7022SOL    HW121965   4.978   6.677   5.730
 7022SOL    HW221966   5.079   6.627   5.848
 7023SOL     OW21967   6.658   2.556   4.231
 7023SOL    HW121968   6.602   2.547   4.313
 7023SOL    HW221969   6.726   2.483   4.229
 7024SOL     OW21970   2.689   3.867   5.300
 7024SOL    HW121971   2.611   3.899   5.247
 7024SOL    HW221972   2.774   3.904   5.261
 7025SOL     OW21973   2.875   0.927   0.571
 7025SOL    HW121974   2.939   0.866   0.525
 7025SOL    HW221975   2.923   0.981   0.640
 7026SOL     OW21976   3.099   1.614   2.051
 7026SOL    HW121977   3.198   1.596   2.051
 7026SOL    HW221978   3.055   1.559   1.980
 7027SOL     OW21979   3.279   5.584   4.221
 7027SOL    HW121980   3.206   5.647   4.193
 7027SOL    HW221981   3.296   5.519   4.147
 7028SOL     OW21982   3.148   1.877   4.565
 7028SOL    HW121983   3.127   1.871   4.663
 7028SOL    HW221984   3.138   1.971   4.534
 7029SOL     OW21985   5.032   5.108   5.144
 7029SOL    HW121986   5.018   5.068   5.235
 7029SOL    HW221987   5.102   5.179   5.149
 7030SOL     OW21988   1.388   0.795   4.885
 7030SOL    HW121989   1.404   0.844   4.971
 7030SOL    HW221990   1.341   0.709   4.904
 7031SOL     OW21991   3.392   5.503   5.752
 7031SOL    HW121992   3.420   5.473   5.661
 7031SOL    HW221993   3.471   5.536   5.802
 7032SOL     OW21994   3.881   1.228   3.551
 7032SOL    HW121995   3.949   1.157   3.531
 7032SOL    HW221996   3.912   1.282   3.629
 7033SOL     OW21997   1.600   2.124   3.659
 7033SOL    HW121998   1.624   2.118   3.562
 7033SOL    HW221999   1.596   2.220   3.687
 7034SOL     OW22000   6.581   0.759   3.796
 7034SOL    HW122001   6.571   0.759   3.896
 7034SOL    HW222002   6.581   0.665   3.763
 7035SOL     OW22003   1.291   6.656   0.949
 7035SOL    HW122004   1.220   6.636   0.882
 7035SOL    HW222005   1.319   6.751   0.941
 7036SOL     OW22006   0.027   0.438   3.029
 7036SOL    HW122007   0.096   0.467   2.962
 7036SOL    HW222008   0.071   0.422   3.117
 7037SOL     OW22009   1.620   1.519   6.291
 7037SOL    HW122010   1.654   1.456   6.361
 7037SOL    HW222011   1.530   1.552   6.318
 7038SOL     OW22012   2.329   3.025   5.404
 7038SOL    HW122013   2.378   2.994   5.323
 7038SOL    HW222014   2.304   3.121   5.394
 7039SOL     OW22015   1.962   5.205   1.905
 7039SOL    HW122016   2.035   5.171   1.964
 7039SOL    HW222017   1.988   5.293   1.865
 7040SOL     OW22018   5.892   1.564   6.008
 7040SOL    HW122019   5.847   1.602   5.927
 7040SOL    HW222020   5.871   1.466   6.016
 7041SOL     OW22021   6.101   0.827   2.037
 7041SOL    HW122022   6.026   0.816   1.971
 7041SOL    HW222023   6.135   0.921   2.032
 7042SOL     OW22024   4.711   4.879   5.172
 7042SOL    HW122025   4.695   4.863   5.074
 7042SOL    HW222026   4.787   4.821   5.203
 7043SOL     OW22027   2.493   4.538   2.759
 7043SOL    HW122028   2.576   4.553   2.812
 7043SOL    HW222029   2.438   4.467   2.803
 7044SOL     OW22030   5.374   4.881   4.258
 7044SOL    HW122031   5.391   4.817   4.332
 7044SOL    HW222032   5.281   4.867   4.223
 7045SOL     OW22033   5.218   5.545   3.242
 7045SOL    HW122034   5.304   5.495   3.232
 7045SOL    HW222035   5.156   5.494   3.302
 7046SOL     OW22036   2.933   0.968   3.114
 7046SOL    HW122037   2.901   1.062   3.116
 7046SOL    HW222038   2.875   0.914   3.052
 7047SOL     OW22039   6.264   1.477   2.518
 7047SOL    HW122040   6.225   1.515   2.434
 7047SOL    HW222041   6.350   1.523   2.539
 7048SOL     OW22042   5.416   6.889   3.398
 7048SOL    HW122043   5.491   6.942   3.360
 7048SOL    HW222044   5.382   6.825   3.329
 7049SOL     OW22045   3.288   1.754   0.287
 7049SOL    HW122046   3.223   1.729   0.215
 7049SOL    HW222047   3.255   1.835   0.335
 7050SOL     OW22048   4.342   3.446   1.709
 7050SOL    HW122049   4.298   3.376   1.766
 7050SOL    HW222050   4.441   3.429   1.707
 7051SOL     OW22051   6.243   6.661   1.029
 7051SOL    HW122052   6.337   6.628   1.038
 7051SOL    HW222053   6.182   6.600   1.080
 7052SOL     OW22054   5.546   2.158   3.304
 7052SOL    HW122055   5.621   2.142   3.240
 7052SOL    HW222056   5.479   2.219   3.261
 7053SOL     OW22057   1.445   3.161   5.365
 7053SOL    HW122058   1.364   3.168   5.423
 7053SOL    HW222059   1.527   3.175   5.421
 7054SOL     OW22060   6.933   6.925   0.230
 7054SOL    HW122061   0.008   6.893   0.217
 7054SOL    HW222062   6.915   6.938   0.327
 7055SOL     OW22063   2.921   6.959   5.993
 7055SOL    HW122064   2.937   6.895   6.068
 7055SOL    HW222065   2.823   6.966   5.975
 7056SOL     OW22066   7.017   4.372   1.987
 7056SOL    HW122067   0.062   4.422   2.046
 7056SOL    HW222068   6.925   4.407   2.002
 7057SOL     OW22069   2.643   5.119   4.424
 7057SOL    HW122070   2.665   5.036   4.374
 7057SOL    HW222071   2.681   5.114   4.517
 7058SOL     OW22072   5.337   4.375   5.248
 7058SOL    HW122073   5.265   4.309   5.269
 7058SOL    HW222074   5.316   4.420   5.162
 7059SOL     OW22075   0.187   1.657   4.030
 7059SOL    HW122076   0.245   1.706   4.094
 7059SOL    HW222077   0.140   1.582   4.078
 7060SOL     OW22078   3.813   0.042   1.333
 7060SOL    HW122079   3.826   0.069   1.429
 7060SOL    HW222080   3.900   0.050   1.284
 7061SOL     OW22081   0.559   3.397   3.791
 7061SOL    HW122082   0.477   3.433   3.746
 7061SOL    HW222083   0.588   3.313   3.746
 7062SOL     OW22084   4.221   1.267   5.389
 7062SOL    HW122085   4.188   1.360   5.374
 7062SOL    HW222086   4.199   1.239   5.483
 7063SOL     OW22087   1.585   0.036   2.170
 7063SOL    HW122088   1.616   6.978   2.115
 7063SOL    HW222089   1.610   0.121   2.123
 7064SOL     OW22090   3.726   1.828   0.034
 7064SOL    HW122091   3.759   1.918   0.065
 7064SOL    HW222092   3.627   1.824   0.043
 7065SOL     OW22093   5.350   3.952   5.932
 7065SOL    HW122094   5.266   3.909   5.902
 7065SOL    HW222095   5.420   3.944   5.860
 7066SOL     OW22096   4.578   0.310   0.006
 7066SOL    HW122097   4.596   0.332   0.101
 7066SOL    HW222098   4.508   0.371   6.989
 7067SOL     OW22099   1.480   2.766   5.768
 7067SOL    HW122100   1.521   2.853   5.794
 7067SOL    HW222101   1.497   2.699   5.840
 7068SOL     OW22102   6.672   4.885   4.834
 7068SOL    HW122103   6.733   4.932   4.771
 7068SOL    HW222104   6.633   4.804   4.790
 7069SOL     OW22105   5.395   2.001   4.034
 7069SOL    HW122106   5.433   2.067   3.968
 7069SOL    HW222107   5.388   2.045   4.124
 7070SOL     OW22108   0.400   6.897   4.995
 7070SOL    HW122109   0.481   6.951   5.018
 7070SOL    HW222110   0.423   6.800   4.998
 7071SOL     OW22111   3.549   5.643   5.334
 7071SOL    HW122112   3.613   5.685   5.399
 7071SOL    HW222113   3.455   5.671   5.357
 7072SOL     OW22114   1.559   6.402   6.973
 7072SOL    HW122115   1.513   6.342   6.907
 7072SOL    HW222116   1.498   6.478   6.995
 7073SOL     OW22117   5.217   6.896   4.082
 7073SOL    HW122118   5.291   6.944   4.035
 7073SOL    HW222119   5.219   6.799   4.058
 7074SOL     OW22120   5.528   2.687   1.838
 7074SOL    HW122121   5.571   2.663   1.925
 7074SOL    HW222122   5.430   2.705   1.854
 7075SOL     OW22123   1.928   4.309   4.982
 7075SOL    HW122124   2.023   4.321   5.009
 7075SOL    HW222125   1.923   4.250   4.902
 7076SOL     OW22126   5.717   2.672   6.480
 7076SOL    HW122127   5.672   2.612   6.546
 7076SOL    HW222128   5.730   2.624   6.394
 7077SOL     OW22129   2.525   4.789   3.969
 7077SOL    HW122130   2.542   4.708   3.913
 7077SOL    HW222131   2.468   4.854   3.918
 7078SOL     OW22132   6.409   6.675   1.729
 7078SOL    HW122133   6.329   6.730   1.704
 7078SOL    HW222134   6.415   6.596   1.668
 7079SOL     OW22135   6.962   5.998   4.455
 7079SOL    HW122136   0.026   5.980   4.506
 7079SOL    HW222137   6.966   5.951   4.367
 7080SOL     OW22138   3.438   0.897   4.900
 7080SOL    HW122139   3.495   0.822   4.866
 7080SOL    HW222140   3.495   0.976   4.922
 7081SOL     OW22141   2.007   6.353   6.939
 7081SOL    HW122142   2.091   6.316   6.978
 7081SOL    HW222143   1.959   6.407   7.008
 7082SOL     OW22144   6.724   4.161   7.012
 7082SOL    HW122145   6.802   4.213   0.026
 7082SOL    HW222146   6.671   4.217   6.949
 7083SOL     OW22147   1.661   6.836   1.541
 7083SOL    HW122148   1.672   6.835   1.441
 7083SOL    HW222149   1.730   6.896   1.582
 7084SOL     OW22150   0.240   5.186   5.059
 7084SOL    HW122151   0.260   5.089   5.064
 7084SOL    HW222152   0.142   5.201   5.071
 7085SOL     OW22153   0.979   1.220   2.172
 7085SOL    HW122154   0.967   1.122   2.156
 7085SOL    HW222155   0.985   1.237   2.270
 7086SOL     OW22156   6.093   0.070   5.923
 7086SOL    HW122157   5.998   0.043   5.938
 7086SOL    HW222158   6.152   7.010   5.937
 7087SOL     OW22159   6.304   3.965   4.197
 7087SOL    HW122160   6.356   3.943   4.280
 7087SOL    HW222161   6.347   3.922   4.118
 7088SOL     OW22162   5.240   2.901   4.027
 7088SOL    HW122163   5.295   2.829   4.070
 7088SOL    HW222164   5.158   2.917   4.082
 7089SOL     OW22165   2.689   2.362   4.442
 7089SOL    HW122166   2.593   2.368   4.413
 7089SOL    HW222167   2.733   2.286   4.394
 7090SOL     OW22168   1.743   0.467   6.946
 7090SOL    HW122169   1.824   0.412   6.966
 7090SOL    HW222170   1.746   0.551   7.001
 7091SOL     OW22171   0.311   2.167   1.079
 7091SOL    HW122172   0.411   2.155   1.079
 7091SOL    HW222173   0.276   2.156   0.987
 7092SOL     OW22174   3.727   3.016   5.829
 7092SOL    HW122175   3.744   2.918   5.843
 7092SOL    HW222176   3.644   3.027   5.774
 7093SOL     OW22177   3.260   4.095   2.334
 7093SOL    HW122178   3.274   4.071   2.238
 7093SOL    HW222179   3.231   4.191   2.340
 7094SOL     OW22180   0.104   5.656   5.587
 7094SOL    HW122181   0.181   5.718   5.568
 7094SOL    HW222182   0.065   5.678   5.676
 7095SOL     OW22183   3.678   4.514   5.717
 7095SOL    HW122184   3.694   4.437   5.780
 7095SOL    HW222185   3.660   4.479   5.626
 7096SOL     OW22186   6.970   1.379   3.138
 7096SOL    HW122187   6.978   1.427   3.051
 7096SOL    HW222188   0.040   1.375   3.182
 7097SOL     OW22189   4.688   1.315   1.743
 7097SOL    HW122190   4.778   1.294   1.704
 7097SOL    HW222191   4.682   1.413   1.760
 7098SOL     OW22192   2.280   5.492   5.916
 7098SOL    HW122193   2.180   5.495   5.905
 7098SOL    HW222194   2.317   5.416   5.863
 7099SOL     OW22195   3.446   1.263   5.505
 7099SOL    HW122196   3.488   1.332   5.564
 7099SOL    HW222197   3.426   1.303   5.416
 7100SOL     OW22198   0.060   3.840   0.184
 7100SOL    HW122199   0.017   3.792   0.108
 7100SOL    HW222200   0.008   3.824   0.268
 7101SOL     OW22201   2.109   1.859   5.255
 7101SOL    HW122202   2.168   1.796   5.306
 7101SOL    HW222203   2.158   1.943   5.236
 7102SOL     OW22204   5.123   6.932   0.712
 7102SOL    HW122205   5.115   6.860   0.644
 7102SOL    HW222206   5.187   7.002   0.680
 7103SOL     OW22207   5.485   5.038   2.259
 7103SOL    HW122208   5.444   5.053   2.169
 7103SOL    HW222209   5.467   5.117   2.318
 7104SOL     OW22210   6.889   3.824   3.337
 7104SOL    HW122211   6.843   3.805   3.251
 7104SOL    HW222212   6.822   3.818   3.412
 7105SOL     OW22213   2.908   3.367   5.241
 7105SOL    HW122214   2.995   3.319   5.237
 7105SOL    HW222215   2.921   3.463   5.219
 7106SOL     OW22216   3.480   3.603   2.076
 7106SOL    HW122217   3.578   3.622   2.078
 7106SOL    HW222218   3.464   3.505   2.082
 7107SOL     OW22219   4.805   1.171   0.427
 7107SOL    HW122220   4.852   1.083   0.413
 7107SOL    HW222221   4.731   1.159   0.493
 7108SOL     OW22222   2.954   6.298   2.612
 7108SOL    HW122223   2.882   6.329   2.674
 7108SOL    HW222224   2.913   6.259   2.529
 7109SOL     OW22225   2.302   6.979   5.922
 7109SOL    HW122226   2.363   0.026   5.966
 7109SOL    HW222227   2.342   6.949   5.836
 7110SOL     OW22228   2.935   5.783   4.467
 7110SOL    HW122229   2.916   5.881   4.479
 7110SOL    HW222230   3.020   5.760   4.514
 7111SOL     OW22231   1.239   2.657   5.217
 7111SOL    HW122232   1.245   2.756   5.225
 7111SOL    HW222233   1.277   2.614   5.299
 7112SOL     OW22234   2.020   5.220   4.984
 7112SOL    HW122235   1.977   5.310   4.992
 7112SOL    HW222236   2.079   5.218   4.904
 7113SOL     OW22237   3.661   4.119   4.372
 7113SOL    HW122238   3.590   4.188   4.358
 7113SOL    HW222239   3.704   4.098   4.284
 7114SOL     OW22240   5.339   5.606   0.771
 7114SOL    HW122241   5.429   5.640   0.746
 7114SOL    HW222242   5.334   5.508   0.754
 7115SOL     OW22243   5.222   2.732   0.191
 7115SOL    HW122244   5.297   2.781   0.235
 7115SOL    HW222245   5.135   2.762   0.229
 7116SOL     OW22246   5.982   4.555   2.700
 7116SOL    HW122247   6.081   4.547   2.692
 7116SOL    HW222248   5.958   4.571   2.796
 7117SOL     OW22249   0.925   6.475   4.747
 7117SOL    HW122250   0.853   6.438   4.805
 7117SOL    HW222251   0.996   6.406   4.733
 7118SOL     OW22252   3.006   4.842   6.961
 7118SOL    HW122253   3.008   4.750   6.922
 7118SOL    HW222254   2.982   4.837   0.038
 7119SOL     OW22255   4.429   1.575   3.905
 7119SOL    HW122256   4.337   1.602   3.935
 7119SOL    HW222257   4.494   1.646   3.930
 7120SOL     OW22258   3.248   1.943   1.946
 7120SOL    HW122259   3.196   1.940   1.860
 7120SOL    HW222260   3.336   1.987   1.930
 7121SOL     OW22261   0.590   6.978   3.585
 7121SOL    HW122262   0.496   6.970   3.553
 7121SOL    HW222263   0.602   0.046   3.633
 7122SOL     OW22264   1.559   0.881   6.125
 7122SOL    HW122265   1.482   0.847   6.071
 7122SOL    HW222266   1.584   0.813   6.194
 7123SOL     OW22267   1.375   4.625   3.391
 7123SOL    HW122268   1.454   4.655   3.337
 7123SOL    HW222269   1.391   4.532   3.424
 7124SOL     OW22270   6.681   1.650   1.593
 7124SOL    HW122271   6.675   1.734   1.539
 7124SOL    HW222272   6.673   1.672   1.690
 7125SOL     OW22273   0.523   0.294   0.613
 7125SOL    HW122274   0.536   0.200   0.646
 7125SOL    HW222275   0.497   0.353   0.690
 7126SOL     OW22276   3.696   5.375   0.022
 7126SOL    HW122277   3.698   5.283   0.060
 7126SOL    HW222278   3.602   5.401   7.019
 7127SOL     OW22279   1.906   5.368   6.505
 7127SOL    HW122280   1.886   5.296   6.573
 7127SOL    HW222281   1.820   5.411   6.477
 7128SOL     OW22282   3.141   4.397   6.896
 7128SOL    HW122283   3.064   4.435   6.846
 7128SOL    HW222284   3.226   4.418   6.848
 7129SOL     OW22285   2.390   1.388   0.559
 7129SOL    HW122286   2.339   1.458   0.608
 7129SOL    HW222287   2.334   1.352   0.484
 7130SOL     OW22288   3.765   5.819   4.185
 7130SOL    HW122289   3.806   5.904   4.218
 7130SOL    HW222290   3.692   5.841   4.120
 7131SOL     OW22291   2.394   0.848   1.481
 7131SOL    HW122292   2.465   0.899   1.529
 7131SOL    HW222293   2.304   0.873   1.517
 7132SOL     OW22294   3.496   3.655   0.855
 7132SOL    HW122295   3.565   3.587   0.831
 7132SOL    HW222296   3.510   3.687   0.948
 7133SOL     OW22297   4.576   5.043   5.339
 7133SOL    HW122298   4.599   4.984   5.417
 7133SOL    HW222299   4.616   5.005   5.256
 7134SOL     OW22300   4.782   6.741   1.366
 7134SOL    HW122301   4.712   6.769   1.433
 7134SOL    HW222302   4.766   6.788   1.280
 7135SOL     OW22303   1.451   2.635   3.443
 7135SOL    HW122304   1.436   2.728   3.407
 7135SOL    HW222305   1.540   2.601   3.412
 7136SOL     OW22306   2.127   1.489   0.319
 7136SOL    HW122307   2.190   1.438   0.262
 7136SOL    HW222308   2.033   1.470   0.290
 7137SOL     OW22309   3.034   0.967   6.732
 7137SOL    HW122310   3.040   1.066   6.723
 7137SOL    HW222311   3.119   0.925   6.699
 7138SOL     OW22312   2.571   2.173   0.174
 7138SOL    HW122313   2.591   2.118   0.092
 7138SOL    HW222314   2.624   2.139   0.251
 7139SOL     OW22315   6.212   4.450   1.618
 7139SOL    HW122316   6.190   4.354   1.638
 7139SOL    HW222317   6.184   4.471   1.524
 7140SOL     OW22318   6.710   3.838   1.992
 7140SOL    HW122319   6.736   3.745   1.967
 7140SOL    HW222320   6.729   3.853   2.089
 7141SOL     OW22321   3.748   6.386   0.389
 7141SOL    HW122322   3.799   6.438   0.458
 7141SOL    HW222323   3.797   6.301   0.369
 7142SOL     OW22324   3.718   6.496   3.259
 7142SOL    HW122325   3.730   6.583   3.307
 7142SOL    HW222326   3.657   6.437   3.311
 7143SOL     OW22327   2.013   2.770   6.437
 7143SOL    HW122328   2.026   2.686   6.383
 7143SOL    HW222329   1.927   2.764   6.487
 7144SOL     OW22330   1.910   1.972   2.749
 7144SOL    HW122331   1.826   1.981   2.803
 7144SOL    HW222332   1.983   1.937   2.807
 7145SOL     OW22333   3.911   0.332   6.458
 7145SOL    HW122334   3.912   0.368   6.365
 7145SOL    HW222335   3.931   0.234   6.456
 7146SOL     OW22336   1.520   6.671   6.207
 7146SOL    HW122337   1.524   6.765   6.175
 7146SOL    HW222338   1.574   6.612   6.146
 7147SOL     OW22339   6.874   6.505   3.253
 7147SOL    HW122340   6.776   6.509   3.237
 7147SOL    HW222341   6.901   6.410   3.271
 7148SOL     OW22342   6.974   6.864   1.210
 7148SOL    HW122343   6.921   6.802   1.151
 7148SOL    HW222344   0.007   6.810   1.276
 7149SOL     OW22345   0.061   6.613   3.847
 7149SOL    HW122346   0.105   6.537   3.797
 7149SOL    HW222347   0.104   6.622   3.937
 7150SOL     OW22348   3.605   2.808   0.739
 7150SOL    HW122349   3.506   2.820   0.732
 7150SOL    HW222350   3.631   2.724   0.693
 7151SOL     OW22351   3.227   6.638   0.816
 7151SOL    HW122352   3.308   6.680   0.774
 7151SOL    HW222353   3.183   6.577   0.750
 7152SOL     OW22354   6.649   0.484   5.246
 7152SOL    HW122355   6.618   0.521   5.159
 7152SOL    HW222356   6.607   0.535   5.322
 7153SOL     OW22357   4.257   5.158   1.509
 7153SOL    HW122358   4.174   5.106   1.527
 7153SOL    HW222359   4.246   5.252   1.543
 7154SOL     OW22360   4.770   6.698   3.205
 7154SOL    HW122361   4.737   6.686   3.299
 7154SOL    HW222362   4.835   6.775   3.203
 7155SOL     OW22363   2.360   2.661   1.144
 7155SOL    HW122364   2.362   2.721   1.064
 7155SOL    HW222365   2.376   2.716   1.227
 7156SOL     OW22366   0.048   3.078   3.621
 7156SOL    HW122367   7.014   3.153   3.583
 7156SOL    HW222368   0.038   2.998   3.562
 7157SOL     OW22369   0.186   3.876   1.414
 7157SOL    HW122370   0.159   3.890   1.509
 7157SOL    HW222371   0.118   3.916   1.353
 7158SOL     OW22372   0.981   0.619   4.634
 7158SOL    HW122373   0.929   0.578   4.559
 7158SOL    HW222374   1.027   0.548   4.686
 7159SOL     OW22375   0.704   4.743   3.786
 7159SOL    HW122376   0.748   4.673   3.842
 7159SOL    HW222377   0.740   4.739   3.693
 7160SOL     OW22378   5.791   0.221   2.589
 7160SOL    HW122379   5.858   0.251   2.657
 7160SOL    HW222380   5.840   0.189   2.508
 7161SOL     OW22381   3.256   4.049   3.219
 7161SOL    HW122382   3.168   4.081   3.183
 7161SOL    HW222383   3.319   4.035   3.143
 7162SOL     OW22384   1.330   5.063   6.271
 7162SOL    HW122385   1.293   4.990   6.327
 7162SOL    HW222386   1.338   5.032   6.176
 7163SOL     OW22387   2.605   0.163   2.353
 7163SOL    HW122388   2.546   0.139   2.276
 7163SOL    HW222389   2.571   0.245   2.398
 7164SOL     OW22390   3.074   0.259   4.374
 7164SOL    HW122391   3.003   0.268   4.444
 7164SOL    HW222392   3.164   0.257   4.418
 7165SOL     OW22393   6.284   7.005   2.487
 7165SOL    HW122394   6.217   6.951   2.437
 7165SOL    HW222395   6.369   7.009   2.435
 7166SOL     OW22396   4.785   1.629   1.171
 7166SOL    HW122397   4.716   1.647   1.242
 7166SOL    HW222398   4.872   1.670   1.199
 7167SOL     OW22399   5.134   2.926   4.551
 7167SOL    HW122400   5.163   2.846   4.604
 7167SOL    HW222401   5.098   2.995   4.614
 7168SOL     OW22402   1.893   2.828   3.023
 7168SOL    HW122403   1.895   2.823   2.923
 7168SOL    HW222404   1.878   2.923   3.051
 7169SOL     OW22405   0.123   3.724   5.847
 7169SOL    HW122406   0.044   3.762   5.799
 7169SOL    HW222407   0.094   3.647   5.904
 7170SOL     OW22408   4.991   6.922   2.681
 7170SOL    HW122409   5.042   6.865   2.746
 7170SOL    HW222410   4.943   6.863   2.617
 7171SOL     OW22411   6.250   4.098   6.860
 7171SOL    HW122412   6.205   4.039   6.926
 7171SOL    HW222413   6.205   4.187   6.858
 7172SOL     OW22414   1.958   0.157   5.032
 7172SOL    HW122415   1.998   0.116   4.951
 7172SOL    HW222416   2.006   0.124   5.114
 7173SOL     OW22417   6.629   4.357   6.838
 7173SOL    HW122418   6.587   4.432   6.890
 7173SOL    HW222419   6.568   4.330   6.764
 7174SOL     OW22420   1.375   3.469   0.484
 7174SOL    HW122421   1.410   3.376   0.497
 7174SOL    HW222422   1.328   3.499   0.567
 7175SOL     OW22423   5.494   3.210   5.450
 7175SOL    HW122424   5.505   3.129   5.391
 7175SOL    HW222425   5.555   3.282   5.418
 7176SOL     OW22426   6.880   1.404   3.634
 7176SOL    HW122427   6.841   1.455   3.557
 7176SOL    HW222428   6.946   1.461   3.682
 7177SOL     OW22429   1.125   4.519   5.138
 7177SOL    HW122430   1.134   4.488   5.233
 7177SOL    HW222431   1.178   4.459   5.078
 7178SOL     OW22432   6.729   1.365   5.581
 7178SOL    HW122433   6.712   1.407   5.492
 7178SOL    HW222434   6.693   1.424   5.653
 7179SOL     OW22435   2.192   3.309   4.237
 7179SOL    HW122436   2.093   3.322   4.235
 7179SOL    HW222437   2.230   3.329   4.147
 7180SOL     OW22438   2.031   5.221   6.871
 7180SOL    HW122439   1.960   5.267   6.924
 7180SOL    HW222440   2.114   5.276   6.870
 7181SOL     OW22441   1.845   0.222   0.372
 7181SOL    HW122442   1.848   0.198   0.469
 7181SOL    HW222443   1.791   0.155   0.322
 7182SOL     OW22444   0.219   3.396   4.306
 7182SOL    HW122445   0.147   3.338   4.344
 7182SOL    HW222446   0.295   3.339   4.276
 7183SOL     OW22447   1.457   5.304   1.304
 7183SOL    HW122448   1.540   5.334   1.256
 7183SOL    HW222449   1.446   5.358   1.387
 7184SOL     OW22450   6.644   1.009   4.109
 7184SOL    HW122451   6.612   0.915   4.097
 7184SOL    HW222452   6.590   1.070   4.050
 7185SOL     OW22453   5.708   1.185   4.800
 7185SOL    HW122454   5.659   1.257   4.752
 7185SOL    HW222455   5.803   1.183   4.769
 7186SOL     OW22456   6.452   1.714   1.788
 7186SOL    HW122457   6.462   1.784   1.859
 7186SOL    HW222458   6.460   1.756   1.698
 7187SOL     OW22459   2.765   4.157   5.258
 7187SOL    HW122460   2.684   4.132   5.311
 7187SOL    HW222461   2.780   4.089   5.186
 7188SOL     OW22462   5.192   6.836   6.952
 7188SOL    HW122463   5.118   6.787   6.906
 7188SOL    HW222464   5.203   6.927   6.910
 7189SOL     OW22465   6.012   1.473   5.198
 7189SOL    HW122466   6.066   1.409   5.254
 7189SOL    HW222467   5.964   1.422   5.127
 7190SOL     OW22468   6.787   5.105   1.790
 7190SOL    HW122469   6.695   5.074   1.818
 7190SOL    HW222470   6.847   5.104   1.870
 7191SOL     OW22471   1.617   4.709   2.486
 7191SOL    HW122472   1.558   4.708   2.566
 7191SOL    HW222473   1.580   4.647   2.416
 7192SOL     OW22474   2.165   4.034   5.723
 7192SOL    HW122475   2.203   3.988   5.804
 7192SOL    HW222476   2.226   4.108   5.696
 7193SOL     OW22477   1.451   2.716   2.433
 7193SOL    HW122478   1.478   2.777   2.359
 7193SOL    HW222479   1.439   2.623   2.397
 7194SOL     OW22480   2.311   2.208   0.823
 7194SOL    HW122481   2.365   2.219   0.739
 7194SOL    HW222482   2.365   2.239   0.901
 7195SOL     OW22483   0.920   4.032   7.002
 7195SOL    HW122484   0.989   4.051   6.931
 7195SOL    HW222485   0.939   3.943   0.024
 7196SOL     OW22486   2.304   3.590   1.625
 7196SOL    HW122487   2.269   3.511   1.576
 7196SOL    HW222488   2.355   3.559   1.706
 7197SOL     OW22489   0.678   2.618   5.659
 7197SOL    HW122490   0.758   2.677   5.651
 7197SOL    HW222491   0.702   2.536   5.712
 7198SOL     OW22492   0.798   0.741   0.413
 7198SOL    HW122493   0.894   0.718   0.429
 7198SOL    HW222494   0.741   0.661   0.431
 7199SOL     OW22495   1.680   0.191   1.858
 7199SOL    HW122496   1.682   0.102   1.812
 7199SOL    HW222497   1.770   0.209   1.898
 7200SOL     OW22498   2.241   2.884   6.794
 7200SOL    HW122499   2.255   2.887   6.695
 7200SOL    HW222500   2.263   2.793   6.827
 7201SOL     OW22501   1.034   6.391   4.122
 7201SOL    HW122502   0.984   6.468   4.160
 7201SOL    HW222503   0.978   6.346   4.052
 7202SOL     OW22504   5.506   6.566   0.431
 7202SOL    HW122505   5.511   6.590   0.334
 7202SOL    HW222506   5.567   6.488   0.449
 7203SOL     OW22507   0.197   1.254   0.603
 7203SOL    HW122508   0.258   1.175   0.606
 7203SOL    HW222509   0.104   1.223   0.583
 7204SOL     OW22510   0.183   0.465   5.969
 7204SOL    HW122511   0.154   0.372   5.989
 7204SOL    HW222512   0.123   0.504   5.898
 7205SOL     OW22513   1.864   3.982   4.572
 7205SOL    HW122514   1.910   3.944   4.491
 7205SOL    HW222515   1.864   3.914   4.645
 7206SOL     OW22516   1.376   0.228   2.054
 7206SOL    HW122517   1.353   0.144   2.006
 7206SOL    HW222518   1.431   0.287   1.995
 7207SOL     OW22519   3.178   0.379   3.138
 7207SOL    HW122520   3.141   0.464   3.176
 7207SOL    HW222521   3.247   0.401   3.069
 7208SOL     OW22522   3.930   0.249   3.429
 7208SOL    HW122523   4.030   0.253   3.436
 7208SOL    HW222524   3.903   0.263   3.333
 7209SOL     OW22525   2.679   3.092   1.715
 7209SOL    HW122526   2.733   3.080   1.798
 7209SOL    HW222527   2.625   3.176   1.722
 7210SOL     OW22528   4.148   1.220   3.043
 7210SOL    HW122529   4.048   1.213   3.044
 7210SOL    HW222530   4.175   1.315   3.037
 7211SOL     OW22531   1.957   0.051   4.628
 7211SOL    HW122532   1.891   0.117   4.592
 7211SOL    HW222533   2.007   0.009   4.552
 7212SOL     OW22534   0.108   6.328   4.906
 7212SOL    HW122535   0.097   6.244   4.959
 7212SOL    HW222536   0.118   6.305   4.810
 7213SOL     OW22537   4.140   6.250   6.601
 7213SOL    HW122538   4.135   6.189   6.521
 7213SOL    HW222539   4.122   6.198   6.684
 7214SOL     OW22540   6.741   0.445   4.739
 7214SOL    HW122541   6.721   0.479   4.831
 7214SOL    HW222542   6.835   0.469   4.713
 7215SOL     OW22543   0.304   3.218   3.623
 7215SOL    HW122544   0.218   3.184   3.583
 7215SOL    HW222545   0.369   3.240   3.550
 7216SOL     OW22546   2.841   0.521   0.244
 7216SOL    HW122547   2.863   0.504   0.148
 7216SOL    HW222548   2.923   0.508   0.299
 7217SOL     OW22549   2.125   3.752   3.733
 7217SOL    HW122550   2.040   3.783   3.776
 7217SOL    HW222551   2.163   3.826   3.678
 7218SOL     OW22552   6.173   2.832   4.996
 7218SOL    HW122553   6.091   2.810   4.944
 7218SOL    HW222554   6.207   2.751   5.042
 7219SOL     OW22555   4.182   0.114   3.022
 7219SOL    HW122556   4.106   0.061   2.985
 7219SOL    HW222557   4.255   0.122   2.954
 7220SOL     OW22558   0.431   4.005   4.568
 7220SOL    HW122559   0.379   4.088   4.549
 7220SOL    HW222560   0.367   3.929   4.585
 7221SOL     OW22561   3.403   5.898   4.129
 7221SOL    HW122562   3.317   5.930   4.168
 7221SOL    HW222563   3.388   5.811   4.082
 7222SOL     OW22564   6.122   6.945   3.112
 7222SOL    HW122565   6.076   6.993   3.038
 7222SOL    HW222566   6.176   7.010   3.166
 7223SOL     OW22567   3.318   1.469   1.129
 7223SOL    HW122568   3.270   1.479   1.042
 7223SOL    HW222569   3.332   1.372   1.149
 7224SOL     OW22570   4.940   1.810   4.106
 7224SOL    HW122571   4.995   1.880   4.060
 7224SOL    HW222572   4.996   1.731   4.128
 7225SOL     OW22573   1.193   6.019   0.618
 7225SOL    HW122574   1.125   6.038   0.688
 7225SOL    HW222575   1.215   5.921   0.618
 7226SOL     OW22576   6.313   0.740   2.230
 7226SOL    HW122577   6.240   0.795   2.190
 7226SOL    HW222578   6.274   0.657   2.270
 7227SOL     OW22579   2.785   2.275   1.063
 7227SOL    HW122580   2.806   2.371   1.047
 7227SOL    HW222581   2.772   2.259   1.161
 7228SOL     OW22582   0.871   2.298   2.671
 7228SOL    HW122583   0.940   2.226   2.667
 7228SOL    HW222584   0.908   2.378   2.718
 7229SOL     OW22585   1.367   6.152   5.133
 7229SOL    HW122586   1.346   6.247   5.157
 7229SOL    HW222587   1.442   6.151   5.066
 7230SOL     OW22588   3.241   5.303   4.938
 7230SOL    HW122589   3.239   5.215   4.986
 7230SOL    HW222590   3.177   5.300   4.862
 7231SOL     OW22591   4.135   0.843   6.459
 7231SOL    HW122592   4.165   0.816   6.550
 7231SOL    HW222593   4.037   0.867   6.462
 7232SOL     OW22594   4.865   6.050   3.152
 7232SOL    HW122595   4.810   6.050   3.236
 7232SOL    HW222596   4.961   6.064   3.176
 7233SOL     OW22597   1.192   1.409   3.558
 7233SOL    HW122598   1.099   1.402   3.594
 7233SOL    HW222599   1.231   1.498   3.583
 7234SOL     OW22600   5.409   2.497   3.878
 7234SOL    HW122601   5.395   2.587   3.837
 7234SOL    HW222602   5.323   2.445   3.874
 7235SOL     OW22603   0.127   5.156   2.525
 7235SOL    HW122604   0.065   5.091   2.481
 7235SOL    HW222605   0.103   5.165   2.621
 7236SOL     OW22606   2.898   1.950   1.912
 7236SOL    HW122607   2.846   2.029   1.943
 7236SOL    HW222608   2.880   1.872   1.972
 7237SOL     OW22609   3.952   6.999   4.913
 7237SOL    HW122610   3.994   6.984   5.003
 7237SOL    HW222611   3.989   0.063   4.873
 7238SOL     OW22612   4.099   1.505   0.121
 7238SOL    HW122613   4.027   1.549   0.067
 7238SOL    HW222614   4.180   1.565   0.124
 7239SOL     OW22615   1.339   2.305   2.671
 7239SOL    HW122616   1.329   2.304   2.571
 7239SOL    HW222617   1.277   2.374   2.710
 7240SOL     OW22618   1.282   0.507   6.168
 7240SOL    HW122619   1.208   0.465   6.221
 7240SOL    HW222620   1.362   0.516   6.226
 7241SOL     OW22621   1.360   0.604   1.032
 7241SOL    HW122622   1.399   0.676   0.974
 7241SOL    HW222623   1.433   0.542   1.063
 7242SOL     OW22624   6.825   5.855   0.075
 7242SOL    HW122625   6.910   5.894   0.112
 7242SOL    HW222626   6.760   5.929   0.056
 7243SOL     OW22627   6.279   4.497   6.142
 7243SOL    HW122628   6.349   4.506   6.071
 7243SOL    HW222629   6.312   4.539   6.227
 7244SOL     OW22630   6.672   0.926   1.761
 7244SOL    HW122631   6.660   1.002   1.825
 7244SOL    HW222632   6.590   0.869   1.760
 7245SOL     OW22633   1.285   2.931   5.548
 7245SOL    HW122634   1.296   2.882   5.634
 7245SOL    HW222635   1.351   2.898   5.481
 7246SOL     OW22636   0.563   0.011   4.158
 7246SOL    HW122637   0.632   0.024   4.087
 7246SOL    HW222638   0.606   6.992   4.239
 7247SOL     OW22639   2.887   1.017   4.059
 7247SOL    HW122640   2.906   1.021   3.961
 7247SOL    HW222641   2.903   1.107   4.100
 7248SOL     OW22642   2.568   1.369   3.018
 7248SOL    HW122643   2.554   1.448   2.958
 7248SOL    HW222644   2.666   1.351   3.027
 7249SOL     OW22645   6.908   5.324   2.425
 7249SOL    HW122646   6.972   5.248   2.416
 7249SOL    HW222647   6.861   5.338   2.338
 7250SOL     OW22648   5.131   6.821   6.434
 7250SOL    HW122649   5.048   6.873   6.412
 7250SOL    HW222650   5.204   6.885   6.457
 7251SOL     OW22651   0.527   6.571   5.703
 7251SOL    HW122652   0.627   6.575   5.713
 7251SOL    HW222653   0.490   6.505   5.769
 7252SOL     OW22654   3.817   3.425   2.136
 7252SOL    HW122655   3.813   3.525   2.137
 7252SOL    HW222656   3.747   3.387   2.197
 7253SOL     OW22657   1.343   6.138   6.475
 7253SOL    HW122658   1.321   6.094   6.388
 7253SOL    HW222659   1.441   6.155   6.480
 7254SOL     OW22660   4.610   5.177   3.885
 7254SOL    HW122661   4.616   5.276   3.898
 7254SOL    HW222662   4.658   5.152   3.801
 7255SOL     OW22663   2.945   4.180   1.109
 7255SOL    HW122664   2.962   4.102   1.170
 7255SOL    HW222665   2.990   4.261   1.146
 7256SOL     OW22666   3.184   5.721   4.616
 7256SOL    HW122667   3.260   5.705   4.553
 7256SOL    HW222668   3.170   5.640   4.674
 7257SOL     OW22669   5.768   2.342   3.223
 7257SOL    HW122670   5.793   2.252   3.259
 7257SOL    HW222671   5.742   2.401   3.299
 7258SOL     OW22672   4.917   1.424   3.257
 7258SOL    HW122673   4.932   1.327   3.278
 7258SOL    HW222674   5.004   1.466   3.231
 7259SOL     OW22675   2.132   3.722   0.839
 7259SOL    HW122676   2.131   3.811   0.793
 7259SOL    HW222677   2.183   3.657   0.783
 7260SOL     OW22678   3.952   1.928   1.487
 7260SOL    HW122679   3.952   1.896   1.392
 7260SOL    HW222680   3.918   2.022   1.490
 7261SOL     OW22681   1.336   2.317   1.321
 7261SOL    HW122682   1.404   2.344   1.253
 7261SOL    HW222683   1.379   2.258   1.390
 7262SOL     OW22684   5.489   2.223   6.003
 7262SOL    HW122685   5.412   2.160   6.015
 7262SOL    HW222686   5.559   2.179   5.947
 7263SOL     OW22687   1.172   0.880   0.150
 7263SOL    HW122688   1.113   0.959   0.165
 7263SOL    HW222689   1.183   0.865   0.052
 7264SOL     OW22690   5.442   2.190   6.832
 7264SOL    HW122691   5.389   2.170   6.749
 7264SOL    HW222692   5.538   2.199   6.808
 7265SOL     OW22693   5.965   5.691   5.544
 7265SOL    HW122694   5.947   5.772   5.599
 7265SOL    HW222695   5.879   5.659   5.503
 7266SOL     OW22696   5.488   6.189   1.665
 7266SOL    HW122697   5.497   6.092   1.689
 7266SOL    HW222698   5.431   6.235   1.733
 7267SOL     OW22699   6.310   6.365   5.055
 7267SOL    HW122700   6.220   6.380   5.015
 7267SOL    HW222701   6.381   6.397   4.992
 7268SOL     OW22702   6.036   5.306   3.342
 7268SOL    HW122703   6.065   5.298   3.246
 7268SOL    HW222704   6.117   5.308   3.401
 7269SOL     OW22705   6.966   6.622   6.644
 7269SOL    HW122706   7.018   6.670   6.573
 7269SOL    HW222707   6.896   6.683   6.681
 7270SOL     OW22708   1.506   3.772   5.307
 7270SOL    HW122709   1.476   3.689   5.262
 7270SOL    HW222710   1.427   3.827   5.334
 7271SOL     OW22711   1.004   5.983   3.201
 7271SOL    HW122712   0.931   5.925   3.164
 7271SOL    HW222713   1.089   5.966   3.152
 7272SOL     OW22714   5.821   5.755   2.147
 7272SOL    HW122715   5.743   5.810   2.118
 7272SOL    HW222716   5.895   5.815   2.177
 7273SOL     OW22717   6.055   4.773   1.918
 7273SOL    HW122718   6.003   4.742   1.838
 7273SOL    HW222719   6.023   4.725   2.000
 7274SOL     OW22720   0.894   5.681   6.728
 7274SOL    HW122721   0.851   5.679   6.638
 7274SOL    HW222722   0.993   5.671   6.718
 7275SOL     OW22723   6.937   6.778   2.692
 7275SOL    HW122724   6.882   6.699   2.667
 7275SOL    HW222725   6.949   6.837   2.612
 7276SOL     OW22726   3.843   0.887   2.774
 7276SOL    HW122727   3.830   0.833   2.858
 7276SOL    HW222728   3.807   0.979   2.788
 7277SOL     OW22729   4.168   0.705   3.473
 7277SOL    HW122730   4.173   0.654   3.558
 7277SOL    HW222731   4.098   0.665   3.413
 7278SOL     OW22732   3.317   2.850   1.419
 7278SOL    HW122733   3.335   2.880   1.513
 7278SOL    HW222734   3.344   2.922   1.356
 7279SOL     OW22735   3.843   4.000   5.674
 7279SOL    HW122736   3.898   4.083   5.675
 7279SOL    HW222737   3.898   3.924   5.638
 7280SOL     OW22738   0.119   1.614   3.287
 7280SOL    HW122739   0.141   1.517   3.276
 7280SOL    HW222740   0.077   1.628   3.377
 7281SOL     OW22741   1.875   0.891   0.694
 7281SOL    HW122742   1.905   0.985   0.674
 7281SOL    HW222743   1.775   0.889   0.701
 7282SOL     OW22744   6.448   6.080   1.537
 7282SOL    HW122745   6.413   6.116   1.451
 7282SOL    HW222746   6.397   6.119   1.614
 7283SOL     OW22747   4.982   0.424   2.093
 7283SOL    HW122748   4.953   0.512   2.053
 7283SOL    HW222749   4.933   0.409   2.179
 7284SOL     OW22750   6.899   2.297   5.700
 7284SOL    HW122751   6.957   2.378   5.692
 7284SOL    HW222752   6.813   2.322   5.745
 7285SOL     OW22753   5.463   2.947   2.112
 7285SOL    HW122754   5.502   2.857   2.130
 7285SOL    HW222755   5.397   2.969   2.185
 7286SOL     OW22756   1.540   1.258   1.161
 7286SOL    HW122757   1.545   1.282   1.258
 7286SOL    HW222758   1.447   1.231   1.137
 7287SOL     OW22759   0.080   2.474   5.703
 7287SOL    HW122760   0.107   2.550   5.644
 7287SOL    HW222761   0.143   2.398   5.691
 7288SOL     OW22762   1.476   2.052   1.740
 7288SOL    HW122763   1.546   2.092   1.800
 7288SOL    HW222764   1.403   2.012   1.796
 7289SOL     OW22765   5.579   2.082   3.588
 7289SOL    HW122766   5.594   2.125   3.499
 7289SOL    HW222767   5.486   2.044   3.591
 7290SOL     OW22768   3.222   1.819   5.499
 7290SOL    HW122769   3.130   1.814   5.459
 7290SOL    HW222770   3.248   1.730   5.535
 7291SOL     OW22771   1.133   0.208   0.157
 7291SOL    HW122772   1.202   0.241   0.092
 7291SOL    HW222773   1.132   0.108   0.156
 7292SOL     OW22774   3.362   6.782   3.238
 7292SOL    HW122775   3.358   6.817   3.144
 7292SOL    HW222776   3.337   6.856   3.301
 7293SOL     OW22777   1.376   1.507   4.643
 7293SOL    HW122778   1.310   1.539   4.575
 7293SOL    HW222779   1.341   1.526   4.735
 7294SOL     OW22780   2.772   4.010   0.102
 7294SOL    HW122781   2.804   4.070   0.029
 7294SOL    HW222782   2.676   4.029   0.121
 7295SOL     OW22783   6.553   4.196   0.888
 7295SOL    HW122784   6.571   4.285   0.930
 7295SOL    HW222785   6.628   4.133   0.909
 7296SOL     OW22786   2.777   6.118   1.396
 7296SOL    HW122787   2.791   6.079   1.487
 7296SOL    HW222788   2.813   6.055   1.327
 7297SOL     OW22789   3.693   6.804   1.429
 7297SOL    HW122790   3.750   6.868   1.378
 7297SOL    HW222791   3.598   6.812   1.399
 7298SOL     OW22792   4.841   5.308   6.144
 7298SOL    HW122793   4.744   5.305   6.168
 7298SOL    HW222794   4.864   5.227   6.090
 7299SOL     OW22795   0.678   2.315   1.253
 7299SOL    HW122796   0.706   2.296   1.346
 7299SOL    HW222797   0.758   2.323   1.194
 7300SOL     OW22798   0.060   6.838   2.265
 7300SOL    HW122799   0.117   6.808   2.189
 7300SOL    HW222800   0.005   6.917   2.236
 7301SOL     OW22801   6.329   2.045   4.878
 7301SOL    HW122802   6.294   1.991   4.801
 7301SOL    HW222803   6.338   1.987   4.959
 7302SOL     OW22804   0.004   2.567   5.941
 7302SOL    HW122805   6.977   2.654   5.926
 7302SOL    HW222806   0.025   2.525   5.853
 7303SOL     OW22807   4.041   1.086   6.861
 7303SOL    HW122808   4.090   1.157   6.911
 7303SOL    HW222809   3.942   1.100   6.872
 7304SOL     OW22810   2.980   4.960   1.260
 7304SOL    HW122811   2.950   4.897   1.331
 7304SOL    HW222812   2.901   4.990   1.207
 7305SOL     OW22813   4.955   2.014   1.217
 7305SOL    HW122814   5.046   2.051   1.238
 7305SOL    HW222815   4.901   2.008   1.301
 7306SOL     OW22816   3.907   1.598   1.452
 7306SOL    HW122817   3.953   1.529   1.508
 7306SOL    HW222818   3.953   1.686   1.463
 7307SOL     OW22819   2.810   6.557   2.412
 7307SOL    HW122820   2.886   6.553   2.347
 7307SOL    HW222821   2.796   6.467   2.453
 7308SOL     OW22822   6.835   2.387   4.731
 7308SOL    HW122823   6.787   2.354   4.813
 7308SOL    HW222824   6.932   2.399   4.752
 7309SOL     OW22825   3.603   5.373   0.765
 7309SOL    HW122826   3.631   5.378   0.861
 7309SOL    HW222827   3.539   5.448   0.745
 7310SOL     OW22828   2.104   3.949   6.812
 7310SOL    HW122829   2.204   3.955   6.804
 7310SOL    HW222830   2.075   3.996   6.896
 7311SOL     OW22831   2.229   1.599   1.416
 7311SOL    HW122832   2.304   1.578   1.355
 7311SOL    HW222833   2.222   1.698   1.429
 7312SOL     OW22834   0.556   2.684   4.845
 7312SOL    HW122835   0.645   2.675   4.891
 7312SOL    HW222836   0.571   2.715   4.751
 7313SOL     OW22837   2.165   0.858   1.276
 7313SOL    HW122838   2.113   0.786   1.229
 7313SOL    HW222839   2.230   0.817   1.340
 7314SOL     OW22840   0.094   4.870   6.297
 7314SOL    HW122841   0.191   4.849   6.304
 7314SOL    HW222842   0.052   4.868   6.388
 7315SOL     OW22843   5.453   5.508   1.906
 7315SOL    HW122844   5.462   5.548   1.998
 7315SOL    HW222845   5.514   5.430   1.898
 7316SOL     OW22846   3.571   3.365   6.961
 7316SOL    HW122847   3.471   3.363   6.955
 7316SOL    HW222848   3.600   3.441   7.018
 7317SOL     OW22849   4.366   1.815   1.492
 7317SOL    HW122850   4.337   1.720   1.486
 7317SOL    HW222851   4.295   1.868   1.538
 7318SOL     OW22852   3.005   0.236   2.124
 7318SOL    HW122853   3.056   0.157   2.090
 7318SOL    HW222854   2.965   0.214   2.213
 7319SOL     OW22855   6.944   3.691   0.017
 7319SOL    HW122856   6.962   3.632   6.958
 7319SOL    HW222857   6.878   3.762   7.010
 7320SOL     OW22858   1.279   3.424   2.346
 7320SOL    HW122859   1.277   3.324   2.338
 7320SOL    HW222860   1.328   3.462   2.268
 7321SOL     OW22861   1.239   6.322   6.210
 7321SOL    HW122862   1.216   6.416   6.235
 7321SOL    HW222863   1.325   6.295   6.253
 7322SOL     OW22864   6.742   2.916   2.901
 7322SOL    HW122865   6.841   2.927   2.912
 7322SOL    HW222866   6.695   2.987   2.953
 7323SOL     OW22867   2.111   2.459   1.450
 7323SOL    HW122868   2.107   2.511   1.535
 7323SOL    HW222869   2.099   2.521   1.373
 7324SOL     OW22870   5.856   5.979   1.229
 7324SOL    HW122871   5.850   5.927   1.143
 7324SOL    HW222872   5.765   5.988   1.269
 7325SOL     OW22873   2.437   0.321   6.323
 7325SOL    HW122874   2.446   0.227   6.356
 7325SOL    HW222875   2.366   0.368   6.377
 7326SOL     OW22876   2.931   6.345   6.449
 7326SOL    HW122877   2.946   6.262   6.394
 7326SOL    HW222878   2.907   6.318   6.543
 7327SOL     OW22879   6.220   2.183   5.825
 7327SOL    HW122880   6.275   2.215   5.749
 7327SOL    HW222881   6.276   2.178   5.908
 7328SOL     OW22882   4.333   0.314   6.629
 7328SOL    HW122883   4.336   0.366   6.544
 7328SOL    HW222884   4.290   0.225   6.613
 7329SOL     OW22885   1.008   4.004   0.697
 7329SOL    HW122886   1.029   4.021   0.600
 7329SOL    HW222887   0.986   3.908   0.710
 7330SOL     OW22888   1.871   3.050   0.161
 7330SOL    HW122889   1.965   3.021   0.145
 7330SOL    HW222890   1.859   3.143   0.127
 7331SOL     OW22891   5.870   6.838   1.342
 7331SOL    HW122892   5.849   6.754   1.393
 7331SOL    HW222893   5.805   6.848   1.267
 7332SOL     OW22894   3.378   5.985   0.030
 7332SOL    HW122895   3.334   6.074   0.025
 7332SOL    HW222896   3.311   5.913   0.013
 7333SOL     OW22897   6.378   3.124   3.488
 7333SOL    HW122898   6.445   3.123   3.561
 7333SOL    HW222899   6.342   3.032   3.473
 7334SOL     OW22900   1.996   6.194   6.445
 7334SOL    HW122901   2.071   6.128   6.453
 7334SOL    HW222902   1.922   6.154   6.390
 7335SOL     OW22903   0.590   2.242   3.502
 7335SOL    HW122904   0.506   2.245   3.448
 7335SOL    HW222905   0.569   2.260   3.598
 7336SOL     OW22906   1.955   6.738   2.569
 7336SOL    HW122907   1.944   6.726   2.667
 7336SOL    HW222908   1.953   6.650   2.523
 7337SOL     OW22909   1.268   2.364   1.803
 7337SOL    HW122910   1.224   2.277   1.823
 7337SOL    HW222911   1.210   2.419   1.743
 7338SOL     OW22912   4.859   1.577   1.762
 7338SOL    HW122913   4.938   1.534   1.805
 7338SOL    HW222914   4.797   1.611   1.832
 7339SOL     OW22915   6.066   0.908   5.086
 7339SOL    HW122916   6.040   0.816   5.054
 7339SOL    HW222917   6.023   0.977   5.027
 7340SOL     OW22918   2.773   1.460   0.321
 7340SOL    HW122919   2.840   1.422   0.256
 7340SOL    HW222920   2.692   1.401   0.324
 7341SOL     OW22921   0.395   4.377   5.359
 7341SOL    HW122922   0.439   4.305   5.412
 7341SOL    HW222923   0.378   4.457   5.417
 7342SOL     OW22924   0.547   0.197   6.599
 7342SOL    HW122925   0.468   0.140   6.577
 7342SOL    HW222926   0.554   0.206   6.699
 7343SOL     OW22927   5.809   4.406   1.446
 7343SOL    HW122928   5.814   4.402   1.546
 7343SOL    HW222929   5.850   4.324   1.406
 7344SOL     OW22930   0.839   0.980   6.218
 7344SOL    HW122931   0.809   1.073   6.197
 7344SOL    HW222932   0.880   0.939   6.136
 7345SOL     OW22933   4.916   5.742   5.057
 7345SOL    HW122934   4.872   5.804   4.992
 7345SOL    HW222935   4.847   5.680   5.095
 7346SOL     OW22936   4.658   4.835   1.434
 7346SOL    HW122937   4.659   4.809   1.531
 7346SOL    HW222938   4.604   4.917   1.422
 7347SOL     OW22939   0.391   2.516   0.748
 7347SOL    HW122940   0.364   2.450   0.678
 7347SOL    HW222941   0.490   2.524   0.749
 7348SOL     OW22942   1.424   3.918   4.022
 7348SOL    HW122943   1.375   3.851   3.966
 7348SOL    HW222944   1.389   4.010   4.003
 7349SOL     OW22945   4.762   1.989   1.032
 7349SOL    HW122946   4.790   1.898   1.002
 7349SOL    HW222947   4.826   2.022   1.101
 7350SOL     OW22948   1.694   3.154   5.469
 7350SOL    HW122949   1.667   3.193   5.557
 7350SOL    HW222950   1.757   3.079   5.483
 7351SOL     OW22951   4.922   6.815   4.997
 7351SOL    HW122952   5.016   6.841   5.018
 7351SOL    HW222953   4.861   6.850   5.068
 7352SOL     OW22954   2.009   2.784   3.524
 7352SOL    HW122955   2.097   2.792   3.570
 7352SOL    HW222956   1.987   2.687   3.510
 7353SOL     OW22957   0.960   0.868   5.988
 7353SOL    HW122958   0.965   0.950   5.931
 7353SOL    HW222959   1.011   0.794   5.945
 7354SOL     OW22960   0.201   1.638   5.876
 7354SOL    HW122961   0.198   1.540   5.894
 7354SOL    HW222962   0.130   1.685   5.929
 7355SOL     OW22963   2.251   1.223   0.346
 7355SOL    HW122964   2.196   1.207   0.264
 7355SOL    HW222965   2.237   1.147   0.410
 7356SOL     OW22966   3.881   3.426   6.066
 7356SOL    HW122967   3.906   3.433   6.163
 7356SOL    HW222968   3.814   3.352   6.055
 7357SOL     OW22969   4.685   6.471   1.452
 7357SOL    HW122970   4.684   6.445   1.356
 7357SOL    HW222971   4.683   6.571   1.460
 7358SOL     OW22972   6.111   3.519   3.038
 7358SOL    HW122973   6.084   3.435   2.991
 7358SOL    HW222974   6.176   3.570   2.981
 7359SOL     OW22975   2.138   1.996   6.196
 7359SOL    HW122976   2.140   2.064   6.123
 7359SOL    HW222977   2.207   1.926   6.178
 7360SOL     OW22978   3.360   3.788   5.362
 7360SOL    HW122979   3.430   3.857   5.342
 7360SOL    HW222980   3.357   3.772   5.461
 7361SOL     OW22981   4.572   6.721   1.531
 7361SOL    HW122982   4.544   6.812   1.561
 7361SOL    HW222983   4.491   6.666   1.510
 7362SOL     OW22984   1.127   4.811   4.883
 7362SOL    HW122985   1.062   4.736   4.876
 7362SOL    HW222986   1.120   4.854   4.972
 7363SOL     OW22987   4.532   2.123   1.239
 7363SOL    HW122988   4.434   2.137   1.253
 7363SOL    HW222989   4.549   2.105   1.142
 7364SOL     OW22990   4.531   0.665   1.661
 7364SOL    HW122991   4.431   0.672   1.656
 7364SOL    HW222992   4.560   0.575   1.628
 7365SOL     OW22993   1.469   5.972   1.759
 7365SOL    HW122994   1.370   5.985   1.753
 7365SOL    HW222995   1.491   5.876   1.741
 7366SOL     OW22996   1.954   5.576   6.669
 7366SOL    HW122997   2.027   5.573   6.737
 7366SOL    HW222998   1.963   5.498   6.607
 7367SOL     OW22999   5.039   3.018   0.939
 7367SOL    HW123000   4.942   3.005   0.961
 7367SOL    HW223001   5.062   2.967   0.856
 7368SOL     OW23002   3.867   2.975   2.946
 7368SOL    HW123003   3.939   3.013   3.003
 7368SOL    HW223004   3.797   2.933   3.004
 7369SOL     OW23005   3.713   3.118   6.818
 7369SOL    HW123006   3.714   3.216   6.836
 7369SOL    HW223007   3.621   3.082   6.831
 7370SOL     OW23008   2.268   0.730   4.147
 7370SOL    HW123009   2.186   0.770   4.106
 7370SOL    HW223010   2.343   0.796   4.142
 7371SOL     OW23011   1.540   6.339   4.051
 7371SOL    HW123012   1.580   6.306   4.137
 7371SOL    HW223013   1.530   6.262   3.988
 7372SOL     OW23014   4.370   1.094   5.027
 7372SOL    HW123015   4.437   1.055   4.963
 7372SOL    HW223016   4.417   1.155   5.091
 7373SOL     OW23017   6.064   2.317   4.162
 7373SOL    HW123018   6.104   2.226   4.149
 7373SOL    HW223019   5.994   2.313   4.233
 7374SOL     OW23020   2.282   1.412   5.623
 7374SOL    HW123021   2.310   1.374   5.535
 7374SOL    HW223022   2.273   1.511   5.615
 7375SOL     OW23023   2.090   3.351   3.308
 7375SOL    HW123024   1.990   3.355   3.308
 7375SOL    HW223025   2.119   3.256   3.294
 7376SOL     OW23026   2.919   1.438   0.545
 7376SOL    HW123027   2.913   1.531   0.582
 7376SOL    HW223028   2.842   1.421   0.483
 7377SOL     OW23029   5.611   4.353   0.560
 7377SOL    HW123030   5.692   4.377   0.505
 7377SOL    HW223031   5.604   4.416   0.638
 7378SOL     OW23032   7.013   1.022   5.948
 7378SOL    HW123033   0.005   1.043   5.850
 7378SOL    HW223034   0.054   1.081   6.002
 7379SOL     OW23035   3.396   1.467   3.057
 7379SOL    HW123036   3.433   1.548   3.102
 7379SOL    HW223037   3.299   1.457   3.079
 7380SOL     OW23038   6.631   4.548   4.722
 7380SOL    HW123039   6.534   4.532   4.704
 7380SOL    HW223040   6.679   4.563   4.635
 7381SOL     OW23041   4.552   3.958   1.550
 7381SOL    HW123042   4.456   3.946   1.526
 7381SOL    HW223043   4.572   4.055   1.562
 7382SOL     OW23044   6.573   6.236   6.054
 7382SOL    HW123045   6.507   6.272   6.120
 7382SOL    HW223046   6.665   6.269   6.076
 7383SOL     OW23047   1.465   0.092   1.304
 7383SOL    HW123048   1.563   0.073   1.300
 7383SOL    HW223049   1.446   0.151   1.383
 7384SOL     OW23050   5.419   0.400   2.800
 7384SOL    HW123051   5.379   0.325   2.748
 7384SOL    HW223052   5.394   0.487   2.758
 7385SOL     OW23053   4.241   6.078   2.137
 7385SOL    HW123054   4.142   6.090   2.140
 7385SOL    HW223055   4.274   6.049   2.226
 7386SOL     OW23056   0.417   2.051   5.769
 7386SOL    HW123057   0.506   2.094   5.753
 7386SOL    HW223058   0.391   1.996   5.689
 7387SOL     OW23059   5.357   6.204   4.325
 7387SOL    HW123060   5.299   6.277   4.360
 7387SOL    HW223061   5.301   6.131   4.287
 7388SOL     OW23062   0.297   4.946   2.376
 7388SOL    HW123063   0.270   4.877   2.309
 7388SOL    HW223064   0.217   5.002   2.399
 7389SOL     OW23065   6.983   3.560   6.805
 7389SOL    HW123066   0.052   3.597   6.774
 7389SOL    HW223067   6.919   3.557   6.728
 7390SOL     OW23068   1.240   1.624   6.949
 7390SOL    HW123069   1.204   1.697   7.008
 7390SOL    HW223070   1.214   1.642   6.854
 7391SOL     OW23071   4.168   3.436   4.682
 7391SOL    HW123072   4.266   3.449   4.688
 7391SOL    HW223073   4.125   3.517   4.642
 7392SOL     OW23074   2.639   6.185   0.245
 7392SOL    HW123075   2.574   6.116   0.213
 7392SOL    HW223076   2.722   6.139   0.278
 7393SOL     OW23077   6.052   5.057   2.915
 7393SOL    HW123078   5.970   5.078   2.967
 7393SOL    HW223079   6.030   4.995   2.839
 7394SOL     OW23080   2.450   2.472   5.513
 7394SOL    HW123081   2.360   2.509   5.537
 7394SOL    HW223082   2.438   2.393   5.453
 7395SOL     OW23083   1.418   2.212   0.185
 7395SOL    HW123084   1.446   2.309   0.190
 7395SOL    HW223085   1.470   2.160   0.253
 7396SOL     OW23086   0.888   0.180   0.751
 7396SOL    HW123087   0.872   0.093   0.705
 7396SOL    HW223088   0.976   0.176   0.798
 7397SOL     OW23089   4.254   5.583   4.632
 7397SOL    HW123090   4.325   5.595   4.562
 7397SOL    HW223091   4.215   5.491   4.625
 7398SOL     OW23092   2.382   4.790   4.603
 7398SOL    HW123093   2.476   4.772   4.632
 7398SOL    HW223094   2.361   4.737   4.521
 7399SOL     OW23095   1.278   2.257   5.491
 7399SOL    HW123096   1.218   2.312   5.548
 7399SOL    HW223097   1.329   2.193   5.548
 7400SOL     OW23098   3.893   2.138   5.725
 7400SOL    HW123099   3.840   2.221   5.710
 7400SOL    HW223100   3.877   2.073   5.650
 7401SOL     OW23101   1.340   1.543   4.954
 7401SOL    HW123102   1.434   1.523   4.982
 7401SOL    HW223103   1.277   1.514   5.026
 7402SOL     OW23104   2.770   5.661   6.363
 7402SOL    HW123105   2.741   5.582   6.416
 7402SOL    HW223106   2.699   5.731   6.365
 7403SOL     OW23107   2.112   3.690   2.447
 7403SOL    HW123108   2.160   3.702   2.360
 7403SOL    HW223109   2.057   3.606   2.444
 7404SOL     OW23110   2.485   5.312   1.658
 7404SOL    HW123111   2.557   5.272   1.714
 7404SOL    HW223112   2.422   5.364   1.717
 7405SOL     OW23113   3.824   4.938   4.425
 7405SOL    HW123114   3.817   5.036   4.406
 7405SOL    HW223115   3.862   4.891   4.345
 7406SOL     OW23116   0.125   2.388   3.162
 7406SOL    HW123117   0.206   2.415   3.215
 7406SOL    HW223118   0.090   2.302   3.198
 7407SOL     OW23119   1.179   0.207   4.641
 7407SOL    HW123120   1.252   0.142   4.664
 7407SOL    HW223121   1.202   0.256   4.557
 7408SOL     OW23122   3.283   3.644   6.995
 7408SOL    HW123123   3.227   3.700   6.934
 7408SOL    HW223124   3.370   3.691   7.012
 7409SOL     OW23125   6.475   2.250   6.658
 7409SOL    HW123126   6.552   2.305   6.626
 7409SOL    HW223127   6.424   2.215   6.579
 7410SOL     OW23128   0.170   0.089   0.367
 7410SOL    HW123129   0.250   0.145   0.391
 7410SOL    HW223130   0.201   7.017   0.339
 7411SOL     OW23131   2.498   0.153   6.032
 7411SOL    HW123132   2.539   0.225   5.976
 7411SOL    HW223133   2.491   0.185   6.127
 7412SOL     OW23134   4.742   0.196   1.623
 7412SOL    HW123135   4.752   0.186   1.722
 7412SOL    HW223136   4.818   0.151   1.577
 7413SOL     OW23137   5.405   6.012   4.075
 7413SOL    HW123138   5.422   5.914   4.071
 7413SOL    HW223139   5.318   6.029   4.121
 7414SOL     OW23140   0.252   0.497   4.105
 7414SOL    HW123141   0.322   0.433   4.135
 7414SOL    HW223142   0.224   0.474   4.012
 7415SOL     OW23143   2.319   4.774   4.229
 7415SOL    HW123144   2.309   4.872   4.215
 7415SOL    HW223145   2.411   4.746   4.201
 7416SOL     OW23146   1.640   1.062   2.871
 7416SOL    HW123147   1.729   1.082   2.829
 7416SOL    HW223148   1.623   1.128   2.945
 7417SOL     OW23149   1.711   0.650   0.182
 7417SOL    HW123150   1.795   0.703   0.194
 7417SOL    HW223151   1.701   0.586   0.258
 7418SOL     OW23152   2.581   5.962   0.428
 7418SOL    HW123153   2.531   5.984   0.512
 7418SOL    HW223154   2.671   6.006   0.430
 7419SOL     OW23155   6.335   2.645   5.135
 7419SOL    HW123156   6.401   2.656   5.210
 7419SOL    HW223157   6.345   2.554   5.095
 7420SOL     OW23158   0.606   6.729   1.684
 7420SOL    HW123159   0.638   6.643   1.725
 7420SOL    HW223160   0.661   6.748   1.603
 7421SOL     OW23161   3.552   4.257   0.650
 7421SOL    HW123162   3.462   4.213   0.655
 7421SOL    HW223163   3.621   4.195   0.687
 7422SOL     OW23164   6.640   3.161   2.565
 7422SOL    HW123165   6.590   3.093   2.618
 7422SOL    HW223166   6.732   3.127   2.546
 7423SOL     OW23167   5.804   3.515   5.231
 7423SOL    HW123168   5.902   3.500   5.241
 7423SOL    HW223169   5.776   3.594   5.286
 7424SOL     OW23170   6.736   6.568   5.736
 7424SOL    HW123171   6.820   6.538   5.691
 7424SOL    HW223172   6.753   6.653   5.786
 7425SOL     OW23173   4.157   5.870   6.606
 7425SOL    HW123174   4.174   5.944   6.671
 7425SOL    HW223175   4.159   5.782   6.655
 7426SOL     OW23176   3.318   1.565   5.558
 7426SOL    HW123177   3.262   1.502   5.612
 7426SOL    HW223178   3.409   1.574   5.600
 7427SOL     OW23179   4.194   0.316   3.443
 7427SOL    HW123180   4.213   0.378   3.519
 7427SOL    HW223181   4.273   0.257   3.428
 7428SOL     OW23182   4.399   1.859   5.670
 7428SOL    HW123183   4.331   1.806   5.720
 7428SOL    HW223184   4.480   1.871   5.726
 7429SOL     OW23185   0.652   6.888   4.414
 7429SOL    HW123186   0.584   6.933   4.472
 7429SOL    HW223187   0.633   6.790   4.411
 7430SOL     OW23188   1.244   2.769   0.261
 7430SOL    HW123189   1.308   2.758   0.337
 7430SOL    HW223190   1.278   2.839   0.198
 7431SOL     OW23191   1.317   2.881   3.291
 7431SOL    HW123192   1.286   2.907   3.382
 7431SOL    HW223193   1.371   2.955   3.251
 7432SOL     OW23194   1.193   1.111   2.942
 7432SOL    HW123195   1.100   1.077   2.953
 7432SOL    HW223196   1.191   1.200   2.896
 7433SOL     OW23197   4.750   6.358   5.903
 7433SOL    HW123198   4.823   6.357   5.971
 7433SOL    HW223199   4.767   6.285   5.836
 7434SOL     OW23200   5.333   5.927   5.941
 7434SOL    HW123201   5.328   6.012   5.993
 7434SOL    HW223202   5.426   5.915   5.907
 7435SOL     OW23203   3.726   5.979   0.675
 7435SOL    HW123204   3.797   6.038   0.714
 7435SOL    HW223205   3.642   6.032   0.663
 7436SOL     OW23206   5.004   4.008   6.261
 7436SOL    HW123207   5.100   4.025   6.240
 7436SOL    HW223208   4.947   4.078   6.219
 7437SOL     OW23209   1.111   6.007   6.905
 7437SOL    HW123210   1.112   6.096   6.950
 7437SOL    HW223211   1.067   5.940   6.965
 7438SOL     OW23212   1.227   5.949   6.664
 7438SOL    HW123213   1.193   5.983   6.752
 7438SOL    HW223214   1.270   6.024   6.614
 7439SOL     OW23215   2.115   5.990   5.772
 7439SOL    HW123216   2.029   5.979   5.822
 7439SOL    HW223217   2.174   5.911   5.789
 7440SOL     OW23218   6.611   3.185   3.670
 7440SOL    HW123219   6.669   3.107   3.649
 7440SOL    HW223220   6.667   3.267   3.679
 7441SOL     OW23221   5.463   6.716   3.932
 7441SOL    HW123222   5.445   6.668   4.017
 7441SOL    HW223223   5.501   6.653   3.865
 7442SOL     OW23224   6.514   1.109   6.065
 7442SOL    HW123225   6.557   1.114   6.155
 7442SOL    HW223226   6.527   1.017   6.027
 7443SOL     OW23227   6.912   6.183   2.005
 7443SOL    HW123228   6.927   6.122   2.082
 7443SOL    HW223229   6.900   6.129   1.921
 7444SOL     OW23230   5.446   2.810   5.515
 7444SOL    HW123231   5.538   2.795   5.552
 7444SOL    HW223232   5.411   2.898   5.546
 7445SOL     OW23233   3.966   0.727   0.828
 7445SOL    HW123234   3.919   0.706   0.913
 7445SOL    HW223235   4.065   0.715   0.841
 7446SOL     OW23236   5.580   3.074   0.239
 7446SOL    HW123237   5.671   3.036   0.220
 7446SOL    HW223238   5.579   3.114   0.330
 7447SOL     OW23239   0.591   3.351   6.648
 7447SOL    HW123240   0.625   3.425   6.591
 7447SOL    HW223241   0.502   3.376   6.686
 7448SOL     OW23242   6.395   6.461   5.299
 7448SOL    HW123243   6.405   6.417   5.210
 7448SOL    HW223244   6.465   6.532   5.309
 7449SOL     OW23245   0.512   3.633   1.864
 7449SOL    HW123246   0.461   3.615   1.949
 7449SOL    HW223247   0.489   3.724   1.831
 7450SOL     OW23248   5.175   2.550   4.638
 7450SOL    HW123249   5.200   2.454   4.648
 7450SOL    HW223250   5.185   2.578   4.543
 7451SOL     OW23251   6.750   0.038   2.994
 7451SOL    HW123252   6.661   0.084   3.000
 7451SOL    HW223253   6.817   0.100   2.952
 7452SOL     OW23254   6.880   6.571   4.624
 7452SOL    HW123255   6.828   6.655   4.611
 7452SOL    HW223256   6.882   6.519   4.539
 7453SOL     OW23257   5.179   0.209   5.925
 7453SOL    HW123258   5.175   0.259   6.011
 7453SOL    HW223259   5.239   0.257   5.861
 7454SOL     OW23260   0.511   2.459   2.323
 7454SOL    HW123261   0.581   2.410   2.375
 7454SOL    HW223262   0.427   2.404   2.320
 7455SOL     OW23263   6.992   2.300   2.421
 7455SOL    HW123264   6.933   2.297   2.340
 7455SOL    HW223265   6.995   2.394   2.456
 7456SOL     OW23266   0.767   1.518   3.699
 7456SOL    HW123267   0.840   1.451   3.691
 7456SOL    HW223268   0.730   1.518   3.792
 7457SOL     OW23269   3.612   0.356   6.309
 7457SOL    HW123270   3.580   0.450   6.317
 7457SOL    HW223271   3.656   0.328   6.394
 7458SOL     OW23272   1.716   6.542   5.804
 7458SOL    HW123273   1.795   6.495   5.765
 7458SOL    HW223274   1.674   6.485   5.874
 7459SOL     OW23275   4.531   0.550   2.057
 7459SOL    HW123276   4.465   0.511   1.992
 7459SOL    HW223277   4.567   0.636   2.020
 7460SOL     OW23278   1.502   5.010   0.879
 7460SOL    HW123279   1.478   5.107   0.866
 7460SOL    HW223280   1.586   5.003   0.933
 7461SOL     OW23281   5.726   1.171   6.690
 7461SOL    HW123282   5.766   1.243   6.633
 7461SOL    HW223283   5.647   1.132   6.643
 7462SOL     OW23284   2.098   3.987   2.367
 7462SOL    HW123285   2.096   3.945   2.458
 7462SOL    HW223286   2.080   3.917   2.297
 7463SOL     OW23287   2.383   4.639   0.401
 7463SOL    HW123288   2.386   4.691   0.315
 7463SOL    HW223289   2.298   4.586   0.406
 7464SOL     OW23290   5.125   0.271   6.558
 7464SOL    HW123291   5.033   0.267   6.597
 7464SOL    HW223292   5.184   0.324   6.618
 7465SOL     OW23293   1.417   5.543   6.678
 7465SOL    HW123294   1.513   5.566   6.697
 7465SOL    HW223295   1.380   5.491   6.754
 7466SOL     OW23296   6.912   0.372   5.149
 7466SOL    HW123297   6.864   0.380   5.236
 7466SOL    HW223298   6.890   0.284   5.107
 7467SOL     OW23299   0.530   1.366   1.162
 7467SOL    HW123300   0.462   1.409   1.221
 7467SOL    HW223301   0.597   1.317   1.220
 7468SOL     OW23302   5.645   3.056   3.512
 7468SOL    HW123303   5.716   3.115   3.473
 7468SOL    HW223304   5.624   3.088   3.605
 7469SOL     OW23305   7.005   0.906   0.554
 7469SOL    HW123306   6.929   0.851   0.589
 7469SOL    HW223307   6.985   1.003   0.567
 7470SOL     OW23308   6.506   3.717   3.331
 7470SOL    HW123309   6.537   3.638   3.384
 7470SOL    HW223310   6.526   3.703   3.234
 7471SOL     OW23311   5.546   6.660   6.389
 7471SOL    HW123312   5.622   6.690   6.332
 7471SOL    HW223313   5.540   6.718   6.470
 7472SOL     OW23314   6.403   6.846   4.531
 7472SOL    HW123315   6.396   6.944   4.549
 7472SOL    HW223316   6.317   6.814   4.491
 7473SOL     OW23317   5.791   4.953   4.041
 7473SOL    HW123318   5.810   5.050   4.028
 7473SOL    HW223319   5.695   4.941   4.066
 7474SOL     OW23320   1.021   1.398   5.549
 7474SOL    HW123321   1.030   1.463   5.473
 7474SOL    HW223322   0.952   1.330   5.527
 7475SOL     OW23323   4.824   2.225   2.109
 7475SOL    HW123324   4.743   2.258   2.158
 7475SOL    HW223325   4.904   2.279   2.135
 7476SOL     OW23326   3.186   0.656   3.751
 7476SOL    HW123327   3.098   0.662   3.705
 7476SOL    HW223328   3.246   0.728   3.717
 7477SOL     OW23329   0.130   0.975   5.429
 7477SOL    HW123330   0.131   0.920   5.346
 7477SOL    HW223331   0.224   0.994   5.457
 7478SOL     OW23332   5.001   4.796   5.717
 7478SOL    HW123333   5.014   4.884   5.762
 7478SOL    HW223334   4.980   4.726   5.787
 7479SOL     OW23335   4.221   2.346   2.328
 7479SOL    HW123336   4.165   2.289   2.388
 7479SOL    HW223337   4.165   2.384   2.255
 7480SOL     OW23338   0.819   3.960   2.149
 7480SOL    HW123339   0.836   3.927   2.243
 7480SOL    HW223340   0.774   3.888   2.097
 7481SOL     OW23341   6.520   5.899   1.105
 7481SOL    HW123342   6.557   5.960   1.176
 7481SOL    HW223343   6.430   5.932   1.076
 7482SOL     OW23344   4.724   2.548   3.064
 7482SOL    HW123345   4.739   2.639   3.026
 7482SOL    HW223346   4.734   2.480   2.992
 7483SOL     OW23347   4.681   2.769   4.197
 7483SOL    HW123348   4.606   2.703   4.185
 7483SOL    HW223349   4.739   2.769   4.116
 7484SOL     OW23350   1.627   6.870   4.256
 7484SOL    HW123351   1.722   6.851   4.230
 7484SOL    HW223352   1.587   6.933   4.189
 7485SOL     OW23353   3.561   0.050   4.662
 7485SOL    HW123354   3.585   6.996   4.726
 7485SOL    HW223355   3.462   0.053   4.651
 7486SOL     OW23356   1.953   6.697   0.525
 7486SOL    HW123357   1.955   6.597   0.533
 7486SOL    HW223358   1.900   6.723   0.445
 7487SOL     OW23359   1.858   6.498   3.550
 7487SOL    HW123360   1.763   6.487   3.578
 7487SOL    HW223361   1.862   6.549   3.464
 7488SOL     OW23362   2.723   6.927   3.635
 7488SOL    HW123363   2.656   6.921   3.561
 7488SOL    HW223364   2.676   6.950   3.720
 7489SOL     OW23365   4.809   2.668   5.391
 7489SOL    HW123366   4.819   2.736   5.463
 7489SOL    HW223367   4.888   2.607   5.391
 7490SOL     OW23368   1.213   0.428   2.487
 7490SOL    HW123369   1.191   0.368   2.563
 7490SOL    HW223370   1.310   0.453   2.491
 7491SOL     OW23371   5.364   2.704   6.513
 7491SOL    HW123372   5.387   2.783   6.569
 7491SOL    HW223373   5.360   2.622   6.571
 7492SOL     OW23374   2.060   0.715   3.231
 7492SOL    HW123375   2.023   0.778   3.162
 7492SOL    HW223376   2.025   0.623   3.213
 7493SOL     OW23377   0.544   3.648   6.919
 7493SOL    HW123378   0.528   3.735   6.966
 7493SOL    HW223379   0.493   3.647   6.833
 7494SOL     OW23380   5.246   1.254   2.741
 7494SOL    HW123381   5.270   1.341   2.783
 7494SOL    HW223382   5.153   1.259   2.705
 7495SOL     OW23383   1.530   2.225   6.491
 7495SOL    HW123384   1.537   2.284   6.411
 7495SOL    HW223385   1.590   2.259   6.563
 7496SOL     OW23386   6.149   3.360   5.087
 7496SOL    HW123387   6.112   3.438   5.036
 7496SOL    HW223388   6.170   3.285   5.024
 7497SOL     OW23389   2.456   4.182   6.144
 7497SOL    HW123390   2.451   4.280   6.165
 7497SOL    HW223391   2.550   4.158   6.120
 7498SOL     OW23392   3.295   0.428   5.202
 7498SOL    HW123393   3.344   0.341   5.190
 7498SOL    HW223394   3.201   0.418   5.166
 7499SOL     OW23395   3.055   1.391   2.840
 7499SOL    HW123396   3.120   1.345   2.900
 7499SOL    HW223397   3.093   1.479   2.811
 7500SOL     OW23398   3.367   5.699   2.920
 7500SOL    HW123399   3.268   5.687   2.913
 7500SOL    HW223400   3.401   5.645   2.997
 7501SOL     OW23401   5.201   3.777   4.918
 7501SOL    HW123402   5.104   3.799   4.920
 7501SOL    HW223403   5.230   3.747   5.009
 7502SOL     OW23404   3.072   0.611   4.386
 7502SOL    HW123405   2.989   0.662   4.364
 7502SOL    HW223406   3.084   0.537   4.319
 7503SOL     OW23407   1.640   0.307   1.491
 7503SOL    HW123408   1.694   0.359   1.558
 7503SOL    HW223409   1.571   0.367   1.451
 7504SOL     OW23410   1.105   0.057   3.367
 7504SOL    HW123411   1.148   7.011   3.305
 7504SOL    HW223412   1.039   0.113   3.317
 7505SOL     OW23413   1.483   2.594   5.991
 7505SOL    HW123414   1.385   2.586   6.008
 7505SOL    HW223415   1.534   2.560   6.069
 7506SOL     OW23416   4.929   1.168   3.394
 7506SOL    HW123417   4.993   1.113   3.448
 7506SOL    HW223418   4.869   1.108   3.342
 7507SOL     OW23419   0.355   1.417   2.616
 7507SOL    HW123420   0.410   1.496   2.590
 7507SOL    HW223421   0.261   1.429   2.583
 7508SOL     OW23422   1.248   6.813   1.516
 7508SOL    HW123423   1.179   6.808   1.589
 7508SOL    HW223424   1.217   6.875   1.445
 7509SOL     OW23425   6.063   4.569   0.456
 7509SOL    HW123426   6.030   4.649   0.406
 7509SOL    HW223427   6.163   4.565   0.448
 7510SOL     OW23428   3.898   3.475   5.646
 7510SOL    HW123429   3.859   3.517   5.728
 7510SOL    HW223430   3.961   3.402   5.673
 7511SOL     OW23431   2.418   6.005   3.618
 7511SOL    HW123432   2.418   5.993   3.518
 7511SOL    HW223433   2.480   6.079   3.642
 7512SOL     OW23434   2.997   6.904   6.951
 7512SOL    HW123435   3.003   6.834   0.002
 7512SOL    HW223436   3.072   6.969   6.962
 7513SOL     OW23437   1.952   0.919   1.474
 7513SOL    HW123438   2.010   0.950   1.398
 7513SOL    HW223439   2.006   0.862   1.536
 7514SOL     OW23440   2.410   5.713   1.603
 7514SOL    HW123441   2.505   5.729   1.632
 7514SOL    HW223442   2.405   5.625   1.555
 7515SOL     OW23443   6.751   5.115   3.824
 7515SOL    HW123444   6.784   5.090   3.732
 7515SOL    HW223445   6.806   5.068   3.893
 7516SOL     OW23446   6.949   6.207   5.474
 7516SOL    HW123447   7.013   6.139   5.508
 7516SOL    HW223448   6.966   6.223   5.376
 7517SOL     OW23449   0.092   2.505   0.391
 7517SOL    HW123450   0.038   2.458   0.321
 7517SOL    HW223451   0.189   2.483   0.378
 7518SOL     OW23452   4.340   4.700   3.615
 7518SOL    HW123453   4.302   4.746   3.535
 7518SOL    HW223454   4.431   4.737   3.636
 7519SOL     OW23455   0.649   6.237   3.528
 7519SOL    HW123456   0.566   6.240   3.585
 7519SOL    HW223457   0.623   6.224   3.432
 7520SOL     OW23458   1.951   6.928   2.385
 7520SOL    HW123459   1.930   6.888   2.296
 7520SOL    HW223460   1.962   6.855   2.453
 7521SOL     OW23461   4.738   4.172   5.686
 7521SOL    HW123462   4.762   4.259   5.729
 7521SOL    HW223463   4.798   4.100   5.720
 7522SOL     OW23464   1.619   1.397   5.871
 7522SOL    HW123465   1.650   1.468   5.935
 7522SOL    HW223466   1.638   1.425   5.777
 7523SOL     OW23467   5.967   0.613   6.473
 7523SOL    HW123468   5.977   0.696   6.418
 7523SOL    HW223469   5.912   0.632   6.554
 7524SOL     OW23470   1.337   2.550   5.489
 7524SOL    HW123471   1.338   2.450   5.487
 7524SOL    HW223472   1.429   2.584   5.505
 7525SOL     OW23473   3.874   0.925   5.910
 7525SOL    HW123474   3.853   1.017   5.878
 7525SOL    HW223475   3.874   0.923   6.010
 7526SOL     OW23476   3.117   3.502   1.351
 7526SOL    HW123477   3.024   3.503   1.314
 7526SOL    HW223478   3.126   3.574   1.420
 7527SOL     OW23479   3.003   6.184   3.248
 7527SOL    HW123480   2.950   6.135   3.318
 7527SOL    HW223481   3.023   6.276   3.281
 7528SOL     OW23482   5.933   2.540   0.941
 7528SOL    HW123483   5.987   2.488   0.875
 7528SOL    HW223484   5.971   2.529   1.032
 7529SOL     OW23485   4.680   1.590   4.677
 7529SOL    HW123486   4.587   1.568   4.649
 7529SOL    HW223487   4.679   1.673   4.733
 7530SOL     OW23488   6.980   3.077   2.182
 7530SOL    HW123489   7.000   3.170   2.213
 7530SOL    HW223490   0.017   3.056   2.102
 7531SOL     OW23491   5.458   3.350   4.877
 7531SOL    HW123492   5.384   3.285   4.897
 7531SOL    HW223493   5.426   3.418   4.810
 7532SOL     OW23494   4.456   5.527   6.828
 7532SOL    HW123495   4.452   5.604   6.765
 7532SOL    HW223496   4.384   5.462   6.806
 7533SOL     OW23497   3.188   0.823   1.444
 7533SOL    HW123498   3.108   0.789   1.395
 7533SOL    HW223499   3.192   0.782   1.535
 7534SOL     OW23500   4.601   6.674   5.497
 7534SOL    HW123501   4.615   6.751   5.558
 7534SOL    HW223502   4.508   6.639   5.509
 7535SOL     OW23503   2.083   0.797   5.012
 7535SOL    HW123504   2.022   0.786   4.934
 7535SOL    HW223505   2.156   0.729   5.007
 7536SOL     OW23506   4.674   4.861   4.260
 7536SOL    HW123507   4.588   4.904   4.284
 7536SOL    HW223508   4.659   4.795   4.185
 7537SOL     OW23509   2.792   5.563   1.470
 7537SOL    HW123510   2.698   5.543   1.498
 7537SOL    HW223511   2.846   5.479   1.475
 7538SOL     OW23512   1.536   2.387   1.141
 7538SOL    HW123513   1.632   2.361   1.139
 7538SOL    HW223514   1.488   2.345   1.064
 7539SOL     OW23515   1.879   3.756   3.871
 7539SOL    HW123516   1.825   3.680   3.835
 7539SOL    HW223517   1.818   3.832   3.893
 7540SOL     OW23518   4.432   0.621   4.549
 7540SOL    HW123519   4.345   0.588   4.514
 7540SOL    HW223520   4.416   0.699   4.610
 7541SOL     OW23521   0.491   4.598   5.193
 7541SOL    HW123522   0.450   4.521   5.241
 7541SOL    HW223523   0.533   4.566   5.108
 7542SOL     OW23524   1.280   4.926   6.642
 7542SOL    HW123525   1.261   4.845   6.698
 7542SOL    HW223526   1.371   4.962   6.667
 7543SOL     OW23527   4.407   1.938   6.468
 7543SOL    HW123528   4.331   1.931   6.533
 7543SOL    HW223529   4.412   2.030   6.432
 7544SOL     OW23530   6.772   2.383   2.740
 7544SOL    HW123531   6.755   2.367   2.838
 7544SOL    HW223532   6.697   2.345   2.687
 7545SOL     OW23533   0.100   5.051   0.442
 7545SOL    HW123534   0.148   5.075   0.358
 7545SOL    HW223535   0.017   5.108   0.450
 7546SOL     OW23536   3.604   2.543   1.713
 7546SOL    HW123537   3.675   2.612   1.712
 7546SOL    HW223538   3.633   2.465   1.768
 7547SOL     OW23539   5.001   1.879   0.263
 7547SOL    HW123540   4.976   1.932   0.344
 7547SOL    HW223541   5.101   1.875   0.254
 7548SOL     OW23542   4.833   1.384   6.685
 7548SOL    HW123543   4.752   1.409   6.631
 7548SOL    HW223544   4.852   1.287   6.675
 7549SOL     OW23545   3.668   2.756   6.915
 7549SOL    HW123546   3.749   2.708   6.947
 7549SOL    HW223547   3.688   2.803   6.829
 7550SOL     OW23548   2.472   5.071   3.397
 7550SOL    HW123549   2.377   5.097   3.377
 7550SOL    HW223550   2.521   5.151   3.433
 7551SOL     OW23551   5.499   3.638   6.331
 7551SOL    HW123552   5.433   3.565   6.315
 7551SOL    HW223553   5.585   3.599   6.363
 7552SOL     OW23554   1.429   5.894   2.793
 7552SOL    HW123555   1.413   5.875   2.890
 7552SOL    HW223556   1.525   5.880   2.772
 7553SOL     OW23557   4.575   6.318   5.543
 7553SOL    HW123558   4.659   6.371   5.554
 7553SOL    HW223559   4.496   6.378   5.549
 7554SOL     OW23560   4.777   1.252   0.167
 7554SOL    HW123561   4.683   1.283   0.150
 7554SOL    HW223562   4.789   1.234   0.265
 7555SOL     OW23563   2.157   4.725   6.089
 7555SOL    HW123564   2.107   4.680   6.016
 7555SOL    HW223565   2.231   4.665   6.120
 7556SOL     OW23566   2.296   2.946   0.411
 7556SOL    HW123567   2.248   2.878   0.355
 7556SOL    HW223568   2.383   2.907   0.444
 7557SOL     OW23569   5.462   1.384   5.602
 7557SOL    HW123570   5.431   1.361   5.695
 7557SOL    HW223571   5.389   1.364   5.537
 7558SOL     OW23572   1.656   2.336   4.206
 7558SOL    HW123573   1.735   2.281   4.180
 7558SOL    HW223574   1.617   2.379   4.125
 7559SOL     OW23575   4.960   3.893   0.605
 7559SOL    HW123576   5.021   3.821   0.637
 7559SOL    HW223577   5.015   3.967   0.565
 7560SOL     OW23578   5.372   6.748   1.151
 7560SOL    HW123579   5.356   6.649   1.149
 7560SOL    HW223580   5.467   6.765   1.175
 7561SOL     OW23581   1.049   3.023   6.732
 7561SOL    HW123582   1.148   3.024   6.719
 7561SOL    HW223583   1.007   3.094   6.676
 7562SOL     OW23584   0.305   5.694   4.357
 7562SOL    HW123585   0.369   5.677   4.431
 7562SOL    HW223586   0.317   5.788   4.324
 7563SOL     OW23587   3.137   0.110   1.139
 7563SOL    HW123588   3.144   0.055   1.223
 7563SOL    HW223589   3.042   0.115   1.110
 7564SOL     OW23590   4.010   6.713   3.223
 7564SOL    HW123591   4.030   6.750   3.313
 7564SOL    HW223592   3.918   6.739   3.195
 7565SOL     OW23593   5.411   2.879   0.369
 7565SOL    HW123594   5.458   2.823   0.438
 7565SOL    HW223595   5.479   2.928   0.315
 7566SOL     OW23596   6.594   4.389   3.105
 7566SOL    HW123597   6.691   4.406   3.122
 7566SOL    HW223598   6.552   4.472   3.067
 7567SOL     OW23599   1.697   1.812   5.260
 7567SOL    HW123600   1.602   1.804   5.290
 7567SOL    HW223601   1.738   1.894   5.301
 7568SOL     OW23602   4.969   6.190   3.405
 7568SOL    HW123603   4.900   6.251   3.365
 7568SOL    HW223604   5.016   6.237   3.480
 7569SOL     OW23605   3.975   4.939   5.857
 7569SOL    HW123606   4.023   5.027   5.860
 7569SOL    HW223607   3.967   4.902   5.949
 7570SOL     OW23608   5.203   3.591   5.158
 7570SOL    HW123609   5.288   3.621   5.200
 7570SOL    HW223610   5.128   3.600   5.224
 7571SOL     OW23611   4.145   4.723   3.334
 7571SOL    HW123612   4.094   4.771   3.263
 7571SOL    HW223613   4.227   4.682   3.294
 7572SOL     OW23614   4.224   1.050   1.600
 7572SOL    HW123615   4.258   1.055   1.505
 7572SOL    HW223616   4.282   1.107   1.659
 7573SOL     OW23617   0.409   0.411   5.350
 7573SOL    HW123618   0.423   0.478   5.423
 7573SOL    HW223619   0.369   0.328   5.389
 7574SOL     OW23620   5.311   0.399   5.406
 7574SOL    HW123621   5.228   0.453   5.424
 7574SOL    HW223622   5.321   0.386   5.307
 7575SOL     OW23623   5.429   0.995   6.331
 7575SOL    HW123624   5.518   0.960   6.304
 7575SOL    HW223625   5.357   0.934   6.298
 7576SOL     OW23626   4.471   3.414   0.539
 7576SOL    HW123627   4.560   3.392   0.578
 7576SOL    HW223628   4.423   3.478   0.599
 7577SOL     OW23629   1.143   6.988   6.893
 7577SOL    HW123630   1.190   6.905   6.861
 7577SOL    HW223631   1.142   6.989   6.993
 7578SOL     OW23632   2.504   5.034   1.419
 7578SOL    HW123633   2.486   4.942   1.453
 7578SOL    HW223634   2.432   5.060   1.354
 7579SOL     OW23635   0.732   1.174   2.650
 7579SOL    HW123636   0.676   1.179   2.732
 7579SOL    HW223637   0.675   1.149   2.572
 7580SOL     OW23638   0.842   4.036   4.499
 7580SOL    HW123639   0.877   3.949   4.532
 7580SOL    HW223640   0.916   4.089   4.458
 7581SOL     OW23641   6.986   1.665   2.222
 7581SOL    HW123642   6.986   1.565   2.229
 7581SOL    HW223643   0.028   1.693   2.148
 7582SOL     OW23644   3.945   1.026   1.627
 7582SOL    HW123645   3.902   1.011   1.538
 7582SOL    HW223646   4.040   1.057   1.613
 7583SOL     OW23647   5.963   2.888   2.254
 7583SOL    HW123648   5.885   2.874   2.193
 7583SOL    HW223649   5.935   2.869   2.348
 7584SOL     OW23650   3.736   0.342   2.159
 7584SOL    HW123651   3.771   0.431   2.131
 7584SOL    HW223652   3.683   0.351   2.243
 7585SOL     OW23653   1.958   2.866   6.820
 7585SOL    HW123654   2.057   2.856   6.818
 7585SOL    HW223655   1.935   2.962   6.838
 7586SOL     OW23656   3.145   0.434   3.472
 7586SOL    HW123657   3.069   0.375   3.445
 7586SOL    HW223658   3.119   0.487   3.553
 7587SOL     OW23659   2.247   2.325   0.004
 7587SOL    HW123660   2.203   2.351   6.937
 7587SOL    HW223661   2.194   2.251   0.046
 7588SOL     OW23662   1.283   2.607   3.925
 7588SOL    HW123663   1.254   2.542   3.995
 7588SOL    HW223664   1.355   2.666   3.963
 7589SOL     OW23665   0.316   0.500   2.273
 7589SOL    HW123666   0.308   0.411   2.227
 7589SOL    HW223667   0.291   0.573   2.210
 7590SOL     OW23668   3.504   2.432   6.178
 7590SOL    HW123669   3.554   2.405   6.260
 7590SOL    HW223670   3.548   2.393   6.097
 7591SOL     OW23671   6.760   3.509   0.950
 7591SOL    HW123672   6.730   3.563   1.029
 7591SOL    HW223673   6.834   3.557   0.903
 7592SOL     OW23674   6.943   5.311   4.815
 7592SOL    HW123675   6.967   5.408   4.827
 7592SOL    HW223676   6.846   5.303   4.793
 7593SOL     OW23677   6.141   3.082   0.127
 7593SOL    HW123678   6.160   3.055   0.033
 7593SOL    HW223679   6.196   3.027   0.189
 7594SOL     OW23680   1.551   4.516   2.306
 7594SOL    HW123681   1.472   4.461   2.333
 7594SOL    HW223682   1.616   4.459   2.254
 7595SOL     OW23683   6.053   2.811   5.867
 7595SOL    HW123684   6.018   2.905   5.865
 7595SOL    HW223685   6.130   2.802   5.804
 7596SOL     OW23686   4.057   6.009   3.493
 7596SOL    HW123687   4.007   6.052   3.418
 7596SOL    HW223688   4.156   6.021   3.478
 7597SOL     OW23689   2.195   6.744   3.176
 7597SOL    HW123690   2.238   6.658   3.203
 7597SOL    HW223691   2.264   6.816   3.172
 7598SOL     OW23692   0.077   1.024   3.282
 7598SOL    HW123693   7.009   0.991   3.246
 7598SOL    HW223694   0.061   1.105   3.338
 7599SOL     OW23695   5.700   1.787   2.642
 7599SOL    HW123696   5.631   1.831   2.584
 7599SOL    HW223697   5.782   1.769   2.588
 7600SOL     OW23698   1.434   1.398   3.185
 7600SOL    HW123699   1.434   1.495   3.210
 7600SOL    HW223700   1.340   1.363   3.186
 7601SOL     OW23701   1.956   4.565   2.243
 7601SOL    HW123702   1.936   4.631   2.315
 7601SOL    HW223703   1.871   4.534   2.201
 7602SOL     OW23704   2.382   3.518   6.411
 7602SOL    HW123705   2.395   3.465   6.327
 7602SOL    HW223706   2.471   3.529   6.457
 7603SOL     OW23707   1.453   5.453   6.011
 7603SOL    HW123708   1.514   5.374   6.017
 7603SOL    HW223709   1.491   5.528   6.065
 7604SOL     OW23710   2.119   3.780   4.807
 7604SOL    HW123711   2.101   3.845   4.880
 7604SOL    HW223712   2.144   3.692   4.846
 7605SOL     OW23713   1.276   0.904   1.847
 7605SOL    HW123714   1.302   0.999   1.865
 7605SOL    HW223715   1.348   0.843   1.882
 7606SOL     OW23716   6.173   4.361   4.885
 7606SOL    HW123717   6.239   4.353   4.959
 7606SOL    HW223718   6.157   4.457   4.863
 7607SOL     OW23719   3.432   5.477   6.955
 7607SOL    HW123720   3.391   5.438   0.017
 7607SOL    HW223721   3.386   5.564   6.932
 7608SOL     OW23722   3.828   4.080   1.391
 7608SOL    HW123723   3.760   4.145   1.425
 7608SOL    HW223724   3.863   4.025   1.467
 7609SOL     OW23725   1.292   2.853   4.778
 7609SOL    HW123726   1.285   2.943   4.821
 7609SOL    HW223727   1.319   2.786   4.846
 7610SOL     OW23728   4.289   4.518   6.069
 7610SOL    HW123729   4.338   4.574   6.136
 7610SOL    HW223730   4.214   4.571   6.030
 7611SOL     OW23731   5.988   3.784   1.522
 7611SOL    HW123732   5.940   3.697   1.510
 7611SOL    HW223733   6.084   3.767   1.545
 7612SOL     OW23734   4.985   3.144   2.144
 7612SOL    HW123735   4.912   3.128   2.077
 7612SOL    HW223736   5.074   3.132   2.099
 7613SOL     OW23737   6.839   2.599   0.833
 7613SOL    HW123738   6.919   2.582   0.775
 7613SOL    HW223739   6.756   2.598   0.776
 7614SOL     OW23740   5.088   3.512   0.913
 7614SOL    HW123741   5.129   3.425   0.889
 7614SOL    HW223742   5.090   3.525   1.012
 7615SOL     OW23743   3.850   4.997   6.962
 7615SOL    HW123744   3.810   5.008   0.034
 7615SOL    HW223745   3.827   5.076   6.907
 7616SOL     OW23746   6.123   6.303   4.234
 7616SOL    HW123747   6.216   6.275   4.258
 7616SOL    HW223748   6.127   6.373   4.163
 7617SOL     OW23749   4.162   6.444   2.689
 7617SOL    HW123750   4.223   6.517   2.658
 7617SOL    HW223751   4.143   6.455   2.786
 7618SOL     OW23752   6.979   2.050   5.666
 7618SOL    HW123753   6.985   2.029   5.764
 7618SOL    HW223754   6.928   2.135   5.654
 7619SOL     OW23755   6.620   3.166   5.080
 7619SOL    HW123756   6.548   3.097   5.087
 7619SOL    HW223757   6.586   3.244   5.028
 7620SOL     OW23758   4.052   5.662   1.530
 7620SOL    HW123759   3.969   5.606   1.519
 7620SOL    HW223760   4.044   5.745   1.474
 7621SOL     OW23761   6.691   1.132   1.108
 7621SOL    HW123762   6.599   1.161   1.081
 7621SOL    HW223763   6.701   1.034   1.091
 7622SOL     OW23764   4.275   4.988   6.619
 7622SOL    HW123765   4.239   5.007   6.710
 7622SOL    HW223766   4.330   5.065   6.587
 7623SOL     OW23767   4.914   3.310   6.879
 7623SOL    HW123768   4.928   3.361   6.794
 7623SOL    HW223769   4.832   3.253   6.870
 7624SOL     OW23770   6.876   3.666   5.020
 7624SOL    HW123771   6.823   3.585   4.996
 7624SOL    HW223772   6.971   3.652   4.992
 7625SOL     OW23773   4.962   0.828   1.331
 7625SOL    HW123774   4.934   0.733   1.342
 7625SOL    HW223775   4.983   0.845   1.235
 7626SOL     OW23776   6.563   0.335   3.967
 7626SOL    HW123777   6.572   0.325   3.868
 7626SOL    HW223778   6.529   0.250   4.007
 7627SOL     OW23779   4.939   3.249   0.186
 7627SOL    HW123780   4.950   3.206   0.096
 7627SOL    HW223781   4.927   3.347   0.174
 7628SOL     OW23782   3.513   2.200   1.724
 7628SOL    HW123783   3.584   2.247   1.776
 7628SOL    HW223784   3.488   2.115   1.770
 7629SOL     OW23785   0.156   5.367   3.416
 7629SOL    HW123786   0.118   5.439   3.474
 7629SOL    HW223787   0.229   5.320   3.466
 7630SOL     OW23788   0.575   0.028   1.514
 7630SOL    HW123789   0.653   6.991   1.489
 7630SOL    HW223790   0.526   0.057   1.431
 7631SOL     OW23791   0.655   1.252   5.989
 7631SOL    HW123792   0.582   1.189   6.015
 7631SOL    HW223793   0.714   1.269   6.068
 7632SOL     OW23794   4.760   4.373   1.523
 7632SOL    HW123795   4.680   4.328   1.562
 7632SOL    HW223796   4.843   4.334   1.564
 7633SOL     OW23797   5.461   0.046   1.918
 7633SOL    HW123798   5.444   6.973   1.883
 7633SOL    HW223799   5.418   0.056   2.008
 7634SOL     OW23800   1.762   1.766   2.118
 7634SOL    HW123801   1.737   1.706   2.042
 7634SOL    HW223802   1.743   1.720   2.205
 7635SOL     OW23803   3.456   5.086   5.396
 7635SOL    HW123804   3.486   5.052   5.485
 7635SOL    HW223805   3.367   5.046   5.373
 7636SOL     OW23806   1.909   2.921   3.945
 7636SOL    HW123807   1.888   2.950   4.039
 7636SOL    HW223808   1.994   2.964   3.915
 7637SOL     OW23809   2.784   5.903   2.147
 7637SOL    HW123810   2.872   5.940   2.176
 7637SOL    HW223811   2.729   5.976   2.107
 7638SOL     OW23812   2.388   5.849   1.235
 7638SOL    HW123813   2.465   5.797   1.197
 7638SOL    HW223814   2.423   5.919   1.297
 7639SOL     OW23815   0.269   1.759   0.960
 7639SOL    HW123816   0.266   1.662   0.935
 7639SOL    HW223817   0.358   1.780   1.000
 7640SOL     OW23818   3.044   1.401   5.658
 7640SOL    HW123819   3.079   1.339   5.588
 7640SOL    HW223820   2.945   1.408   5.651
 7641SOL     OW23821   1.661   3.618   2.362
 7641SOL    HW123822   1.590   3.585   2.425
 7641SOL    HW223823   1.670   3.717   2.371
 7642SOL     OW23824   3.477   2.127   2.743
 7642SOL    HW123825   3.563   2.087   2.713
 7642SOL    HW223826   3.486   2.157   2.839
 7643SOL     OW23827   4.541   2.467   3.271
 7643SOL    HW123828   4.604   2.534   3.233
 7643SOL    HW223829   4.550   2.380   3.222
 7644SOL     OW23830   4.519   2.275   1.789
 7644SOL    HW123831   4.591   2.287   1.722
 7644SOL    HW223832   4.433   2.250   1.743
 7645SOL     OW23833   4.909   4.187   5.441
 7645SOL    HW123834   4.927   4.089   5.455
 7645SOL    HW223835   4.847   4.219   5.512
 7646SOL     OW23836   1.466   2.986   3.746
 7646SOL    HW123837   1.527   2.906   3.745
 7646SOL    HW223838   1.485   3.044   3.667
 7647SOL     OW23839   6.414   2.528   3.493
 7647SOL    HW123840   6.467   2.449   3.461
 7647SOL    HW223841   6.372   2.507   3.581
 7648SOL     OW23842   2.860   1.467   3.207
 7648SOL    HW123843   2.817   1.398   3.150
 7648SOL    HW223844   2.899   1.424   3.288
 7649SOL     OW23845   1.176   0.673   3.558
 7649SOL    HW123846   1.231   0.723   3.625
 7649SOL    HW223847   1.213   0.687   3.467
 7650SOL     OW23848   5.415   1.327   0.496
 7650SOL    HW123849   5.458   1.259   0.437
 7650SOL    HW223850   5.386   1.405   0.442
 7651SOL     OW23851   2.231   0.572   3.677
 7651SOL    HW123852   2.192   0.481   3.694
 7651SOL    HW223853   2.256   0.579   3.580
 7652SOL     OW23854   5.758   3.231   5.318
 7652SOL    HW123855   5.798   3.169   5.251
 7652SOL    HW223856   5.776   3.325   5.291
 7653SOL     OW23857   0.614   2.040   6.860
 7653SOL    HW123858   0.623   1.941   6.870
 7653SOL    HW223859   0.654   2.085   6.940
 7654SOL     OW23860   4.768   2.892   4.404
 7654SOL    HW123861   4.712   2.859   4.480
 7654SOL    HW223862   4.735   2.851   4.319
 7655SOL     OW23863   4.430   6.546   3.308
 7655SOL    HW123864   4.427   6.635   3.354
 7655SOL    HW223865   4.340   6.503   3.314
 7656SOL     OW23866   3.645   3.912   6.619
 7656SOL    HW123867   3.739   3.947   6.613
 7656SOL    HW223868   3.646   3.812   6.617
 7657SOL     OW23869   0.953   2.150   3.578
 7657SOL    HW123870   1.040   2.197   3.591
 7657SOL    HW223871   0.881   2.197   3.630
 7658SOL     OW23872   3.336   0.309   6.750
 7658SOL    HW123873   3.240   0.326   6.771
 7658SOL    HW223874   3.387   0.293   6.834
 7659SOL     OW23875   5.672   4.661   6.763
 7659SOL    HW123876   5.733   4.619   6.697
 7659SOL    HW223877   5.596   4.599   6.784
 7660SOL     OW23878   0.311   5.868   3.416
 7660SOL    HW123879   0.337   5.819   3.333
 7660SOL    HW223880   0.267   5.954   3.392
 7661SOL     OW23881   5.254   2.206   4.915
 7661SOL    HW123882   5.226   2.294   4.952
 7661SOL    HW223883   5.329   2.219   4.850
 7662SOL     OW23884   1.635   2.941   4.345
 7662SOL    HW123885   1.651   2.947   4.444
 7662SOL    HW223886   1.555   2.884   4.327
 7663SOL     OW23887   6.772   5.633   5.907
 7663SOL    HW123888   6.687   5.652   5.955
 7663SOL    HW223889   6.831   5.713   5.910
 7664SOL     OW23890   3.827   0.665   1.520
 7664SOL    HW123891   3.908   0.638   1.467
 7664SOL    HW223892   3.856   0.704   1.607
 7665SOL     OW23893   5.925   0.860   4.691
 7665SOL    HW123894   5.958   0.923   4.761
 7665SOL    HW223895   5.962   0.769   4.708
 7666SOL     OW23896   0.773   5.215   1.904
 7666SOL    HW123897   0.827   5.299   1.891
 7666SOL    HW223898   0.831   5.145   1.947
 7667SOL     OW23899   4.406   0.231   2.079
 7667SOL    HW123900   4.349   0.188   2.149
 7667SOL    HW223901   4.498   0.247   2.115
 7668SOL     OW23902   3.253   5.268   0.686
 7668SOL    HW123903   3.200   5.184   0.670
 7668SOL    HW223904   3.350   5.250   0.667
 7669SOL     OW23905   4.780   1.170   5.264
 7669SOL    HW123906   4.775   1.156   5.165
 7669SOL    HW223907   4.713   1.111   5.310
 7670SOL     OW23908   0.782   4.673   0.521
 7670SOL    HW123909   0.833   4.757   0.502
 7670SOL    HW223910   0.685   4.695   0.534
 7671SOL     OW23911   3.773   1.141   1.782
 7671SOL    HW123912   3.698   1.098   1.732
 7671SOL    HW223913   3.860   1.115   1.740
 7672SOL     OW23914   0.176   6.389   2.625
 7672SOL    HW123915   0.215   6.452   2.557
 7672SOL    HW223916   0.081   6.369   2.601
 7673SOL     OW23917   1.142   6.520   1.422
 7673SOL    HW123918   1.173   6.584   1.352
 7673SOL    HW223919   1.135   6.428   1.383
 7674SOL     OW23920   4.670   0.845   3.448
 7674SOL    HW123921   4.601   0.779   3.476
 7674SOL    HW223922   4.753   0.832   3.503
 7675SOL     OW23923   6.147   6.725   2.794
 7675SOL    HW123924   6.047   6.732   2.792
 7675SOL    HW223925   6.179   6.676   2.713
 7676SOL     OW23926   2.397   1.980   0.474
 7676SOL    HW123927   2.440   1.972   0.564
 7676SOL    HW223928   2.386   1.889   0.435
 7677SOL     OW23929   0.886   4.886   1.350
 7677SOL    HW123930   0.894   4.844   1.440
 7677SOL    HW223931   0.886   4.815   1.280
 7678SOL     OW23932   2.348   2.741   5.231
 7678SOL    HW123933   2.394   2.828   5.214
 7678SOL    HW223934   2.404   2.666   5.194
 7679SOL     OW23935   3.341   6.402   5.817
 7679SOL    HW123936   3.388   6.478   5.773
 7679SOL    HW223937   3.242   6.416   5.812
 7680SOL     OW23938   1.557   0.913   0.650
 7680SOL    HW123939   1.586   1.000   0.610
 7680SOL    HW223940   1.571   0.839   0.583
 7681SOL     OW23941   2.426   0.734   0.994
 7681SOL    HW123942   2.472   0.720   0.906
 7681SOL    HW223943   2.329   0.752   0.978
 7682SOL     OW23944   3.612   0.496   1.677
 7682SOL    HW123945   3.677   0.543   1.618
 7682SOL    HW223946   3.559   0.431   1.622
 7683SOL     OW23947   5.905   2.178   4.605
 7683SOL    HW123948   5.971   2.206   4.674
 7683SOL    HW223949   5.882   2.081   4.618
 7684SOL     OW23950   3.698   1.870   1.317
 7684SOL    HW123951   3.652   1.888   1.404
 7684SOL    HW223952   3.657   1.790   1.273
 7685SOL     OW23953   2.920   1.842   5.809
 7685SOL    HW123954   2.855   1.881   5.745
 7685SOL    HW223955   2.997   1.904   5.821
 7686SOL     OW23956   0.046   6.714   3.103
 7686SOL    HW123957   0.134   6.712   3.150
 7686SOL    HW223958   7.013   6.633   3.128
 7687SOL     OW23959   6.093   5.276   3.715
 7687SOL    HW123960   5.996   5.251   3.716
 7687SOL    HW223961   6.128   5.276   3.808
 7688SOL     OW23962   1.025   6.220   5.090
 7688SOL    HW123963   1.049   6.172   5.174
 7688SOL    HW223964   0.993   6.155   5.022
 7689SOL     OW23965   5.551   6.165   2.259
 7689SOL    HW123966   5.572   6.263   2.256
 7689SOL    HW223967   5.530   6.133   2.167
 7690SOL     OW23968   5.686   4.401   0.207
 7690SOL    HW123969   5.663   4.304   0.193
 7690SOL    HW223970   5.754   4.409   0.279
 7691SOL     OW23971   4.988   3.606   4.305
 7691SOL    HW123972   4.930   3.525   4.302
 7691SOL    HW223973   5.050   3.600   4.383
 7692SOL     OW23974   0.689   6.486   1.777
 7692SOL    HW123975   0.668   6.389   1.784
 7692SOL    HW223976   0.688   6.528   1.867
 7693SOL     OW23977   3.450   6.809   1.788
 7693SOL    HW123978   3.450   6.806   1.887
 7693SOL    HW223979   3.429   6.902   1.757
 7694SOL     OW23980   5.218   3.941   4.234
 7694SOL    HW123981   5.169   3.914   4.151
 7694SOL    HW223982   5.205   4.038   4.250
 7695SOL     OW23983   4.666   6.945   0.758
 7695SOL    HW123984   4.667   0.011   0.811
 7695SOL    HW223985   4.572   6.913   0.750
 7696SOL     OW23986   0.259   0.691   6.134
 7696SOL    HW123987   0.327   0.631   6.176
 7696SOL    HW223988   0.212   0.642   6.061
 7697SOL     OW23989   2.545   0.088   3.049
 7697SOL    HW123990   2.644   0.075   3.058
 7697SOL    HW223991   2.504   0.007   3.010
 7698SOL     OW23992   5.658   1.934   4.276
 7698SOL    HW123993   5.592   1.951   4.203
 7698SOL    HW223994   5.652   1.838   4.304
 7699SOL     OW23995   3.263   5.882   6.103
 7699SOL    HW123996   3.353   5.850   6.131
 7699SOL    HW223997   3.203   5.804   6.086
 7700SOL     OW23998   4.712   5.847   3.037
 7700SOL    HW123999   4.648   5.813   3.106
 7700SOL    HW224000   4.782   5.904   3.082
 7701SOL     OW24001   6.260   2.051   0.535
 7701SOL    HW124002   6.315   2.082   0.612
 7701SOL    HW224003   6.321   2.027   0.459
 7702SOL     OW24004   3.724   6.278   4.844
 7702SOL    HW124005   3.814   6.253   4.810
 7702SOL    HW224006   3.660   6.202   4.831
 7703SOL     OW24007   6.263   5.946   6.358
 7703SOL    HW124008   6.170   5.970   6.388
 7703SOL    HW224009   6.284   5.994   6.273
 7704SOL     OW24010   5.932   0.381   4.585
 7704SOL    HW124011   5.851   0.331   4.616
 7704SOL    HW224012   5.904   0.447   4.514
 7705SOL     OW24013   2.604   6.263   0.561
 7705SOL    HW124014   2.553   6.185   0.598
 7705SOL    HW224015   2.584   6.272   0.463
 7706SOL     OW24016   3.739   3.756   4.638
 7706SOL    HW124017   3.772   3.846   4.663
 7706SOL    HW224018   3.799   3.715   4.570
 7707SOL     OW24019   0.277   4.814   5.647
 7707SOL    HW124020   0.274   4.910   5.617
 7707SOL    HW224021   0.301   4.811   5.744
 7708SOL     OW24022   1.148   6.734   6.011
 7708SOL    HW124023   1.234   6.725   5.961
 7708SOL    HW224024   1.081   6.780   5.953
 7709SOL     OW24025   6.567   4.589   2.315
 7709SOL    HW124026   6.574   4.491   2.334
 7709SOL    HW224027   6.473   4.610   2.287
 7710SOL     OW24028   3.270   2.335   0.156
 7710SOL    HW124029   3.294   2.413   0.214
 7710SOL    HW224030   3.172   2.320   0.158
 7711SOL     OW24031   5.296   6.795   6.176
 7711SOL    HW124032   5.265   6.747   6.258
 7711SOL    HW224033   5.384   6.839   6.194
 7712SOL     OW24034   0.229   5.090   1.652
 7712SOL    HW124035   0.324   5.059   1.655
 7712SOL    HW224036   0.170   5.022   1.695
 7713SOL     OW24037   1.297   4.035   0.771
 7713SOL    HW124038   1.236   3.977   0.718
 7713SOL    HW224039   1.262   4.128   0.774
 7714SOL     OW24040   0.126   4.264   4.946
 7714SOL    HW124041   0.045   4.205   4.946
 7714SOL    HW224042   0.134   4.310   5.034
 7715SOL     OW24043   3.033   2.435   0.354
 7715SOL    HW124044   3.068   2.388   0.436
 7715SOL    HW224045   3.011   2.368   0.284
 7716SOL     OW24046   0.071   4.854   1.745
 7716SOL    HW124047   0.034   4.824   1.833
 7716SOL    HW224048   0.010   4.825   1.672
 7717SOL     OW24049   1.888   0.957   6.208
 7717SOL    HW124050   1.919   1.052   6.220
 7717SOL    HW224051   1.963   0.895   6.226
 7718SOL     OW24052   6.605   3.962   3.367
 7718SOL    HW124053   6.566   4.013   3.291
 7718SOL    HW224054   6.578   3.866   3.359
 7719SOL     OW24055   0.176   4.336   5.194
 7719SOL    HW124056   0.269   4.333   5.231
 7719SOL    HW224057   0.116   4.385   5.257
 7720SOL     OW24058   6.640   2.127   6.416
 7720SOL    HW124059   6.581   2.190   6.365
 7720SOL    HW224060   6.631   2.035   6.377
 7721SOL     OW24061   0.421   5.329   2.323
 7721SOL    HW124062   0.359   5.392   2.276
 7721SOL    HW224063   0.419   5.346   2.421
 7722SOL     OW24064   1.295   4.092   3.217
 7722SOL    HW124065   1.233   4.166   3.243
 7722SOL    HW224066   1.254   4.004   3.242
 7723SOL     OW24067   4.722   3.632   6.235
 7723SOL    HW124068   4.633   3.607   6.196
 7723SOL    HW224069   4.780   3.551   6.238
 7724SOL     OW24070   2.599   3.760   1.016
 7724SOL    HW124071   2.653   3.677   1.000
 7724SOL    HW224072   2.507   3.734   1.044
 7725SOL     OW24073   6.324   1.809   2.303
 7725SOL    HW124074   6.289   1.903   2.305
 7725SOL    HW224075   6.420   1.810   2.275
 7726SOL     OW24076   1.802   5.360   5.790
 7726SOL    HW124077   1.842   5.451   5.805
 7726SOL    HW224078   1.863   5.306   5.733
 7727SOL     OW24079   0.113   2.083   2.895
 7727SOL    HW124080   0.127   1.993   2.852
 7727SOL    HW224081   0.180   2.095   2.969
 7728SOL     OW24082   2.123   3.086   5.149
 7728SOL    HW124083   2.143   3.176   5.188
 7728SOL    HW224084   2.209   3.041   5.124
 7729SOL     OW24085   6.089   2.040   1.511
 7729SOL    HW124086   6.076   2.091   1.426
 7729SOL    HW224087   6.021   2.069   1.579
 7730SOL     OW24088   6.764   5.002   0.082
 7730SOL    HW124089   6.837   4.934   0.092
 7730SOL    HW224090   6.779   5.076   0.147
 7731SOL     OW24091   6.108   1.143   6.999
 7731SOL    HW124092   6.026   1.196   0.002
 7731SOL    HW224093   6.123   1.072   0.049
 7732SOL     OW24094   4.896   6.824   0.350
 7732SOL    HW124095   4.941   6.908   0.319
 7732SOL    HW224096   4.963   6.768   0.399
 7733SOL     OW24097   5.215   6.087   2.451
 7733SOL    HW124098   5.303   6.042   2.469
 7733SOL    HW224099   5.204   6.165   2.513
 7734SOL     OW24100   1.357   4.747   4.118
 7734SOL    HW124101   1.345   4.846   4.105
 7734SOL    HW224102   1.439   4.731   4.172
 7735SOL     OW24103   4.934   6.451   6.607
 7735SOL    HW124104   4.983   6.528   6.647
 7735SOL    HW224105   4.876   6.408   6.676
 7736SOL     OW24106   2.688   2.931   6.635
 7736SOL    HW124107   2.669   2.898   6.543
 7736SOL    HW224108   2.751   2.869   6.681
 7737SOL     OW24109   2.634   6.541   2.672
 7737SOL    HW124110   2.655   6.449   2.704
 7737SOL    HW224111   2.649   6.546   2.573
 7738SOL     OW24112   3.182   5.620   0.214
 7738SOL    HW124113   3.246   5.636   0.290
 7738SOL    HW224114   3.108   5.560   0.245
 7739SOL     OW24115   6.853   2.144   1.641
 7739SOL    HW124116   6.822   2.102   1.557
 7739SOL    HW224117   6.929   2.091   1.679
 7740SOL     OW24118   2.546   1.018   3.163
 7740SOL    HW124119   2.463   0.963   3.168
 7740SOL    HW224120   2.537   1.086   3.090
 7741SOL     OW24121   0.350   5.184   6.205
 7741SOL    HW124122   0.381   5.240   6.129
 7741SOL    HW224123   0.251   5.195   6.217
 7742SOL     OW24124   4.021   2.154   2.721
 7742SOL    HW124125   4.055   2.060   2.717
 7742SOL    HW224126   4.070   2.205   2.791
 7743SOL     OW24127   5.272   1.939   0.280
 7743SOL    HW124128   5.313   1.976   0.197
 7743SOL    HW224129   5.326   1.861   0.311
 7744SOL     OW24130   0.671   0.372   4.599
 7744SOL    HW124131   0.765   0.342   4.618
 7744SOL    HW224132   0.629   0.406   4.684
 7745SOL     OW24133   4.202   1.434   6.705
 7745SOL    HW124134   4.297   1.455   6.728
 7745SOL    HW224135   4.145   1.514   6.721
 7746SOL     OW24136   0.879   0.776   0.755
 7746SOL    HW124137   0.963   0.754   0.707
 7746SOL    HW224138   0.891   0.861   0.807
 7747SOL     OW24139   5.895   6.244   1.168
 7747SOL    HW124140   5.905   6.158   1.216
 7747SOL    HW224141   5.956   6.245   1.088
 7748SOL     OW24142   3.016   3.937   4.611
 7748SOL    HW124143   2.938   3.886   4.574
 7748SOL    HW224144   3.101   3.895   4.581
 7749SOL     OW24145   3.538   3.359   5.556
 7749SOL    HW124146   3.543   3.450   5.516
 7749SOL    HW224147   3.442   3.330   5.562
 7750SOL     OW24148   0.138   5.756   0.588
 7750SOL    HW124149   0.108   5.836   0.537
 7750SOL    HW224150   0.205   5.705   0.534
 7751SOL     OW24151   1.797   2.996   2.349
 7751SOL    HW124152   1.864   3.011   2.423
 7751SOL    HW224153   1.794   3.077   2.291
 7752SOL     OW24154   5.915   6.526   5.429
 7752SOL    HW124155   5.999   6.566   5.393
 7752SOL    HW224156   5.853   6.598   5.458
 7753SOL     OW24157   2.046   0.382   4.484
 7753SOL    HW124158   1.983   0.350   4.555
 7753SOL    HW224159   2.136   0.399   4.523
 7754SOL     OW24160   4.820   6.756   1.807
 7754SOL    HW124161   4.866   6.818   1.743
 7754SOL    HW224162   4.887   6.701   1.855
 7755SOL     OW24163   1.133   2.176   5.929
 7755SOL    HW124164   1.105   2.260   5.976
 7755SOL    HW224165   1.230   2.159   5.945
 7756SOL     OW24166   2.936   6.018   1.700
 7756SOL    HW124167   2.959   5.980   1.790
 7756SOL    HW224168   2.837   6.031   1.694
 7757SOL     OW24169   5.893   5.912   5.658
 7757SOL    HW124170   5.981   5.958   5.650
 7757SOL    HW224171   5.828   5.971   5.706
 7758SOL     OW24172   1.312   1.681   5.871
 7758SOL    HW124173   1.228   1.626   5.873
 7758SOL    HW224174   1.292   1.773   5.904
 7759SOL     OW24175   1.082   1.660   5.392
 7759SOL    HW124176   1.050   1.728   5.327
 7759SOL    HW224177   1.048   1.681   5.483
 7760SOL     OW24178   5.402   3.615   2.360
 7760SOL    HW124179   5.321   3.633   2.415
 7760SOL    HW224180   5.466   3.558   2.412
 7761SOL     OW24181   1.019   0.627   5.809
 7761SOL    HW124182   1.012   0.558   5.737
 7761SOL    HW224183   0.989   0.587   5.896
 7762SOL     OW24184   4.737   0.673   3.833
 7762SOL    HW124185   4.639   0.653   3.828
 7762SOL    HW224186   4.783   0.600   3.885
 7763SOL     OW24187   1.072   1.033   6.918
 7763SOL    HW124188   1.033   0.963   6.858
 7763SOL    HW224189   1.000   1.096   6.947
 7764SOL     OW24190   3.371   2.972   3.249
 7764SOL    HW124191   3.294   2.984   3.313
 7764SOL    HW224192   3.456   2.966   3.301
 7765SOL     OW24193   6.277   2.752   4.218
 7765SOL    HW124194   6.376   2.760   4.206
 7765SOL    HW224195   6.257   2.679   4.284
 7766SOL     OW24196   6.232   3.013   6.591
 7766SOL    HW124197   6.205   2.917   6.582
 7766SOL    HW224198   6.158   3.072   6.560
 7767SOL     OW24199   4.722   5.436   2.708
 7767SOL    HW124200   4.643   5.496   2.716
 7767SOL    HW224201   4.771   5.457   2.623
 7768SOL     OW24202   4.256   4.626   2.076
 7768SOL    HW124203   4.349   4.608   2.109
 7768SOL    HW224204   4.202   4.542   2.079
 7769SOL     OW24205   4.789   2.779   2.961
 7769SOL    HW124206   4.810   2.722   2.881
 7769SOL    HW224207   4.874   2.804   3.007
 7770SOL     OW24208   1.717   4.208   2.574
 7770SOL    HW124209   1.619   4.196   2.584
 7770SOL    HW224210   1.764   4.173   2.655
 7771SOL     OW24211   3.246   2.439   5.487
 7771SOL    HW124212   3.235   2.445   5.388
 7771SOL    HW224213   3.323   2.496   5.516
 7772SOL     OW24214   5.305   0.085   2.133
 7772SOL    HW124215   5.270   0.027   2.206
 7772SOL    HW224216   5.285   0.180   2.154
 7773SOL     OW24217   2.450   5.974   4.934
 7773SOL    HW124218   2.405   5.986   5.023
 7773SOL    HW224219   2.549   5.964   4.949
 7774SOL     OW24220   5.525   2.378   5.726
 7774SOL    HW124221   5.589   2.303   5.743
 7774SOL    HW224222   5.574   2.465   5.729
 7775SOL     OW24223   5.332   5.650   1.352
 7775SOL    HW124224   5.356   5.623   1.259
 7775SOL    HW224225   5.388   5.598   1.417
 7776SOL     OW24226   1.770   4.922   6.894
 7776SOL    HW124227   1.724   5.011   6.896
 7776SOL    HW224228   1.863   4.932   6.858
 7777SOL     OW24229   0.185   6.904   4.534
 7777SOL    HW124230   0.169   6.836   4.463
 7777SOL    HW224231   0.210   6.858   4.619
 7778SOL     OW24232   5.337   3.808   1.089
 7778SOL    HW124233   5.398   3.803   1.010
 7778SOL    HW224234   5.348   3.897   1.133
 7779SOL     OW24235   2.513   2.639   1.692
 7779SOL    HW124236   2.542   2.734   1.681
 7779SOL    HW224237   2.594   2.581   1.706
 7780SOL     OW24238   0.844   4.226   5.150
 7780SOL    HW124239   0.867   4.152   5.214
 7780SOL    HW224240   0.920   4.291   5.146
 7781SOL     OW24241   1.004   4.508   0.222
 7781SOL    HW124242   1.099   4.537   0.215
 7781SOL    HW224243   0.948   4.558   0.156
 7782SOL     OW24244   6.429   4.823   4.659
 7782SOL    HW124245   6.404   4.742   4.712
 7782SOL    HW224246   6.369   4.832   4.580
 7783SOL     OW24247   1.242   5.969   4.924
 7783SOL    HW124248   1.286   5.993   5.011
 7783SOL    HW224249   1.308   5.920   4.866
 7784SOL     OW24250   3.261   2.287   1.496
 7784SOL    HW124251   3.225   2.271   1.588
 7784SOL    HW224252   3.193   2.335   1.442
 7785SOL     OW24253   2.090   5.467   4.610
 7785SOL    HW124254   2.131   5.492   4.698
 7785SOL    HW224255   2.137   5.387   4.573
 7786SOL     OW24256   3.108   6.820   0.172
 7786SOL    HW124257   3.185   6.883   0.163
 7786SOL    HW224258   3.085   6.809   0.269
 7787SOL     OW24259   2.233   2.891   6.532
 7787SOL    HW124260   2.258   2.971   6.477
 7787SOL    HW224261   2.161   2.839   6.486
 7788SOL     OW24262   2.555   5.223   1.096
 7788SOL    HW124263   2.495   5.285   1.047
 7788SOL    HW224264   2.644   5.267   1.111
 7789SOL     OW24265   1.906   6.630   6.389
 7789SOL    HW124266   1.889   6.541   6.430
 7789SOL    HW224267   1.821   6.682   6.384
 7790SOL     OW24268   5.843   5.982   3.424
 7790SOL    HW124269   5.805   5.904   3.375
 7790SOL    HW224270   5.903   5.950   3.497
 7791SOL     OW24271   2.554   5.353   3.632
 7791SOL    HW124272   2.627   5.386   3.690
 7791SOL    HW224273   2.545   5.413   3.552
 7792SOL     OW24274   1.794   5.416   4.929
 7792SOL    HW124275   1.801   5.464   4.842
 7792SOL    HW224276   1.730   5.339   4.920
 7793SOL     OW24277   3.257   0.941   0.768
 7793SOL    HW124278   3.300   0.851   0.763
 7793SOL    HW224279   3.272   0.990   0.682
 7794SOL     OW24280   6.048   3.959   3.043
 7794SOL    HW124281   6.027   4.029   2.975
 7794SOL    HW224282   5.966   3.938   3.096
 7795SOL     OW24283   2.313   4.430   5.882
 7795SOL    HW124284   2.241   4.477   5.831
 7795SOL    HW224285   2.347   4.353   5.829
 7796SOL     OW24286   3.837   3.377   3.648
 7796SOL    HW124287   3.902   3.348   3.718
 7796SOL    HW224288   3.781   3.451   3.684
 7797SOL     OW24289   1.463   6.870   2.880
 7797SOL    HW124290   1.550   6.880   2.831
 7797SOL    HW224291   1.438   6.957   2.922
 7798SOL     OW24292   1.900   3.963   5.519
 7798SOL    HW124293   1.945   4.052   5.523
 7798SOL    HW224294   1.952   3.901   5.461
 7799SOL     OW24295   1.126   6.338   2.724
 7799SOL    HW124296   1.217   6.376   2.740
 7799SOL    HW224297   1.057   6.411   2.729
 7800SOL     OW24298   0.609   5.407   1.224
 7800SOL    HW124299   0.672   5.329   1.223
 7800SOL    HW224300   0.647   5.479   1.281
 7801SOL     OW24301   2.440   1.956   1.971
 7801SOL    HW124302   2.370   1.958   2.042
 7801SOL    HW224303   2.506   1.883   1.991
 7802SOL     OW24304   5.919   2.836   0.872
 7802SOL    HW124305   5.835   2.888   0.862
 7802SOL    HW224306   5.899   2.747   0.913
 7803SOL     OW24307   4.837   2.124   5.822
 7803SOL    HW124308   4.900   2.047   5.837
 7803SOL    HW224309   4.853   2.162   5.731
 7804SOL     OW24310   4.707   1.948   3.757
 7804SOL    HW124311   4.709   2.000   3.842
 7804SOL    HW224312   4.778   1.878   3.758
 7805SOL     OW24313   5.687   2.906   1.491
 7805SOL    HW124314   5.785   2.893   1.475
 7805SOL    HW224315   5.658   2.993   1.450
 7806SOL     OW24316   6.004   1.992   0.448
 7806SOL    HW124317   6.084   2.031   0.493
 7806SOL    HW224318   6.020   1.894   0.431
 7807SOL     OW24319   1.363   4.899   5.530
 7807SOL    HW124320   1.444   4.842   5.545
 7807SOL    HW224321   1.297   4.849   5.475
 7808SOL     OW24322   6.382   3.578   3.632
 7808SOL    HW124323   6.306   3.524   3.597
 7808SOL    HW224324   6.374   3.672   3.600
 7809SOL     OW24325   3.225   4.980   4.337
 7809SOL    HW124326   3.145   4.926   4.313
 7809SOL    HW224327   3.273   4.936   4.413
 7810SOL     OW24328   3.548   0.203   4.255
 7810SOL    HW124329   3.522   0.123   4.310
 7810SOL    HW224330   3.466   0.244   4.216
 7811SOL     OW24331   1.944   5.342   2.231
 7811SOL    HW124332   1.985   5.304   2.149
 7811SOL    HW224333   1.889   5.272   2.277
 7812SOL     OW24334   6.676   1.898   3.965
 7812SOL    HW124335   6.768   1.861   3.952
 7812SOL    HW224336   6.628   1.845   4.035
 7813SOL     OW24337   5.255   2.572   7.001
 7813SOL    HW124338   5.230   2.629   0.060
 7813SOL    HW224339   5.303   2.491   0.013
 7814SOL     OW24340   0.574   3.634   3.412
 7814SOL    HW124341   0.646   3.649   3.479
 7814SOL    HW224342   0.615   3.622   3.321
 7815SOL     OW24343   5.792   1.508   5.362
 7815SOL    HW124344   5.875   1.467   5.323
 7815SOL    HW224345   5.771   1.464   5.449
 7816SOL     OW24346   1.703   2.520   6.472
 7816SOL    HW124347   1.730   2.608   6.512
 7816SOL    HW224348   1.725   2.446   6.535
 7817SOL     OW24349   4.957   4.786   3.273
 7817SOL    HW124350   5.008   4.762   3.190
 7817SOL    HW224351   4.869   4.826   3.247
 7818SOL     OW24352   4.233   1.043   1.969
 7818SOL    HW124353   4.331   1.024   1.963
 7818SOL    HW224354   4.182   0.959   1.952
 7819SOL     OW24355   0.126   3.537   2.148
 7819SOL    HW124356   0.082   3.589   2.221
 7819SOL    HW224357   0.152   3.447   2.182
 7820SOL     OW24358   0.822   1.650   5.816
 7820SOL    HW124359   0.867   1.726   5.768
 7820SOL    HW224360   0.753   1.686   5.878
 7821SOL     OW24361   5.583   5.619   0.571
 7821SOL    HW124362   5.646   5.687   0.534
 7821SOL    HW224363   5.499   5.619   0.517
 7822SOL     OW24364   1.783   2.266   6.155
 7822SOL    HW124365   1.847   2.212   6.210
 7822SOL    HW224366   1.778   2.227   6.063
 7823SOL     OW24367   2.568   3.608   5.409
 7823SOL    HW124368   2.642   3.576   5.468
 7823SOL    HW224369   2.604   3.671   5.341
 7824SOL     OW24370   6.162   0.460   3.870
 7824SOL    HW124371   6.095   0.386   3.856
 7824SOL    HW224372   6.154   0.494   3.964
 7825SOL     OW24373   1.634   3.034   0.912
 7825SOL    HW124374   1.708   2.966   0.908
 7825SOL    HW224375   1.547   2.990   0.888
 7826SOL     OW24376   6.113   1.401   0.940
 7826SOL    HW124377   6.073   1.320   0.985
 7826SOL    HW224378   6.056   1.481   0.959
 7827SOL     OW24379   2.830   5.296   1.081
 7827SOL    HW124380   2.865   5.384   1.050
 7827SOL    HW224381   2.859   5.281   1.176
 7828SOL     OW24382   1.301   4.430   6.682
 7828SOL    HW124383   1.214   4.388   6.657
 7828SOL    HW224384   1.345   4.376   6.753
 7829SOL     OW24385   2.570   3.423   1.283
 7829SOL    HW124386   2.505   3.496   1.305
 7829SOL    HW224387   2.547   3.383   1.194
 7830SOL     OW24388   2.499   4.624   5.735
 7830SOL    HW124389   2.444   4.593   5.813
 7830SOL    HW224390   2.559   4.698   5.764
 7831SOL     OW24391   1.604   6.103   1.162
 7831SOL    HW124392   1.534   6.072   1.098
 7831SOL    HW224393   1.672   6.157   1.112
 7832SOL     OW24394   4.749   1.009   3.236
 7832SOL    HW124395   4.783   0.980   3.147
 7832SOL    HW224396   4.738   0.930   3.295
 7833SOL     OW24397   0.639   0.852   6.308
 7833SOL    HW124398   0.723   0.905   6.296
 7833SOL    HW224399   0.635   0.815   6.401
 7834SOL     OW24400   6.271   1.713   4.310
 7834SOL    HW124401   6.174   1.711   4.283
 7834SOL    HW224402   6.300   1.621   4.334
 7835SOL     OW24403   3.393   2.032   5.556
 7835SOL    HW124404   3.367   2.089   5.478
 7835SOL    HW224405   3.327   1.957   5.566
 7836SOL     OW24406   3.180   3.026   4.696
 7836SOL    HW124407   3.223   2.966   4.763
 7836SOL    HW224408   3.097   3.065   4.735
 7837SOL     OW24409   6.572   5.432   0.774
 7837SOL    HW124410   6.543   5.523   0.744
 7837SOL    HW224411   6.492   5.380   0.803
 7838SOL     OW24412   4.216   6.879   0.112
 7838SOL    HW124413   4.155   6.850   0.185
 7838SOL    HW224414   4.177   6.958   0.065
 7839SOL     OW24415   6.180   5.008   4.740
 7839SOL    HW124416   6.094   4.997   4.791
 7839SOL    HW224417   6.257   4.988   4.801
 7840SOL     OW24418   6.167   2.616   3.883
 7840SOL    HW124419   6.109   2.627   3.802
 7840SOL    HW224420   6.262   2.607   3.854
 7841SOL     OW24421   3.837   2.146   6.776
 7841SOL    HW124422   3.806   2.235   6.809
 7841SOL    HW224423   3.911   2.158   6.710
 7842SOL     OW24424   2.180   1.888   2.857
 7842SOL    HW124425   2.207   1.852   2.767
 7842SOL    HW224426   2.237   1.967   2.879
 7843SOL     OW24427   6.384   5.660   2.763
 7843SOL    HW124428   6.289   5.689   2.762
 7843SOL    HW224429   6.388   5.560   2.758
 7844SOL     OW24430   3.765   6.529   2.189
 7844SOL    HW124431   3.739   6.527   2.093
 7844SOL    HW224432   3.854   6.572   2.199
 7845SOL     OW24433   5.165   1.772   3.729
 7845SOL    HW124434   5.222   1.731   3.800
 7845SOL    HW224435   5.161   1.711   3.649
 7846SOL     OW24436   1.061   0.945   2.392
 7846SOL    HW124437   0.981   0.885   2.390
 7846SOL    HW224438   1.037   1.032   2.435
 7847SOL     OW24439   0.079   1.945   3.209
 7847SOL    HW124440   7.000   1.927   3.203
 7847SOL    HW224441   0.129   1.864   3.177
 7848SOL     OW24442   3.552   3.253   0.361
 7848SOL    HW124443   3.530   3.349   0.377
 7848SOL    HW224444   3.599   3.244   0.273
 7849SOL     OW24445   5.792   4.352   3.621
 7849SOL    HW124446   5.868   4.310   3.572
 7849SOL    HW224447   5.771   4.297   3.703
 7850SOL     OW24448   0.155   2.291   5.406
 7850SOL    HW124449   0.159   2.390   5.392
 7850SOL    HW224450   0.196   2.268   5.494
 7851SOL     OW24451   6.703   1.129   1.971
 7851SOL    HW124452   6.676   1.190   1.897
 7851SOL    HW224453   6.715   1.181   2.055
 7852SOL     OW24454   2.592   1.648   5.994
 7852SOL    HW124455   2.633   1.563   5.959
 7852SOL    HW224456   2.664   1.714   6.013
 7853SOL     OW24457   4.623   2.313   0.918
 7853SOL    HW124458   4.612   2.354   0.827
 7853SOL    HW224459   4.595   2.217   0.915
 7854SOL     OW24460   4.021   3.356   0.020
 7854SOL    HW124461   4.002   3.320   0.111
 7854SOL    HW224462   4.112   3.398   0.020
 7855SOL     OW24463   4.635   5.482   4.548
 7855SOL    HW124464   4.657   5.385   4.531
 7855SOL    HW224465   4.715   5.528   4.586
 7856SOL     OW24466   6.329   4.931   4.974
 7856SOL    HW124467   6.355   4.847   5.021
 7856SOL    HW224468   6.241   4.963   5.009
 7857SOL     OW24469   5.591   1.903   5.662
 7857SOL    HW124470   5.634   1.814   5.678
 7857SOL    HW224471   5.548   1.903   5.571
 7858SOL     OW24472   5.569   6.347   4.222
 7858SOL    HW124473   5.655   6.311   4.260
 7858SOL    HW224474   5.492   6.298   4.264
 7859SOL     OW24475   4.619   2.648   6.581
 7859SOL    HW124476   4.534   2.671   6.533
 7859SOL    HW224477   4.656   2.730   6.624
 7860SOL     OW24478   3.730   0.147   2.419
 7860SOL    HW124479   3.687   0.232   2.389
 7860SOL    HW224480   3.675   0.069   2.388
 7861SOL     OW24481   3.612   4.856   1.667
 7861SOL    HW124482   3.595   4.951   1.693
 7861SOL    HW224483   3.599   4.797   1.747
 7862SOL     OW24484   2.389   3.680   1.377
 7862SOL    HW124485   2.409   3.776   1.357
 7862SOL    HW224486   2.410   3.661   1.473
 7863SOL     OW24487   0.904   5.424   3.877
 7863SOL    HW124488   0.978   5.367   3.913
 7863SOL    HW224489   0.820   5.406   3.929
 7864SOL     OW24490   0.660   5.322   5.110
 7864SOL    HW124491   0.618   5.254   5.049
 7864SOL    HW224492   0.689   5.278   5.195
 7865SOL     OW24493   6.150   6.256   3.861
 7865SOL    HW124494   6.235   6.249   3.809
 7865SOL    HW224495   6.072   6.251   3.799
 7866SOL     OW24496   1.342   1.328   6.243
 7866SOL    HW124497   1.413   1.278   6.194
 7866SOL    HW224498   1.312   1.406   6.188
 7867SOL     OW24499   6.060   6.178   3.339
 7867SOL    HW124500   6.039   6.263   3.291
 7867SOL    HW224501   5.976   6.125   3.351
 7868SOL     OW24502   5.823   6.569   1.423
 7868SOL    HW124503   5.898   6.534   1.479
 7868SOL    HW224504   5.737   6.528   1.452
 7869SOL     OW24505   6.404   3.807   0.263
 7869SOL    HW124506   6.480   3.764   0.312
 7869SOL    HW224507   6.412   3.787   0.165
 7870SOL     OW24508   4.095   4.761   3.762
 7870SOL    HW124509   4.028   4.769   3.688
 7870SOL    HW224510   4.184   4.737   3.724
 7871SOL     OW24511   4.922   2.909   2.289
 7871SOL    HW124512   4.865   2.849   2.233
 7871SOL    HW224513   4.932   2.998   2.244
 7872SOL     OW24514   2.165   4.503   3.504
 7872SOL    HW124515   2.243   4.566   3.505
 7872SOL    HW224516   2.081   4.552   3.525
 7873SOL     OW24517   5.808   0.724   5.886
 7873SOL    HW124518   5.740   0.750   5.817
 7873SOL    HW224519   5.833   0.805   5.939
 7874SOL     OW24520   5.314   2.044   0.026
 7874SOL    HW124521   5.278   1.955   7.017
 7874SOL    HW224522   5.354   2.091   6.966
 7875SOL     OW24523   5.207   2.828   6.851
 7875SOL    HW124524   5.220   2.747   6.909
 7875SOL    HW224525   5.113   2.831   6.817
 7876SOL     OW24526   1.068   0.418   4.802
 7876SOL    HW124527   0.981   0.377   4.826
 7876SOL    HW224528   1.130   0.348   4.766
 7877SOL     OW24529   0.766   2.318   3.315
 7877SOL    HW124530   0.743   2.239   3.258
 7877SOL    HW224531   0.700   2.327   3.389
 7878SOL     OW24532   5.834   5.123   4.678
 7878SOL    HW124533   5.778   5.163   4.751
 7878SOL    HW224534   5.903   5.189   4.649
 7879SOL     OW24535   4.605   4.767   3.664
 7879SOL    HW124536   4.622   4.866   3.670
 7879SOL    HW224537   4.662   4.719   3.731
 7880SOL     OW24538   1.812   4.999   0.809
 7880SOL    HW124539   1.782   5.011   0.904
 7880SOL    HW224540   1.896   4.945   0.808
 7881SOL     OW24541   6.192   4.376   4.468
 7881SOL    HW124542   6.128   4.453   4.470
 7881SOL    HW224543   6.232   4.367   4.377
 7882SOL     OW24544   0.919   2.917   1.731
 7882SOL    HW124545   0.869   2.831   1.743
 7882SOL    HW224546   1.012   2.896   1.700
 7883SOL     OW24547   1.114   0.783   0.616
 7883SOL    HW124548   1.121   0.804   0.518
 7883SOL    HW224549   1.166   0.851   0.667
 7884SOL     OW24550   2.052   3.847   4.062
 7884SOL    HW124551   1.985   3.796   4.009
 7884SOL    HW224552   2.099   3.913   4.003
 7885SOL     OW24553   6.763   5.006   2.264
 7885SOL    HW124554   6.710   5.084   2.298
 7885SOL    HW224555   6.700   4.935   2.232
 7886SOL     OW24556   3.574   5.403   6.742
 7886SOL    HW124557   3.506   5.455   6.793
 7886SOL    HW224558   3.555   5.305   6.752
 7887SOL     OW24559   3.252   2.696   5.278
 7887SOL    HW124560   3.196   2.714   5.359
 7887SOL    HW224561   3.246   2.599   5.254
 7888SOL     OW24562   6.604   0.065   4.799
 7888SOL    HW124563   6.574   0.113   4.881
 7888SOL    HW224564   6.637   6.994   4.823
 7889SOL     OW24565   1.443   5.118   0.327
 7889SOL    HW124566   1.467   5.023   0.348
 7889SOL    HW224567   1.466   5.177   0.405
 7890SOL     OW24568   1.281   2.547   3.654
 7890SOL    HW124569   1.337   2.614   3.605
 7890SOL    HW224570   1.284   2.565   3.752
 7891SOL     OW24571   2.577   4.560   3.844
 7891SOL    HW124572   2.504   4.496   3.819
 7891SOL    HW224573   2.615   4.600   3.761
 7892SOL     OW24574   1.797   1.257   3.948
 7892SOL    HW124575   1.802   1.157   3.953
 7892SOL    HW224576   1.840   1.289   3.863
 7893SOL     OW24577   6.514   6.462   2.468
 7893SOL    HW124578   6.472   6.533   2.412
 7893SOL    HW224579   6.604   6.439   2.431
 7894SOL     OW24580   3.699   6.770   0.192
 7894SOL    HW124581   3.721   6.828   0.114
 7894SOL    HW224582   3.781   6.721   0.221
 7895SOL     OW24583   5.703   0.651   5.146
 7895SOL    HW124584   5.655   0.730   5.184
 7895SOL    HW224585   5.733   0.671   5.053
 7896SOL     OW24586   4.377   3.558   1.160
 7896SOL    HW124587   4.425   3.511   1.234
 7896SOL    HW224588   4.394   3.656   1.167
 7897SOL     OW24589   3.299   3.778   0.461
 7897SOL    HW124590   3.256   3.692   0.433
 7897SOL    HW224591   3.249   3.855   0.421
 7898SOL     OW24592   3.776   1.912   3.072
 7898SOL    HW124593   3.706   1.879   3.008
 7898SOL    HW224594   3.865   1.912   3.027
 7899SOL     OW24595   5.659   0.105   1.511
 7899SOL    HW124596   5.635   0.159   1.592
 7899SOL    HW224597   5.628   0.153   1.429
 7900SOL     OW24598   1.469   4.750   2.184
 7900SOL    HW124599   1.473   4.826   2.249
 7900SOL    HW224600   1.507   4.668   2.226
 7901SOL     OW24601   5.094   1.821   6.452
 7901SOL    HW124602   5.045   1.905   6.472
 7901SOL    HW224603   5.114   1.817   6.354
 7902SOL     OW24604   6.025   6.541   1.188
 7902SOL    HW124605   6.039   6.460   1.244
 7902SOL    HW224606   6.064   6.621   1.234
 7903SOL     OW24607   5.342   1.200   1.272
 7903SOL    HW124608   5.315   1.106   1.294
 7903SOL    HW224609   5.352   1.208   1.173
 7904SOL     OW24610   5.549   0.330   3.382
 7904SOL    HW124611   5.476   0.325   3.451
 7904SOL    HW224612   5.619   0.261   3.402
 7905SOL     OW24613   4.913   2.522   0.206
 7905SOL    HW124614   4.952   2.492   0.119
 7905SOL    HW224615   4.949   2.464   0.280
 7906SOL     OW24616   0.392   5.502   0.784
 7906SOL    HW124617   0.300   5.472   0.807
 7906SOL    HW224618   0.437   5.538   0.865
 7907SOL     OW24619   5.087   2.254   2.263
 7907SOL    HW124620   5.174   2.287   2.300
 7907SOL    HW224621   5.038   2.201   2.333
 7908SOL     OW24622   1.498   1.170   5.486
 7908SOL    HW124623   1.433   1.246   5.487
 7908SOL    HW224624   1.583   1.197   5.530
 7909SOL     OW24625   5.892   4.444   4.642
 7909SOL    HW124626   5.849   4.359   4.613
 7909SOL    HW224627   5.970   4.424   4.701
 7910SOL     OW24628   2.734   3.548   5.735
 7910SOL    HW124629   2.799   3.624   5.733
 7910SOL    HW224630   2.697   3.539   5.827
 7911SOL     OW24631   2.280   3.641   0.203
 7911SOL    HW124632   2.306   3.637   0.107
 7911SOL    HW224633   2.196   3.589   0.217
 7912SOL     OW24634   0.190   4.931   1.186
 7912SOL    HW124635   0.239   4.999   1.242
 7912SOL    HW224636   0.111   4.973   1.143
 7913SOL     OW24637   1.725   4.191   0.677
 7913SOL    HW124638   1.647   4.138   0.645
 7913SOL    HW224639   1.776   4.138   0.745
 7914SOL     OW24640   0.351   4.037   0.524
 7914SOL    HW124641   0.270   4.094   0.506
 7914SOL    HW224642   0.337   3.947   0.483
 7915SOL     OW24643   4.948   2.585   1.541
 7915SOL    HW124644   4.932   2.683   1.551
 7915SOL    HW224645   4.867   2.543   1.498
 7916SOL     OW24646   0.917   3.966   4.962
 7916SOL    HW124647   0.935   4.001   4.870
 7916SOL    HW224648   0.877   4.039   5.018
 7917SOL     OW24649   4.079   3.712   4.593
 7917SOL    HW124650   4.107   3.750   4.505
 7917SOL    HW224651   4.024   3.779   4.643
 7918SOL     OW24652   0.194   1.366   5.646
 7918SOL    HW124653   0.258   1.362   5.723
 7918SOL    HW224654   0.236   1.415   5.570
 7919SOL     OW24655   2.056   3.979   3.055
 7919SOL    HW124656   1.977   4.035   3.081
 7919SOL    HW224657   2.126   3.984   3.126
 7920SOL     OW24658   0.349   6.438   0.602
 7920SOL    HW124659   0.287   6.386   0.662
 7920SOL    HW224660   0.379   6.379   0.527
 7921SOL     OW24661   5.432   6.591   0.703
 7921SOL    HW124662   5.465   6.623   0.614
 7921SOL    HW224663   5.359   6.651   0.735
 7922SOL     OW24664   0.063   6.794   0.608
 7922SOL    HW124665   7.009   6.737   0.571
 7922SOL    HW224666   0.131   6.736   0.653
 7923SOL     OW24667   3.602   0.156   1.705
 7923SOL    HW124668   3.596   0.138   1.606
 7923SOL    HW224669   3.679   0.217   1.722
 7924SOL     OW24670   4.432   6.937   1.640
 7924SOL    HW124671   4.471   6.976   1.723
 7924SOL    HW224672   4.342   6.976   1.622
 7925SOL     OW24673   0.732   1.808   6.415
 7925SOL    HW124674   0.746   1.710   6.422
 7925SOL    HW224675   0.803   1.856   6.468
 7926SOL     OW24676   4.829   1.819   5.625
 7926SOL    HW124677   4.890   1.884   5.581
 7926SOL    HW224678   4.801   1.749   5.559
 7927SOL     OW24679   4.117   5.801   2.366
 7927SOL    HW124680   4.154   5.783   2.275
 7927SOL    HW224681   4.034   5.856   2.358
 7928SOL     OW24682   1.447   1.842   4.580
 7928SOL    HW124683   1.392   1.812   4.659
 7928SOL    HW224684   1.502   1.921   4.607
 7929SOL     OW24685   4.096   4.894   6.104
 7929SOL    HW124686   4.108   4.814   6.162
 7929SOL    HW224687   4.025   4.953   6.143
 7930SOL     OW24688   4.174   5.534   4.877
 7930SOL    HW124689   4.203   5.547   4.782
 7930SOL    HW224690   4.104   5.462   4.880
 7931SOL     OW24691   2.105   2.480   0.213
 7931SOL    HW124692   2.163   2.431   0.148
 7931SOL    HW224693   2.115   2.440   0.304
 7932SOL     OW24694   1.455   6.557   6.487
 7932SOL    HW124695   1.464   6.584   6.391
 7932SOL    HW224696   1.461   6.638   6.545
 7933SOL     OW24697   0.424   6.074   6.004
 7933SOL    HW124698   0.493   6.146   6.008
 7933SOL    HW224699   0.335   6.114   5.985
 7934SOL     OW24700   2.361   4.967   7.011
 7934SOL    HW124701   2.284   4.925   6.962
 7934SOL    HW224702   2.414   5.023   6.947
 7935SOL     OW24703   5.875   5.652   0.293
 7935SOL    HW124704   5.967   5.658   0.332
 7935SOL    HW224705   5.826   5.575   0.334
 7936SOL     OW24706   3.802   6.269   2.302
 7936SOL    HW124707   3.864   6.222   2.239
 7936SOL    HW224708   3.790   6.364   2.271
 7937SOL     OW24709   6.936   6.265   3.379
 7937SOL    HW124710   0.009   6.269   3.417
 7937SOL    HW224711   6.903   6.171   3.381
 7938SOL     OW24712   6.223   5.270   3.966
 7938SOL    HW124713   6.236   5.171   3.975
 7938SOL    HW224714   6.287   5.317   4.026
 7939SOL     OW24715   1.601   2.613   5.570
 7939SOL    HW124716   1.690   2.567   5.578
 7939SOL    HW224717   1.579   2.658   5.657
 7940SOL     OW24718   1.776   3.440   1.985
 7940SOL    HW124719   1.680   3.459   1.966
 7940SOL    HW224720   1.804   3.358   1.935
 7941SOL     OW24721   5.413   1.154   1.021
 7941SOL    HW124722   5.374   1.068   0.989
 7941SOL    HW224723   5.502   1.138   1.063
 7942SOL     OW24724   6.402   6.031   2.668
 7942SOL    HW124725   6.428   6.124   2.645
 7942SOL    HW224726   6.341   5.994   2.598
 7943SOL     OW24727   6.322   3.051   0.466
 7943SOL    HW124728   6.317   3.135   0.411
 7943SOL    HW224729   6.325   2.972   0.405
 7944SOL     OW24730   0.269   2.531   1.285
 7944SOL    HW124731   0.207   2.606   1.263
 7944SOL    HW224732   0.260   2.458   1.217
 7945SOL     OW24733   5.913   5.440   1.584
 7945SOL    HW124734   5.978   5.370   1.554
 7945SOL    HW224735   5.923   5.522   1.529
 7946SOL     OW24736   2.372   1.326   5.328
 7946SOL    HW124737   2.441   1.297   5.261
 7946SOL    HW224738   2.301   1.379   5.282
 7947SOL     OW24739   4.089   1.840   6.220
 7947SOL    HW124740   4.188   1.838   6.212
 7947SOL    HW224741   4.052   1.918   6.168
 7948SOL     OW24742   0.944   6.901   0.894
 7948SOL    HW124743   0.920   6.998   0.898
 7948SOL    HW224744   0.917   6.856   0.979
 7949SOL     OW24745   4.349   4.733   4.895
 7949SOL    HW124746   4.381   4.709   4.803
 7949SOL    HW224747   4.345   4.650   4.951
 7950SOL     OW24748   5.389   5.320   4.535
 7950SOL    HW124749   5.307   5.334   4.479
 7950SOL    HW224750   5.435   5.236   4.507
 7951SOL     OW24751   2.225   4.040   1.809
 7951SOL    HW124752   2.227   4.064   1.712
 7951SOL    HW224753   2.210   3.942   1.820
 7952SOL     OW24754   0.533   3.395   0.005
 7952SOL    HW124755   0.541   3.490   6.994
 7952SOL    HW224756   0.463   3.389   0.076
 7953SOL     OW24757   2.218   2.472   3.946
 7953SOL    HW124758   2.215   2.483   4.045
 7953SOL    HW224759   2.302   2.513   3.910
 7954SOL     OW24760   4.479   4.325   5.977
 7954SOL    HW124761   4.439   4.279   5.897
 7954SOL    HW224762   4.434   4.413   5.990
 7955SOL     OW24763   1.272   6.722   6.859
 7955SOL    HW124764   1.196   6.743   6.796
 7955SOL    HW224765   1.261   6.630   6.895
 7956SOL     OW24766   3.546   6.004   2.691
 7956SOL    HW124767   3.621   6.061   2.658
 7956SOL    HW224768   3.472   6.062   2.723
 7957SOL     OW24769   0.983   0.629   1.865
 7957SOL    HW124770   1.078   0.600   1.868
 7957SOL    HW224771   0.927   0.567   1.920
 7958SOL     OW24772   3.828   4.939   4.938
 7958SOL    HW124773   3.802   5.035   4.947
 7958SOL    HW224774   3.927   4.930   4.952
 7959SOL     OW24775   4.314   5.948   0.872
 7959SOL    HW124776   4.302   5.970   0.775
 7959SOL    HW224777   4.365   5.862   0.880
 7960SOL     OW24778   2.581   0.989   6.966
 7960SOL    HW124779   2.515   0.923   6.929
 7960SOL    HW224780   2.654   1.004   6.900
 7961SOL     OW24781   0.166   0.776   1.107
 7961SOL    HW124782   0.247   0.826   1.137
 7961SOL    HW224783   0.085   0.813   1.153
 7962SOL     OW24784   1.121   0.521   0.044
 7962SOL    HW124785   1.071   0.488   0.125
 7962SOL    HW224786   1.201   0.574   0.073
 7963SOL     OW24787   6.733   0.041   3.975
 7963SOL    HW124788   6.645   0.055   4.021
 7963SOL    HW224789   6.791   7.002   4.031
 7964SOL     OW24790   0.424   4.811   3.837
 7964SOL    HW124791   0.384   4.720   3.845
 7964SOL    HW224792   0.522   4.802   3.817
 7965SOL     OW24793   3.662   2.331   5.983
 7965SOL    HW124794   3.734   2.387   5.942
 7965SOL    HW224795   3.622   2.272   5.913
 7966SOL     OW24796   1.129   2.715   5.485
 7966SOL    HW124797   1.181   2.800   5.495
 7966SOL    HW224798   1.192   2.637   5.481
 7967SOL     OW24799   2.568   6.329   3.496
 7967SOL    HW124800   2.482   6.355   3.539
 7967SOL    HW224801   2.608   6.252   3.546
 7968SOL     OW24802   1.785   2.936   3.534
 7968SOL    HW124803   1.866   2.877   3.542
 7968SOL    HW224804   1.814   3.031   3.522
 7969SOL     OW24805   4.047   5.917   0.537
 7969SOL    HW124806   3.947   5.910   0.541
 7969SOL    HW224807   4.086   5.827   0.518
 7970SOL     OW24808   6.583   2.890   2.653
 7970SOL    HW124809   6.498   2.838   2.655
 7970SOL    HW224810   6.637   2.868   2.734
 7971SOL     OW24811   4.389   2.103   0.530
 7971SOL    HW124812   4.453   2.027   0.520
 7971SOL    HW224813   4.340   2.094   0.617
 7972SOL     OW24814   2.000   3.130   0.822
 7972SOL    HW124815   2.036   3.071   0.750
 7972SOL    HW224816   1.964   3.073   0.896
 7973SOL     OW24817   4.479   4.927   3.918
 7973SOL    HW124818   4.405   4.992   3.902
 7973SOL    HW224819   4.566   4.976   3.921
 7974SOL     OW24820   6.178   1.613   5.658
 7974SOL    HW124821   6.089   1.646   5.627
 7974SOL    HW224822   6.193   1.520   5.624
 7975SOL     OW24823   5.954   1.325   2.279
 7975SOL    HW124824   5.985   1.392   2.213
 7975SOL    HW224825   6.028   1.301   2.341
 7976SOL     OW24826   0.795   0.310   6.298
 7976SOL    HW124827   0.717   0.347   6.348
 7976SOL    HW224828   0.767   0.287   6.204
 7977SOL     OW24829   5.063   6.035   1.716
 7977SOL    HW124830   5.129   6.108   1.736
 7977SOL    HW224831   5.000   6.065   1.645
 7978SOL     OW24832   6.123   3.335   6.613
 7978SOL    HW124833   6.070   3.331   6.697
 7978SOL    HW224834   6.091   3.265   6.549
 7979SOL     OW24835   4.013   6.337   5.142
 7979SOL    HW124836   3.979   6.252   5.102
 7979SOL    HW224837   3.938   6.384   5.190
 7980SOL     OW24838   2.684   4.992   6.772
 7980SOL    HW124839   2.641   5.067   6.823
 7980SOL    HW224840   2.780   5.015   6.755
 7981SOL     OW24841   0.613   5.536   1.589
 7981SOL    HW124842   0.670   5.456   1.609
 7981SOL    HW224843   0.649   5.615   1.638
 7982SOL     OW24844   7.015   1.710   0.142
 7982SOL    HW124845   0.095   1.716   0.145
 7982SOL    HW224846   6.987   1.646   0.070
 7983SOL     OW24847   5.894   2.004   1.714
 7983SOL    HW124848   5.905   1.909   1.741
 7983SOL    HW224849   5.866   2.059   1.793
 7984SOL     OW24850   1.650   1.289   0.887
 7984SOL    HW124851   1.722   1.356   0.904
 7984SOL    HW224852   1.632   1.238   0.971
 7985SOL     OW24853   2.648   0.758   3.574
 7985SOL    HW124854   2.572   0.759   3.639
 7985SOL    HW224855   2.725   0.708   3.615
 7986SOL     OW24856   3.366   1.537   6.765
 7986SOL    HW124857   3.352   1.583   6.852
 7986SOL    HW224858   3.316   1.585   6.693
 7987SOL     OW24859   1.562   2.867   6.679
 7987SOL    HW124860   1.502   2.791   6.652
 7987SOL    HW224861   1.514   2.925   6.745
 7988SOL     OW24862   1.052   2.360   3.866
 7988SOL    HW124863   1.089   2.298   3.935
 7988SOL    HW224864   0.960   2.330   3.841
 7989SOL     OW24865   3.563   2.989   5.360
 7989SOL    HW124866   3.610   2.913   5.316
 7989SOL    HW224867   3.627   3.063   5.376
 7990SOL     OW24868   0.003   3.004   3.875
 7990SOL    HW124869   6.959   2.937   3.836
 7990SOL    HW224870   0.055   3.047   3.801
 7991SOL     OW24871   6.116   6.797   3.787
 7991SOL    HW124872   6.183   6.730   3.819
 7991SOL    HW224873   6.161   6.864   3.729
 7992SOL     OW24874   1.644   6.077   1.590
 7992SOL    HW124875   1.596   6.022   1.659
 7992SOL    HW224876   1.620   6.043   1.499
 7993SOL     OW24877   0.525   0.042   6.200
 7993SOL    HW124878   0.493   0.011   6.111
 7993SOL    HW224879   0.481   0.128   6.224
 7994SOL     OW24880   4.447   6.509   2.995
 7994SOL    HW124881   4.474   6.492   3.090
 7994SOL    HW224882   4.410   6.424   2.956
 7995SOL     OW24883   4.711   5.048   3.648
 7995SOL    HW124884   4.796   5.002   3.675
 7995SOL    HW224885   4.732   5.126   3.589
 7996SOL     OW24886   3.288   0.082   4.599
 7996SOL    HW124887   3.200   0.035   4.590
 7996SOL    HW224888   3.274   0.181   4.592
 7997SOL     OW24889   0.502   1.614   1.614
 7997SOL    HW124890   0.419   1.659   1.648
 7997SOL    HW224891   0.566   1.683   1.581
 7998SOL     OW24892   2.991   5.781   1.504
 7998SOL    HW124893   2.915   5.723   1.476
 7998SOL    HW224894   2.972   5.819   1.595
 7999SOL     OW24895   0.415   0.011   5.948
 7999SOL    HW124896   0.343   0.023   5.880
 7999SOL    HW224897   0.502   7.010   5.902
 8000SOL     OW24898   4.946   0.541   6.998
 8000SOL    HW124899   5.031   0.516   0.025
 8000SOL    HW224900   4.896   0.458   6.972
 8001SOL     OW24901   3.544   5.705   0.942
 8001SOL    HW124902   3.548   5.785   1.001
 8001SOL    HW224903   3.636   5.668   0.929
 8002SOL     OW24904   0.496   2.596   5.952
 8002SOL    HW124905   0.497   2.621   5.855
 8002SOL    HW224906   0.484   2.679   6.008
 8003SOL     OW24907   3.371   5.105   2.582
 8003SOL    HW124908   3.372   5.178   2.514
 8003SOL    HW224909   3.465   5.080   2.606
 8004SOL     OW24910   2.154   3.075   3.875
 8004SOL    HW124911   2.180   2.979   3.887
 8004SOL    HW224912   2.199   3.111   3.793
 8005SOL     OW24913   3.427   0.559   1.932
 8005SOL    HW124914   3.452   0.557   2.029
 8005SOL    HW224915   3.503   0.523   1.877
 8006SOL     OW24916   2.034   0.397   6.642
 8006SOL    HW124917   1.949   0.344   6.650
 8006SOL    HW224918   2.098   0.369   6.713
 8007SOL     OW24919   6.397   0.879   4.535
 8007SOL    HW124920   6.496   0.867   4.541
 8007SOL    HW224921   6.375   0.976   4.544
 8008SOL     OW24922   4.748   6.051   5.844
 8008SOL    HW124923   4.820   5.987   5.816
 8008SOL    HW224924   4.669   6.040   5.784
 8009SOL     OW24925   5.946   1.422   3.129
 8009SOL    HW124926   5.944   1.328   3.165
 8009SOL    HW224927   5.864   1.439   3.075
 8010SOL     OW24928   0.853   1.178   6.992
 8010SOL    HW124929   0.896   1.205   0.059
 8010SOL    HW224930   0.772   1.123   7.012
 8011SOL     OW24931   3.307   2.374   0.477
 8011SOL    HW124932   3.325   2.464   0.516
 8011SOL    HW224933   3.390   2.340   0.432
 8012SOL     OW24934   1.928   4.059   1.439
 8012SOL    HW124935   1.925   3.999   1.359
 8012SOL    HW224936   1.993   4.022   1.506
 8013SOL     OW24937   1.044   5.174   3.608
 8013SOL    HW124938   1.082   5.148   3.519
 8013SOL    HW224939   0.974   5.245   3.595
 8014SOL     OW24940   1.534   6.675   5.078
 8014SOL    HW124941   1.448   6.643   5.038
 8014SOL    HW224942   1.574   6.746   5.020
 8015SOL     OW24943   2.432   0.752   0.163
 8015SOL    HW124944   2.449   0.829   0.225
 8015SOL    HW224945   2.387   0.785   0.080
 8016SOL     OW24946   5.751   0.570   6.098
 8016SOL    HW124947   5.671   0.594   6.152
 8016SOL    HW224948   5.744   0.612   6.008
 8017SOL     OW24949   6.264   6.770   0.772
 8017SOL    HW124950   6.315   6.855   0.778
 8017SOL    HW224951   6.228   6.745   0.862
 8018SOL     OW24952   3.088   2.060   5.807
 8018SOL    HW124953   3.070   2.092   5.714
 8018SOL    HW224954   3.164   2.113   5.846
 8019SOL     OW24955   2.197   4.373   6.291
 8019SOL    HW124956   2.266   4.419   6.235
 8019SOL    HW224957   2.118   4.433   6.304
 8020SOL     OW24958   6.013   6.954   0.736
 8020SOL    HW124959   6.096   6.905   0.762
 8020SOL    HW224960   6.013   6.972   0.638
 8021SOL     OW24961   1.579   2.106   1.317
 8021SOL    HW124962   1.615   2.198   1.307
 8021SOL    HW224963   1.575   2.061   1.228
 8022SOL     OW24964   5.175   6.455   2.816
 8022SOL    HW124965   5.077   6.444   2.835
 8022SOL    HW224966   5.201   6.550   2.836
 8023SOL     OW24967   6.074   5.373   3.067
 8023SOL    HW124968   6.163   5.403   3.103
 8023SOL    HW224969   6.085   5.343   2.972
 8024SOL     OW24970   2.717   4.701   6.835
 8024SOL    HW124971   2.653   4.699   6.912
 8024SOL    HW224972   2.707   4.787   6.786
 8025SOL     OW24973   2.510   6.429   6.832
 8025SOL    HW124974   2.501   6.482   6.916
 8025SOL    HW224975   2.547   6.338   6.853
 8026SOL     OW24976   0.854   4.330   6.667
 8026SOL    HW124977   0.904   4.326   6.754
 8026SOL    HW224978   0.780   4.262   6.668
 8027SOL     OW24979   4.808   0.769   5.574
 8027SOL    HW124980   4.868   0.841   5.538
 8027SOL    HW224981   4.757   0.805   5.653
 8028SOL     OW24982   3.226   5.095   4.636
 8028SOL    HW124983   3.164   5.125   4.564
 8028SOL    HW224984   3.174   5.054   4.711
 8029SOL     OW24985   4.926   3.136   1.304
 8029SOL    HW124986   4.943   3.039   1.287
 8029SOL    HW224987   4.836   3.146   1.347
 8030SOL     OW24988   4.211   4.515   0.362
 8030SOL    HW124989   4.219   4.597   0.306
 8030SOL    HW224990   4.273   4.444   0.327
 8031SOL     OW24991   5.585   6.714   2.687
 8031SOL    HW124992   5.535   6.649   2.630
 8031SOL    HW224993   5.535   6.801   2.689
 8032SOL     OW24994   6.480   5.166   0.242
 8032SOL    HW124995   6.477   5.175   0.143
 8032SOL    HW224996   6.463   5.255   0.284
 8033SOL     OW24997   5.028   2.451   5.762
 8033SOL    HW124998   5.105   2.515   5.754
 8033SOL    HW224999   5.028   2.409   5.853
 8034SOL     OW25000   6.167   0.238   4.920
 8034SOL    HW125001   6.215   0.211   5.003
 8034SOL    HW225002   6.084   0.289   4.944
 8035SOL     OW25003   4.968   1.842   4.390
 8035SOL    HW125004   4.894   1.906   4.410
 8035SOL    HW225005   4.997   1.853   4.295
 8036SOL     OW25006   0.708   4.303   2.588
 8036SOL    HW125007   0.649   4.252   2.651
 8036SOL    HW225008   0.748   4.382   2.635
 8037SOL     OW25009   1.911   3.161   1.323
 8037SOL    HW125010   1.852   3.080   1.332
 8037SOL    HW225011   1.865   3.228   1.265
 8038SOL     OW25012   3.622   0.399   2.794
 8038SOL    HW125013   3.706   0.348   2.810
 8038SOL    HW225014   3.635   0.461   2.717
 8039SOL     OW25015   0.532   2.001   4.357
 8039SOL    HW125016   0.587   2.020   4.438
 8039SOL    HW225017   0.587   2.016   4.275
 8040SOL     OW25018   1.634   6.081   0.152
 8040SOL    HW125019   1.554   6.049   0.102
 8040SOL    HW225020   1.612   6.166   0.200
 8041SOL     OW25021   3.003   0.823   2.118
 8041SOL    HW125022   2.985   0.911   2.161
 8041SOL    HW225023   3.084   0.782   2.160
 8042SOL     OW25024   2.916   3.471   3.565
 8042SOL    HW125025   2.905   3.568   3.588
 8042SOL    HW225026   2.860   3.448   3.486
 8043SOL     OW25027   4.128   6.920   2.418
 8043SOL    HW125028   4.076   6.997   2.381
 8043SOL    HW225029   4.177   6.949   2.500
 8044SOL     OW25030   3.875   2.854   0.954
 8044SOL    HW125031   3.877   2.763   0.911
 8044SOL    HW225032   3.852   2.844   1.050
 8045SOL     OW25033   5.133   1.030   1.895
 8045SOL    HW125034   5.185   1.106   1.934
 8045SOL    HW225035   5.147   0.948   1.951
 8046SOL     OW25036   0.165   5.312   0.900
 8046SOL    HW125037   0.078   5.317   0.851
 8046SOL    HW225038   0.148   5.313   0.999
 8047SOL     OW25039   4.026   5.648   4.441
 8047SOL    HW125040   4.043   5.745   4.422
 8047SOL    HW225041   4.109   5.595   4.423
 8048SOL     OW25042   5.338   1.290   5.849
 8048SOL    HW125043   5.269   1.331   5.909
 8048SOL    HW225044   5.298   1.213   5.799
 8049SOL     OW25045   0.460   0.193   6.862
 8049SOL    HW125046   0.368   0.187   6.825
 8049SOL    HW225047   0.476   0.285   6.898
 8050SOL     OW25048   1.846   3.787   3.082
 8050SOL    HW125049   1.768   3.832   3.038
 8050SOL    HW225050   1.928   3.844   3.071
 8051SOL     OW25051   4.312   5.668   2.897
 8051SOL    HW125052   4.241   5.659   2.828
 8051SOL    HW225053   4.329   5.580   2.940
 8052SOL     OW25054   4.465   1.817   1.865
 8052SOL    HW125055   4.376   1.851   1.833
 8052SOL    HW225056   4.513   1.890   1.913
 8053SOL     OW25057   2.935   3.680   3.068
 8053SOL    HW125058   2.951   3.741   3.145
 8053SOL    HW225059   2.974   3.590   3.088
 8054SOL     OW25060   4.932   0.403   4.632
 8054SOL    HW125061   4.995   0.462   4.683
 8054SOL    HW225062   4.838   0.435   4.645
 8055SOL     OW25063   0.349   0.129   5.317
 8055SOL    HW125064   0.389   0.046   5.279
 8055SOL    HW225065   0.292   0.106   5.396
 8056SOL     OW25066   3.399   1.807   4.363
 8056SOL    HW125067   3.339   1.730   4.385
 8056SOL    HW225068   3.418   1.859   4.446
 8057SOL     OW25069   2.808   1.736   3.400
 8057SOL    HW125070   2.898   1.694   3.392
 8057SOL    HW225071   2.743   1.688   3.340
 8058SOL     OW25072   4.817   0.649   1.986
 8058SOL    HW125073   4.879   0.649   1.908
 8058SOL    HW225074   4.737   0.706   1.965
 8059SOL     OW25075   4.052   1.567   4.670
 8059SOL    HW125076   4.127   1.517   4.711
 8059SOL    HW225077   3.975   1.571   4.734
 8060SOL     OW25078   6.514   2.113   3.632
 8060SOL    HW125079   6.590   2.178   3.623
 8060SOL    HW225080   6.549   2.020   3.619
 8061SOL     OW25081   0.575   1.115   2.881
 8061SOL    HW125082   0.585   1.176   2.960
 8061SOL    HW225083   0.576   1.020   2.912
 8062SOL     OW25084   3.453   5.208   4.463
 8062SOL    HW125085   3.403   5.180   4.545
 8062SOL    HW225086   3.547   5.231   4.489
 8063SOL     OW25087   0.868   2.304   1.080
 8063SOL    HW125088   0.967   2.293   1.078
 8063SOL    HW225089   0.836   2.334   0.990
 8064SOL     OW25090   0.516   4.260   1.985
 8064SOL    HW125091   0.485   4.225   2.073
 8064SOL    HW225092   0.508   4.189   1.916
 8065SOL     OW25093   3.071   5.800   4.145
 8065SOL    HW125094   3.109   5.884   4.182
 8065SOL    HW225095   2.971   5.802   4.154
 8066SOL     OW25096   0.193   2.205   5.672
 8066SOL    HW125097   0.265   2.175   5.735
 8066SOL    HW225098   0.125   2.132   5.663
 8067SOL     OW25099   4.556   2.774   1.749
 8067SOL    HW125100   4.556   2.871   1.773
 8067SOL    HW225101   4.644   2.733   1.776
 8068SOL     OW25102   0.222   3.977   0.903
 8068SOL    HW125103   0.126   3.969   0.929
 8068SOL    HW225104   0.235   3.944   0.810
 8069SOL     OW25105   2.011   6.425   1.104
 8069SOL    HW125106   2.031   6.502   1.043
 8069SOL    HW225107   1.915   6.398   1.092
 8070SOL     OW25108   3.289   3.199   0.276
 8070SOL    HW125109   3.370   3.227   0.327
 8070SOL    HW225110   3.225   3.154   0.339
 8071SOL     OW25111   2.783   6.378   4.875
 8071SOL    HW125112   2.745   6.372   4.782
 8071SOL    HW225113   2.708   6.391   4.940
 8072SOL     OW25114   3.405   0.918   0.198
 8072SOL    HW125115   3.434   0.914   0.102
 8072SOL    HW225116   3.361   1.006   0.215
 8073SOL     OW25117   3.606   5.843   4.898
 8073SOL    HW125118   3.642   5.916   4.840
 8073SOL    HW225119   3.597   5.876   4.992
 8074SOL     OW25120   3.808   2.330   0.606
 8074SOL    HW125121   3.711   2.335   0.627
 8074SOL    HW225122   3.861   2.336   0.691
 8075SOL     OW25123   6.922   0.827   0.299
 8075SOL    HW125124   6.962   0.865   0.382
 8075SOL    HW225125   6.831   0.866   0.285
 8076SOL     OW25126   5.828   2.016   5.493
 8076SOL    HW125127   5.740   2.058   5.470
 8076SOL    HW225128   5.842   1.935   5.435
 8077SOL     OW25129   2.519   5.514   1.446
 8077SOL    HW125130   2.480   5.499   1.355
 8077SOL    HW225131   2.504   5.434   1.503
 8078SOL     OW25132   6.372   1.543   0.346
 8078SOL    HW125133   6.346   1.629   0.303
 8078SOL    HW225134   6.472   1.537   0.352
 8079SOL     OW25135   4.707   1.590   3.303
 8079SOL    HW125136   4.788   1.532   3.288
 8079SOL    HW225137   4.650   1.551   3.375
 8080SOL     OW25138   0.496   2.902   0.336
 8080SOL    HW125139   0.529   2.813   0.305
 8080SOL    HW225140   0.446   2.891   0.421
 8081SOL     OW25141   4.903   6.757   4.460
 8081SOL    HW125142   4.872   6.678   4.514
 8081SOL    HW225143   4.907   6.838   4.518
 8082SOL     OW25144   5.028   6.586   1.910
 8082SOL    HW125145   4.979   6.544   1.987
 8082SOL    HW225146   5.063   6.675   1.939
 8083SOL     OW25147   4.899   4.028   2.644
 8083SOL    HW125148   4.954   4.088   2.701
 8083SOL    HW225149   4.956   3.953   2.609
 8084SOL     OW25150   4.968   0.394   0.452
 8084SOL    HW125151   4.926   0.313   0.410
 8084SOL    HW225152   4.972   0.467   0.384
 8085SOL     OW25153   5.927   6.589   2.350
 8085SOL    HW125154   6.011   6.620   2.394
 8085SOL    HW225155   5.908   6.646   2.270
 8086SOL     OW25156   4.456   1.001   3.463
 8086SOL    HW125157   4.533   0.937   3.464
 8086SOL    HW225158   4.483   1.083   3.412
 8087SOL     OW25159   2.728   1.201   0.543
 8087SOL    HW125160   2.717   1.270   0.614
 8087SOL    HW225161   2.737   1.111   0.585
 8088SOL     OW25162   5.302   2.813   1.819
 8088SOL    HW125163   5.269   2.890   1.766
 8088SOL    HW225164   5.240   2.795   1.896
 8089SOL     OW25165   5.356   2.328   0.742
 8089SOL    HW125166   5.271   2.359   0.701
 8089SOL    HW225167   5.412   2.282   0.673
 8090SOL     OW25168   4.748   1.655   6.785
 8090SOL    HW125169   4.655   1.656   6.823
 8090SOL    HW225170   4.788   1.564   6.797
 8091SOL     OW25171   2.539   3.771   6.072
 8091SOL    HW125172   2.446   3.808   6.076
 8091SOL    HW225173   2.602   3.844   6.046
 8092SOL     OW25174   6.892   2.777   5.069
 8092SOL    HW125175   6.905   2.698   5.129
 8092SOL    HW225176   6.932   2.758   4.980
 8093SOL     OW25177   4.539   4.939   2.666
 8093SOL    HW125178   4.538   4.880   2.746
 8093SOL    HW225179   4.555   5.034   2.695
 8094SOL     OW25180   1.625   3.601   5.031
 8094SOL    HW125181   1.690   3.552   4.973
 8094SOL    HW225182   1.675   3.660   5.094
 8095SOL     OW25183   6.489   4.452   5.323
 8095SOL    HW125184   6.487   4.458   5.423
 8095SOL    HW225185   6.526   4.537   5.285
 8096SOL     OW25186   2.665   6.137   3.669
 8096SOL    HW125187   2.705   6.185   3.747
 8096SOL    HW225188   2.715   6.052   3.654
 8097SOL     OW25189   4.417   6.913   3.871
 8097SOL    HW125190   4.514   6.908   3.850
 8097SOL    HW225191   4.389   6.833   3.924
 8098SOL     OW25192   1.980   6.744   3.760
 8098SOL    HW125193   2.061   6.712   3.711
 8098SOL    HW225194   1.917   6.787   3.696
 8099SOL     OW25195   4.338   0.482   4.169
 8099SOL    HW125196   4.324   0.383   4.170
 8099SOL    HW225197   4.419   0.505   4.222
 8100SOL     OW25198   5.805   6.950   0.442
 8100SOL    HW125199   5.793   6.862   0.487
 8100SOL    HW225200   5.744   7.017   0.484
 8101SOL     OW25201   2.138   0.306   3.679
 8101SOL    HW125202   2.050   0.318   3.725
 8101SOL    HW225203   2.123   0.279   3.584
 8102SOL     OW25204   0.642   5.121   4.109
 8102SOL    HW125205   0.709   5.051   4.135
 8102SOL    HW225206   0.552   5.079   4.099
 8103SOL     OW25207   4.257   0.499   1.106
 8103SOL    HW125208   4.344   0.504   1.056
 8103SOL    HW225209   4.224   0.591   1.124
 8104SOL     OW25210   2.979   0.396   6.188
 8104SOL    HW125211   2.968   0.348   6.101
 8104SOL    HW225212   3.048   0.348   6.244
 8105SOL     OW25213   0.790   2.348   3.752
 8105SOL    HW125214   0.690   2.345   3.764
 8105SOL    HW225215   0.815   2.431   3.704
 8106SOL     OW25216   2.082   6.281   2.816
 8106SOL    HW125217   2.041   6.191   2.800
 8106SOL    HW225218   2.102   6.292   2.913
 8107SOL     OW25219   0.489   5.648   4.564
 8107SOL    HW125220   0.488   5.599   4.651
 8107SOL    HW225221   0.570   5.706   4.559
 8108SOL     OW25222   6.259   3.269   5.326
 8108SOL    HW125223   6.260   3.291   5.228
 8108SOL    HW225224   6.262   3.170   5.338
 8109SOL     OW25225   1.944   3.643   4.228
 8109SOL    HW125226   1.960   3.724   4.172
 8109SOL    HW225227   2.023   3.628   4.287
 8110SOL     OW25228   3.133   6.413   0.677
 8110SOL    HW125229   3.067   6.426   0.752
 8110SOL    HW225230   3.083   6.389   0.594
 8111SOL     OW25231   3.884   0.670   4.453
 8111SOL    HW125232   3.793   0.709   4.464
 8111SOL    HW225233   3.953   0.738   4.477
 8112SOL     OW25234   2.230   2.499   4.559
 8112SOL    HW125235   2.273   2.465   4.476
 8112SOL    HW225236   2.291   2.566   4.603
 8113SOL     OW25237   3.180   3.213   1.176
 8113SOL    HW125238   3.094   3.244   1.136
 8113SOL    HW225239   3.256   3.264   1.134
 8114SOL     OW25240   2.216   3.777   1.839
 8114SOL    HW125241   2.226   3.721   1.757
 8114SOL    HW225242   2.209   3.718   1.920
 8115SOL     OW25243   3.362   0.260   0.326
 8115SOL    HW125244   3.367   0.306   0.238
 8115SOL    HW225245   3.267   0.233   0.345
 8116SOL     OW25246   4.522   6.067   5.285
 8116SOL    HW125247   4.520   6.100   5.379
 8116SOL    HW225248   4.545   5.969   5.285
 8117SOL     OW25249   1.890   1.264   4.263
 8117SOL    HW125250   1.891   1.362   4.284
 8117SOL    HW225251   1.892   1.251   4.164
 8118SOL     OW25252   5.717   3.667   5.991
 8118SOL    HW125253   5.765   3.750   6.019
 8118SOL    HW225254   5.773   3.587   6.014
 8119SOL     OW25255   6.169   6.223   5.285
 8119SOL    HW125256   6.152   6.166   5.205
 8119SOL    HW225257   6.200   6.313   5.255
 8120SOL     OW25258   2.420   4.563   6.592
 8120SOL    HW125259   2.370   4.477   6.602
 8120SOL    HW225260   2.449   4.574   6.497
 8121SOL     OW25261   0.329   4.731   1.324
 8121SOL    HW125262   0.285   4.808   1.280
 8121SOL    HW225263   0.426   4.729   1.299
 8122SOL     OW25264   1.727   5.870   2.055
 8122SOL    HW125265   1.719   5.845   1.959
 8122SOL    HW225266   1.819   5.850   2.087
 8123SOL     OW25267   6.814   0.229   6.829
 8123SOL    HW125268   6.741   0.190   6.884
 8123SOL    HW225269   6.893   0.248   6.887
 8124SOL     OW25270   0.122   6.170   1.058
 8124SOL    HW125271   0.033   6.133   1.083
 8124SOL    HW225272   0.191   6.097   1.058
 8125SOL     OW25273   1.323   0.817   3.728
 8125SOL    HW125274   1.362   0.809   3.636
 8125SOL    HW225275   1.392   0.852   3.791
 8126SOL     OW25276   5.700   4.541   2.675
 8126SOL    HW125277   5.666   4.454   2.709
 8126SOL    HW225278   5.799   4.545   2.686
 8127SOL     OW25279   3.063   6.458   6.813
 8127SOL    HW125280   2.985   6.408   6.850
 8127SOL    HW225281   3.031   6.526   6.747
 8128SOL     OW25282   3.135   2.578   1.534
 8128SOL    HW125283   3.233   2.597   1.531
 8128SOL    HW225284   3.102   2.588   1.629
 8129SOL     OW25285   4.384   0.774   5.898
 8129SOL    HW125286   4.287   0.757   5.915
 8129SOL    HW225287   4.409   0.734   5.809
 8130SOL     OW25288   0.244   4.018   6.962
 8130SOL    HW125289   0.226   4.028   0.040
 8130SOL    HW225290   0.232   4.107   6.917
 8131SOL     OW25291   3.526   1.549   0.902
 8131SOL    HW125292   3.512   1.622   0.835
 8131SOL    HW225293   3.539   1.590   0.993
 8132SOL     OW25294   5.653   6.387   6.188
 8132SOL    HW125295   5.737   6.375   6.241
 8132SOL    HW225296   5.574   6.361   6.244
 8133SOL     OW25297   2.917   4.943   1.671
 8133SOL    HW125298   2.854   4.889   1.727
 8133SOL    HW225299   2.957   5.016   1.726
 8134SOL     OW25300   1.086   2.120   5.278
 8134SOL    HW125301   1.139   2.177   5.342
 8134SOL    HW225302   0.993   2.157   5.270
 8135SOL     OW25303   2.233   5.898   0.911
 8135SOL    HW125304   2.223   5.974   0.976
 8135SOL    HW225305   2.148   5.845   0.910
 8136SOL     OW25306   5.075   4.847   3.029
 8136SOL    HW125307   5.096   4.914   3.100
 8136SOL    HW225308   5.152   4.839   2.966
 8137SOL     OW25309   2.833   1.147   4.635
 8137SOL    HW125310   2.859   1.182   4.545
 8137SOL    HW225311   2.905   1.168   4.701
 8138SOL     OW25312   5.526   2.205   0.534
 8138SOL    HW125313   5.523   2.105   0.533
 8138SOL    HW225314   5.617   2.235   0.565
 8139SOL     OW25315   1.648   1.546   4.290
 8139SOL    HW125316   1.660   1.525   4.387
 8139SOL    HW225317   1.647   1.462   4.237
 8140SOL     OW25318   4.398   6.946   0.775
 8140SOL    HW125319   4.406   0.026   0.784
 8140SOL    HW225320   4.301   6.922   0.764
 8141SOL     OW25321   4.587   6.783   5.209
 8141SOL    HW125322   4.600   6.754   5.304
 8141SOL    HW225323   4.493   6.763   5.181
 8142SOL     OW25324   1.662   5.212   0.133
 8142SOL    HW125325   1.581   5.167   0.170
 8142SOL    HW225326   1.732   5.219   0.204
 8143SOL     OW25327   6.487   4.931   0.391
 8143SOL    HW125328   6.570   4.885   0.359
 8143SOL    HW225329   6.448   4.985   0.317
 8144SOL     OW25330   0.444   6.693   5.995
 8144SOL    HW125331   0.483   6.742   5.917
 8144SOL    HW225332   0.513   6.630   6.032
 8145SOL     OW25333   5.841   5.053   0.786
 8145SOL    HW125334   5.845   5.053   0.886
 8145SOL    HW225335   5.921   5.006   0.749
 8146SOL     OW25336   5.697   0.660   5.576
 8146SOL    HW125337   5.600   0.633   5.576
 8146SOL    HW225338   5.731   0.662   5.482
 8147SOL     OW25339   6.460   0.990   2.006
 8147SOL    HW125340   6.526   1.064   1.995
 8147SOL    HW225341   6.367   1.027   2.003
 8148SOL     OW25342   5.421   4.821   0.917
 8148SOL    HW125343   5.499   4.836   0.856
 8148SOL    HW225344   5.357   4.897   0.908
 8149SOL     OW25345   2.259   6.359   3.455
 8149SOL    HW125346   2.173   6.312   3.435
 8149SOL    HW225347   2.291   6.335   3.547
 8150SOL     OW25348   2.236   3.435   0.955
 8150SOL    HW125349   2.258   3.453   0.859
 8150SOL    HW225350   2.139   3.452   0.971
 8151SOL     OW25351   5.807   5.046   3.029
 8151SOL    HW125352   5.750   5.118   3.068
 8151SOL    HW225353   5.792   4.960   3.079
 8152SOL     OW25354   6.454   3.072   2.984
 8152SOL    HW125355   6.447   3.009   3.062
 8152SOL    HW225356   6.433   3.165   3.014
 8153SOL     OW25357   0.769   1.867   3.826
 8153SOL    HW125358   0.863   1.867   3.793
 8153SOL    HW225359   0.706   1.859   3.748
 8154SOL     OW25360   3.392   6.125   2.183
 8154SOL    HW125361   3.356   6.033   2.165
 8154SOL    HW225362   3.360   6.188   2.112
 8155SOL     OW25363   1.402   3.281   1.968
 8155SOL    HW125364   1.306   3.259   1.987
 8155SOL    HW225365   1.436   3.344   2.038
 8156SOL     OW25366   4.622   6.185   0.680
 8156SOL    HW125367   4.721   6.172   0.689
 8156SOL    HW225368   4.595   6.178   0.584
 8157SOL     OW25369   6.656   4.941   5.920
 8157SOL    HW125370   6.661   5.022   5.978
 8157SOL    HW225371   6.746   4.926   5.878
 8158SOL     OW25372   4.759   4.280   0.480
 8158SOL    HW125373   4.829   4.215   0.450
 8158SOL    HW225374   4.777   4.370   0.440
 8159SOL     OW25375   2.536   5.341   3.073
 8159SOL    HW125376   2.548   5.423   3.018
 8159SOL    HW225377   2.584   5.264   3.030
 8160SOL     OW25378   5.362   0.621   3.858
 8160SOL    HW125379   5.326   0.529   3.868
 8160SOL    HW225380   5.378   0.661   3.948
 8161SOL     OW25381   6.316   2.945   6.317
 8161SOL    HW125382   6.220   2.920   6.327
 8161SOL    HW225383   6.335   3.027   6.370
 8162SOL     OW25384   5.812   6.792   6.811
 8162SOL    HW125385   5.747   6.728   6.852
 8162SOL    HW225386   5.905   6.759   6.825
 8163SOL     OW25387   2.577   4.591   5.124
 8163SOL    HW125388   2.574   4.517   5.190
 8163SOL    HW225389   2.659   4.583   5.067
 8164SOL     OW25390   5.317   2.488   0.502
 8164SOL    HW125391   5.348   2.443   0.418
 8164SOL    HW225392   5.386   2.554   0.532
 8165SOL     OW25393   0.266   3.959   5.797
 8165SOL    HW125394   0.360   3.949   5.765
 8165SOL    HW225395   0.229   3.870   5.821
 8166SOL     OW25396   1.163   0.614   3.929
 8166SOL    HW125397   1.194   0.522   3.908
 8166SOL    HW225398   1.198   0.678   3.861
 8167SOL     OW25399   0.003   0.583   3.758
 8167SOL    HW125400   7.008   0.577   3.857
 8167SOL    HW225401   0.084   0.637   3.739
 8168SOL     OW25402   2.786   1.586   2.259
 8168SOL    HW125403   2.811   1.604   2.354
 8168SOL    HW225404   2.826   1.656   2.200
 8169SOL     OW25405   4.857   2.170   0.305
 8169SOL    HW125406   4.783   2.158   0.239
 8169SOL    HW225407   4.818   2.177   0.397
 8170SOL     OW25408   1.320   5.295   1.976
 8170SOL    HW125409   1.308   5.199   1.999
 8170SOL    HW225410   1.381   5.338   2.043
 8171SOL     OW25411   1.716   2.145   5.932
 8171SOL    HW125412   1.647   2.180   5.869
 8171SOL    HW225413   1.750   2.057   5.899
 8172SOL     OW25414   0.372   1.685   2.823
 8172SOL    HW125415   0.442   1.702   2.754
 8172SOL    HW225416   0.373   1.588   2.848
 8173SOL     OW25417   5.465   1.893   1.825
 8173SOL    HW125418   5.506   1.978   1.859
 8173SOL    HW225419   5.373   1.883   1.861
 8174SOL     OW25420   6.588   1.169   2.593
 8174SOL    HW125421   6.628   1.141   2.505
 8174SOL    HW225422   6.503   1.118   2.608
 8175SOL     OW25423   0.407   3.639   6.274
 8175SOL    HW125424   0.490   3.611   6.226
 8175SOL    HW225425   0.331   3.579   6.248
 8176SOL     OW25426   2.202   4.885   1.340
 8176SOL    HW125427   2.168   4.945   1.413
 8176SOL    HW225428   2.166   4.916   1.253
 8177SOL     OW25429   3.667   6.952   3.560
 8177SOL    HW125430   3.599   6.880   3.574
 8177SOL    HW225431   3.622   0.016   3.531
 8178SOL     OW25432   3.020   6.832   0.430
 8178SOL    HW125433   2.988   6.760   0.492
 8178SOL    HW225434   3.030   6.917   0.482
 8179SOL     OW25435   4.758   1.503   4.228
 8179SOL    HW125436   4.799   1.550   4.306
 8179SOL    HW225437   4.719   1.571   4.166
 8180SOL     OW25438   6.366   0.980   5.713
 8180SOL    HW125439   6.323   0.913   5.654
 8180SOL    HW225440   6.311   1.064   5.714
 8181SOL     OW25441   1.435   1.765   0.465
 8181SOL    HW125442   1.395   1.854   0.442
 8181SOL    HW225443   1.367   1.693   0.450
 8182SOL     OW25444   3.306   3.344   5.792
 8182SOL    HW125445   3.231   3.337   5.858
 8182SOL    HW225446   3.270   3.356   5.700
 8183SOL     OW25447   6.550   2.517   4.835
 8183SOL    HW125448   6.569   2.443   4.900
 8183SOL    HW225449   6.496   2.482   4.760
 8184SOL     OW25450   6.451   0.289   0.640
 8184SOL    HW125451   6.408   0.379   0.633
 8184SOL    HW225452   6.473   0.270   0.736
 8185SOL     OW25453   1.938   0.056   6.981
 8185SOL    HW125454   1.893   7.002   6.931
 8185SOL    HW225455   2.035   0.033   6.994
 8186SOL     OW25456   3.688   4.535   5.433
 8186SOL    HW125457   3.660   4.614   5.379
 8186SOL    HW225458   3.656   4.451   5.388
 8187SOL     OW25459   2.309   1.570   5.134
 8187SOL    HW125460   2.311   1.534   5.041
 8187SOL    HW225461   2.222   1.545   5.177
 8188SOL     OW25462   5.427   2.909   3.280
 8188SOL    HW125463   5.483   2.850   3.339
 8188SOL    HW225464   5.368   2.967   3.337
 8189SOL     OW25465   5.088   5.094   3.189
 8189SOL    HW125466   5.023   5.156   3.234
 8189SOL    HW225467   5.073   5.098   3.090
 8190SOL     OW25468   5.047   4.477   4.538
 8190SOL    HW125469   5.101   4.445   4.460
 8190SOL    HW225470   4.952   4.489   4.509
 8191SOL     OW25471   3.814   6.247   1.757
 8191SOL    HW125472   3.800   6.182   1.682
 8191SOL    HW225473   3.744   6.232   1.827
 8192SOL     OW25474   3.526   5.180   0.607
 8192SOL    HW125475   3.563   5.236   0.680
 8192SOL    HW225476   3.599   5.153   0.545
 8193SOL     OW25477   6.706   5.987   5.582
 8193SOL    HW125478   6.609   5.966   5.600
 8193SOL    HW225479   6.712   6.072   5.530
 8194SOL     OW25480   4.900   2.340   0.981
 8194SOL    HW125481   4.801   2.334   0.966
 8194SOL    HW225482   4.917   2.345   1.080
 8195SOL     OW25483   1.482   0.065   3.077
 8195SOL    HW125484   1.498   0.153   3.032
 8195SOL    HW225485   1.569   0.031   3.115
 8196SOL     OW25486   4.187   5.743   5.835
 8196SOL    HW125487   4.273   5.711   5.795
 8196SOL    HW225488   4.153   5.675   5.900
 8197SOL     OW25489   4.615   1.918   0.122
 8197SOL    HW125490   4.611   1.818   0.119
 8197SOL    HW225491   4.559   1.952   0.197
 8198SOL     OW25492   2.925   6.652   2.805
 8198SOL    HW125493   2.964   6.585   2.868
 8198SOL    HW225494   2.829   6.629   2.788
 8199SOL     OW25495   5.617   3.200   6.276
 8199SOL    HW125496   5.553   3.197   6.352
 8199SOL    HW225497   5.696   3.142   6.297
 8200SOL     OW25498   5.810   4.915   1.710
 8200SOL    HW125499   5.800   4.818   1.731
 8200SOL    HW225500   5.879   4.955   1.770
 8201SOL     OW25501   5.758   0.856   3.858
 8201SOL    HW125502   5.749   0.909   3.773
 8201SOL    HW225503   5.855   0.841   3.877
 8202SOL     OW25504   0.261   5.791   3.982
 8202SOL    HW125505   0.350   5.807   3.940
 8202SOL    HW225506   0.235   5.695   3.971
 8203SOL     OW25507   3.866   2.646   0.074
 8203SOL    HW125508   3.818   2.595   0.146
 8203SOL    HW225509   3.943   2.591   0.040
 8204SOL     OW25510   3.507   5.128   6.756
 8204SOL    HW125511   3.422   5.107   6.709
 8204SOL    HW225512   3.514   5.072   6.839
 8205SOL     OW25513   0.776   4.662   0.821
 8205SOL    HW125514   0.814   4.741   0.773
 8205SOL    HW225515   0.723   4.607   0.757
 8206SOL     OW25516   5.084   2.361   6.499
 8206SOL    HW125517   5.182   2.340   6.494
 8206SOL    HW225518   5.069   2.455   6.467
 8207SOL     OW25519   3.098   3.971   3.932
 8207SOL    HW125520   3.091   3.987   3.833
 8207SOL    HW225521   3.193   3.953   3.956
 8208SOL     OW25522   1.786   0.110   1.367
 8208SOL    HW125523   1.844   0.067   1.436
 8208SOL    HW225524   1.730   0.181   1.410
 8209SOL     OW25525   0.382   1.335   5.350
 8209SOL    HW125526   0.420   1.302   5.264
 8209SOL    HW225527   0.457   1.368   5.408
 8210SOL     OW25528   2.115   1.209   1.544
 8210SOL    HW125529   2.136   1.213   1.446
 8210SOL    HW225530   2.147   1.293   1.588
 8211SOL     OW25531   3.883   4.253   1.664
 8211SOL    HW125532   3.815   4.325   1.674
 8211SOL    HW225533   3.872   4.186   1.738
 8212SOL     OW25534   2.056   1.556   2.149
 8212SOL    HW125535   1.974   1.515   2.189
 8212SOL    HW225536   2.064   1.528   2.053
 8213SOL     OW25537   6.889   4.371   2.677
 8213SOL    HW125538   6.948   4.443   2.714
 8213SOL    HW225539   6.863   4.393   2.583
 8214SOL     OW25540   6.444   5.524   5.120
 8214SOL    HW125541   6.542   5.511   5.109
 8214SOL    HW225542   6.397   5.436   5.116
 8215SOL     OW25543   2.609   5.873   6.412
 8215SOL    HW125544   2.541   5.850   6.342
 8215SOL    HW225545   2.562   5.888   6.499
 8216SOL     OW25546   5.305   5.377   3.792
 8216SOL    HW125547   5.402   5.403   3.799
 8216SOL    HW225548   5.293   5.285   3.831
 8217SOL     OW25549   1.782   3.450   0.601
 8217SOL    HW125550   1.709   3.494   0.653
 8217SOL    HW225551   1.809   3.365   0.647
 8218SOL     OW25552   0.041   0.024   5.237
 8218SOL    HW125553   0.139   0.010   5.228
 8218SOL    HW225554   0.006   0.067   5.153
 8219SOL     OW25555   3.954   3.526   0.417
 8219SOL    HW125556   3.922   3.443   0.372
 8219SOL    HW225557   4.054   3.529   0.415
 8220SOL     OW25558   2.985   3.739   4.030
 8220SOL    HW125559   2.972   3.690   4.116
 8220SOL    HW225560   3.020   3.831   4.049
 8221SOL     OW25561   5.811   6.425   3.397
 8221SOL    HW125562   5.867   6.443   3.316
 8221SOL    HW225563   5.741   6.495   3.405
 8222SOL     OW25564   5.364   1.374   0.858
 8222SOL    HW125565   5.444   1.430   0.883
 8222SOL    HW225566   5.369   1.286   0.905
 8223SOL     OW25567   0.655   3.981   5.257
 8223SOL    HW125568   0.635   4.011   5.164
 8223SOL    HW225569   0.739   4.025   5.290
 8224SOL     OW25570   5.577   1.806   2.204
 8224SOL    HW125571   5.600   1.793   2.107
 8224SOL    HW225572   5.484   1.842   2.210
 8225SOL     OW25573   3.269   1.851   1.237
 8225SOL    HW125574   3.334   1.926   1.220
 8225SOL    HW225575   3.222   1.828   1.152
 8226SOL     OW25576   3.895   6.603   0.228
 8226SOL    HW125577   3.984   6.569   0.199
 8226SOL    HW225578   3.841   6.527   0.265
 8227SOL     OW25579   0.542   1.162   2.413
 8227SOL    HW125580   0.568   1.198   2.323
 8227SOL    HW225581   0.472   1.091   2.401
 8228SOL     OW25582   6.630   1.769   5.950
 8228SOL    HW125583   6.710   1.726   5.908
 8228SOL    HW225584   6.655   1.858   5.987
 8229SOL     OW25585   4.571   3.364   0.856
 8229SOL    HW125586   4.640   3.436   0.845
 8229SOL    HW225587   4.537   3.364   0.950
 8230SOL     OW25588   3.412   0.253   4.889
 8230SOL    HW125589   3.386   0.339   4.845
 8230SOL    HW225590   3.347   0.181   4.864
 8231SOL     OW25591   2.937   3.316   1.099
 8231SOL    HW125592   2.901   3.388   1.158
 8231SOL    HW225593   2.912   3.226   1.136
 8232SOL     OW25594   4.278   2.215   1.681
 8232SOL    HW125595   4.289   2.253   1.589
 8232SOL    HW225596   4.261   2.116   1.674
 8233SOL     OW25597   0.701   6.592   6.033
 8233SOL    HW125598   0.738   6.685   6.026
 8233SOL    HW225599   0.701   6.549   5.943
 8234SOL     OW25600   2.784   3.235   6.572
 8234SOL    HW125601   2.839   3.163   6.615
 8234SOL    HW225602   2.813   3.324   6.606
 8235SOL     OW25603   0.717   2.488   0.085
 8235SOL    HW125604   0.750   2.582   0.079
 8235SOL    HW225605   0.738   2.440   7.019
 8236SOL     OW25606   0.538   4.562   0.711
 8236SOL    HW125607   0.440   4.577   0.701
 8236SOL    HW225608   0.574   4.519   0.628
 8237SOL     OW25609   5.051   6.324   5.600
 8237SOL    HW125610   5.100   6.383   5.536
 8237SOL    HW225611   4.964   6.368   5.625
 8238SOL     OW25612   0.740   5.088   6.426
 8238SOL    HW125613   0.694   5.139   6.498
 8238SOL    HW225614   0.672   5.060   6.357
 8239SOL     OW25615   0.383   0.930   5.608
 8239SOL    HW125616   0.388   0.883   5.696
 8239SOL    HW225617   0.475   0.945   5.573
 8240SOL     OW25618   3.746   3.758   2.421
 8240SOL    HW125619   3.680   3.763   2.496
 8240SOL    HW225620   3.698   3.769   2.334
 8241SOL     OW25621   3.425   6.162   5.925
 8241SOL    HW125622   3.495   6.138   5.858
 8241SOL    HW225623   3.388   6.252   5.905
 8242SOL     OW25624   0.154   4.386   6.129
 8242SOL    HW125625   0.223   4.315   6.120
 8242SOL    HW225626   0.064   4.347   6.112
 8243SOL     OW25627   0.346   3.159   0.551
 8243SOL    HW125628   0.262   3.209   0.531
 8243SOL    HW225629   0.332   3.062   0.531
 8244SOL     OW25630   0.367   1.036   4.039
 8244SOL    HW125631   0.299   0.969   4.068
 8244SOL    HW225632   0.453   0.990   4.019
 8245SOL     OW25633   3.968   2.157   2.107
 8245SOL    HW125634   3.876   2.188   2.129
 8245SOL    HW225635   3.999   2.094   2.178
 8246SOL     OW25636   0.983   3.502   5.776
 8246SOL    HW125637   1.071   3.474   5.736
 8246SOL    HW225638   0.993   3.591   5.820
 8247SOL     OW25639   1.974   0.730   2.825
 8247SOL    HW125640   1.901   0.764   2.884
 8247SOL    HW225641   1.940   0.652   2.772
 8248SOL     OW25642   6.841   5.023   4.657
 8248SOL    HW125643   6.840   5.123   4.658
 8248SOL    HW225644   6.864   4.992   4.564
 8249SOL     OW25645   1.768   2.432   5.824
 8249SOL    HW125646   1.819   2.401   5.904
 8249SOL    HW225647   1.832   2.465   5.755
 8250SOL     OW25648   2.778   3.218   1.486
 8250SOL    HW125649   2.776   3.312   1.522
 8250SOL    HW225650   2.754   3.154   1.559
 8251SOL     OW25651   5.032   3.143   4.734
 8251SOL    HW125652   4.979   3.145   4.819
 8251SOL    HW225653   5.050   3.237   4.704
 8252SOL     OW25654   3.589   1.482   5.622
 8252SOL    HW125655   3.674   1.486   5.569
 8252SOL    HW225656   3.609   1.497   5.718
 8253SOL     OW25657   4.566   5.400   6.084
 8253SOL    HW125658   4.505   5.340   6.032
 8253SOL    HW225659   4.571   5.489   6.039
 8254SOL     OW25660   4.585   4.261   5.323
 8254SOL    HW125661   4.650   4.199   5.279
 8254SOL    HW225662   4.493   4.223   5.317
 8255SOL     OW25663   1.930   6.831   5.085
 8255SOL    HW125664   1.914   6.847   4.988
 8255SOL    HW225665   1.892   6.742   5.111
 8256SOL     OW25666   6.833   6.067   1.774
 8256SOL    HW125667   6.809   5.972   1.754
 8256SOL    HW225668   6.880   6.107   1.696
 8257SOL     OW25669   5.439   4.080   2.670
 8257SOL    HW125670   5.391   4.020   2.606
 8257SOL    HW225671   5.538   4.065   2.661
 8258SOL     OW25672   5.380   2.952   0.996
 8258SOL    HW125673   5.364   2.889   0.920
 8258SOL    HW225674   5.448   2.913   1.058
 8259SOL     OW25675   3.833   1.643   4.816
 8259SOL    HW125676   3.833   1.716   4.884
 8259SOL    HW225677   3.769   1.666   4.743
 8260SOL     OW25678   1.949   6.921   0.871
 8260SOL    HW125679   1.926   6.931   0.967
 8260SOL    HW225680   1.956   7.011   0.828
 8261SOL     OW25681   5.316   6.830   2.134
 8261SOL    HW125682   5.401   6.864   2.176
 8261SOL    HW225683   5.337   6.751   2.077
 8262SOL     OW25684   0.886   2.792   0.315
 8262SOL    HW125685   0.806   2.780   0.374
 8262SOL    HW225686   0.968   2.798   0.371
 8263SOL     OW25687   0.141   2.577   6.170
 8263SOL    HW125688   0.066   2.593   6.234
 8263SOL    HW225689   0.104   2.557   6.079
 8264SOL     OW25690   2.001   5.943   1.326
 8264SOL    HW125691   1.939   5.932   1.249
 8264SOL    HW225692   2.096   5.935   1.294
 8265SOL     OW25693   6.722   0.872   1.026
 8265SOL    HW125694   6.763   0.785   0.999
 8265SOL    HW225695   6.675   0.912   0.947
 8266SOL     OW25696   2.289   1.154   4.595
 8266SOL    HW125697   2.262   1.076   4.539
 8266SOL    HW225698   2.288   1.128   4.692
 8267SOL     OW25699   1.804   3.574   1.204
 8267SOL    HW125700   1.792   3.475   1.193
 8267SOL    HW225701   1.817   3.595   1.301
 8268SOL     OW25702   2.180   6.573   6.079
 8268SOL    HW125703   2.171   6.487   6.130
 8268SOL    HW225704   2.146   6.560   5.986
 8269SOL     OW25705   4.288   1.427   2.038
 8269SOL    HW125706   4.324   1.502   2.094
 8269SOL    HW225707   4.357   1.355   2.031
 8270SOL     OW25708   3.386   6.413   4.738
 8270SOL    HW125709   3.469   6.360   4.756
 8270SOL    HW225710   3.400   6.507   4.766
 8271SOL     OW25711   0.521   6.782   3.307
 8271SOL    HW125712   0.579   6.861   3.289
 8271SOL    HW225713   0.519   6.763   3.405
 8272SOL     OW25714   6.570   1.810   3.055
 8272SOL    HW125715   6.509   1.872   3.006
 8272SOL    HW225716   6.652   1.793   3.000
 8273SOL     OW25717   2.284   1.074   1.191
 8273SOL    HW125718   2.233   0.990   1.207
 8273SOL    HW225719   2.243   1.149   1.243
 8274SOL     OW25720   4.443   5.271   4.367
 8274SOL    HW125721   4.453   5.248   4.271
 8274SOL    HW225722   4.534   5.288   4.407
 8275SOL     OW25723   5.665   0.835   4.296
 8275SOL    HW125724   5.612   0.777   4.358
 8275SOL    HW225725   5.657   0.801   4.203
 8276SOL     OW25726   0.277   2.259   4.731
 8276SOL    HW125727   0.345   2.331   4.746
 8276SOL    HW225728   0.305   2.202   4.653
 8277SOL     OW25729   0.862   6.111   6.226
 8277SOL    HW125730   0.785   6.171   6.250
 8277SOL    HW225731   0.887   6.056   6.305
 8278SOL     OW25732   3.418   1.141   6.726
 8278SOL    HW125733   3.381   1.060   6.681
 8278SOL    HW225734   3.381   1.147   6.819
 8279SOL     OW25735   0.826   6.360   4.511
 8279SOL    HW125736   0.857   6.394   4.600
 8279SOL    HW225737   0.905   6.330   4.458
 8280SOL     OW25738   2.718   2.753   0.417
 8280SOL    HW125739   2.633   2.763   0.468
 8280SOL    HW225740   2.733   2.656   0.396
 8281SOL     OW25741   2.235   4.124   1.520
 8281SOL    HW125742   2.274   4.207   1.479
 8281SOL    HW225743   2.277   4.043   1.477
 8282SOL     OW25744   4.754   4.048   0.049
 8282SOL    HW125745   4.762   4.013   0.142
 8282SOL    HW225746   4.657   4.059   0.026
 8283SOL     OW25747   1.494   5.009   5.153
 8283SOL    HW125748   1.405   5.035   5.190
 8283SOL    HW225749   1.556   5.087   5.157
 8284SOL     OW25750   0.895   3.452   1.490
 8284SOL    HW125751   0.818   3.444   1.427
 8284SOL    HW225752   0.870   3.416   1.579
 8285SOL     OW25753   3.425   4.129   4.780
 8285SOL    HW125754   3.434   4.119   4.879
 8285SOL    HW225755   3.330   4.150   4.757
 8286SOL     OW25756   5.231   1.987   4.759
 8286SOL    HW125757   5.201   2.066   4.813
 8286SOL    HW225758   5.318   1.953   4.795
 8287SOL     OW25759   1.115   4.813   4.599
 8287SOL    HW125760   1.119   4.796   4.698
 8287SOL    HW225761   1.187   4.877   4.573
 8288SOL     OW25762   2.819   2.245   2.332
 8288SOL    HW125763   2.897   2.199   2.374
 8288SOL    HW225764   2.850   2.292   2.249
 8289SOL     OW25765   0.756   6.520   6.409
 8289SOL    HW125766   0.739   6.580   6.487
 8289SOL    HW225767   0.804   6.571   6.337
 8290SOL     OW25768   5.377   1.704   0.973
 8290SOL    HW125769   5.387   1.703   0.874
 8290SOL    HW225770   5.333   1.790   1.001
 8291SOL     OW25771   4.739   5.451   4.879
 8291SOL    HW125772   4.734   5.530   4.818
 8291SOL    HW225773   4.796   5.380   4.837
 8292SOL     OW25774   3.189   6.437   6.423
 8292SOL    HW125775   3.090   6.434   6.431
 8292SOL    HW225776   3.222   6.525   6.455
 8293SOL     OW25777   1.712   5.298   0.893
 8293SOL    HW125778   1.761   5.376   0.854
 8293SOL    HW225779   1.629   5.280   0.840
 8294SOL     OW25780   5.796   3.952   5.571
 8294SOL    HW125781   5.814   3.981   5.665
 8294SOL    HW225782   5.792   3.852   5.567
 8295SOL     OW25783   5.157   4.716   1.730
 8295SOL    HW125784   5.120   4.697   1.821
 8295SOL    HW225785   5.179   4.630   1.685
 8296SOL     OW25786   2.157   4.783   6.961
 8296SOL    HW125787   2.234   4.743   6.910
 8296SOL    HW225788   2.096   4.829   6.897
 8297SOL     OW25789   0.152   3.173   2.925
 8297SOL    HW125790   0.118   3.267   2.916
 8297SOL    HW225791   0.176   3.155   3.020
 8298SOL     OW25792   6.223   1.771   1.164
 8298SOL    HW125793   6.178   1.756   1.253
 8298SOL    HW225794   6.201   1.694   1.103
 8299SOL     OW25795   0.701   2.313   2.455
 8299SOL    HW125796   0.738   2.315   2.548
 8299SOL    HW225797   0.673   2.220   2.432
 8300SOL     OW25798   0.074   5.884   3.686
 8300SOL    HW125799   0.042   5.919   3.598
 8300SOL    HW225800   0.040   5.791   3.700
 8301SOL     OW25801   3.907   1.204   0.523
 8301SOL    HW125802   3.816   1.245   0.520
 8301SOL    HW225803   3.899   1.106   0.540
 8302SOL     OW25804   5.570   0.046   6.459
 8302SOL    HW125805   5.620   6.994   6.508
 8302SOL    HW225806   5.472   0.028   6.462
 8303SOL     OW25807   5.952   0.585   3.701
 8303SOL    HW125808   6.018   0.557   3.632
 8303SOL    HW225809   5.997   0.594   3.790
 8304SOL     OW25810   5.871   3.120   1.252
 8304SOL    HW125811   5.895   3.206   1.296
 8304SOL    HW225812   5.814   3.139   1.172
 8305SOL     OW25813   4.696   4.367   3.690
 8305SOL    HW125814   4.771   4.431   3.707
 8305SOL    HW225815   4.609   4.415   3.697
 8306SOL     OW25816   5.171   1.640   4.155
 8306SOL    HW125817   5.231   1.718   4.174
 8306SOL    HW225818   5.186   1.569   4.224
 8307SOL     OW25819   3.478   5.243   1.646
 8307SOL    HW125820   3.468   5.253   1.547
 8307SOL    HW225821   3.574   5.252   1.671
 8308SOL     OW25822   2.013   5.533   0.587
 8308SOL    HW125823   2.079   5.569   0.652
 8308SOL    HW225824   2.054   5.458   0.535
 8309SOL     OW25825   6.621   5.780   3.280
 8309SOL    HW125826   6.525   5.761   3.304
 8309SOL    HW225827   6.624   5.837   3.198
 8310SOL     OW25828   0.669   5.647   1.314
 8310SOL    HW125829   0.685   5.618   1.409
 8310SOL    HW225830   0.756   5.669   1.270
 8311SOL     OW25831   6.801   2.327   5.402
 8311SOL    HW125832   6.806   2.241   5.352
 8311SOL    HW225833   6.845   2.317   5.491
 8312SOL     OW25834   4.304   0.494   0.245
 8312SOL    HW125835   4.243   0.513   0.168
 8312SOL    HW225836   4.331   0.398   0.243
 8313SOL     OW25837   5.444   6.956   6.765
 8313SOL    HW125838   5.474   7.007   6.846
 8313SOL    HW225839   5.356   6.993   6.734
 8314SOL     OW25840   5.514   6.733   6.933
 8314SOL    HW125841   5.472   6.790   6.862
 8314SOL    HW225842   5.581   6.672   6.891
 8315SOL     OW25843   3.811   3.336   1.828
 8315SOL    HW125844   3.823   3.354   1.925
 8315SOL    HW225845   3.808   3.423   1.778
 8316SOL     OW25846   1.554   2.520   2.269
 8316SOL    HW125847   1.579   2.610   2.234
 8316SOL    HW225848   1.637   2.466   2.283
 8317SOL     OW25849   1.416   2.596   2.681
 8317SOL    HW125850   1.447   2.599   2.586
 8317SOL    HW225851   1.404   2.688   2.716
 8318SOL     OW25852   4.009   1.873   5.865
 8318SOL    HW125853   3.926   1.831   5.902
 8318SOL    HW225854   3.984   1.951   5.808
 8319SOL     OW25855   1.078   1.410   1.314
 8319SOL    HW125856   1.094   1.399   1.412
 8319SOL    HW225857   1.066   1.320   1.272
 8320SOL     OW25858   3.133   4.052   2.766
 8320SOL    HW125859   3.075   4.132   2.753
 8320SOL    HW225860   3.081   3.979   2.809
 8321SOL     OW25861   6.225   6.792   6.560
 8321SOL    HW125862   6.229   6.850   6.642
 8321SOL    HW225863   6.245   6.698   6.586
 8322SOL     OW25864   6.316   0.270   0.992
 8322SOL    HW125865   6.409   0.256   0.958
 8322SOL    HW225866   6.253   0.276   0.915
 8323SOL     OW25867   5.240   5.325   1.985
 8323SOL    HW125868   5.179   5.283   1.918
 8323SOL    HW225869   5.323   5.270   1.993
 8324SOL     OW25870   6.041   6.559   1.616
 8324SOL    HW125871   5.988   6.578   1.699
 8324SOL    HW225872   6.109   6.630   1.603
 8325SOL     OW25873   1.840   3.461   4.891
 8325SOL    HW125874   1.853   3.469   4.792
 8325SOL    HW225875   1.884   3.378   4.924
 8326SOL     OW25876   4.680   3.597   5.900
 8326SOL    HW125877   4.762   3.640   5.939
 8326SOL    HW225878   4.703   3.555   5.812
 8327SOL     OW25879   0.193   0.303   5.632
 8327SOL    HW125880   0.186   0.401   5.649
 8327SOL    HW225881   0.116   0.274   5.575
 8328SOL     OW25882   2.777   5.884   6.720
 8328SOL    HW125883   2.823   5.800   6.747
 8328SOL    HW225884   2.844   5.957   6.708
 8329SOL     OW25885   0.923   2.847   5.870
 8329SOL    HW125886   0.932   2.762   5.819
 8329SOL    HW225887   0.851   2.903   5.829
 8330SOL     OW25888   2.880   1.311   6.397
 8330SOL    HW125889   2.826   1.234   6.432
 8330SOL    HW225890   2.821   1.371   6.344
 8331SOL     OW25891   3.115   0.618   1.017
 8331SOL    HW125892   3.089   0.543   1.078
 8331SOL    HW225893   3.214   0.634   1.023
 8332SOL     OW25894   5.539   5.387   2.755
 8332SOL    HW125895   5.614   5.398   2.690
 8332SOL    HW225896   5.452   5.400   2.708
 8333SOL     OW25897   0.555   4.996   6.205
 8333SOL    HW125898   0.500   4.930   6.256
 8333SOL    HW225899   0.498   5.076   6.183
 8334SOL     OW25900   3.706   1.522   4.294
 8334SOL    HW125901   3.644   1.443   4.290
 8334SOL    HW225902   3.797   1.491   4.324
 8335SOL     OW25903   5.227   1.101   0.315
 8335SOL    HW125904   5.327   1.102   0.317
 8335SOL    HW225905   5.195   1.035   0.247
 8336SOL     OW25906   0.612   4.796   3.377
 8336SOL    HW125907   0.672   4.871   3.349
 8336SOL    HW225908   0.608   4.728   3.304
 8337SOL     OW25909   1.607   5.900   3.308
 8337SOL    HW125910   1.550   5.981   3.316
 8337SOL    HW225911   1.585   5.836   3.382
 8338SOL     OW25912   3.777   5.294   1.796
 8338SOL    HW125913   3.706   5.257   1.856
 8338SOL    HW225914   3.815   5.221   1.740
 8339SOL     OW25915   6.542   0.790   1.521
 8339SOL    HW125916   6.448   0.823   1.511
 8339SOL    HW225917   6.556   0.759   1.615
 8340SOL     OW25918   5.174   3.234   0.861
 8340SOL    HW125919   5.121   3.154   0.889
 8340SOL    HW225920   5.269   3.208   0.846
 8341SOL     OW25921   3.240   0.019   0.080
 8341SOL    HW125922   3.164   0.082   0.092
 8341SOL    HW225923   3.294   0.016   0.165
 8342SOL     OW25924   4.720   6.606   0.441
 8342SOL    HW125925   4.756   6.587   0.533
 8342SOL    HW225926   4.771   6.682   0.401
 8343SOL     OW25927   0.474   5.508   4.178
 8343SOL    HW125928   0.379   5.538   4.180
 8343SOL    HW225929   0.483   5.422   4.228
 8344SOL     OW25930   5.540   6.306   5.134
 8344SOL    HW125931   5.472   6.241   5.099
 8344SOL    HW225932   5.515   6.398   5.104
 8345SOL     OW25933   3.855   1.949   2.408
 8345SOL    HW125934   3.799   2.026   2.378
 8345SOL    HW225935   3.796   1.873   2.434
 8346SOL     OW25936   4.087   4.956   0.074
 8346SOL    HW125937   4.013   4.943   0.009
 8346SOL    HW225938   4.069   4.902   0.156
 8347SOL     OW25939   3.875   6.286   4.067
 8347SOL    HW125940   3.863   6.214   4.135
 8347SOL    HW225941   3.785   6.315   4.033
 8348SOL     OW25942   2.172   1.294   1.285
 8348SOL    HW125943   2.073   1.306   1.286
 8348SOL    HW225944   2.216   1.383   1.298
 8349SOL     OW25945   6.568   6.870   1.845
 8349SOL    HW125946   6.509   6.803   1.799
 8349SOL    HW225947   6.633   6.908   1.779
 8350SOL     OW25948   3.217   6.907   5.993
 8350SOL    HW125949   3.226   6.858   5.906
 8350SOL    HW225950   3.121   6.930   6.008
 8351SOL     OW25951   6.210   5.288   4.739
 8351SOL    HW125952   6.222   5.189   4.739
 8351SOL    HW225953   6.128   5.311   4.686
 8352SOL     OW25954   0.099   6.905   3.789
 8352SOL    HW125955   0.021   6.947   3.742
 8352SOL    HW225956   0.075   6.812   3.816
 8353SOL     OW25957   6.837   3.568   1.304
 8353SOL    HW125958   6.890   3.515   1.238
 8353SOL    HW225959   6.795   3.506   1.370
 8354SOL     OW25960   4.147   0.200   4.973
 8354SOL    HW125961   4.118   0.111   5.006
 8354SOL    HW225962   4.207   0.189   4.893
 8355SOL     OW25963   2.803   0.921   6.102
 8355SOL    HW125964   2.839   0.973   6.024
 8355SOL    HW225965   2.866   0.846   6.124
 8356SOL     OW25966   0.433   0.042   1.251
 8356SOL    HW125967   0.416   0.027   1.154
 8356SOL    HW225968   0.416   0.138   1.274
 8357SOL     OW25969   3.590   6.897   5.088
 8357SOL    HW125970   3.650   6.897   5.008
 8357SOL    HW225971   3.570   6.803   5.115
 8358SOL     OW25972   1.710   4.598   4.541
 8358SOL    HW125973   1.643   4.661   4.581
 8358SOL    HW225974   1.782   4.580   4.607
 8359SOL     OW25975   3.311   0.545   4.819
 8359SOL    HW125976   3.231   0.555   4.760
 8359SOL    HW225977   3.301   0.604   4.899
 8360SOL     OW25978   3.933   6.142   0.738
 8360SOL    HW125979   3.901   6.209   0.806
 8360SOL    HW225980   3.951   6.189   0.652
 8361SOL     OW25981   3.276   0.114   2.016
 8361SOL    HW125982   3.330   0.177   2.072
 8361SOL    HW225983   3.289   0.021   2.050
 8362SOL     OW25984   3.956   1.497   1.185
 8362SOL    HW125985   4.036   1.549   1.156
 8362SOL    HW225986   3.929   1.527   1.277
 8363SOL     OW25987   5.189   3.272   6.748
 8363SOL    HW125988   5.187   3.210   6.669
 8363SOL    HW225989   5.096   3.303   6.768
 8364SOL     OW25990   0.938   2.600   3.631
 8364SOL    HW125991   0.934   2.698   3.653
 8364SOL    HW225992   1.022   2.561   3.669
 8365SOL     OW25993   1.503   3.010   1.985
 8365SOL    HW125994   1.447   2.972   2.059
 8365SOL    HW225995   1.492   3.109   1.981
 8366SOL     OW25996   1.781   5.592   1.236
 8366SOL    HW125997   1.860   5.614   1.179
 8366SOL    HW225998   1.785   5.647   1.320
 8367SOL     OW25999   4.714   6.121   4.367
 8367SOL    HW126000   4.806   6.088   4.348
 8367SOL    HW226001   4.692   6.195   4.303
 8368SOL     OW26002   1.713   6.837   6.496
 8368SOL    HW126003   1.745   6.794   6.581
 8368SOL    HW226004   1.624   6.880   6.512
 8369SOL     OW26005   0.785   7.011   6.198
 8369SOL    HW126006   0.799   6.995   6.296
 8369SOL    HW226007   0.691   0.022   6.183
 8370SOL     OW26008   3.159   0.994   5.706
 8370SOL    HW126009   3.119   1.025   5.620
 8370SOL    HW226010   3.152   1.067   5.774
 8371SOL     OW26011   2.213   4.441   0.454
 8371SOL    HW126012   2.272   4.451   0.534
 8371SOL    HW226013   2.118   4.428   0.483
 8372SOL     OW26014   1.582   4.780   1.912
 8372SOL    HW126015   1.655   4.849   1.915
 8372SOL    HW226016   1.530   4.784   1.998
 8373SOL     OW26017   1.912   0.361   4.237
 8373SOL    HW126018   1.961   0.386   4.320
 8373SOL    HW226019   1.954   0.405   4.158
 8374SOL     OW26020   0.254   1.048   4.975
 8374SOL    HW126021   0.180   1.092   4.923
 8374SOL    HW226022   0.221   1.024   5.066
 8375SOL     OW26023   3.221   6.622   5.150
 8375SOL    HW126024   3.154   6.620   5.075
 8375SOL    HW226025   3.174   6.614   5.237
 8376SOL     OW26026   0.340   1.297   4.278
 8376SOL    HW126027   0.329   1.364   4.352
 8376SOL    HW226028   0.332   1.205   4.314
 8377SOL     OW26029   5.007   6.009   0.782
 8377SOL    HW126030   4.948   6.034   0.859
 8377SOL    HW226031   5.027   5.911   0.786
 8378SOL     OW26032   4.793   5.092   3.008
 8378SOL    HW126033   4.757   5.053   3.092
 8378SOL    HW226034   4.835   5.181   3.028
 8379SOL     OW26035   5.405   3.351   1.106
 8379SOL    HW126036   5.461   3.344   1.023
 8379SOL    HW226037   5.342   3.273   1.110
 8380SOL     OW26038   0.515   0.667   2.719
 8380SOL    HW126039   0.602   0.678   2.671
 8380SOL    HW226040   0.440   0.686   2.656
 8381SOL     OW26041   0.097   3.430   4.674
 8381SOL    HW126042   0.121   3.363   4.605
 8381SOL    HW226043   0.121   3.395   4.765
 8382SOL     OW26044   2.722   0.006   2.745
 8382SOL    HW126045   2.658   6.961   2.789
 8382SOL    HW226046   2.796   0.028   2.808
 8383SOL     OW26047   2.671   6.999   5.899
 8383SOL    HW126048   2.601   0.037   5.942
 8383SOL    HW226049   2.638   6.905   5.891
 8384SOL     OW26050   6.749   0.903   1.403
 8384SOL    HW126051   6.675   0.855   1.449
 8384SOL    HW226052   6.713   0.951   1.322
 8385SOL     OW26053   5.634   2.578   0.806
 8385SOL    HW126054   5.716   2.526   0.830
 8385SOL    HW226055   5.577   2.590   0.888
 8386SOL     OW26056   2.047   5.448   1.781
 8386SOL    HW126057   2.057   5.539   1.822
 8386SOL    HW226058   2.005   5.458   1.691
 8387SOL     OW26059   1.107   1.379   1.592
 8387SOL    HW126060   1.191   1.389   1.646
 8387SOL    HW226061   1.053   1.303   1.629
 8388SOL     OW26062   2.184   6.389   0.365
 8388SOL    HW126063   2.133   6.317   0.316
 8388SOL    HW226064   2.280   6.386   0.338
 8389SOL     OW26065   0.097   3.398   3.084
 8389SOL    HW126066   0.036   3.402   3.163
 8389SOL    HW226067   0.136   3.489   3.068
 8390SOL     OW26068   4.355   1.117   0.317
 8390SOL    HW126069   4.405   1.185   0.263
 8390SOL    HW226070   4.324   1.043   0.257
 8391SOL     OW26071   6.307   4.918   0.811
 8391SOL    HW126072   6.355   4.840   0.851
 8391SOL    HW226073   6.374   4.981   0.771
 8392SOL     OW26074   6.593   4.654   5.157
 8392SOL    HW126075   6.639   4.740   5.136
 8392SOL    HW226076   6.620   4.584   5.090
 8393SOL     OW26077   0.689   6.839   2.726
 8393SOL    HW126078   0.669   6.811   2.820
 8393SOL    HW226079   0.606   6.877   2.685
 8394SOL     OW26080   6.241   2.779   2.243
 8394SOL    HW126081   6.291   2.844   2.186
 8394SOL    HW226082   6.143   2.800   2.241
 8395SOL     OW26083   1.843   6.561   4.901
 8395SOL    HW126084   1.923   6.584   4.845
 8395SOL    HW226085   1.871   6.551   4.996
 8396SOL     OW26086   4.224   5.372   2.645
 8396SOL    HW126087   4.130   5.406   2.642
 8396SOL    HW226088   4.279   5.420   2.576
 8397SOL     OW26089   2.528   0.234   2.690
 8397SOL    HW126090   2.571   0.147   2.714
 8397SOL    HW226091   2.440   0.243   2.737
 8398SOL     OW26092   4.218   1.971   6.655
 8398SOL    HW126093   4.203   2.014   6.744
 8398SOL    HW226094   4.139   1.986   6.596
 8399SOL     OW26095   5.875   6.072   6.972
 8399SOL    HW126096   5.886   6.008   0.029
 8399SOL    HW226097   5.818   6.030   6.901
 8400SOL     OW26098   1.654   1.473   4.590
 8400SOL    HW126099   1.555   1.474   4.596
 8400SOL    HW226100   1.691   1.411   4.659
 8401SOL     OW26101   2.734   1.471   6.203
 8401SOL    HW126102   2.808   1.511   6.150
 8401SOL    HW226103   2.719   1.525   6.286
 8402SOL     OW26104   4.118   1.664   5.516
 8402SOL    HW126105   4.025   1.639   5.544
 8402SOL    HW226106   4.136   1.627   5.424
 8403SOL     OW26107   0.922   2.195   4.633
 8403SOL    HW126108   0.916   2.104   4.674
 8403SOL    HW226109   1.005   2.241   4.666
 8404SOL     OW26110   4.676   6.862   5.706
 8404SOL    HW126111   4.743   6.872   5.780
 8404SOL    HW226112   4.590   6.827   5.744
 8405SOL     OW26113   2.050   0.659   5.799
 8405SOL    HW126114   2.100   0.695   5.720
 8405SOL    HW226115   2.009   0.572   5.775
 8406SOL     OW26116   5.630   0.137   0.540
 8406SOL    HW126117   5.602   0.118   0.634
 8406SOL    HW226118   5.693   0.215   0.539
 8407SOL     OW26119   3.456   6.400   3.741
 8407SOL    HW126120   3.356   6.409   3.748
 8407SOL    HW226121   3.479   6.328   3.675
 8408SOL     OW26122   5.995   3.748   1.850
 8408SOL    HW126123   5.999   3.811   1.772
 8408SOL    HW226124   5.994   3.800   1.935
 8409SOL     OW26125   5.621   2.436   3.462
 8409SOL    HW126126   5.533   2.391   3.451
 8409SOL    HW226127   5.650   2.432   3.558
 8410SOL     OW26128   5.321   1.192   2.067
 8410SOL    HW126129   5.333   1.112   2.127
 8410SOL    HW226130   5.377   1.180   1.985
 8411SOL     OW26131   0.459   4.620   0.120
 8411SOL    HW126132   0.447   4.541   0.181
 8411SOL    HW226133   0.410   4.698   0.159
 8412SOL     OW26134   2.905   1.246   1.268
 8412SOL    HW126135   2.864   1.290   1.188
 8412SOL    HW226136   2.938   1.155   1.242
 8413SOL     OW26137   4.293   5.404   6.612
 8413SOL    HW126138   4.364   5.356   6.561
 8413SOL    HW226139   4.213   5.345   6.621
 8414SOL     OW26140   3.481   4.946   3.351
 8414SOL    HW126141   3.513   4.893   3.272
 8414SOL    HW226142   3.557   4.961   3.414
 8415SOL     OW26143   0.038   6.155   3.993
 8415SOL    HW126144   0.061   6.233   4.052
 8415SOL    HW226145   6.970   6.117   4.021
 8416SOL     OW26146   5.376   3.673   2.118
 8416SOL    HW126147   5.438   3.748   2.096
 8416SOL    HW226148   5.380   3.653   2.216
 8417SOL     OW26149   1.491   4.144   5.767
 8417SOL    HW126150   1.576   4.092   5.755
 8417SOL    HW226151   1.505   4.239   5.738
 8418SOL     OW26152   6.060   4.909   0.698
 8418SOL    HW126153   6.151   4.889   0.733
 8418SOL    HW226154   6.013   4.823   0.678
 8419SOL     OW26155   5.548   6.936   2.221
 8419SOL    HW126156   5.598   6.923   2.307
 8419SOL    HW226157   5.569   0.006   2.183
 8420SOL     OW26158   4.189   0.177   0.519
 8420SOL    HW126159   4.256   0.115   0.477
 8420SOL    HW226160   4.109   0.185   0.460
 8421SOL     OW26161   1.382   5.305   6.885
 8421SOL    HW126162   1.378   5.367   6.963
 8421SOL    HW226163   1.300   5.247   6.885
 8422SOL     OW26164   4.144   1.580   0.815
 8422SOL    HW126165   4.086   1.503   0.789
 8422SOL    HW226166   4.138   1.652   0.746
 8423SOL     OW26167   3.152   4.464   5.604
 8423SOL    HW126168   3.206   4.415   5.673
 8423SOL    HW226169   3.200   4.462   5.517
 8424SOL     OW26170   2.251   2.294   2.743
 8424SOL    HW126171   2.262   2.246   2.829
 8424SOL    HW226172   2.324   2.362   2.734
 8425SOL     OW26173   4.958   5.047   6.274
 8425SOL    HW126174   4.907   5.063   6.358
 8425SOL    HW226175   5.048   5.091   6.280
 8426SOL     OW26176   3.612   3.815   3.496
 8426SOL    HW126177   3.710   3.805   3.514
 8426SOL    HW226178   3.587   3.756   3.418
 8427SOL     OW26179   3.876   3.963   4.685
 8427SOL    HW126180   3.929   3.950   4.768
 8427SOL    HW226181   3.811   4.038   4.698
 8428SOL     OW26182   0.861   4.810   1.619
 8428SOL    HW126183   0.767   4.780   1.635
 8428SOL    HW226184   0.890   4.872   1.692
 8429SOL     OW26185   1.574   5.459   4.143
 8429SOL    HW126186   1.564   5.362   4.119
 8429SOL    HW226187   1.671   5.478   4.158
 8430SOL     OW26188   3.832   5.347   3.316
 8430SOL    HW126189   3.931   5.334   3.326
 8430SOL    HW226190   3.814   5.433   3.269
 8431SOL     OW26191   2.985   4.752   0.413
 8431SOL    HW126192   2.958   4.763   0.509
 8431SOL    HW226193   3.030   4.663   0.401
 8432SOL     OW26194   5.545   6.930   6.205
 8432SOL    HW126195   5.560   6.983   6.289
 8432SOL    HW226196   5.612   6.857   6.199
 8433SOL     OW26197   5.048   2.295   0.655
 8433SOL    HW126198   5.046   2.330   0.561
 8433SOL    HW226199   5.016   2.366   0.717
 8434SOL     OW26200   2.925   6.627   4.693
 8434SOL    HW126201   2.869   6.585   4.765
 8434SOL    HW226202   3.011   6.659   4.732
 8435SOL     OW26203   6.195   1.094   2.017
 8435SOL    HW126204   6.119   1.141   1.972
 8435SOL    HW226205   6.188   1.107   2.116
 8436SOL     OW26206   3.838   0.118   3.657
 8436SOL    HW126207   3.773   0.047   3.631
 8436SOL    HW226208   3.860   0.173   3.576
 8437SOL     OW26209   2.140   0.677   4.406
 8437SOL    HW126210   2.051   0.634   4.392
 8437SOL    HW226211   2.188   0.683   4.318
 8438SOL     OW26212   2.432   4.468   2.278
 8438SOL    HW126213   2.471   4.462   2.370
 8438SOL    HW226214   2.493   4.523   2.221
 8439SOL     OW26215   6.813   5.229   2.657
 8439SOL    HW126216   6.760   5.145   2.652
 8439SOL    HW226217   6.851   5.249   2.567
 8440SOL     OW26218   1.419   2.181   3.944
 8440SOL    HW126219   1.453   2.275   3.951
 8440SOL    HW226220   1.491   2.117   3.971
 8441SOL     OW26221   6.026   6.593   0.499
 8441SOL    HW126222   5.956   6.644   0.549
 8441SOL    HW226223   6.111   6.646   0.498
 8442SOL     OW26224   3.198   1.684   5.073
 8442SOL    HW126225   3.278   1.685   5.013
 8442SOL    HW226226   3.191   1.595   5.118
 8443SOL     OW26227   2.826   5.022   3.810
 8443SOL    HW126228   2.856   5.106   3.855
 8443SOL    HW226229   2.729   5.006   3.829
 8444SOL     OW26230   2.406   6.257   4.046
 8444SOL    HW126231   2.399   6.272   3.948
 8444SOL    HW226232   2.497   6.284   4.078
 8445SOL     OW26233   3.996   6.531   0.804
 8445SOL    HW126234   4.082   6.500   0.845
 8445SOL    HW226235   3.919   6.489   0.853
 8446SOL     OW26236   4.494   4.548   6.779
 8446SOL    HW126237   4.428   4.521   6.709
 8446SOL    HW226238   4.531   4.638   6.757
 8447SOL     OW26239   4.808   1.734   1.998
 8447SOL    HW126240   4.812   1.796   1.920
 8447SOL    HW226241   4.816   1.787   2.083
 8448SOL     OW26242   4.131   5.882   4.341
 8448SOL    HW126243   4.195   5.835   4.280
 8448SOL    HW226244   4.180   5.951   4.394
 8449SOL     OW26245   6.711   2.870   3.520
 8449SOL    HW126246   6.616   2.849   3.546
 8449SOL    HW226247   6.711   2.932   3.442
 8450SOL     OW26248   0.539   6.393   0.947
 8450SOL    HW126249   0.598   6.405   1.027
 8450SOL    HW226250   0.557   6.465   0.881
 8451SOL     OW26251   4.042   1.750   0.531
 8451SOL    HW126252   4.110   1.762   0.459
 8451SOL    HW226253   3.951   1.773   0.495
 8452SOL     OW26254   5.797   1.576   2.786
 8452SOL    HW126255   5.874   1.544   2.731
 8452SOL    HW226256   5.746   1.645   2.734
 8453SOL     OW26257   0.359   4.284   6.705
 8453SOL    HW126258   0.417   4.257   6.781
 8453SOL    HW226259   0.263   4.284   6.734
 8454SOL     OW26260   6.712   6.628   1.682
 8454SOL    HW126261   6.786   6.636   1.749
 8454SOL    HW226262   6.676   6.534   1.683
 8455SOL     OW26263   6.128   2.800   1.832
 8455SOL    HW126264   6.060   2.871   1.850
 8455SOL    HW226265   6.219   2.833   1.859
 8456SOL     OW26266   3.998   5.648   3.024
 8456SOL    HW126267   4.021   5.722   3.087
 8456SOL    HW226268   4.001   5.681   2.930
 8457SOL     OW26269   6.628   6.727   4.613
 8457SOL    HW126270   6.626   6.676   4.699
 8457SOL    HW226271   6.545   6.781   4.604
 8458SOL     OW26272   3.217   1.680   6.594
 8458SOL    HW126273   3.280   1.699   6.518
 8458SOL    HW226274   3.163   1.599   6.573
 8459SOL     OW26275   2.716   5.695   1.977
 8459SOL    HW126276   2.732   5.757   2.055
 8459SOL    HW226277   2.627   5.650   1.989
 8460SOL     OW26278   4.335   4.123   5.322
 8460SOL    HW126279   4.295   4.164   5.240
 8460SOL    HW226280   4.316   4.025   5.323
 8461SOL     OW26281   0.338   4.073   4.217
 8461SOL    HW126282   0.280   4.002   4.257
 8461SOL    HW226283   0.424   4.079   4.268
 8462SOL     OW26284   2.615   2.793   6.397
 8462SOL    HW126285   2.543   2.730   6.425
 8462SOL    HW226286   2.611   2.806   6.298
 8463SOL     OW26287   6.409   0.449   1.522
 8463SOL    HW126288   6.395   0.357   1.487
 8463SOL    HW226289   6.340   0.469   1.592
 8464SOL     OW26290   5.744   3.187   4.521
 8464SOL    HW126291   5.749   3.270   4.466
 8464SOL    HW226292   5.734   3.212   4.617
 8465SOL     OW26293   0.771   2.958   0.686
 8465SOL    HW126294   0.840   2.988   0.620
 8465SOL    HW226295   0.723   2.878   0.650
 8466SOL     OW26296   0.063   7.012   4.167
 8466SOL    HW126297   0.092   0.028   4.078
 8466SOL    HW226298   0.084   0.060   4.238
 8467SOL     OW26299   4.438   0.043   0.430
 8467SOL    HW126300   4.451   0.020   0.333
 8467SOL    HW226301   4.413   6.979   0.480
 8468SOL     OW26302   3.634   2.394   6.413
 8468SOL    HW126303   3.603   2.303   6.440
 8468SOL    HW226304   3.642   2.452   6.494
 8469SOL     OW26305   3.324   1.996   6.547
 8469SOL    HW126306   3.225   1.991   6.536
 8469SOL    HW226307   3.349   1.968   6.639
 8470SOL     OW26308   1.502   3.786   6.947
 8470SOL    HW126309   1.407   3.801   6.974
 8470SOL    HW226310   1.508   3.776   6.848
 8471SOL     OW26311   3.318   1.250   3.350
 8471SOL    HW126312   3.404   1.299   3.335
 8471SOL    HW226313   3.334   1.152   3.346
 8472SOL     OW26314   6.950   1.020   4.971
 8472SOL    HW126315   6.908   1.002   5.060
 8472SOL    HW226316   6.956   0.936   4.918
 8473SOL     OW26317   6.551   5.800   6.678
 8473SOL    HW126318   6.635   5.847   6.653
 8473SOL    HW226319   6.495   5.786   6.596
 8474SOL     OW26320   3.690   2.808   1.566
 8474SOL    HW126321   3.703   2.884   1.502
 8474SOL    HW226322   3.612   2.828   1.626
 8475SOL     OW26323   6.732   2.271   3.661
 8475SOL    HW126324   6.742   2.363   3.622
 8475SOL    HW226325   6.796   2.209   3.615
 8476SOL     OW26326   7.017   2.383   1.156
 8476SOL    HW126327   0.028   2.363   1.062
 8476SOL    HW226328   6.936   2.328   1.177
 8477SOL     OW26329   4.813   6.361   0.963
 8477SOL    HW126330   4.754   6.436   0.934
 8477SOL    HW226331   4.904   6.397   0.985
 8478SOL     OW26332   1.029   6.481   5.928
 8478SOL    HW126333   1.023   6.406   5.993
 8478SOL    HW226334   1.092   6.551   5.963
 8479SOL     OW26335   0.546   2.262   0.992
 8479SOL    HW126336   0.608   2.264   1.070
 8479SOL    HW226337   0.480   2.337   0.999
 8480SOL     OW26338   4.352   1.688   0.454
 8480SOL    HW126339   4.398   1.720   0.537
 8480SOL    HW226340   4.343   1.588   0.458
 8481SOL     OW26341   3.997   2.185   4.002
 8481SOL    HW126342   4.073   2.212   4.061
 8481SOL    HW226343   4.016   2.213   3.908
 8482SOL     OW26344   4.319   5.810   1.891
 8482SOL    HW126345   4.405   5.785   1.846
 8482SOL    HW226346   4.303   5.908   1.881
 8483SOL     OW26347   4.428   6.260   2.588
 8483SOL    HW126348   4.349   6.250   2.528
 8483SOL    HW226349   4.513   6.251   2.535
 8484SOL     OW26350   0.723   5.952   3.504
 8484SOL    HW126351   0.811   5.916   3.536
 8484SOL    HW226352   0.705   6.040   3.549
 8485SOL     OW26353   3.654   3.176   0.124
 8485SOL    HW126354   3.615   3.249   0.068
 8485SOL    HW226355   3.611   3.089   0.098
 8486SOL     OW26356   3.743   0.700   2.970
 8486SOL    HW126357   3.708   0.606   2.968
 8486SOL    HW226358   3.668   0.762   2.993
 8487SOL     OW26359   5.547   1.956   6.156
 8487SOL    HW126360   5.644   1.945   6.137
 8487SOL    HW226361   5.493   1.904   6.089
 8488SOL     OW26362   5.687   5.887   6.902
 8488SOL    HW126363   5.625   5.918   6.974
 8488SOL    HW226364   5.720   5.795   6.924
 8489SOL     OW26365   6.089   1.760   1.405
 8489SOL    HW126366   6.097   1.851   1.445
 8489SOL    HW226367   6.070   1.694   1.478
 8490SOL     OW26368   4.372   6.691   4.044
 8490SOL    HW126369   4.299   6.661   4.105
 8490SOL    HW226370   4.444   6.622   4.042
 8491SOL     OW26371   2.427   6.063   0.146
 8491SOL    HW126372   2.331   6.091   0.138
 8491SOL    HW226373   2.443   5.983   0.088
 8492SOL     OW26374   4.727   4.073   6.401
 8492SOL    HW126375   4.790   4.008   6.444
 8492SOL    HW226376   4.773   4.118   6.324
 8493SOL     OW26377   2.322   2.683   6.142
 8493SOL    HW126378   2.267   2.752   6.096
 8493SOL    HW226379   2.263   2.619   6.191
 8494SOL     OW26380   3.352   5.521   1.033
 8494SOL    HW126381   3.278   5.535   1.100
 8494SOL    HW226382   3.421   5.592   1.046
 8495SOL     OW26383   6.604   5.242   2.293
 8495SOL    HW126384   6.564   5.240   2.385
 8495SOL    HW226385   6.533   5.222   2.226
 8496SOL     OW26386   0.530   2.100   2.038
 8496SOL    HW126387   0.490   2.060   1.955
 8496SOL    HW226388   0.483   2.187   2.059
 8497SOL     OW26389   5.950   1.212   3.346
 8497SOL    HW126390   5.941   1.163   3.433
 8497SOL    HW226391   5.903   1.300   3.352
 8498SOL     OW26392   0.281   6.765   2.770
 8498SOL    HW126393   0.207   6.832   2.778
 8498SOL    HW226394   0.288   6.713   2.855
 8499SOL     OW26395   2.242   4.366   6.558
 8499SOL    HW126396   2.228   4.340   6.462
 8499SOL    HW226397   2.159   4.409   6.593
 8500SOL     OW26398   1.938   6.228   5.215
 8500SOL    HW126399   1.900   6.201   5.303
 8500SOL    HW226400   1.886   6.306   5.179
 8501SOL     OW26401   0.674   1.769   6.774
 8501SOL    HW126402   0.721   1.807   6.694
 8501SOL    HW226403   0.603   1.706   6.744
 8502SOL     OW26404   1.568   4.211   1.344
 8502SOL    HW126405   1.517   4.174   1.267
 8502SOL    HW226406   1.633   4.279   1.312
 8503SOL     OW26407   1.852   0.041   4.152
 8503SOL    HW126408   1.904   0.069   4.072
 8503SOL    HW226409   1.840   0.119   4.214
 8504SOL     OW26410   2.562   5.300   2.361
 8504SOL    HW126411   2.609   5.223   2.318
 8504SOL    HW226412   2.582   5.301   2.459
 8505SOL     OW26413   4.880   3.249   3.685
 8505SOL    HW126414   4.871   3.339   3.644
 8505SOL    HW226415   4.882   3.179   3.613
 8506SOL     OW26416   6.934   1.228   6.508
 8506SOL    HW126417   0.012   1.249   6.511
 8506SOL    HW226418   6.917   1.157   6.439
 8507SOL     OW26419   3.443   0.960   5.461
 8507SOL    HW126420   3.505   0.891   5.500
 8507SOL    HW226421   3.481   1.051   5.478
 8508SOL     OW26422   6.302   1.928   5.316
 8508SOL    HW126423   6.342   1.899   5.229
 8508SOL    HW226424   6.222   1.872   5.337
 8509SOL     OW26425   4.364   1.648   3.454
 8509SOL    HW126426   4.360   1.645   3.354
 8509SOL    HW226427   4.456   1.674   3.483
 8510SOL     OW26428   5.795   3.926   3.489
 8510SOL    HW126429   5.843   3.903   3.404
 8510SOL    HW226430   5.720   3.988   3.469
 8511SOL     OW26431   6.830   3.580   1.853
 8511SOL    HW126432   6.847   3.512   1.924
 8511SOL    HW226433   6.860   3.545   1.765
 8512SOL     OW26434   3.551   1.862   1.548
 8512SOL    HW126435   3.501   1.783   1.583
 8512SOL    HW226436   3.628   1.882   1.609
 8513SOL     OW26437   5.035   4.079   1.274
 8513SOL    HW126438   5.001   4.044   1.186
 8513SOL    HW226439   5.113   4.025   1.303
 8514SOL     OW26440   2.596   2.343   3.811
 8514SOL    HW126441   2.631   2.363   3.720
 8514SOL    HW226442   2.522   2.275   3.804
 8515SOL     OW26443   5.772   1.899   0.907
 8515SOL    HW126444   5.784   1.879   1.004
 8515SOL    HW226445   5.687   1.951   0.894
 8516SOL     OW26446   6.583   2.299   1.566
 8516SOL    HW126447   6.541   2.224   1.515
 8516SOL    HW226448   6.564   2.386   1.521
 8517SOL     OW26449   1.844   3.092   6.041
 8517SOL    HW126450   1.820   3.046   6.126
 8517SOL    HW226451   1.764   3.096   5.981
 8518SOL     OW26452   4.965   4.130   0.343
 8518SOL    HW126453   4.993   4.145   0.248
 8518SOL    HW226454   5.046   4.114   0.399
 8519SOL     OW26455   1.125   4.143   1.614
 8519SOL    HW126456   1.171   4.082   1.678
 8519SOL    HW226457   1.150   4.119   1.520
 8520SOL     OW26458   3.549   2.929   0.070
 8520SOL    HW126459   3.455   2.903   0.093
 8520SOL    HW226460   3.586   2.865   0.003
 8521SOL     OW26461   2.014   5.357   6.034
 8521SOL    HW126462   1.943   5.288   6.021
 8521SOL    HW226463   1.971   5.447   6.041
 8522SOL     OW26464   1.270   6.467   1.921
 8522SOL    HW126465   1.187   6.488   1.974
 8522SOL    HW226466   1.246   6.461   1.824
 8523SOL     OW26467   1.749   6.587   6.840
 8523SOL    HW126468   1.690   6.587   6.921
 8523SOL    HW226469   1.719   6.513   6.778
 8524SOL     OW26470   0.432   2.469   4.989
 8524SOL    HW126471   0.477   2.494   4.904
 8524SOL    HW226472   0.350   2.525   5.002
 8525SOL     OW26473   5.970   3.837   2.754
 8525SOL    HW126474   6.011   3.928   2.741
 8525SOL    HW226475   5.949   3.796   2.665
 8526SOL     OW26476   3.865   5.831   6.240
 8526SOL    HW126477   3.951   5.783   6.257
 8526SOL    HW226478   3.884   5.919   6.196
 8527SOL     OW26479   3.088   1.200   6.229
 8527SOL    HW126480   3.118   1.136   6.299
 8527SOL    HW226481   3.001   1.241   6.255
 8528SOL     OW26482   3.832   1.535   6.409
 8528SOL    HW126483   3.768   1.543   6.485
 8528SOL    HW226484   3.926   1.538   6.444
 8529SOL     OW26485   1.275   0.728   1.331
 8529SOL    HW126486   1.198   0.685   1.286
 8529SOL    HW226487   1.304   0.809   1.279
 8530SOL     OW26488   3.246   3.844   5.021
 8530SOL    HW126489   3.247   3.768   5.086
 8530SOL    HW226490   3.208   3.813   4.934
 8531SOL     OW26491   6.462   5.503   2.381
 8531SOL    HW126492   6.375   5.456   2.370
 8531SOL    HW226493   6.490   5.543   2.294
 8532SOL     OW26494   4.116   4.751   4.453
 8532SOL    HW126495   4.198   4.720   4.405
 8532SOL    HW226496   4.035   4.733   4.396
 8533SOL     OW26497   1.352   0.405   6.717
 8533SOL    HW126498   1.281   0.473   6.734
 8533SOL    HW226499   1.403   0.387   6.801
 8534SOL     OW26500   6.558   2.831   3.868
 8534SOL    HW126501   6.656   2.816   3.855
 8534SOL    HW226502   6.511   2.823   3.780
 8535SOL     OW26503   6.528   1.628   4.638
 8535SOL    HW126504   6.521   1.651   4.735
 8535SOL    HW226505   6.505   1.709   4.583
 8536SOL     OW26506   6.618   2.767   4.946
 8536SOL    HW126507   6.717   2.775   4.956
 8536SOL    HW226508   6.595   2.684   4.895
 8537SOL     OW26509   5.356   1.413   2.263
 8537SOL    HW126510   5.426   1.483   2.274
 8537SOL    HW226511   5.311   1.423   2.174
 8538SOL     OW26512   0.430   0.826   6.738
 8538SOL    HW126513   0.369   0.805   6.815
 8538SOL    HW226514   0.436   0.925   6.727
 8539SOL     OW26515   5.527   0.892   2.387
 8539SOL    HW126516   5.562   0.974   2.340
 8539SOL    HW226517   5.439   0.866   2.347
 8540SOL     OW26518   4.557   0.825   0.005
 8540SOL    HW126519   4.620   0.882   0.058
 8540SOL    HW226520   4.574   0.729   0.025
 8541SOL     OW26521   2.765   1.715   4.720
 8541SOL    HW126522   2.785   1.639   4.658
 8541SOL    HW226523   2.684   1.763   4.687
 8542SOL     OW26524   4.005   4.711   6.613
 8542SOL    HW126525   3.971   4.805   6.621
 8542SOL    HW226526   3.930   4.647   6.625
 8543SOL     OW26527   3.317   0.680   0.710
 8543SOL    HW126528   3.333   0.610   0.641
 8543SOL    HW226529   3.335   0.642   0.801
 8544SOL     OW26530   5.324   3.406   4.636
 8544SOL    HW126531   5.283   3.430   4.548
 8544SOL    HW226532   5.328   3.307   4.645
 8545SOL     OW26533   4.698   6.633   4.962
 8545SOL    HW126534   4.666   6.669   5.050
 8545SOL    HW226535   4.730   6.708   4.904
 8546SOL     OW26536   0.103   1.241   3.527
 8546SOL    HW126537   0.154   1.168   3.572
 8546SOL    HW226538   0.006   1.234   3.551
 8547SOL     OW26539   1.260   6.785   6.435
 8547SOL    HW126540   1.260   6.879   6.403
 8547SOL    HW226541   1.247   6.723   6.358
 8548SOL     OW26542   6.077   3.691   5.376
 8548SOL    HW126543   6.051   3.595   5.368
 8548SOL    HW226544   6.148   3.701   5.446
 8549SOL     OW26545   0.977   2.918   4.386
 8549SOL    HW126546   1.015   2.866   4.310
 8549SOL    HW226547   0.975   2.860   4.468
 8550SOL     OW26548   1.840   4.919   0.152
 8550SOL    HW126549   1.796   4.903   0.064
 8550SOL    HW226550   1.818   5.011   0.185
 8551SOL     OW26551   2.949   3.589   6.369
 8551SOL    HW126552   3.044   3.612   6.390
 8551SOL    HW226553   2.909   3.662   6.314
 8552SOL     OW26554   2.445   0.666   3.882
 8552SOL    HW126555   2.435   0.595   3.812
 8552SOL    HW226556   2.364   0.725   3.881
 8553SOL     OW26557   4.369   4.190   6.680
 8553SOL    HW126558   4.419   4.245   6.747
 8553SOL    HW226559   4.427   4.113   6.651
 8554SOL     OW26560   1.112   4.661   0.513
 8554SOL    HW126561   1.116   4.636   0.610
 8554SOL    HW226562   1.197   4.708   0.487
 8555SOL     OW26563   2.089   1.530   3.514
 8555SOL    HW126564   2.057   1.591   3.442
 8555SOL    HW226565   2.163   1.473   3.480
 8556SOL     OW26566   1.709   6.064   4.811
 8556SOL    HW126567   1.782   6.035   4.874
 8556SOL    HW226568   1.745   6.071   4.719
 8557SOL     OW26569   5.599   6.582   2.926
 8557SOL    HW126570   5.599   6.632   2.839
 8557SOL    HW226571   5.576   6.486   2.909
 8558SOL     OW26572   2.654   4.684   2.993
 8558SOL    HW126573   2.571   4.724   3.033
 8558SOL    HW226574   2.704   4.634   3.064
 8559SOL     OW26575   1.477   0.143   2.635
 8559SOL    HW126576   1.474   0.135   2.535
 8559SOL    HW226577   1.384   0.149   2.671
 8560SOL     OW26578   6.650   6.323   1.605
 8560SOL    HW126579   6.739   6.298   1.567
 8560SOL    HW226580   6.600   6.240   1.630
 8561SOL     OW26581   3.070   0.506   2.714
 8561SOL    HW126582   3.042   0.546   2.627
 8561SOL    HW226583   3.048   0.570   2.788
 8562SOL     OW26584   4.270   6.349   5.717
 8562SOL    HW126585   4.241   6.421   5.779
 8562SOL    HW226586   4.292   6.267   5.769
 8563SOL     OW26587   1.610   4.459   0.087
 8563SOL    HW126588   1.671   4.404   0.030
 8563SOL    HW226589   1.617   4.555   0.060
 8564SOL     OW26590   3.246   0.709   5.027
 8564SOL    HW126591   3.305   0.775   4.982
 8564SOL    HW226592   3.151   0.723   4.997
 8565SOL     OW26593   3.686   5.700   1.305
 8565SOL    HW126594   3.647   5.658   1.387
 8565SOL    HW226595   3.774   5.659   1.285
 8566SOL     OW26596   1.942   0.372   1.318
 8566SOL    HW126597   1.901   0.295   1.366
 8566SOL    HW226598   1.871   0.437   1.291
 8567SOL     OW26599   0.422   2.477   2.858
 8567SOL    HW126600   0.495   2.533   2.899
 8567SOL    HW226601   0.455   2.437   2.772
 8568SOL     OW26602   5.229   1.186   6.691
 8568SOL    HW126603   5.189   1.245   6.762
 8568SOL    HW226604   5.156   1.146   6.637
 8569SOL     OW26605   5.022   0.740   6.087
 8569SOL    HW126606   5.040   0.726   5.990
 8569SOL    HW226607   4.940   0.689   6.113
 8570SOL     OW26608   1.408   1.754   5.401
 8570SOL    HW126609   1.322   1.717   5.363
 8570SOL    HW226610   1.426   1.711   5.489
 8571SOL     OW26611   1.789   5.833   5.247
 8571SOL    HW126612   1.705   5.868   5.287
 8571SOL    HW226613   1.767   5.770   5.173
 8572SOL     OW26614   3.238   4.455   6.516
 8572SOL    HW126615   3.198   4.489   6.430
 8572SOL    HW226616   3.266   4.533   6.572
 8573SOL     OW26617   3.165   6.034   6.482
 8573SOL    HW126618   3.133   5.943   6.458
 8573SOL    HW226619   3.219   6.071   6.407
 8574SOL     OW26620   6.947   5.830   5.952
 8574SOL    HW126621   0.026   5.837   5.968
 8574SOL    HW226622   6.899   5.851   6.037
 8575SOL     OW26623   2.303   2.853   4.505
 8575SOL    HW126624   2.237   2.810   4.567
 8575SOL    HW226625   2.269   2.944   4.479
 8576SOL     OW26626   1.600   5.223   6.008
 8576SOL    HW126627   1.669   5.217   6.081
 8576SOL    HW226628   1.646   5.218   5.919
 8577SOL     OW26629   0.464   6.614   5.027
 8577SOL    HW126630   0.490   6.575   5.115
 8577SOL    HW226631   0.463   6.543   4.958
 8578SOL     OW26632   5.435   6.997   3.939
 8578SOL    HW126633   5.430   6.897   3.946
 8578SOL    HW226634   5.531   0.006   3.938
 8579SOL     OW26635   1.713   0.047   2.426
 8579SOL    HW126636   1.798   7.018   2.402
 8579SOL    HW226637   1.650   0.044   2.349
 8580SOL     OW26638   1.897   6.189   1.852
 8580SOL    HW126639   1.867   6.110   1.907
 8580SOL    HW226640   1.821   6.222   1.797
 8581SOL     OW26641   3.281   3.955   2.096
 8581SOL    HW126642   3.349   3.926   2.028
 8581SOL    HW226643   3.198   3.984   2.049
 8582SOL     OW26644   4.369   4.590   3.222
 8582SOL    HW126645   4.384   4.555   3.130
 8582SOL    HW226646   4.452   4.635   3.254
 8583SOL     OW26647   5.776   0.422   3.955
 8583SOL    HW126648   5.850   0.355   3.946
 8583SOL    HW226649   5.751   0.456   3.864
 8584SOL     OW26650   1.312   4.390   5.712
 8584SOL    HW126651   1.404   4.410   5.681
 8584SOL    HW226652   1.267   4.474   5.741
 8585SOL     OW26653   0.776   6.288   5.613
 8585SOL    HW126654   0.806   6.213   5.672
 8585SOL    HW226655   0.678   6.302   5.624
 8586SOL     OW26656   2.692   6.708   2.125
 8586SOL    HW126657   2.765   6.770   2.095
 8586SOL    HW226658   2.650   6.744   2.208
 8587SOL     OW26659   1.236   6.864   4.033
 8587SOL    HW126660   1.156   6.805   4.049
 8587SOL    HW226661   1.300   6.818   3.971
 8588SOL     OW26662   2.570   1.264   0.329
 8588SOL    HW126663   2.473   1.258   0.352
 8588SOL    HW226664   2.625   1.232   0.406
 8589SOL     OW26665   4.649   3.077   5.419
 8589SOL    HW126666   4.578   3.144   5.438
 8589SOL    HW226667   4.679   3.035   5.505
 8590SOL     OW26668   6.802   6.056   4.056
 8590SOL    HW126669   6.752   6.126   4.107
 8590SOL    HW226670   6.759   6.042   3.967
 8591SOL     OW26671   0.722   4.001   0.338
 8591SOL    HW126672   0.733   3.909   0.299
 8591SOL    HW226673   0.802   4.056   0.315
 8592SOL     OW26674   6.351   3.262   6.306
 8592SOL    HW126675   6.342   3.339   6.370
 8592SOL    HW226676   6.327   3.292   6.214
 8593SOL     OW26677   2.349   0.522   1.215
 8593SOL    HW126678   2.349   0.581   1.134
 8593SOL    HW226679   2.364   0.427   1.187
 8594SOL     OW26680   4.331   2.438   5.500
 8594SOL    HW126681   4.284   2.389   5.573
 8594SOL    HW226682   4.412   2.483   5.536
 8595SOL     OW26683   0.325   1.992   3.410
 8595SOL    HW126684   0.368   2.082   3.401
 8595SOL    HW226685   0.228   2.000   3.387
 8596SOL     OW26686   0.891   5.589   3.434
 8596SOL    HW126687   0.864   5.497   3.464
 8596SOL    HW226688   0.812   5.637   3.398
 8597SOL     OW26689   4.093   1.808   1.247
 8597SOL    HW126690   4.127   1.750   1.173
 8597SOL    HW226691   4.055   1.892   1.210
 8598SOL     OW26692   5.967   0.066   1.079
 8598SOL    HW126693   5.993   6.990   1.066
 8598SOL    HW226694   5.870   0.077   1.054
 8599SOL     OW26695   1.006   2.641   4.647
 8599SOL    HW126696   0.982   2.663   4.742
 8599SOL    HW226697   0.928   2.598   4.602
 8600SOL     OW26698   5.124   5.120   4.848
 8600SOL    HW126699   5.197   5.052   4.851
 8600SOL    HW226700   5.129   5.179   4.928
 8601SOL     OW26701   1.023   1.084   4.683
 8601SOL    HW126702   1.120   1.059   4.684
 8601SOL    HW226703   0.969   1.009   4.720
 8602SOL     OW26704   2.777   5.126   2.207
 8602SOL    HW126705   2.857   5.142   2.149
 8602SOL    HW226706   2.718   5.058   2.165
 8603SOL     OW26707   4.251   6.046   0.611
 8603SOL    HW126708   4.163   6.014   0.575
 8603SOL    HW226709   4.246   6.143   0.631
 8604SOL     OW26710   0.454   2.584   5.273
 8604SOL    HW126711   0.445   2.518   5.199
 8604SOL    HW226712   0.551   2.593   5.297
 8605SOL     OW26713   2.814   6.006   4.087
 8605SOL    HW126714   2.745   5.949   4.042
 8605SOL    HW226715   2.798   6.007   4.186
 8606SOL     OW26716   1.602   3.712   6.416
 8606SOL    HW126717   1.645   3.747   6.332
 8606SOL    HW226718   1.669   3.711   6.490
 8607SOL     OW26719   3.507   6.002   1.078
 8607SOL    HW126720   3.600   5.994   1.114
 8607SOL    HW226721   3.495   6.092   1.036
 8608SOL     OW26722   3.975   5.204   2.792
 8608SOL    HW126723   3.913   5.236   2.720
 8608SOL    HW226724   3.978   5.271   2.865
 8609SOL     OW26725   4.821   0.610   2.708
 8609SOL    HW126726   4.912   0.571   2.725
 8609SOL    HW226727   4.792   0.663   2.788
 8610SOL     OW26728   1.729   2.484   3.017
 8610SOL    HW126729   1.753   2.387   3.016
 8610SOL    HW226730   1.654   2.500   2.953
 8611SOL     OW26731   2.921   1.573   4.941
 8611SOL    HW126732   2.837   1.624   4.928
 8611SOL    HW226733   2.997   1.636   4.959
 8612SOL     OW26734   3.094   3.162   1.461
 8612SOL    HW126735   3.102   3.178   1.363
 8612SOL    HW226736   3.011   3.206   1.496
 8613SOL     OW26737   2.446   1.869   1.661
 8613SOL    HW126738   2.505   1.932   1.610
 8613SOL    HW226739   2.456   1.886   1.759
 8614SOL     OW26740   1.157   2.605   2.260
 8614SOL    HW126741   1.091   2.531   2.277
 8614SOL    HW226742   1.184   2.605   2.164
 8615SOL     OW26743   4.692   1.641   5.482
 8615SOL    HW126744   4.598   1.653   5.452
 8615SOL    HW226745   4.716   1.544   5.481
 8616SOL     OW26746   3.113   4.673   1.732
 8616SOL    HW126747   3.078   4.761   1.701
 8616SOL    HW226748   3.038   4.619   1.770
 8617SOL     OW26749   6.606   1.072   6.628
 8617SOL    HW126750   6.524   1.020   6.653
 8617SOL    HW226751   6.687   1.025   6.662
 8618SOL     OW26752   6.087   5.729   0.430
 8618SOL    HW126753   6.166   5.670   0.414
 8618SOL    HW226754   6.105   5.787   0.509
 8619SOL     OW26755   3.769   4.993   1.933
 8619SOL    HW126756   3.862   4.990   1.897
 8619SOL    HW226757   3.731   4.900   1.935
 8620SOL     OW26758   1.764   0.677   3.843
 8620SOL    HW126759   1.699   0.748   3.872
 8620SOL    HW226760   1.713   0.601   3.803
 8621SOL     OW26761   5.425   1.838   2.919
 8621SOL    HW126762   5.410   1.937   2.912
 8621SOL    HW226763   5.520   1.817   2.894
 8622SOL     OW26764   5.149   3.516   0.496
 8622SOL    HW126765   5.239   3.557   0.509
 8622SOL    HW226766   5.082   3.562   0.555
 8623SOL     OW26767   1.212   3.661   4.531
 8623SOL    HW126768   1.288   3.661   4.466
 8623SOL    HW226769   1.248   3.662   4.625
 8624SOL     OW26770   1.330   3.696   4.803
 8624SOL    HW126771   1.238   3.695   4.842
 8624SOL    HW226772   1.393   3.650   4.866
 8625SOL     OW26773   4.656   0.332   5.844
 8625SOL    HW126774   4.593   0.307   5.770
 8625SOL    HW226775   4.729   0.264   5.849
 8626SOL     OW26776   3.732   3.219   5.402
 8626SOL    HW126777   3.782   3.179   5.479
 8626SOL    HW226778   3.661   3.280   5.437
 8627SOL     OW26779   0.946   1.304   3.651
 8627SOL    HW126780   0.874   1.266   3.594
 8627SOL    HW226781   0.987   1.232   3.706
 8628SOL     OW26782   6.785   6.307   0.707
 8628SOL    HW126783   6.806   6.214   0.736
 8628SOL    HW226784   6.835   6.329   0.624
 8629SOL     OW26785   1.305   5.666   5.113
 8629SOL    HW126786   1.213   5.646   5.078
 8629SOL    HW226787   1.372   5.653   5.040
 8630SOL     OW26788   5.401   4.309   3.699
 8630SOL    HW126789   5.454   4.227   3.720
 8630SOL    HW226790   5.349   4.337   3.780
 8631SOL     OW26791   1.002   4.705   6.158
 8631SOL    HW126792   0.988   4.640   6.233
 8631SOL    HW226793   1.031   4.793   6.196
 8632SOL     OW26794   3.870   5.582   4.221
 8632SOL    HW126795   3.920   5.601   4.305
 8632SOL    HW226796   3.811   5.659   4.199
 8633SOL     OW26797   4.921   1.671   5.858
 8633SOL    HW126798   4.964   1.581   5.844
 8633SOL    HW226799   4.873   1.698   5.775
 8634SOL     OW26800   5.164   3.735   0.745
 8634SOL    HW126801   5.172   3.827   0.783
 8634SOL    HW226802   5.157   3.669   0.820
 8635SOL     OW26803   5.465   4.246   6.199
 8635SOL    HW126804   5.450   4.176   6.269
 8635SOL    HW226805   5.414   4.329   6.224
 8636SOL     OW26806   5.023   5.714   1.031
 8636SOL    HW126807   4.980   5.651   1.096
 8636SOL    HW226808   4.996   5.689   0.938
 8637SOL     OW26809   2.016   1.162   0.169
 8637SOL    HW126810   1.975   1.206   0.089
 8637SOL    HW226811   1.950   1.163   0.244
 8638SOL     OW26812   2.279   2.926   5.999
 8638SOL    HW126813   2.216   2.977   5.941
 8638SOL    HW226814   2.304   2.983   6.078
 8639SOL     OW26815   5.599   2.855   1.122
 8639SOL    HW126816   5.536   2.851   1.200
 8639SOL    HW226817   5.691   2.828   1.152
 8640SOL     OW26818   4.439   3.866   0.058
 8640SOL    HW126819   4.448   3.966   0.047
 8640SOL    HW226820   4.362   3.833   0.004
 8641SOL     OW26821   4.979   4.776   4.489
 8641SOL    HW126822   5.064   4.751   4.536
 8641SOL    HW226823   4.918   4.823   4.552
 8642SOL     OW26824   2.268   6.176   3.210
 8642SOL    HW126825   2.184   6.197   3.261
 8642SOL    HW226826   2.244   6.121   3.129
 8643SOL     OW26827   2.853   6.995   6.580
 8643SOL    HW126828   2.805   7.016   6.495
 8643SOL    HW226829   2.795   6.938   6.638
 8644SOL     OW26830   5.485   2.252   5.135
 8644SOL    HW126831   5.537   2.333   5.162
 8644SOL    HW226832   5.538   2.197   5.071
 8645SOL     OW26833   4.588   4.541   1.383
 8645SOL    HW126834   4.625   4.632   1.403
 8645SOL    HW226835   4.655   4.471   1.409
 8646SOL     OW26836   6.858   1.465   1.585
 8646SOL    HW126837   6.814   1.380   1.556
 8646SOL    HW226838   6.793   1.541   1.578
 8647SOL     OW26839   3.003   5.797   6.419
 8647SOL    HW126840   2.906   5.777   6.438
 8647SOL    HW226841   3.050   5.712   6.397
 8648SOL     OW26842   6.324   0.709   3.553
 8648SOL    HW126843   6.351   0.803   3.570
 8648SOL    HW226844   6.340   0.654   3.634
 8649SOL     OW26845   5.255   5.406   5.844
 8649SOL    HW126846   5.321   5.469   5.804
 8649SOL    HW226847   5.304   5.329   5.885
 8650SOL     OW26848   2.238   5.179   4.716
 8650SOL    HW126849   2.176   5.189   4.639
 8650SOL    HW226850   2.236   5.084   4.748
 8651SOL     OW26851   3.661   0.177   0.148
 8651SOL    HW126852   3.647   0.238   0.226
 8651SOL    HW226853   3.593   0.198   0.077
 8652SOL     OW26854   1.847   4.446   4.039
 8652SOL    HW126855   1.841   4.436   4.138
 8652SOL    HW226856   1.756   4.434   3.999
 8653SOL     OW26857   5.759   0.449   6.493
 8653SOL    HW126858   5.839   0.497   6.455
 8653SOL    HW226859   5.790   0.371   6.548
 8654SOL     OW26860   1.272   4.926   1.581
 8654SOL    HW126861   1.327   4.956   1.658
 8654SOL    HW226862   1.195   4.989   1.568
 8655SOL     OW26863   6.853   1.481   4.151
 8655SOL    HW126864   6.857   1.454   4.055
 8655SOL    HW226865   6.941   1.463   4.195
 8656SOL     OW26866   6.598   0.557   1.020
 8656SOL    HW126867   6.555   0.636   0.978
 8656SOL    HW226868   6.696   0.559   1.002
 8657SOL     OW26869   5.286   4.501   0.722
 8657SOL    HW126870   5.384   4.490   0.742
 8657SOL    HW226871   5.266   4.598   0.706
 8658SOL     OW26872   5.131   6.578   0.258
 8658SOL    HW126873   5.144   6.481   0.277
 8658SOL    HW226874   5.035   6.595   0.237
 8659SOL     OW26875   4.550   2.082   2.404
 8659SOL    HW126876   4.489   2.102   2.328
 8659SOL    HW226877   4.574   1.984   2.403
 8660SOL     OW26878   6.511   4.327   1.768
 8660SOL    HW126879   6.601   4.298   1.736
 8660SOL    HW226880   6.521   4.400   1.835
 8661SOL     OW26881   6.033   3.974   0.972
 8661SOL    HW126882   6.050   4.068   0.944
 8661SOL    HW226883   5.985   3.974   1.060
 8662SOL     OW26884   4.443   5.389   1.376
 8662SOL    HW126885   4.395   5.411   1.462
 8662SOL    HW226886   4.541   5.396   1.390
 8663SOL     OW26887   3.480   5.838   1.623
 8663SOL    HW126888   3.428   5.864   1.705
 8663SOL    HW226889   3.417   5.818   1.549
 8664SOL     OW26890   1.391   5.956   0.836
 8664SOL    HW126891   1.390   6.034   0.773
 8664SOL    HW226892   1.483   5.942   0.871
 8665SOL     OW26893   5.160   6.361   4.828
 8665SOL    HW126894   5.134   6.457   4.820
 8665SOL    HW226895   5.078   6.305   4.841
 8666SOL     OW26896   4.854   1.505   3.826
 8666SOL    HW126897   4.937   1.480   3.776
 8666SOL    HW226898   4.780   1.442   3.800
 8667SOL     OW26899   4.252   2.364   3.356
 8667SOL    HW126900   4.259   2.272   3.318
 8667SOL    HW226901   4.328   2.419   3.321
 8668SOL     OW26902   4.911   3.466   3.112
 8668SOL    HW126903   4.872   3.374   3.108
 8668SOL    HW226904   4.978   3.470   3.186
 8669SOL     OW26905   1.633   6.399   6.641
 8669SOL    HW126906   1.562   6.443   6.587
 8669SOL    HW226907   1.710   6.374   6.581
 8670SOL     OW26908   4.000   4.114   5.127
 8670SOL    HW126909   3.984   4.197   5.180
 8670SOL    HW226910   3.992   4.034   5.187
 8671SOL     OW26911   4.979   1.489   2.840
 8671SOL    HW126912   4.979   1.579   2.795
 8671SOL    HW226913   4.924   1.425   2.786
 8672SOL     OW26914   1.772   4.984   4.537
 8672SOL    HW126915   1.714   5.020   4.610
 8672SOL    HW226916   1.717   4.926   4.477
 8673SOL     OW26917   6.091   2.649   0.143
 8673SOL    HW126918   6.038   2.698   0.212
 8673SOL    HW226919   6.051   2.663   0.053
 8674SOL     OW26920   5.738   6.180   3.282
 8674SOL    HW126921   5.764   6.098   3.334
 8674SOL    HW226922   5.773   6.261   3.329
 8675SOL     OW26923   3.008   2.164   4.132
 8675SOL    HW126924   3.037   2.070   4.153
 8675SOL    HW226925   2.920   2.182   4.177
 8676SOL     OW26926   4.684   0.348   2.140
 8676SOL    HW126927   4.634   0.428   2.108
 8676SOL    HW226928   4.720   0.366   2.231
 8677SOL     OW26929   2.276   5.764   5.824
 8677SOL    HW126930   2.245   5.774   5.730
 8677SOL    HW226931   2.291   5.667   5.845
 8678SOL     OW26932   6.891   0.657   0.990
 8678SOL    HW126933   6.963   0.694   0.931
 8678SOL    HW226934   6.932   0.607   1.066
 8679SOL     OW26935   6.819   2.192   3.392
 8679SOL    HW126936   6.743   2.142   3.352
 8679SOL    HW226937   6.814   2.288   3.365
 8680SOL     OW26938   0.916   3.669   0.899
 8680SOL    HW126939   0.843   3.729   0.931
 8680SOL    HW226940   1.002   3.694   0.944
 8681SOL     OW26941   5.245   5.323   0.096
 8681SOL    HW126942   5.205   5.320   0.004
 8681SOL    HW226943   5.173   5.343   0.163
 8682SOL     OW26944   4.921   6.498   2.468
 8682SOL    HW126945   4.871   6.519   2.384
 8682SOL    HW226946   4.884   6.551   2.543
 8683SOL     OW26947   1.598   2.153   3.366
 8683SOL    HW126948   1.505   2.177   3.338
 8683SOL    HW226949   1.649   2.237   3.386
 8684SOL     OW26950   6.818   3.038   4.934
 8684SOL    HW126951   6.866   2.963   4.980
 8684SOL    HW226952   6.762   3.088   5.000
 8685SOL     OW26953   0.351   1.823   6.221
 8685SOL    HW126954   0.283   1.757   6.253
 8685SOL    HW226955   0.330   1.849   6.127
 8686SOL     OW26956   0.051   1.835   2.444
 8686SOL    HW126957   0.015   1.817   2.352
 8686SOL    HW226958   0.035   1.930   2.468
 8687SOL     OW26959   4.595   5.007   1.694
 8687SOL    HW126960   4.614   5.095   1.738
 8687SOL    HW226961   4.608   4.933   1.760
 8688SOL     OW26962   2.519   5.204   6.928
 8688SOL    HW126963   2.597   5.267   6.920
 8688SOL    HW226964   2.434   5.256   6.929
 8689SOL     OW26965   3.940   3.905   1.583
 8689SOL    HW126966   4.000   3.857   1.519
 8689SOL    HW226967   3.984   3.909   1.673
 8690SOL     OW26968   1.676   3.599   3.312
 8690SOL    HW126969   1.580   3.608   3.342
 8690SOL    HW226970   1.691   3.656   3.232
 8691SOL     OW26971   3.161   1.695   5.931
 8691SOL    HW126972   3.076   1.737   5.901
 8691SOL    HW226973   3.150   1.596   5.934
 8692SOL     OW26974   2.583   1.887   4.642
 8692SOL    HW126975   2.548   1.877   4.735
 8692SOL    HW226976   2.519   1.944   4.589
 8693SOL     OW26977   6.115   0.886   0.157
 8693SOL    HW126978   6.080   0.877   0.064
 8693SOL    HW226979   6.209   0.851   0.160
 8694SOL     OW26980   4.932   0.946   5.387
 8694SOL    HW126981   4.910   1.030   5.336
 8694SOL    HW226982   4.999   0.893   5.335
 8695SOL     OW26983   4.022   3.060   5.966
 8695SOL    HW126984   3.926   3.072   5.939
 8695SOL    HW226985   4.027   3.014   6.055
 8696SOL     OW26986   2.033   4.960   6.786
 8696SOL    HW126987   2.034   5.060   6.790
 8696SOL    HW226988   2.040   4.931   6.690
 8697SOL     OW26989   6.684   2.764   6.266
 8697SOL    HW126990   6.645   2.754   6.358
 8697SOL    HW226991   6.625   2.823   6.211
 8698SOL     OW26992   5.406   6.296   5.714
 8698SOL    HW126993   5.342   6.350   5.660
 8698SOL    HW226994   5.397   6.199   5.689
 8699SOL     OW26995   1.779   2.402   5.380
 8699SOL    HW126996   1.792   2.363   5.289
 8699SOL    HW226997   1.716   2.344   5.432
 8700SOL     OW26998   0.955   1.095   4.430
 8700SOL    HW126999   0.982   1.105   4.525
 8700SOL    HW227000   0.899   1.174   4.403
 8701SOL     OW27001   0.453   1.256   0.767
 8701SOL    HW127002   0.430   1.315   0.690
 8701SOL    HW227003   0.533   1.293   0.815
 8702SOL     OW27004   5.725   5.186   1.916
 8702SOL    HW127005   5.741   5.284   1.902
 8702SOL    HW227006   5.800   5.134   1.874
 8703SOL     OW27007   2.688   4.881   6.416
 8703SOL    HW127008   2.731   4.933   6.490
 8703SOL    HW227009   2.659   4.942   6.343
 8704SOL     OW27010   0.300   3.626   3.326
 8704SOL    HW127011   0.396   3.625   3.356
 8704SOL    HW227012   0.297   3.611   3.227
 8705SOL     OW27013   5.569   1.495   6.497
 8705SOL    HW127014   5.473   1.467   6.497
 8705SOL    HW227015   5.580   1.579   6.444
 8706SOL     OW27016   5.004   1.818   6.875
 8706SOL    HW127017   4.942   1.793   6.800
 8706SOL    HW227018   4.954   1.870   6.943
 8707SOL     OW27019   6.845   1.494   6.500
 8707SOL    HW127020   6.870   1.402   6.473
 8707SOL    HW227021   6.749   1.496   6.527
 8708SOL     OW27022   4.493   2.068   2.921
 8708SOL    HW127023   4.396   2.091   2.911
 8708SOL    HW227024   4.539   2.082   2.834
 8709SOL     OW27025   0.037   6.840   7.000
 8709SOL    HW127026   0.098   6.919   7.005
 8709SOL    HW227027   6.962   6.871   7.013
 8710SOL     OW27028   1.920   3.261   3.991
 8710SOL    HW127029   1.958   3.170   3.976
 8710SOL    HW227030   1.994   3.328   3.993
 8711SOL     OW27031   1.722   6.640   3.202
 8711SOL    HW127032   1.783   6.562   3.200
 8711SOL    HW227033   1.668   6.644   3.118
 8712SOL     OW27034   4.226   2.183   4.960
 8712SOL    HW127035   4.233   2.279   4.986
 8712SOL    HW227036   4.135   2.148   4.982
 8713SOL     OW27037   6.430   3.101   3.930
 8713SOL    HW127038   6.505   3.147   3.883
 8713SOL    HW227039   6.449   3.003   3.934
 8714SOL     OW27040   0.593   0.733   6.081
 8714SOL    HW127041   0.675   0.709   6.029
 8714SOL    HW227042   0.620   0.769   6.171
 8715SOL     OW27043   4.701   0.419   0.850
 8715SOL    HW127044   4.712   0.427   0.750
 8715SOL    HW227045   4.791   0.415   0.893
 8716SOL     OW27046   6.758   6.825   1.519
 8716SOL    HW127047   6.746   6.751   1.585
 8716SOL    HW227048   6.698   6.811   1.441
 8717SOL     OW27049   3.457   3.256   4.124
 8717SOL    HW127050   3.417   3.189   4.061
 8717SOL    HW227051   3.411   3.251   4.212
 8718SOL     OW27052   1.463   4.001   5.086
 8718SOL    HW127053   1.479   4.040   4.996
 8718SOL    HW227054   1.546   3.953   5.117
 8719SOL     OW27055   3.594   0.754   6.583
 8719SOL    HW127056   3.594   0.709   6.493
 8719SOL    HW227057   3.679   0.734   6.631
 8720SOL     OW27058   6.881   5.374   6.018
 8720SOL    HW127059   6.882   5.474   6.030
 8720SOL    HW227060   6.787   5.341   6.030
 8721SOL     OW27061   6.712   3.018   2.234
 8721SOL    HW127062   6.801   3.057   2.259
 8721SOL    HW227063   6.697   2.934   2.286
 8722SOL     OW27064   3.874   1.599   0.006
 8722SOL    HW127065   3.829   1.528   6.971
 8722SOL    HW227066   3.806   1.667   0.035
 8723SOL     OW27067   5.580   5.787   1.066
 8723SOL    HW127068   5.511   5.859   1.055
 8723SOL    HW227069   5.580   5.728   0.985
 8724SOL     OW27070   4.850   7.000   5.208
 8724SOL    HW127071   4.807   0.002   5.296
 8724SOL    HW227072   4.779   6.983   5.140
 8725SOL     OW27073   1.804   6.073   6.212
 8725SOL    HW127074   1.897   6.040   6.196
 8725SOL    HW227075   1.739   6.007   6.174
 8726SOL     OW27076   6.864   1.141   3.135
 8726SOL    HW127077   6.864   1.097   3.045
 8726SOL    HW227078   6.940   1.206   3.141
 8727SOL     OW27079   6.210   6.433   2.329
 8727SOL    HW127080   6.150   6.355   2.312
 8727SOL    HW227081   6.284   6.434   2.262
 8728SOL     OW27082   6.182   0.491   2.352
 8728SOL    HW127083   6.188   0.391   2.347
 8728SOL    HW227084   6.135   0.518   2.436
 8729SOL     OW27085   4.152   6.002   4.872
 8729SOL    HW127086   4.068   5.984   4.923
 8729SOL    HW227087   4.174   5.922   4.814
 8730SOL     OW27088   6.655   3.999   2.471
 8730SOL    HW127089   6.582   3.938   2.504
 8730SOL    HW227090   6.703   4.039   2.549
 8731SOL     OW27091   2.008   2.628   2.613
 8731SOL    HW127092   2.095   2.631   2.662
 8731SOL    HW227093   1.968   2.537   2.622
 8732SOL     OW27094   6.329   5.159   1.820
 8732SOL    HW127095   6.400   5.182   1.753
 8732SOL    HW227096   6.309   5.061   1.814
 8733SOL     OW27097   1.534   5.087   1.444
 8733SOL    HW127098   1.501   5.166   1.393
 8733SOL    HW227099   1.512   5.098   1.541
 8734SOL     OW27100   1.324   4.300   2.061
 8734SOL    HW127101   1.408   4.272   2.014
 8734SOL    HW227102   1.344   4.322   2.156
 8735SOL     OW27103   1.460   2.506   0.631
 8735SOL    HW127104   1.535   2.443   0.653
 8735SOL    HW227105   1.493   2.575   0.566
 8736SOL     OW27106   0.462   5.741   6.664
 8736SOL    HW127107   0.473   5.738   6.565
 8736SOL    HW227108   0.506   5.822   6.701
 8737SOL     OW27109   1.630   6.177   6.812
 8737SOL    HW127110   1.627   6.265   6.766
 8737SOL    HW227111   1.726   6.148   6.823
 8738SOL     OW27112   2.518   5.442   4.843
 8738SOL    HW127113   2.594   5.421   4.781
 8738SOL    HW227114   2.502   5.365   4.904
 8739SOL     OW27115   5.533   5.374   6.425
 8739SOL    HW127116   5.628   5.342   6.423
 8739SOL    HW227117   5.516   5.430   6.344
 8740SOL     OW27118   4.906   1.148   4.486
 8740SOL    HW127119   4.958   1.226   4.452
 8740SOL    HW227120   4.866   1.098   4.410
 8741SOL     OW27121   2.810   1.258   2.508
 8741SOL    HW127122   2.795   1.175   2.562
 8741SOL    HW227123   2.772   1.337   2.557
 8742SOL     OW27124   6.011   5.862   1.587
 8742SOL    HW127125   6.007   5.832   1.491
 8742SOL    HW227126   5.926   5.837   1.633
 8743SOL     OW27127   1.436   0.165   2.360
 8743SOL    HW127128   1.500   0.121   2.297
 8743SOL    HW227129   1.357   0.199   2.309
 8744SOL     OW27130   3.507   2.745   6.297
 8744SOL    HW127131   3.516   2.646   6.290
 8744SOL    HW227132   3.437   2.777   6.233
 8745SOL     OW27133   6.083   2.753   6.624
 8745SOL    HW127134   6.094   2.677   6.560
 8745SOL    HW227135   6.105   2.724   6.716
 8746SOL     OW27136   4.694   5.206   4.489
 8746SOL    HW127137   4.714   5.119   4.443
 8746SOL    HW227138   4.757   5.218   4.566
 8747SOL     OW27139   0.624   2.682   2.929
 8747SOL    HW127140   0.689   2.628   2.982
 8747SOL    HW227141   0.673   2.737   2.861
 8748SOL     OW27142   6.353   1.415   4.830
 8748SOL    HW127143   6.435   1.439   4.883
 8748SOL    HW227144   6.316   1.498   4.787
 8749SOL     OW27145   2.603   0.639   5.225
 8749SOL    HW127146   2.595   0.708   5.154
 8749SOL    HW227147   2.618   0.683   5.314
 8750SOL     OW27148   3.232   3.606   5.210
 8750SOL    HW127149   3.296   3.531   5.189
 8750SOL    HW227150   3.273   3.666   5.279
 8751SOL     OW27151   5.626   1.113   2.222
 8751SOL    HW127152   5.650   1.160   2.137
 8751SOL    HW227153   5.605   1.180   2.293
 8752SOL     OW27154   2.967   3.093   0.687
 8752SOL    HW127155   2.925   3.170   0.639
 8752SOL    HW227156   2.909   3.066   0.764
 8753SOL     OW27157   4.039   2.287   5.916
 8753SOL    HW127158   3.973   2.230   5.867
 8753SOL    HW227159   4.109   2.318   5.852
 8754SOL     OW27160   2.018   3.384   5.691
 8754SOL    HW127161   2.033   3.481   5.708
 8754SOL    HW227162   1.996   3.338   5.777
 8755SOL     OW27163   1.941   0.636   0.598
 8755SOL    HW127164   1.955   0.707   0.668
 8755SOL    HW227165   2.001   0.558   0.618
 8756SOL     OW27166   0.860   3.133   3.745
 8756SOL    HW127167   0.770   3.145   3.701
 8756SOL    HW227168   0.887   3.219   3.789
 8757SOL     OW27169   4.111   5.723   6.278
 8757SOL    HW127170   4.106   5.731   6.377
 8757SOL    HW227171   4.202   5.749   6.246
 8758SOL     OW27172   5.382   5.863   2.244
 8758SOL    HW127173   5.392   5.874   2.343
 8758SOL    HW227174   5.294   5.900   2.215
 8759SOL     OW27175   4.639   2.474   0.146
 8759SOL    HW127176   4.650   2.378   0.123
 8759SOL    HW227177   4.728   2.512   0.172
 8760SOL     OW27178   2.207   1.071   4.905
 8760SOL    HW127179   2.164   0.988   4.869
 8760SOL    HW227180   2.272   1.046   4.977
 8761SOL     OW27181   6.182   1.940   1.849
 8761SOL    HW127182   6.160   1.912   1.755
 8761SOL    HW227183   6.235   2.025   1.847
 8762SOL     OW27184   1.628   4.001   2.783
 8762SOL    HW127185   1.669   3.985   2.873
 8762SOL    HW227186   1.545   4.055   2.793
 8763SOL     OW27187   6.931   6.414   6.056
 8763SOL    HW127188   6.930   6.377   5.963
 8763SOL    HW227189   6.998   6.487   6.063
 8764SOL     OW27190   5.064   0.611   4.760
 8764SOL    HW127191   5.018   0.659   4.835
 8764SOL    HW227192   5.089   0.677   4.689
 8765SOL     OW27193   5.078   6.511   3.527
 8765SOL    HW127194   5.101   6.559   3.612
 8765SOL    HW227195   5.050   6.577   3.458
 8766SOL     OW27196   4.714   4.179   3.898
 8766SOL    HW127197   4.670   4.219   3.817
 8766SOL    HW227198   4.751   4.089   3.874
 8767SOL     OW27199   5.081   5.553   2.859
 8767SOL    HW127200   4.991   5.591   2.878
 8767SOL    HW227201   5.140   5.565   2.939
 8768SOL     OW27202   1.537   2.075   0.381
 8768SOL    HW127203   1.502   2.145   0.443
 8768SOL    HW227204   1.634   2.057   0.402
 8769SOL     OW27205   0.136   0.609   4.339
 8769SOL    HW127206   0.057   0.563   4.380
 8769SOL    HW227207   0.165   0.559   4.257
 8770SOL     OW27208   5.039   4.505   2.484
 8770SOL    HW127209   5.060   4.541   2.575
 8770SOL    HW227210   5.121   4.460   2.447
 8771SOL     OW27211   0.758   1.503   6.542
 8771SOL    HW127212   0.710   1.417   6.560
 8771SOL    HW227213   0.850   1.484   6.508
 8772SOL     OW27214   5.260   0.762   6.209
 8772SOL    HW127215   5.167   0.779   6.176
 8772SOL    HW227216   5.264   0.672   6.253
 8773SOL     OW27217   4.681   2.508   3.500
 8773SOL    HW127218   4.644   2.465   3.417
 8773SOL    HW227219   4.620   2.489   3.577
 8774SOL     OW27220   1.073   0.687   0.344
 8774SOL    HW127221   1.045   0.739   0.263
 8774SOL    HW227222   1.166   0.653   0.331
 8775SOL     OW27223   5.863   0.163   5.227
 8775SOL    HW127224   5.788   0.121   5.279
 8775SOL    HW227225   5.836   0.255   5.198
 8776SOL     OW27226   3.565   2.944   6.465
 8776SOL    HW127227   3.601   2.901   6.548
 8776SOL    HW227228   3.548   2.874   6.396
 8777SOL     OW27229   0.232   4.413   2.245
 8777SOL    HW127230   0.234   4.320   2.209
 8777SOL    HW227231   0.314   4.462   2.216
 8778SOL     OW27232   5.355   2.683   5.029
 8778SOL    HW127233   5.380   2.643   5.118
 8778SOL    HW227234   5.429   2.740   4.997
 8779SOL     OW27235   2.727   5.223   2.588
 8779SOL    HW127236   2.665   5.151   2.556
 8779SOL    HW227237   2.820   5.201   2.559
 8780SOL     OW27238   0.837   6.415   2.367
 8780SOL    HW127239   0.905   6.487   2.357
 8780SOL    HW227240   0.872   6.344   2.428
 8781SOL     OW27241   5.416   1.424   3.180
 8781SOL    HW127242   5.481   1.436   3.256
 8781SOL    HW227243   5.354   1.349   3.201
 8782SOL     OW27244   6.622   6.106   1.303
 8782SOL    HW127245   6.597   6.199   1.277
 8782SOL    HW227246   6.561   6.075   1.376
 8783SOL     OW27247   6.241   4.365   3.472
 8783SOL    HW127248   6.338   4.386   3.473
 8783SOL    HW227249   6.195   4.423   3.404
 8784SOL     OW27250   6.584   4.000   6.389
 8784SOL    HW127251   6.609   3.939   6.313
 8784SOL    HW227252   6.489   3.980   6.417
 8785SOL     OW27253   5.658   3.915   0.235
 8785SOL    HW127254   5.627   4.009   0.221
 8785SOL    HW227255   5.584   3.852   0.214
 8786SOL     OW27256   2.117   0.306   0.424
 8786SOL    HW127257   2.165   0.254   0.353
 8786SOL    HW227258   2.023   0.273   0.431
 8787SOL     OW27259   3.667   2.160   1.507
 8787SOL    HW127260   3.757   2.167   1.550
 8787SOL    HW227261   3.596   2.169   1.577
 8788SOL     OW27262   6.854   1.657   5.872
 8788SOL    HW127263   6.930   1.696   5.924
 8788SOL    HW227264   6.874   1.562   5.848
 8789SOL     OW27265   6.387   0.070   4.617
 8789SOL    HW127266   6.317   0.141   4.625
 8789SOL    HW227267   6.457   0.085   4.687
 8790SOL     OW27268   1.082   0.528   6.695
 8790SOL    HW127269   1.067   0.456   6.762
 8790SOL    HW227270   0.996   0.549   6.648
 8791SOL     OW27271   5.363   6.709   4.649
 8791SOL    HW127272   5.292   6.760   4.601
 8791SOL    HW227273   5.432   6.772   4.685
 8792SOL     OW27274   2.508   6.624   2.885
 8792SOL    HW127275   2.562   6.608   2.803
 8792SOL    HW227276   2.514   6.544   2.945
 8793SOL     OW27277   1.102   4.324   3.307
 8793SOL    HW127278   1.150   4.312   3.394
 8793SOL    HW227279   1.041   4.402   3.314
 8794SOL     OW27280   4.807   0.016   2.498
 8794SOL    HW127281   4.871   6.992   2.562
 8794SOL    HW227282   4.857   0.048   2.417
 8795SOL     OW27283   1.635   5.327   5.589
 8795SOL    HW127284   1.541   5.294   5.601
 8795SOL    HW227285   1.681   5.328   5.677
 8796SOL     OW27286   3.860   2.012   4.829
 8796SOL    HW127287   3.824   2.085   4.771
 8796SOL    HW227288   3.803   2.001   4.910
 8797SOL     OW27289   6.780   6.804   6.695
 8797SOL    HW127290   6.706   6.833   6.634
 8797SOL    HW227291   6.747   6.802   6.789
 8798SOL     OW27292   5.011   5.512   5.736
 8798SOL    HW127293   5.080   5.442   5.755
 8798SOL    HW227294   4.925   5.468   5.711
 8799SOL     OW27295   2.717   4.676   3.629
 8799SOL    HW127296   2.798   4.710   3.677
 8799SOL    HW227297   2.654   4.752   3.611
 8800SOL     OW27298   6.361   3.927   5.694
 8800SOL    HW127299   6.314   4.004   5.737
 8800SOL    HW227300   6.443   3.960   5.647
 8801SOL     OW27301   6.995   1.608   5.014
 8801SOL    HW127302   7.014   1.633   5.109
 8801SOL    HW227303   0.039   1.536   4.985
 8802SOL     OW27304   2.074   6.622   0.261
 8802SOL    HW127305   2.131   6.563   0.318
 8802SOL    HW227306   1.989   6.574   0.238
 8803SOL     OW27307   6.705   6.070   6.967
 8803SOL    HW127308   6.730   6.074   6.870
 8803SOL    HW227309   6.611   6.103   6.978
 8804SOL     OW27310   2.402   6.758   2.048
 8804SOL    HW127311   2.465   6.682   2.036
 8804SOL    HW227312   2.440   6.822   2.116
 8805SOL     OW27313   2.838   6.420   4.079
 8805SOL    HW127314   2.806   6.509   4.111
 8805SOL    HW227315   2.937   6.424   4.062
 8806SOL     OW27316   3.237   5.843   2.273
 8806SOL    HW127317   3.303   5.815   2.342
 8806SOL    HW227318   3.212   5.764   2.217
 8807SOL     OW27319   4.911   0.645   0.315
 8807SOL    HW127320   4.822   0.670   0.276
 8807SOL    HW227321   4.951   0.723   0.363
 8808SOL     OW27322   5.873   2.980   6.973
 8808SOL    HW127323   5.843   2.885   6.977
 8808SOL    HW227324   5.973   2.983   6.964
 8809SOL     OW27325   5.313   5.734   3.459
 8809SOL    HW127326   5.239   5.687   3.409
 8809SOL    HW227327   5.346   5.811   3.405
 8810SOL     OW27328   6.032   0.972   5.358
 8810SOL    HW127329   6.057   1.069   5.365
 8810SOL    HW227330   6.055   0.938   5.267
 8811SOL     OW27331   2.966   0.640   2.920
 8811SOL    HW127332   2.879   0.686   2.934
 8811SOL    HW227333   3.009   0.622   3.009
 8812SOL     OW27334   1.606   0.459   1.051
 8812SOL    HW127335   1.668   0.485   1.124
 8812SOL    HW227336   1.655   0.460   0.964
 8813SOL     OW27337   2.566   4.642   1.694
 8813SOL    HW127338   2.647   4.676   1.742
 8813SOL    HW227339   2.555   4.692   1.608
 8814SOL     OW27340   5.529   6.871   1.403
 8814SOL    HW127341   5.550   6.955   1.453
 8814SOL    HW227342   5.588   6.864   1.323
 8815SOL     OW27343   5.710   0.156   1.003
 8815SOL    HW127344   5.639   0.178   1.070
 8815SOL    HW227345   5.684   0.075   0.952
 8816SOL     OW27346   1.041   6.404   0.195
 8816SOL    HW127347   1.030   6.370   0.288
 8816SOL    HW227348   1.084   6.494   0.197
 8817SOL     OW27349   0.373   5.075   3.745
 8817SOL    HW127350   0.390   4.986   3.788
 8817SOL    HW227351   0.422   5.081   3.659
 8818SOL     OW27352   0.394   4.678   4.573
 8818SOL    HW127353   0.434   4.587   4.560
 8818SOL    HW227354   0.361   4.688   4.667
 8819SOL     OW27355   5.796   5.444   5.108
 8819SOL    HW127356   5.802   5.541   5.129
 8819SOL    HW227357   5.740   5.398   5.177
 8820SOL     OW27358   2.287   0.617   5.011
 8820SOL    HW127359   2.305   0.558   5.090
 8820SOL    HW227360   2.335   0.583   4.931
 8821SOL     OW27361   1.871   5.947   1.098
 8821SOL    HW127362   1.773   5.967   1.087
 8821SOL    HW227363   1.903   5.894   1.020
 8822SOL     OW27364   0.910   0.230   4.595
 8822SOL    HW127365   0.880   0.138   4.572
 8822SOL    HW227366   1.009   0.229   4.613
 8823SOL     OW27367   2.363   0.954   2.156
 8823SOL    HW127368   2.279   0.951   2.210
 8823SOL    HW227369   2.404   1.045   2.165
 8824SOL     OW27370   1.267   1.987   0.370
 8824SOL    HW127371   1.206   2.034   0.434
 8824SOL    HW227372   1.353   2.038   0.361
 8825SOL     OW27373   2.682   1.322   1.415
 8825SOL    HW127374   2.776   1.291   1.403
 8825SOL    HW227375   2.661   1.329   1.512
 8826SOL     OW27376   6.408   3.414   0.153
 8826SOL    HW127377   6.323   3.463   0.170
 8826SOL    HW227378   6.452   3.450   0.071
 8827SOL     OW27379   4.124   1.689   2.155
 8827SOL    HW127380   4.090   1.622   2.089
 8827SOL    HW227381   4.221   1.674   2.172
 8828SOL     OW27382   4.538   6.074   5.632
 8828SOL    HW127383   4.445   6.038   5.641
 8828SOL    HW227384   4.537   6.173   5.641
 8829SOL     OW27385   5.409   3.131   0.786
 8829SOL    HW127386   5.447   3.080   0.709
 8829SOL    HW227387   5.386   3.068   0.860
 8830SOL     OW27388   1.524   1.719   2.911
 8830SOL    HW127389   1.548   1.680   3.000
 8830SOL    HW227390   1.588   1.686   2.841
 8831SOL     OW27391   3.831   2.172   4.235
 8831SOL    HW127392   3.891   2.213   4.166
 8831SOL    HW227393   3.864   2.197   4.326
 8832SOL     OW27394   0.374   6.173   2.956
 8832SOL    HW127395   0.329   6.261   2.941
 8832SOL    HW227396   0.324   6.122   3.027
 8833SOL     OW27397   2.576   4.921   5.815
 8833SOL    HW127398   2.540   4.959   5.901
 8833SOL    HW227399   2.514   4.945   5.740
 8834SOL     OW27400   5.574   4.128   4.781
 8834SOL    HW127401   5.476   4.113   4.794
 8834SOL    HW227402   5.615   4.047   4.739
 8835SOL     OW27403   5.125   1.136   5.795
 8835SOL    HW127404   5.172   1.105   5.877
 8835SOL    HW227405   5.106   1.057   5.736
 8836SOL     OW27406   5.075   2.633   0.545
 8836SOL    HW127407   5.146   2.562   0.537
 8836SOL    HW227408   5.082   2.695   0.467
 8837SOL     OW27409   0.100   6.248   2.328
 8837SOL    HW127410   0.046   6.322   2.367
 8837SOL    HW227411   0.183   6.285   2.287
 8838SOL     OW27412   2.121   5.402   3.455
 8838SOL    HW127413   2.052   5.333   3.475
 8838SOL    HW227414   2.145   5.451   3.540
 8839SOL     OW27415   6.046   5.300   2.750
 8839SOL    HW127416   6.061   5.275   2.655
 8839SOL    HW227417   6.043   5.218   2.807
 8840SOL     OW27418   0.061   2.091   2.570
 8840SOL    HW127419   0.083   2.117   2.664
 8840SOL    HW227420   0.005   2.163   2.528
 8841SOL     OW27421   0.642   0.764   5.271
 8841SOL    HW127422   0.593   0.745   5.186
 8841SOL    HW227423   0.736   0.731   5.264
 8842SOL     OW27424   3.373   2.872   2.490
 8842SOL    HW127425   3.422   2.834   2.412
 8842SOL    HW227426   3.439   2.901   2.560
 8843SOL     OW27427   1.915   3.419   5.234
 8843SOL    HW127428   1.970   3.369   5.166
 8843SOL    HW227429   1.956   3.409   5.324
 8844SOL     OW27430   0.121   1.415   6.471
 8844SOL    HW127431   0.053   1.485   6.447
 8844SOL    HW227432   0.200   1.458   6.513
 8845SOL     OW27433   3.682   3.488   0.701
 8845SOL    HW127434   3.632   3.419   0.753
 8845SOL    HW227435   3.768   3.509   0.747
 8846SOL     OW27436   3.617   5.410   4.173
 8846SOL    HW127437   3.693   5.471   4.195
 8846SOL    HW227438   3.646   5.344   4.103
 8847SOL     OW27439   2.688   0.663   3.157
 8847SOL    HW127440   2.726   0.583   3.203
 8847SOL    HW227441   2.619   0.705   3.215
 8848SOL     OW27442   2.850   1.861   2.191
 8848SOL    HW127443   2.947   1.869   2.215
 8848SOL    HW227444   2.794   1.896   2.266
 8849SOL     OW27445   2.863   6.359   3.512
 8849SOL    HW127446   2.895   6.314   3.595
 8849SOL    HW227447   2.774   6.321   3.485
 8850SOL     OW27448   0.902   1.861   6.976
 8850SOL    HW127449   0.908   1.846   0.056
 8850SOL    HW227450   0.813   1.830   6.943
 8851SOL     OW27451   1.472   4.429   2.829
 8851SOL    HW127452   1.402   4.402   2.763
 8851SOL    HW227453   1.476   4.362   2.903
 8852SOL     OW27454   5.566   2.917   5.255
 8852SOL    HW127455   5.523   2.875   5.335
 8852SOL    HW227456   5.505   2.986   5.216
 8853SOL     OW27457   2.742   0.904   1.078
 8853SOL    HW127458   2.677   0.961   1.129
 8853SOL    HW227459   2.731   0.808   1.104
 8854SOL     OW27460   3.097   2.417   5.710
 8854SOL    HW127461   3.001   2.425   5.683
 8854SOL    HW227462   3.153   2.398   5.629
 8855SOL     OW27463   0.178   5.505   1.516
 8855SOL    HW127464   0.134   5.426   1.559
 8855SOL    HW227465   0.263   5.476   1.473
 8856SOL     OW27466   0.378   6.353   6.466
 8856SOL    HW127467   0.308   6.416   6.431
 8856SOL    HW227468   0.440   6.328   6.392
 8857SOL     OW27469   6.419   1.827   4.492
 8857SOL    HW127470   6.372   1.803   4.407
 8857SOL    HW227471   6.473   1.910   4.479
 8858SOL     OW27472   0.787   3.455   5.597
 8858SOL    HW127473   0.801   3.494   5.506
 8858SOL    HW227474   0.864   3.478   5.656
 8859SOL     OW27475   0.446   0.279   4.071
 8859SOL    HW127476   0.406   0.280   3.980
 8859SOL    HW227477   0.501   0.197   4.083
 8860SOL     OW27478   6.635   2.631   2.875
 8860SOL    HW127479   6.685   2.555   2.919
 8860SOL    HW227480   6.698   2.707   2.860
 8861SOL     OW27481   4.217   1.577   6.149
 8861SOL    HW127482   4.124   1.607   6.126
 8861SOL    HW227483   4.217   1.477   6.160
 8862SOL     OW27484   5.265   0.356   3.886
 8862SOL    HW127485   5.298   0.342   3.979
 8862SOL    HW227486   5.251   0.268   3.841
 8863SOL     OW27487   2.006   5.001   4.260
 8863SOL    HW127488   2.046   4.919   4.219
 8863SOL    HW227489   1.910   5.007   4.236
 8864SOL     OW27490   2.990   4.694   6.442
 8864SOL    HW127491   2.927   4.752   6.390
 8864SOL    HW227492   3.052   4.647   6.380
 8865SOL     OW27493   2.822   6.959   5.650
 8865SOL    HW127494   2.774   7.019   5.714
 8865SOL    HW227495   2.779   6.967   5.559
 8866SOL     OW27496   5.012   0.210   2.780
 8866SOL    HW127497   4.945   0.229   2.708
 8866SOL    HW227498   4.992   0.121   2.821
 8867SOL     OW27499   5.850   4.200   2.984
 8867SOL    HW127500   5.848   4.242   3.074
 8867SOL    HW227501   5.789   4.121   2.983
 8868SOL     OW27502   6.645   2.514   1.285
 8868SOL    HW127503   6.689   2.559   1.207
 8868SOL    HW227504   6.557   2.477   1.256
 8869SOL     OW27505   4.253   5.642   5.117
 8869SOL    HW127506   4.227   5.584   5.039
 8869SOL    HW227507   4.330   5.701   5.090
 8870SOL     OW27508   2.810   0.473   0.628
 8870SOL    HW127509   2.725   0.494   0.579
 8870SOL    HW227510   2.888   0.505   0.574
 8871SOL     OW27511   2.506   1.416   3.979
 8871SOL    HW127512   2.537   1.352   3.908
 8871SOL    HW227513   2.408   1.433   3.968
 8872SOL     OW27514   1.401   4.465   4.754
 8872SOL    HW127515   1.302   4.463   4.741
 8872SOL    HW227516   1.446   4.418   4.678
 8873SOL     OW27517   0.413   6.412   1.863
 8873SOL    HW127518   0.387   6.507   1.848
 8873SOL    HW227519   0.339   6.352   1.831
 8874SOL     OW27520   1.912   6.496   2.790
 8874SOL    HW127521   1.991   6.437   2.776
 8874SOL    HW227522   1.833   6.460   2.741
 8875SOL     OW27523   0.264   3.717   5.293
 8875SOL    HW127524   0.248   3.804   5.246
 8875SOL    HW227525   0.308   3.653   5.230
 8876SOL     OW27526   2.181   6.413   5.529
 8876SOL    HW127527   2.132   6.326   5.526
 8876SOL    HW227528   2.143   6.475   5.460
 8877SOL     OW27529   3.128   2.133   4.451
 8877SOL    HW127530   3.133   2.174   4.360
 8877SOL    HW227531   3.066   2.187   4.508
 8878SOL     OW27532   6.336   4.696   0.447
 8878SOL    HW127533   6.405   4.680   0.375
 8878SOL    HW227534   6.332   4.794   0.467
 8879SOL     OW27535   4.819   4.707   2.761
 8879SOL    HW127536   4.775   4.714   2.672
 8879SOL    HW227537   4.917   4.722   2.751
 8880SOL     OW27538   4.872   6.541   4.660
 8880SOL    HW127539   4.874   6.442   4.648
 8880SOL    HW227540   4.777   6.573   4.660
 8881SOL     OW27541   4.832   6.812   3.815
 8881SOL    HW127542   4.899   6.740   3.799
 8881SOL    HW227543   4.829   6.835   3.912
 8882SOL     OW27544   5.318   0.905   0.979
 8882SOL    HW127545   5.296   0.887   0.883
 8882SOL    HW227546   5.240   0.880   1.037
 8883SOL     OW27547   1.552   6.232   6.266
 8883SOL    HW127548   1.564   6.186   6.354
 8883SOL    HW227549   1.617   6.194   6.200
 8884SOL     OW27550   6.607   4.183   5.307
 8884SOL    HW127551   6.574   4.142   5.222
 8884SOL    HW227552   6.612   4.282   5.296
 8885SOL     OW27553   6.081   4.219   1.694
 8885SOL    HW127554   6.070   4.171   1.780
 8885SOL    HW227555   6.110   4.155   1.623
 8886SOL     OW27556   2.970   6.160   4.630
 8886SOL    HW127557   3.042   6.099   4.662
 8886SOL    HW227558   2.991   6.190   4.537
 8887SOL     OW27559   3.784   0.450   0.294
 8887SOL    HW127560   3.733   0.395   0.360
 8887SOL    HW227561   3.720   0.501   0.236
 8888SOL     OW27562   1.721   1.632   5.650
 8888SOL    HW127563   1.733   1.569   5.574
 8888SOL    HW227564   1.795   1.620   5.716
 8889SOL     OW27565   6.669   0.144   7.015
 8889SOL    HW127566   6.695   0.168   0.088
 8889SOL    HW227567   6.569   0.136   7.009
 8890SOL     OW27568   0.105   5.930   5.196
 8890SOL    HW127569   0.183   5.868   5.189
 8890SOL    HW227570   0.050   5.905   5.276
 8891SOL     OW27571   4.154   3.075   6.718
 8891SOL    HW127572   4.095   3.041   6.645
 8891SOL    HW227573   4.105   3.071   6.805
 8892SOL     OW27574   3.800   5.600   2.743
 8892SOL    HW127575   3.791   5.518   2.800
 8892SOL    HW227576   3.712   5.646   2.738
 8893SOL     OW27577   1.005   5.480   4.283
 8893SOL    HW127578   0.966   5.388   4.289
 8893SOL    HW227579   1.085   5.478   4.222
 8894SOL     OW27580   3.208   2.672   6.485
 8894SOL    HW127581   3.282   2.624   6.532
 8894SOL    HW227582   3.239   2.700   6.394
 8895SOL     OW27583   6.559   2.817   2.357
 8895SOL    HW127584   6.481   2.808   2.296
 8895SOL    HW227585   6.534   2.876   2.434
 8896SOL     OW27586   2.480   3.322   5.513
 8896SOL    HW127587   2.467   3.232   5.555
 8896SOL    HW227588   2.569   3.326   5.470
 8897SOL     OW27589   2.192   3.105   3.164
 8897SOL    HW127590   2.152   3.166   3.096
 8897SOL    HW227591   2.123   3.038   3.192
 8898SOL     OW27592   4.891   3.664   2.194
 8898SOL    HW127593   4.861   3.631   2.105
 8898SOL    HW227594   4.906   3.587   2.255
 8899SOL     OW27595   1.643   4.949   1.670
 8899SOL    HW127596   1.567   4.971   1.731
 8899SOL    HW227597   1.701   5.030   1.659
 8900SOL     OW27598   5.509   2.969   2.626
 8900SOL    HW127599   5.435   2.926   2.574
 8900SOL    HW227600   5.597   2.930   2.597
 8901SOL     OW27601   1.852   0.800   4.734
 8901SOL    HW127602   1.773   0.785   4.793
 8901SOL    HW227603   1.827   0.857   4.656
 8902SOL     OW27604   1.658   6.467   0.437
 8902SOL    HW127605   1.676   6.533   0.365
 8902SOL    HW227606   1.744   6.430   0.471
 8903SOL     OW27607   0.282   1.634   4.596
 8903SOL    HW127608   0.274   1.627   4.696
 8903SOL    HW227609   0.376   1.655   4.571
 8904SOL     OW27610   6.348   0.674   4.712
 8904SOL    HW127611   6.396   0.588   4.695
 8904SOL    HW227612   6.356   0.732   4.631
 8905SOL     OW27613   1.825   3.960   3.627
 8905SOL    HW127614   1.746   3.961   3.688
 8905SOL    HW227615   1.825   3.874   3.575
 8906SOL     OW27616   0.472   6.076   6.956
 8906SOL    HW127617   0.556   6.027   6.935
 8906SOL    HW227618   0.395   6.030   6.912
 8907SOL     OW27619   2.843   2.616   5.420
 8907SOL    HW127620   2.894   2.698   5.392
 8907SOL    HW227621   2.746   2.629   5.399
 8908SOL     OW27622   1.164   5.131   6.904
 8908SOL    HW127623   1.113   5.203   6.950
 8908SOL    HW227624   1.102   5.078   6.847
 8909SOL     OW27625   2.368   1.328   5.959
 8909SOL    HW127626   2.413   1.289   5.879
 8909SOL    HW227627   2.283   1.278   5.976
 8910SOL     OW27628   0.472   2.887   5.745
 8910SOL    HW127629   0.462   2.824   5.668
 8910SOL    HW227630   0.564   2.927   5.744
 8911SOL     OW27631   4.487   2.193   4.646
 8911SOL    HW127632   4.394   2.227   4.652
 8911SOL    HW227633   4.551   2.270   4.648
 8912SOL     OW27634   3.513   3.682   6.716
 8912SOL    HW127635   3.429   3.634   6.741
 8912SOL    HW227636   3.544   3.737   6.794
 8913SOL     OW27637   4.390   5.597   5.735
 8913SOL    HW127638   4.391   5.498   5.722
 8913SOL    HW227639   4.372   5.642   5.647
 8914SOL     OW27640   4.368   0.048   4.812
 8914SOL    HW127641   4.441   0.115   4.798
 8914SOL    HW227642   4.330   0.021   4.724
 8915SOL     OW27643   1.006   2.576   4.062
 8915SOL    HW127644   0.951   2.529   4.130
 8915SOL    HW227645   1.035   2.511   3.992
 8916SOL     OW27646   6.555   2.780   0.732
 8916SOL    HW127647   6.654   2.784   0.716
 8916SOL    HW227648   6.522   2.870   0.760
 8917SOL     OW27649   6.021   3.329   0.090
 8917SOL    HW127650   6.071   3.246   0.115
 8917SOL    HW227651   6.072   3.409   0.121
 8918SOL     OW27652   6.748   4.063   1.297
 8918SOL    HW127653   6.811   4.136   1.268
 8918SOL    HW227654   6.798   3.996   1.352
 8919SOL     OW27655   3.910   4.319   0.738
 8919SOL    HW127656   3.916   4.326   0.638
 8919SOL    HW227657   3.852   4.241   0.762
 8920SOL     OW27658   0.437   1.091   6.714
 8920SOL    HW127659   0.356   1.107   6.657
 8920SOL    HW227660   0.424   1.133   6.804
 8921SOL     OW27661   1.955   2.277   2.102
 8921SOL    HW127662   1.984   2.209   2.170
 8921SOL    HW227663   2.002   2.260   2.016
 8922SOL     OW27664   4.381   5.027   1.197
 8922SOL    HW127665   4.291   4.987   1.213
 8922SOL    HW227666   4.431   5.032   1.283
 8923SOL     OW27667   1.881   2.088   6.359
 8923SOL    HW127668   1.944   2.020   6.397
 8923SOL    HW227669   1.870   2.163   6.424
 8924SOL     OW27670   3.999   5.767   5.642
 8924SOL    HW127671   3.949   5.681   5.628
 8924SOL    HW227672   4.073   5.751   5.707
 8925SOL     OW27673   1.164   1.320   3.218
 8925SOL    HW127674   1.097   1.334   3.290
 8925SOL    HW227675   1.180   1.222   3.205
 8926SOL     OW27676   6.401   2.878   5.836
 8926SOL    HW127677   6.481   2.885   5.776
 8926SOL    HW227678   6.393   2.784   5.870
 8927SOL     OW27679   0.039   0.837   4.476
 8927SOL    HW127680   0.064   0.746   4.442
 8927SOL    HW227681   0.016   0.897   4.399
 8928SOL     OW27682   1.140   6.580   6.234
 8928SOL    HW127683   1.154   6.650   6.163
 8928SOL    HW227684   1.047   6.589   6.271
 8929SOL     OW27685   5.852   1.931   4.672
 8929SOL    HW127686   5.924   1.888   4.618
 8929SOL    HW227687   5.867   1.912   4.769
 8930SOL     OW27688   2.138   3.516   4.637
 8930SOL    HW127689   2.038   3.512   4.636
 8930SOL    HW227690   2.172   3.443   4.697
 8931SOL     OW27691   2.554   2.968   0.751
 8931SOL    HW127692   2.535   3.040   0.685
 8931SOL    HW227693   2.611   3.004   0.825
 8932SOL     OW27694   6.110   1.337   1.357
 8932SOL    HW127695   6.168   1.414   1.330
 8932SOL    HW227696   6.147   1.252   1.318
 8933SOL     OW27697   2.094   2.575   6.254
 8933SOL    HW127698   2.172   2.530   6.296
 8933SOL    HW227699   2.044   2.510   6.197
 8934SOL     OW27700   3.107   5.236   4.381
 8934SOL    HW127701   3.098   5.291   4.298
 8934SOL    HW227702   3.184   5.173   4.371
 8935SOL     OW27703   0.299   4.372   0.864
 8935SOL    HW127704   0.364   4.408   0.931
 8935SOL    HW227705   0.343   4.301   0.809
 8936SOL     OW27706   1.309   3.109   2.295
 8936SOL    HW127707   1.231   3.120   2.357
 8936SOL    HW227708   1.288   3.041   2.225
 8937SOL     OW27709   0.722   0.237   5.783
 8937SOL    HW127710   0.763   0.232   5.692
 8937SOL    HW227711   0.623   0.227   5.776
 8938SOL     OW27712   0.175   6.629   1.042
 8938SOL    HW127713   0.219   6.542   1.067
 8938SOL    HW227714   0.118   6.615   0.961
 8939SOL     OW27715   5.438   3.851   4.110
 8939SOL    HW127716   5.516   3.887   4.161
 8939SOL    HW227717   5.359   3.841   4.171
 8940SOL     OW27718   6.936   0.853   1.746
 8940SOL    HW127719   6.940   0.753   1.749
 8940SOL    HW227720   6.841   0.882   1.758
 8941SOL     OW27721   5.657   2.487   5.237
 8941SOL    HW127722   5.700   2.456   5.322
 8941SOL    HW227723   5.582   2.550   5.258
 8942SOL     OW27724   6.342   5.603   5.864
 8942SOL    HW127725   6.395   5.653   5.796
 8942SOL    HW227726   6.345   5.506   5.844
 8943SOL     OW27727   3.725   5.692   6.998
 8943SOL    HW127728   3.780   5.713   6.917
 8943SOL    HW227729   3.675   5.607   6.983
 8944SOL     OW27730   5.443   5.558   5.711
 8944SOL    HW127731   5.435   5.545   5.612
 8944SOL    HW227732   5.502   5.637   5.729
 8945SOL     OW27733   1.185   0.734   3.295
 8945SOL    HW127734   1.228   0.806   3.239
 8945SOL    HW227735   1.089   0.725   3.269
 8946SOL     OW27736   2.648   1.643   5.155
 8946SOL    HW127737   2.651   1.555   5.107
 8946SOL    HW227738   2.611   1.713   5.093
 8947SOL     OW27739   2.081   3.012   5.822
 8947SOL    HW127740   2.078   3.109   5.844
 8947SOL    HW227741   1.988   2.975   5.819
 8948SOL     OW27742   5.832   6.055   4.779
 8948SOL    HW127743   5.832   5.961   4.813
 8948SOL    HW227744   5.904   6.066   4.711
 8949SOL     OW27745   2.986   6.332   0.425
 8949SOL    HW127746   3.068   6.342   0.370
 8949SOL    HW227747   2.925   6.264   0.383
 8950SOL     OW27748   4.689   4.150   6.661
 8950SOL    HW127749   4.687   4.059   6.701
 8950SOL    HW227750   4.697   4.144   6.562
 8951SOL     OW27751   1.602   1.464   5.071
 8951SOL    HW127752   1.637   1.380   5.028
 8951SOL    HW227753   1.678   1.526   5.090
 8952SOL     OW27754   1.335   6.036   2.146
 8952SOL    HW127755   1.257   6.073   2.096
 8952SOL    HW227756   1.303   5.995   2.232
 8953SOL     OW27757   1.692   3.948   6.783
 8953SOL    HW127758   1.736   3.881   6.725
 8953SOL    HW227759   1.707   3.925   6.879
 8954SOL     OW27760   0.774   6.896   4.773
 8954SOL    HW127761   0.714   6.816   4.764
 8954SOL    HW227762   0.813   6.917   4.683
 8955SOL     OW27763   0.149   5.444   2.709
 8955SOL    HW127764   0.228   5.476   2.761
 8955SOL    HW227765   0.072   5.429   2.772
 8956SOL     OW27766   2.053   1.331   6.689
 8956SOL    HW127767   2.087   1.335   6.595
 8956SOL    HW227768   2.128   1.348   6.753
 8957SOL     OW27769   2.368   4.412   0.688
 8957SOL    HW127770   2.368   4.331   0.748
 8957SOL    HW227771   2.460   4.453   0.688
 8958SOL     OW27772   0.185   1.916   4.640
 8958SOL    HW127773   0.142   1.922   4.731
 8958SOL    HW227774   0.230   1.828   4.630
 8959SOL     OW27775   1.748   4.485   2.069
 8959SOL    HW127776   1.653   4.492   2.040
 8959SOL    HW227777   1.775   4.388   2.071
 8960SOL     OW27778   4.208   5.102   2.483
 8960SOL    HW127779   4.207   5.104   2.583
 8960SOL    HW227780   4.301   5.115   2.450
 8961SOL     OW27781   2.910   0.656   3.689
 8961SOL    HW127782   2.832   0.702   3.733
 8961SOL    HW227783   2.920   0.564   3.726
 8962SOL     OW27784   6.967   5.785   2.607
 8962SOL    HW127785   6.951   5.736   2.522
 8962SOL    HW227786   7.013   5.872   2.588
 8963SOL     OW27787   4.111   6.750   4.656
 8963SOL    HW127788   4.038   6.715   4.715
 8963SOL    HW227789   4.101   6.711   4.564
 8964SOL     OW27790   5.235   3.692   2.809
 8964SOL    HW127791   5.209   3.780   2.849
 8964SOL    HW227792   5.195   3.618   2.863
 8965SOL     OW27793   2.653   4.443   0.577
 8965SOL    HW127794   2.739   4.393   0.572
 8965SOL    HW227795   2.604   4.435   0.490
 8966SOL     OW27796   0.120   4.179   0.501
 8966SOL    HW127797   0.158   4.266   0.531
 8966SOL    HW227798   0.030   4.165   0.542
 8967SOL     OW27799   4.452   6.893   1.031
 8967SOL    HW127800   4.551   6.881   1.043
 8967SOL    HW227801   4.431   6.898   0.933
 8968SOL     OW27802   4.449   5.760   3.142
 8968SOL    HW127803   4.383   5.831   3.166
 8968SOL    HW227804   4.439   5.737   3.045
 8969SOL     OW27805   6.033   0.856   4.393
 8969SOL    HW127806   6.025   0.849   4.492
 8969SOL    HW227807   6.111   0.915   4.370
 8970SOL     OW27808   2.741   3.083   6.946
 8970SOL    HW127809   2.648   3.046   6.956
 8970SOL    HW227810   2.777   3.057   6.856
 8971SOL     OW27811   6.148   5.037   1.472
 8971SOL    HW127812   6.186   4.979   1.400
 8971SOL    HW227813   6.179   5.002   1.561
 8972SOL     OW27814   5.065   3.855   0.023
 8972SOL    HW127815   5.141   3.790   0.023
 8972SOL    HW227816   4.979   3.806   0.033
 8973SOL     OW27817   0.382   3.077   2.794
 8973SOL    HW127818   0.443   3.128   2.733
 8973SOL    HW227819   0.312   3.138   2.830
 8974SOL     OW27820   1.146   4.433   4.615
 8974SOL    HW127821   1.058   4.403   4.651
 8974SOL    HW227822   1.132   4.496   4.539
 8975SOL     OW27823   1.688   6.360   6.063
 8975SOL    HW127824   1.763   6.418   6.092
 8975SOL    HW227825   1.626   6.345   6.140
 8976SOL     OW27826   0.234   5.436   5.574
 8976SOL    HW127827   0.316   5.459   5.522
 8976SOL    HW227828   0.177   5.518   5.584
 8977SOL     OW27829   6.731   3.178   6.654
 8977SOL    HW127830   6.735   3.081   6.631
 8977SOL    HW227831   6.638   3.202   6.683
 8978SOL     OW27832   5.267   6.338   3.457
 8978SOL    HW127833   5.339   6.334   3.525
 8978SOL    HW227834   5.186   6.381   3.497
 8979SOL     OW27835   0.987   3.823   4.610
 8979SOL    HW127836   1.051   3.786   4.542
 8979SOL    HW227837   0.953   3.748   4.667
 8980SOL     OW27838   3.853   2.813   5.417
 8980SOL    HW127839   3.840   2.878   5.491
 8980SOL    HW227840   3.950   2.811   5.391
 8981SOL     OW27841   4.382   1.062   6.000
 8981SOL    HW127842   4.327   1.002   6.057
 8981SOL    HW227843   4.386   1.026   5.907
 8982SOL     OW27844   0.764   2.033   1.469
 8982SOL    HW127845   0.858   2.051   1.439
 8982SOL    HW227846   0.745   2.086   1.551
 8983SOL     OW27847   1.120   5.477   6.238
 8983SOL    HW127848   1.189   5.421   6.193
 8983SOL    HW227849   1.054   5.417   6.285
 8984SOL     OW27850   6.533   0.033   3.517
 8984SOL    HW127851   6.609   6.989   3.500
 8984SOL    HW227852   6.488   0.054   3.431
 8985SOL     OW27853   2.712   2.107   0.865
 8985SOL    HW127854   2.740   2.183   0.923
 8985SOL    HW227855   2.672   2.035   0.921
 8986SOL     OW27856   4.270   5.041   1.845
 8986SOL    HW127857   4.253   5.112   1.914
 8986SOL    HW227858   4.310   5.084   1.764
 8987SOL     OW27859   5.341   6.861   0.879
 8987SOL    HW127860   5.321   6.807   0.961
 8987SOL    HW227861   5.256   6.890   0.837
 8988SOL     OW27862   1.399   4.029   6.247
 8988SOL    HW127863   1.426   4.075   6.163
 8988SOL    HW227864   1.481   4.003   6.299
 8989SOL     OW27865   5.007   3.904   2.063
 8989SOL    HW127866   4.967   3.819   2.097
 8989SOL    HW227867   4.972   3.981   2.116
 8990SOL     OW27868   2.110   5.646   2.866
 8990SOL    HW127869   2.178   5.701   2.819
 8990SOL    HW227870   2.156   5.579   2.925
 8991SOL     OW27871   1.900   2.127   6.933
 8991SOL    HW127872   1.819   2.134   6.990
 8991SOL    HW227873   1.982   2.139   6.989
 8992SOL     OW27874   6.446   1.953   0.358
 8992SOL    HW127875   6.402   1.872   0.320
 8992SOL    HW227876   6.482   2.010   0.284
 8993SOL     OW27877   4.471   2.413   2.010
 8993SOL    HW127878   4.479   2.365   1.922
 8993SOL    HW227879   4.390   2.380   2.058
 8994SOL     OW27880   1.610   5.045   4.837
 8994SOL    HW127881   1.677   4.980   4.872
 8994SOL    HW227882   1.518   5.012   4.856
 8995SOL     OW27883   0.653   2.423   6.795
 8995SOL    HW127884   0.626   2.408   6.700
 8995SOL    HW227885   0.744   2.384   6.810
 8996SOL     OW27886   6.398   5.121   1.230
 8996SOL    HW127887   6.471   5.181   1.199
 8996SOL    HW227888   6.436   5.032   1.255
 8997SOL     OW27889   4.832   1.074   6.446
 8997SOL    HW127890   4.742   1.116   6.443
 8997SOL    HW227891   4.902   1.146   6.438
 8998SOL     OW27892   6.827   3.927   5.119
 8998SOL    HW127893   6.729   3.928   5.139
 8998SOL    HW227894   6.858   3.832   5.111
 8999SOL     OW27895   4.849   6.366   0.143
 8999SOL    HW127896   4.805   6.456   0.142
 8999SOL    HW227897   4.945   6.376   0.117
 9000SOL     OW27898   2.958   3.896   0.409
 9000SOL    HW127899   2.918   3.805   0.404
 9000SOL    HW227900   3.027   3.906   0.337
 9001SOL     OW27901   1.181   5.153   2.608
 9001SOL    HW127902   1.118   5.107   2.546
 9001SOL    HW227903   1.206   5.242   2.569
 9002SOL     OW27904   0.151   4.976   5.386
 9002SOL    HW127905   0.215   4.911   5.345
 9002SOL    HW227906   0.077   4.926   5.432
 9003SOL     OW27907   5.176   2.952   1.635
 9003SOL    HW127908   5.091   2.916   1.598
 9003SOL    HW227909   5.156   3.031   1.694
 9004SOL     OW27910   4.455   6.340   1.222
 9004SOL    HW127911   4.552   6.364   1.229
 9004SOL    HW227912   4.410   6.400   1.156
 9005SOL     OW27913   4.956   2.437   4.319
 9005SOL    HW127914   4.986   2.381   4.396
 9005SOL    HW227915   4.936   2.530   4.351
 9006SOL     OW27916   2.932   6.496   0.838
 9006SOL    HW127917   2.835   6.475   0.845
 9006SOL    HW227918   2.964   6.535   0.924
 9007SOL     OW27919   4.382   1.022   4.203
 9007SOL    HW127920   4.300   0.972   4.229
 9007SOL    HW227921   4.434   1.046   4.285
 9008SOL     OW27922   0.752   5.870   3.031
 9008SOL    HW127923   0.701   5.875   3.116
 9008SOL    HW227924   0.732   5.950   2.975
 9009SOL     OW27925   3.018   1.154   0.405
 9009SOL    HW127926   2.956   1.221   0.445
 9009SOL    HW227927   3.005   1.065   0.449
 9010SOL     OW27928   1.401   6.560   3.988
 9010SOL    HW127929   1.403   6.595   4.081
 9010SOL    HW227930   1.437   6.467   3.985
 9011SOL     OW27931   4.691   2.435   1.388
 9011SOL    HW127932   4.631   2.503   1.430
 9011SOL    HW227933   4.646   2.396   1.307
 9012SOL     OW27934   2.719   4.310   1.321
 9012SOL    HW127935   2.637   4.303   1.264
 9012SOL    HW227936   2.696   4.289   1.416
 9013SOL     OW27937   6.937   6.285   5.221
 9013SOL    HW127938   6.865   6.350   5.196
 9013SOL    HW227939   6.967   6.235   5.140
 9014SOL     OW27940   6.894   1.674   0.371
 9014SOL    HW127941   6.938   1.690   0.283
 9014SOL    HW227942   6.964   1.660   0.441
 9015SOL     OW27943   5.184   2.032   1.478
 9015SOL    HW127944   5.193   2.109   1.415
 9015SOL    HW227945   5.275   1.995   1.499
 9016SOL     OW27946   0.847   6.942   6.852
 9016SOL    HW127947   0.816   0.004   6.901
 9016SOL    HW227948   0.947   6.943   6.845
 9017SOL     OW27949   4.450   2.105   2.142
 9017SOL    HW127950   4.499   2.064   2.065
 9017SOL    HW227951   4.387   2.175   2.108
 9018SOL     OW27952   4.033   1.999   6.458
 9018SOL    HW127953   4.030   1.959   6.366
 9018SOL    HW227954   4.013   2.097   6.453
 9019SOL     OW27955   1.195   7.019   2.219
 9019SOL    HW127956   1.204   0.022   2.122
 9019SOL    HW227957   1.140   0.070   2.264
 9020SOL     OW27958   0.518   3.505   1.643
 9020SOL    HW127959   0.515   3.560   1.727
 9020SOL    HW227960   0.430   3.460   1.630
 9021SOL     OW27961   6.487   0.776   4.058
 9021SOL    HW127962   6.395   0.772   4.020
 9021SOL    HW227963   6.487   0.735   4.149
 9022SOL     OW27964   2.855   1.692   6.928
 9022SOL    HW127965   2.770   1.740   6.905
 9022SOL    HW227966   2.929   1.726   6.869
 9023SOL     OW27967   3.084   3.630   2.517
 9023SOL    HW127968   3.161   3.589   2.468
 9023SOL    HW227969   3.058   3.570   2.593
 9024SOL     OW27970   0.330   4.923   4.939
 9024SOL    HW127971   0.368   4.830   4.935
 9024SOL    HW227972   0.231   4.919   4.926
 9025SOL     OW27973   0.878   5.193   0.229
 9025SOL    HW127974   0.944   5.220   0.159
 9025SOL    HW227975   0.858   5.095   0.220
 9026SOL     OW27976   3.964   3.295   0.997
 9026SOL    HW127977   4.025   3.251   1.062
 9026SOL    HW227978   3.874   3.250   1.000
 9027SOL     OW27979   1.145   2.225   4.093
 9027SOL    HW127980   1.157   2.126   4.096
 9027SOL    HW227981   1.216   2.268   4.149
 9028SOL     OW27982   2.434   3.672   5.690
 9028SOL    HW127983   2.371   3.617   5.635
 9028SOL    HW227984   2.517   3.618   5.709
 9029SOL     OW27985   3.297   5.984   4.991
 9029SOL    HW127986   3.258   6.020   5.075
 9029SOL    HW227987   3.301   5.884   4.995
 9030SOL     OW27988   2.174   2.331   3.432
 9030SOL    HW127989   2.178   2.384   3.516
 9030SOL    HW227990   2.211   2.385   3.357
 9031SOL     OW27991   4.118   5.809   4.668
 9031SOL    HW127992   4.020   5.795   4.682
 9031SOL    HW227993   4.160   5.722   4.640
 9032SOL     OW27994   3.736   3.500   0.160
 9032SOL    HW127995   3.688   3.501   0.247
 9032SOL    HW227996   3.832   3.475   0.174
 9033SOL     OW27997   1.143   4.429   3.793
 9033SOL    HW127998   1.063   4.456   3.846
 9033SOL    HW227999   1.226   4.462   3.838
 9034SOL     OW28000   2.851   0.372   5.845
 9034SOL    HW128001   2.907   0.454   5.835
 9034SOL    HW228002   2.906   0.299   5.886
 9035SOL     OW28003   1.241   4.648   6.018
 9035SOL    HW128004   1.207   4.657   5.924
 9035SOL    HW228005   1.164   4.642   6.081
 9036SOL     OW28006   2.115   1.215   5.972
 9036SOL    HW128007   2.099   1.200   5.875
 9036SOL    HW228008   2.032   1.195   6.024
 9037SOL     OW28009   1.636   3.951   5.475
 9037SOL    HW128010   1.627   3.880   5.406
 9037SOL    HW228011   1.731   3.957   5.505
 9038SOL     OW28012   4.450   6.851   6.025
 9038SOL    HW128013   4.458   6.794   5.943
 9038SOL    HW228014   4.410   6.798   6.099
 9039SOL     OW28015   3.020   4.828   5.059
 9039SOL    HW128016   2.941   4.767   5.058
 9039SOL    HW228017   3.081   4.802   5.133
 9040SOL     OW28018   3.066   2.067   2.964
 9040SOL    HW128019   3.031   2.099   2.876
 9040SOL    HW228020   2.994   2.072   3.033
 9041SOL     OW28021   1.111   2.139   1.854
 9041SOL    HW128022   1.118   2.069   1.784
 9041SOL    HW228023   1.016   2.149   1.883
 9042SOL     OW28024   3.285   0.176   3.958
 9042SOL    HW128025   3.315   0.240   4.028
 9042SOL    HW228026   3.270   0.224   3.872
 9043SOL     OW28027   1.719   1.344   6.489
 9043SOL    HW128028   1.674   1.255   6.483
 9043SOL    HW228029   1.809   1.333   6.530
 9044SOL     OW28030   5.781   1.060   0.930
 9044SOL    HW128031   5.839   1.138   0.954
 9044SOL    HW228032   5.738   1.023   1.012
 9045SOL     OW28033   2.114   1.294   2.471
 9045SOL    HW128034   2.209   1.279   2.497
 9045SOL    HW228035   2.108   1.302   2.371
 9046SOL     OW28036   3.445   3.767   3.748
 9046SOL    HW128037   3.486   3.806   3.665
 9046SOL    HW228038   3.367   3.710   3.722
 9047SOL     OW28039   1.186   2.981   5.874
 9047SOL    HW128040   1.222   2.970   5.967
 9047SOL    HW228041   1.090   2.953   5.872
 9048SOL     OW28042   5.647   2.215   6.479
 9048SOL    HW128043   5.568   2.250   6.429
 9048SOL    HW228044   5.621   2.135   6.532
 9049SOL     OW28045   3.615   6.869   5.958
 9049SOL    HW128046   3.553   6.878   6.036
 9049SOL    HW228047   3.628   6.773   5.936
 9050SOL     OW28048   0.328   3.461   0.191
 9050SOL    HW128049   0.372   3.434   0.277
 9050SOL    HW228050   0.242   3.412   0.181
 9051SOL     OW28051   4.222   6.410   0.909
 9051SOL    HW128052   4.310   6.365   0.924
 9051SOL    HW228053   4.148   6.355   0.949
 9052SOL     OW28054   2.179   2.536   4.214
 9052SOL    HW128055   2.119   2.616   4.225
 9052SOL    HW228056   2.268   2.556   4.255
 9053SOL     OW28057   2.069   1.483   2.916
 9053SOL    HW128058   2.023   1.442   2.837
 9053SOL    HW228059   2.146   1.539   2.885
 9054SOL     OW28060   2.007   5.969   2.720
 9054SOL    HW128061   1.994   5.990   2.623
 9054SOL    HW228062   2.060   5.884   2.728
 9055SOL     OW28063   6.001   3.057   3.944
 9055SOL    HW128064   6.067   2.988   3.972
 9055SOL    HW228065   5.911   3.014   3.932
 9056SOL     OW28066   0.854   0.773   2.356
 9056SOL    HW128067   0.821   0.836   2.286
 9056SOL    HW228068   0.804   0.687   2.351
 9057SOL     OW28069   5.575   5.268   5.749
 9057SOL    HW128070   5.649   5.281   5.683
 9057SOL    HW228071   5.504   5.337   5.734
 9058SOL     OW28072   2.458   1.768   2.988
 9058SOL    HW128073   2.483   1.724   2.901
 9058SOL    HW228074   2.360   1.784   2.991
 9059SOL     OW28075   1.256   2.135   4.506
 9059SOL    HW128076   1.267   2.233   4.490
 9059SOL    HW228077   1.266   2.086   4.419
 9060SOL     OW28078   6.022   3.032   3.369
 9060SOL    HW128079   5.953   2.961   3.387
 9060SOL    HW228080   5.997   3.115   3.418
 9061SOL     OW28081   2.318   5.495   1.793
 9061SOL    HW128082   2.226   5.458   1.805
 9061SOL    HW228083   2.316   5.568   1.726
 9062SOL     OW28084   1.815   5.750   1.798
 9062SOL    HW128085   1.721   5.734   1.768
 9062SOL    HW228086   1.861   5.810   1.732
 9063SOL     OW28087   1.996   6.985   2.750
 9063SOL    HW128088   1.901   6.994   2.720
 9063SOL    HW228089   2.006   6.902   2.805
 9064SOL     OW28090   6.507   2.090   5.625
 9064SOL    HW128091   6.445   2.012   5.633
 9064SOL    HW228092   6.502   2.127   5.533
 9065SOL     OW28093   3.178   6.797   5.729
 9065SOL    HW128094   3.123   6.726   5.687
 9065SOL    HW228095   3.166   6.883   5.679
 9066SOL     OW28096   4.896   6.002   0.501
 9066SOL    HW128097   4.929   6.093   0.476
 9066SOL    HW228098   4.945   5.971   0.583
 9067SOL     OW28099   6.507   0.677   4.308
 9067SOL    HW128100   6.603   0.651   4.312
 9067SOL    HW228101   6.481   0.724   4.392
 9068SOL     OW28102   2.286   6.710   4.858
 9068SOL    HW128103   2.345   6.754   4.790
 9068SOL    HW228104   2.341   6.676   4.934
 9069SOL     OW28105   1.767   3.015   2.054
 9069SOL    HW128106   1.790   2.929   2.099
 9069SOL    HW228107   1.673   3.011   2.019
 9070SOL     OW28108   1.551   4.080   4.849
 9070SOL    HW128109   1.645   4.114   4.838
 9070SOL    HW228110   1.487   4.152   4.822
 9071SOL     OW28111   5.349   0.130   1.152
 9071SOL    HW128112   5.281   0.152   1.082
 9071SOL    HW228113   5.309   0.066   1.218
 9072SOL     OW28114   0.321   1.403   1.929
 9072SOL    HW128115   0.239   1.368   1.972
 9072SOL    HW228116   0.378   1.450   1.997
 9073SOL     OW28117   3.339   6.801   2.330
 9073SOL    HW128118   3.287   6.726   2.371
 9073SOL    HW228119   3.332   6.882   2.388
 9074SOL     OW28120   2.251   1.270   1.914
 9074SOL    HW128121   2.269   1.312   1.825
 9074SOL    HW228122   2.330   1.284   1.974
 9075SOL     OW28123   1.421   1.034   2.682
 9075SOL    HW128124   1.511   1.038   2.725
 9075SOL    HW228125   1.419   0.960   2.615
 9076SOL     OW28126   6.016   2.443   4.942
 9076SOL    HW128127   5.923   2.477   4.953
 9076SOL    HW228128   6.072   2.471   5.020
 9077SOL     OW28129   5.293   0.139   0.631
 9077SOL    HW128130   5.365   0.161   0.698
 9077SOL    HW228131   5.327   0.157   0.539
 9078SOL     OW28132   4.435   3.838   6.186
 9078SOL    HW128133   4.481   3.905   6.129
 9078SOL    HW228134   4.453   3.746   6.151
 9079SOL     OW28135   3.311   0.348   4.159
 9079SOL    HW128136   3.213   0.350   4.180
 9079SOL    HW228137   3.336   0.430   4.107
 9080SOL     OW28138   4.776   2.683   6.962
 9080SOL    HW128139   4.719   2.605   6.991
 9080SOL    HW228140   4.873   2.658   6.971
 9081SOL     OW28141   3.425   6.265   2.448
 9081SOL    HW128142   3.345   6.287   2.504
 9081SOL    HW228143   3.396   6.215   2.366
 9082SOL     OW28144   2.304   0.549   5.915
 9082SOL    HW128145   2.245   0.626   5.892
 9082SOL    HW228146   2.257   0.489   5.981
 9083SOL     OW28147   2.879   6.028   5.907
 9083SOL    HW128148   2.871   5.964   5.984
 9083SOL    HW228149   2.969   6.072   5.910
 9084SOL     OW28150   3.049   3.655   4.520
 9084SOL    HW128151   3.129   3.708   4.492
 9084SOL    HW228152   2.997   3.628   4.439
 9085SOL     OW28153   2.698   5.636   1.190
 9085SOL    HW128154   2.700   5.613   1.288
 9085SOL    HW228155   2.694   5.736   1.181
 9086SOL     OW28156   1.223   4.297   0.384
 9086SOL    HW128157   1.270   4.320   0.299
 9086SOL    HW228158   1.284   4.315   0.462
 9087SOL     OW28159   4.897   2.890   1.565
 9087SOL    HW128160   4.932   2.870   1.473
 9087SOL    HW228161   4.840   2.972   1.562
 9088SOL     OW28162   6.548   6.670   0.720
 9088SOL    HW128163   6.459   6.713   0.736
 9088SOL    HW228164   6.544   6.574   0.749
 9089SOL     OW28165   5.007   5.963   5.360
 9089SOL    HW128166   4.930   6.019   5.391
 9089SOL    HW228167   5.051   6.008   5.281
 9090SOL     OW28168   0.008   1.194   3.856
 9090SOL    HW128169   6.929   1.212   3.852
 9090SOL    HW228170   0.047   1.241   3.935
 9091SOL     OW28171   3.176   4.291   0.153
 9091SOL    HW128172   3.131   4.351   0.219
 9091SOL    HW228173   3.152   4.319   0.060
 9092SOL     OW28174   0.079   1.024   0.191
 9092SOL    HW128175   0.168   1.056   0.221
 9092SOL    HW228176   0.058   0.938   0.236
 9093SOL     OW28177   1.394   6.383   5.469
 9093SOL    HW128178   1.464   6.333   5.418
 9093SOL    HW228179   1.438   6.456   5.522
 9094SOL     OW28180   6.697   5.106   2.899
 9094SOL    HW128181   6.790   5.103   2.862
 9094SOL    HW228182   6.665   5.201   2.903
 9095SOL     OW28183   5.275   4.770   5.778
 9095SOL    HW128184   5.192   4.768   5.722
 9095SOL    HW228185   5.335   4.695   5.751
 9096SOL     OW28186   5.996   4.365   2.487
 9096SOL    HW128187   6.069   4.303   2.516
 9096SOL    HW228188   5.987   4.439   2.554
 9097SOL     OW28189   1.280   1.630   1.157
 9097SOL    HW128190   1.215   1.554   1.164
 9097SOL    HW228191   1.351   1.607   1.090
 9098SOL     OW28192   3.541   1.625   5.068
 9098SOL    HW128193   3.526   1.711   5.019
 9098SOL    HW228194   3.640   1.607   5.073
 9099SOL     OW28195   3.477   2.615   5.566
 9099SOL    HW128196   3.454   2.712   5.578
 9099SOL    HW228197   3.526   2.603   5.480
 9100SOL     OW28198   0.281   3.253   3.191
 9100SOL    HW128199   0.212   3.310   3.146
 9100SOL    HW228200   0.352   3.312   3.230
 9101SOL     OW28201   2.703   2.317   2.566
 9101SOL    HW128202   2.744   2.307   2.476
 9101SOL    HW228203   2.765   2.370   2.625
 9102SOL     OW28204   3.133   6.184   1.649
 9102SOL    HW128205   3.100   6.265   1.600
 9102SOL    HW228206   3.057   6.121   1.662
 9103SOL     OW28207   6.756   2.932   6.489
 9103SOL    HW128208   6.744   2.987   6.406
 9103SOL    HW228209   6.671   2.884   6.510
 9104SOL     OW28210   0.378   5.845   2.198
 9104SOL    HW128211   0.397   5.826   2.294
 9104SOL    HW228212   0.310   5.918   2.192
 9105SOL     OW28213   0.763   1.300   6.242
 9105SOL    HW128214   0.669   1.316   6.270
 9105SOL    HW228215   0.822   1.299   6.323
 9106SOL     OW28216   6.681   3.688   1.135
 9106SOL    HW128217   6.582   3.681   1.141
 9106SOL    HW228218   6.722   3.662   1.222
 9107SOL     OW28219   2.682   0.584   6.731
 9107SOL    HW128220   2.668   0.675   6.694
 9107SOL    HW228221   2.710   0.522   6.658
 9108SOL     OW28222   5.271   4.701   4.995
 9108SOL    HW128223   5.236   4.611   4.972
 9108SOL    HW228224   5.204   4.771   4.971
 9109SOL     OW28225   6.529   3.277   3.331
 9109SOL    HW128226   6.460   3.232   3.388
 9109SOL    HW228227   6.491   3.362   3.293
 9110SOL     OW28228   1.847   4.717   4.167
 9110SOL    HW128229   1.750   4.738   4.176
 9110SOL    HW228230   1.869   4.698   4.071
 9111SOL     OW28231   5.335   2.235   0.349
 9111SOL    HW128232   5.411   2.231   0.414
 9111SOL    HW228233   5.303   2.142   0.329
 9112SOL     OW28234   1.275   5.668   2.675
 9112SOL    HW128235   1.262   5.573   2.646
 9112SOL    HW228236   1.325   5.670   2.761
 9113SOL     OW28237   4.750   2.621   2.605
 9113SOL    HW128238   4.768   2.586   2.513
 9113SOL    HW228239   4.680   2.565   2.649
 9114SOL     OW28240   0.421   5.531   3.619
 9114SOL    HW128241   0.452   5.626   3.620
 9114SOL    HW228242   0.452   5.485   3.702
 9115SOL     OW28243   6.628   5.902   4.704
 9115SOL    HW128244   6.692   5.831   4.735
 9115SOL    HW228245   6.619   5.897   4.605
 9116SOL     OW28246   0.399   0.180   2.615
 9116SOL    HW128247   0.453   0.255   2.578
 9116SOL    HW228248   0.346   0.212   2.693
 9117SOL     OW28249   3.614   2.678   5.970
 9117SOL    HW128250   3.553   2.601   5.951
 9117SOL    HW228251   3.562   2.751   6.014
 9118SOL     OW28252   6.758   3.406   6.942
 9118SOL    HW128253   6.820   3.417   7.019
 9118SOL    HW228254   6.801   3.349   6.872
 9119SOL     OW28255   4.114   0.904   2.263
 9119SOL    HW128256   4.079   0.987   2.220
 9119SOL    HW228257   4.058   0.882   2.343
 9120SOL     OW28258   6.732   1.668   5.622
 9120SOL    HW128259   6.633   1.681   5.633
 9120SOL    HW228260   6.774   1.664   5.713
 9121SOL     OW28261   3.688   6.397   4.595
 9121SOL    HW128262   3.713   6.342   4.515
 9121SOL    HW228263   3.689   6.340   4.677
 9122SOL     OW28264   2.423   4.408   1.977
 9122SOL    HW128265   2.434   4.394   1.878
 9122SOL    HW228266   2.487   4.478   2.008
 9123SOL     OW28267   2.131   0.851   4.709
 9123SOL    HW128268   2.160   0.874   4.616
 9123SOL    HW228269   2.038   0.815   4.707
 9124SOL     OW28270   4.307   5.445   0.301
 9124SOL    HW128271   4.209   5.446   0.283
 9124SOL    HW228272   4.351   5.517   0.248
 9125SOL     OW28273   4.133   4.469   0.833
 9125SOL    HW128274   4.124   4.504   0.926
 9125SOL    HW228275   4.044   4.438   0.800
 9126SOL     OW28276   6.401   3.656   1.364
 9126SOL    HW128277   6.354   3.577   1.404
 9126SOL    HW228278   6.388   3.656   1.265
 9127SOL     OW28279   6.391   1.539   6.094
 9127SOL    HW128280   6.483   1.499   6.094
 9127SOL    HW228281   6.398   1.637   6.074
 9128SOL     OW28282   6.257   2.336   5.285
 9128SOL    HW128283   6.227   2.409   5.346
 9128SOL    HW228284   6.179   2.275   5.267
 9129SOL     OW28285   6.579   2.119   0.160
 9129SOL    HW128286   6.542   2.122   0.067
 9129SOL    HW228287   6.674   2.086   0.158
 9130SOL     OW28288   1.492   4.103   6.704
 9130SOL    HW128289   1.569   4.075   6.762
 9130SOL    HW228290   1.526   4.146   6.621
 9131SOL     OW28291   5.314   3.416   6.336
 9131SOL    HW128292   5.333   3.353   6.261
 9131SOL    HW228293   5.355   3.382   6.420
 9132SOL     OW28294   1.115   5.776   4.332
 9132SOL    HW128295   1.071   5.846   4.277
 9132SOL    HW228296   1.107   5.687   4.287
 9133SOL     OW28297   3.721   6.613   1.227
 9133SOL    HW128298   3.687   6.634   1.319
 9133SOL    HW228299   3.644   6.605   1.164
 9134SOL     OW28300   4.010   5.224   1.184
 9134SOL    HW128301   3.927   5.278   1.196
 9134SOL    HW228302   4.089   5.276   1.216
 9135SOL     OW28303   0.532   0.330   1.379
 9135SOL    HW128304   0.611   0.275   1.406
 9135SOL    HW228305   0.555   0.384   1.298
 9136SOL     OW28306   4.746   6.224   6.143
 9136SOL    HW128307   4.663   6.187   6.100
 9136SOL    HW228308   4.826   6.185   6.099
 9137SOL     OW28309   3.892   0.452   6.722
 9137SOL    HW128310   3.940   0.539   6.714
 9137SOL    HW228311   3.900   0.402   6.636
 9138SOL     OW28312   0.142   4.528   6.553
 9138SOL    HW128313   0.181   4.511   6.463
 9138SOL    HW228314   0.088   4.449   6.581
 9139SOL     OW28315   1.606   1.162   2.487
 9139SOL    HW128316   1.648   1.073   2.469
 9139SOL    HW228317   1.661   1.212   2.553
 9140SOL     OW28318   0.740   3.702   2.030
 9140SOL    HW128319   0.815   3.636   2.044
 9140SOL    HW228320   0.684   3.672   1.954
 9141SOL     OW28321   6.115   6.351   1.451
 9141SOL    HW128322   6.083   6.418   1.518
 9141SOL    HW228323   6.115   6.260   1.492
 9142SOL     OW28324   0.413   4.033   1.565
 9142SOL    HW128325   0.347   3.967   1.530
 9142SOL    HW228326   0.503   4.013   1.526
 9143SOL     OW28327   6.561   3.137   0.588
 9143SOL    HW128328   6.483   3.123   0.526
 9143SOL    HW228329   6.534   3.114   0.681
 9144SOL     OW28330   3.247   5.510   5.113
 9144SOL    HW128331   3.176   5.493   5.181
 9144SOL    HW228332   3.242   5.439   5.042
 9145SOL     OW28333   0.623   6.156   6.599
 9145SOL    HW128334   0.696   6.103   6.642
 9145SOL    HW228335   0.582   6.218   6.666
 9146SOL     OW28336   5.160   3.443   2.903
 9146SOL    HW128337   5.114   3.392   2.976
 9146SOL    HW228338   5.238   3.390   2.871
 9147SOL     OW28339   6.882   0.490   5.415
 9147SOL    HW128340   6.913   0.584   5.429
 9147SOL    HW228341   6.784   0.490   5.394
 9148SOL     OW28342   5.183   6.457   2.529
 9148SOL    HW128343   5.188   6.416   2.620
 9148SOL    HW228344   5.091   6.489   2.512
 9149SOL     OW28345   5.548   3.920   2.116
 9149SOL    HW128346   5.541   4.012   2.154
 9149SOL    HW228347   5.638   3.882   2.137
 9150SOL     OW28348   3.625   4.894   0.649
 9150SOL    HW128349   3.616   4.842   0.734
 9150SOL    HW228350   3.581   4.984   0.659
 9151SOL     OW28351   1.905   4.432   3.741
 9151SOL    HW128352   1.869   4.367   3.674
 9151SOL    HW228353   1.853   4.517   3.737
 9152SOL     OW28354   2.244   4.230   4.567
 9152SOL    HW128355   2.234   4.183   4.479
 9152SOL    HW228356   2.321   4.293   4.562
 9153SOL     OW28357   0.227   2.525   6.638
 9153SOL    HW128358   0.259   2.577   6.560
 9153SOL    HW228359   0.149   2.469   6.611
 9154SOL     OW28360   4.703   4.252   4.542
 9154SOL    HW128361   4.746   4.339   4.515
 9154SOL    HW228362   4.620   4.271   4.593
 9155SOL     OW28363   2.552   5.005   2.433
 9155SOL    HW128364   2.621   4.933   2.438
 9155SOL    HW228365   2.473   4.972   2.382
 9156SOL     OW28366   6.454   1.569   1.449
 9156SOL    HW128367   6.409   1.562   1.538
 9156SOL    HW228368   6.552   1.581   1.461
 9157SOL     OW28369   3.482   3.888   6.994
 9157SOL    HW128370   3.527   3.939   0.048
 9157SOL    HW228371   3.430   3.952   6.937
 9158SOL     OW28372   6.773   3.814   4.085
 9158SOL    HW128373   6.786   3.913   4.078
 9158SOL    HW228374   6.771   3.787   4.181
 9159SOL     OW28375   2.426   0.323   3.737
 9159SOL    HW128376   2.464   0.315   3.645
 9159SOL    HW228377   2.327   0.334   3.731
 9160SOL     OW28378   0.421   6.391   5.902
 9160SOL    HW128379   0.475   6.363   5.982
 9160SOL    HW228380   0.326   6.360   5.914
 9161SOL     OW28381   6.480   4.769   3.052
 9161SOL    HW128382   6.443   4.679   3.030
 9161SOL    HW228383   6.487   4.824   2.969
 9162SOL     OW28384   4.110   0.051   2.731
 9162SOL    HW128385   4.040   0.103   2.681
 9162SOL    HW228386   4.066   7.016   2.802
 9163SOL     OW28387   7.007   3.337   3.504
 9163SOL    HW128388   6.932   3.368   3.563
 9163SOL    HW228389   0.004   3.405   3.433
 9164SOL     OW28390   1.741   0.661   6.697
 9164SOL    HW128391   1.760   0.754   6.730
 9164SOL    HW228392   1.759   0.596   6.771
 9165SOL     OW28393   4.687   2.169   6.087
 9165SOL    HW128394   4.730   2.139   6.173
 9165SOL    HW228395   4.744   2.141   6.010
 9166SOL     OW28396   4.622   5.555   1.063
 9166SOL    HW128397   4.673   5.496   1.126
 9166SOL    HW228398   4.613   5.509   0.974
 9167SOL     OW28399   1.615   2.479   6.194
 9167SOL    HW128400   1.635   2.512   6.286
 9167SOL    HW228401   1.685   2.412   6.166
 9168SOL     OW28402   6.877   6.364   6.611
 9168SOL    HW128403   6.911   6.457   6.625
 9168SOL    HW228404   6.901   6.334   6.518
 9169SOL     OW28405   0.200   6.574   6.336
 9169SOL    HW128406   0.152   6.643   6.391
 9169SOL    HW228407   0.189   6.595   6.239
 9170SOL     OW28408   1.992   0.205   6.169
 9170SOL    HW128409   1.962   0.111   6.184
 9170SOL    HW228410   1.929   0.268   6.214
 9171SOL     OW28411   3.440   6.016   0.529
 9171SOL    HW128412   3.392   6.087   0.581
 9171SOL    HW228413   3.402   5.927   0.550
 9172SOL     OW28414   4.181   1.655   4.009
 9172SOL    HW128415   4.131   1.650   4.096
 9172SOL    HW228416   4.151   1.736   3.959
 9173SOL     OW28417   5.860   3.237   5.017
 9173SOL    HW128418   5.840   3.168   4.947
 9173SOL    HW228419   5.957   3.232   5.042
 9174SOL     OW28420   0.916   5.821   6.974
 9174SOL    HW128421   0.968   5.764   6.910
 9174SOL    HW228422   0.891   5.767   0.035
 9175SOL     OW28423   1.347   0.239   6.984
 9175SOL    HW128424   1.437   0.250   0.007
 9175SOL    HW228425   1.354   0.175   6.908
 9176SOL     OW28426   2.643   0.029   1.768
 9176SOL    HW128427   2.588   7.002   1.699
 9176SOL    HW228428   2.728   0.061   1.728
 9177SOL     OW28429   1.549   2.479   4.002
 9177SOL    HW128430   1.518   2.567   4.038
 9177SOL    HW228431   1.630   2.494   3.945
 9178SOL     OW28432   1.751   5.866   6.457
 9178SOL    HW128433   1.755   5.797   6.385
 9178SOL    HW228434   1.843   5.899   6.476
 9179SOL     OW28435   1.746   5.734   4.998
 9179SOL    HW128436   1.652   5.707   4.980
 9179SOL    HW228437   1.799   5.732   4.913
 9180SOL     OW28438   6.428   2.733   3.035
 9180SOL    HW128439   6.355   2.669   3.058
 9180SOL    HW228440   6.481   2.697   2.958
 9181SOL     OW28441   4.835   2.873   3.654
 9181SOL    HW128442   4.793   2.789   3.691
 9181SOL    HW228443   4.861   2.933   3.730
 9182SOL     OW28444   3.450   0.248   3.199
 9182SOL    HW128445   3.372   0.189   3.223
 9182SOL    HW228446   3.460   0.320   3.267
 9183SOL     OW28447   4.942   4.264   6.777
 9183SOL    HW128448   4.997   4.181   6.782
 9183SOL    HW228449   4.875   4.255   6.704
 9184SOL     OW28450   3.522   2.097   0.664
 9184SOL    HW128451   3.520   2.197   0.666
 9184SOL    HW228452   3.511   2.065   0.570
 9185SOL     OW28453   0.104   6.898   5.468
 9185SOL    HW128454   0.015   6.878   5.509
 9185SOL    HW228455   0.090   6.942   5.379
 9186SOL     OW28456   5.445   1.077   5.606
 9186SOL    HW128457   5.473   1.172   5.605
 9186SOL    HW228458   5.433   1.044   5.512
 9187SOL     OW28459   4.891   1.995   0.013
 9187SOL    HW128460   4.799   2.032   0.028
 9187SOL    HW228461   4.923   1.952   0.098
 9188SOL     OW28462   1.488   0.388   1.855
 9188SOL    HW128463   1.545   0.468   1.842
 9188SOL    HW228464   1.543   0.305   1.844
 9189SOL     OW28465   2.747   6.840   3.294
 9189SOL    HW128466   2.820   6.809   3.355
 9189SOL    HW228467   2.672   6.774   3.294
 9190SOL     OW28468   0.130   3.481   5.405
 9190SOL    HW128469   0.190   3.557   5.385
 9190SOL    HW228470   0.044   3.515   5.443
 9191SOL     OW28471   5.833   0.680   6.699
 9191SOL    HW128472   5.863   0.635   6.784
 9191SOL    HW228473   5.735   0.700   6.704
 9192SOL     OW28474   6.279   3.081   5.642
 9192SOL    HW128475   6.290   3.180   5.649
 9192SOL    HW228476   6.368   3.038   5.630
 9193SOL     OW28477   3.787   3.593   4.026
 9193SOL    HW128478   3.763   3.496   4.034
 9193SOL    HW228479   3.804   3.631   4.117
 9194SOL     OW28480   3.979   6.151   2.125
 9194SOL    HW128481   4.021   6.222   2.069
 9194SOL    HW228482   3.929   6.088   2.066
 9195SOL     OW28483   1.621   2.839   3.303
 9195SOL    HW128484   1.599   2.930   3.268
 9195SOL    HW228485   1.675   2.848   3.387
 9196SOL     OW28486   5.759   0.410   3.627
 9196SOL    HW128487   5.681   0.471   3.619
 9196SOL    HW228488   5.839   0.461   3.656
 9197SOL     OW28489   3.672   5.699   0.266
 9197SOL    HW128490   3.602   5.770   0.256
 9197SOL    HW228491   3.719   5.686   0.179
 9198SOL     OW28492   5.890   4.554   6.575
 9198SOL    HW128493   5.900   4.502   6.659
 9198SOL    HW228494   5.826   4.507   6.514
 9199SOL     OW28495   0.064   2.963   6.445
 9199SOL    HW128496   0.155   2.937   6.479
 9199SOL    HW228497   0.034   3.046   6.491
 9200SOL     OW28498   2.226   5.650   6.473
 9200SOL    HW128499   2.251   5.719   6.541
 9200SOL    HW228500   2.245   5.559   6.509
 9201SOL     OW28501   0.314   3.339   0.798
 9201SOL    HW128502   0.292   3.409   0.731
 9201SOL    HW228503   0.349   3.258   0.751
 9202SOL     OW28504   1.402   6.002   3.610
 9202SOL    HW128505   1.460   5.929   3.647
 9202SOL    HW228506   1.307   5.968   3.605
 9203SOL     OW28507   5.362   2.505   6.315
 9203SOL    HW128508   5.351   2.582   6.378
 9203SOL    HW228509   5.291   2.509   6.245
 9204SOL     OW28510   4.828   3.947   3.861
 9204SOL    HW128511   4.854   3.857   3.897
 9204SOL    HW228512   4.822   3.943   3.762
 9205SOL     OW28513   5.103   4.767   2.693
 9205SOL    HW128514   5.176   4.763   2.625
 9205SOL    HW228515   5.141   4.745   2.783
 9206SOL     OW28516   3.453   0.172   3.613
 9206SOL    HW128517   3.428   0.249   3.555
 9206SOL    HW228518   3.476   0.205   3.705
 9207SOL     OW28519   3.549   5.487   6.357
 9207SOL    HW128520   3.528   5.525   6.267
 9207SOL    HW228521   3.630   5.532   6.394
 9208SOL     OW28522   5.540   4.181   2.203
 9208SOL    HW128523   5.628   4.165   2.157
 9208SOL    HW228524   5.555   4.241   2.282
 9209SOL     OW28525   4.077   0.391   1.840
 9209SOL    HW128526   4.081   0.397   1.940
 9209SOL    HW228527   4.148   0.450   1.800
 9210SOL     OW28528   0.931   0.922   1.407
 9210SOL    HW128529   0.910   0.843   1.464
 9210SOL    HW228530   0.900   1.005   1.453
 9211SOL     OW28531   5.388   3.266   6.131
 9211SOL    HW128532   5.474   3.217   6.140
 9211SOL    HW228533   5.384   3.310   6.041
 9212SOL     OW28534   5.153   4.201   5.304
 9212SOL    HW128535   5.194   4.110   5.304
 9212SOL    HW228536   5.067   4.198   5.355
 9213SOL     OW28537   5.229   5.620   4.308
 9213SOL    HW128538   5.135   5.643   4.333
 9213SOL    HW228539   5.289   5.631   4.388
 9214SOL     OW28540   0.141   2.555   5.361
 9214SOL    HW128541   0.224   2.580   5.310
 9214SOL    HW228542   0.062   2.558   5.300
 9215SOL     OW28543   0.899   4.819   3.079
 9215SOL    HW128544   0.900   4.890   3.149
 9215SOL    HW228545   0.936   4.856   2.994
 9216SOL     OW28546   2.774   6.933   4.527
 9216SOL    HW128547   2.767   6.949   4.625
 9216SOL    HW228548   2.709   6.862   4.500
 9217SOL     OW28549   5.980   1.905   0.114
 9217SOL    HW128550   5.897   1.959   0.127
 9217SOL    HW228551   5.979   1.863   0.023
 9218SOL     OW28552   3.762   1.120   6.874
 9218SOL    HW128553   3.760   1.177   6.957
 9218SOL    HW228554   3.734   1.175   6.796
 9219SOL     OW28555   4.231   3.510   5.845
 9219SOL    HW128556   4.171   3.444   5.799
 9219SOL    HW228557   4.191   3.601   5.837
 9220SOL     OW28558   1.641   6.120   2.826
 9220SOL    HW128559   1.633   6.021   2.813
 9220SOL    HW228560   1.618   6.142   2.921
 9221SOL     OW28561   2.810   0.199   4.795
 9221SOL    HW128562   2.840   0.220   4.702
 9221SOL    HW228563   2.889   0.184   4.854
 9222SOL     OW28564   2.327   4.673   5.205
 9222SOL    HW128565   2.423   4.649   5.187
 9222SOL    HW228566   2.268   4.615   5.149
 9223SOL     OW28567   1.186   2.978   4.063
 9223SOL    HW128568   1.280   3.002   4.038
 9223SOL    HW228569   1.182   2.880   4.084
 9224SOL     OW28570   1.604   4.211   3.319
 9224SOL    HW128571   1.508   4.216   3.345
 9224SOL    HW228572   1.639   4.303   3.302
 9225SOL     OW28573   4.290   5.390   6.110
 9225SOL    HW128574   4.367   5.430   6.160
 9225SOL    HW228575   4.233   5.464   6.072
 9226SOL     OW28576   0.842   0.409   1.235
 9226SOL    HW128577   0.755   0.419   1.188
 9226SOL    HW228578   0.913   0.458   1.184
 9227SOL     OW28579   1.904   5.962   1.600
 9227SOL    HW128580   1.816   6.008   1.614
 9227SOL    HW228581   1.939   5.984   1.509
 9228SOL     OW28582   2.080   2.123   0.116
 9228SOL    HW128583   2.111   2.043   0.065
 9228SOL    HW228584   2.056   2.097   0.209
 9229SOL     OW28585   0.612   5.023   5.872
 9229SOL    HW128586   0.644   5.118   5.864
 9229SOL    HW228587   0.673   4.972   5.932
 9230SOL     OW28588   4.918   3.334   2.518
 9230SOL    HW128589   4.842   3.270   2.512
 9230SOL    HW228590   4.946   3.361   2.425
 9231SOL     OW28591   0.409   3.766   4.976
 9231SOL    HW128592   0.467   3.746   5.054
 9231SOL    HW228593   0.386   3.863   4.975
 9232SOL     OW28594   2.932   5.526   0.764
 9232SOL    HW128595   2.919   5.427   0.755
 9232SOL    HW228596   2.945   5.549   0.861
 9233SOL     OW28597   0.274   7.000   0.608
 9233SOL    HW128598   0.203   0.047   0.630
 9233SOL    HW228599   0.235   6.908   0.608
 9234SOL     OW28600   1.973   5.957   0.699
 9234SOL    HW128601   1.963   5.891   0.774
 9234SOL    HW228602   1.943   5.915   0.613
 9235SOL     OW28603   2.020   2.941   3.279
 9235SOL    HW128604   1.955   2.902   3.215
 9235SOL    HW228605   2.015   2.892   3.366
 9236SOL     OW28606   2.659   3.576   6.480
 9236SOL    HW128607   2.660   3.676   6.478
 9236SOL    HW228608   2.746   3.541   6.445
 9237SOL     OW28609   0.948   5.619   2.479
 9237SOL    HW128610   0.919   5.700   2.529
 9237SOL    HW228611   1.046   5.622   2.462
 9238SOL     OW28612   2.620   2.294   5.802
 9238SOL    HW128613   2.634   2.283   5.900
 9238SOL    HW228614   2.601   2.390   5.781
 9239SOL     OW28615   0.109   4.264   6.811
 9239SOL    HW128616   0.051   4.281   6.732
 9239SOL    HW228617   0.062   4.293   6.894
 9240SOL     OW28618   5.171   2.712   2.040
 9240SOL    HW128619   5.086   2.763   2.026
 9240SOL    HW228620   5.150   2.621   2.076
 9241SOL     OW28621   0.404   5.987   0.716
 9241SOL    HW128622   0.423   5.894   0.685
 9241SOL    HW228623   0.475   6.017   0.780
 9242SOL     OW28624   2.071   3.238   1.971
 9242SOL    HW128625   1.984   3.243   1.922
 9242SOL    HW228626   2.134   3.307   1.935
 9243SOL     OW28627   0.220   0.680   1.851
 9243SOL    HW128628   0.187   0.604   1.796
 9243SOL    HW228629   0.224   0.763   1.794
 9244SOL     OW28630   3.093   6.356   6.016
 9244SOL    HW128631   3.175   6.397   6.056
 9244SOL    HW228632   3.111   6.259   5.995
 9245SOL     OW28633   0.748   4.288   3.801
 9245SOL    HW128634   0.688   4.268   3.724
 9245SOL    HW228635   0.709   4.363   3.855
 9246SOL     OW28636   5.479   0.644   3.441
 9246SOL    HW128637   5.438   0.668   3.529
 9246SOL    HW228638   5.493   0.545   3.437
 9247SOL     OW28639   3.449   5.332   2.461
 9247SOL    HW128640   3.386   5.403   2.431
 9247SOL    HW228641   3.538   5.346   2.419
 9248SOL     OW28642   3.122   2.150   4.858
 9248SOL    HW128643   3.124   2.216   4.783
 9248SOL    HW228644   3.146   2.196   4.943
 9249SOL     OW28645   4.959   5.269   1.782
 9249SOL    HW128646   4.931   5.174   1.797
 9249SOL    HW228647   4.999   5.278   1.691
 9250SOL     OW28648   6.839   2.823   3.764
 9250SOL    HW128649   6.882   2.733   3.758
 9250SOL    HW228650   6.825   2.860   3.672
 9251SOL     OW28651   3.850   1.797   2.172
 9251SOL    HW128652   3.857   1.878   2.230
 9251SOL    HW228653   3.927   1.736   2.190
 9252SOL     OW28654   5.723   0.754   4.889
 9252SOL    HW128655   5.669   0.706   4.820
 9252SOL    HW228656   5.738   0.849   4.859
 9253SOL     OW28657   5.167   5.311   5.355
 9253SOL    HW128658   5.094   5.267   5.407
 9253SOL    HW228659   5.142   5.406   5.336
 9254SOL     OW28660   4.404   4.727   2.417
 9254SOL    HW128661   4.464   4.736   2.496
 9254SOL    HW228662   4.455   4.689   2.340
 9255SOL     OW28663   5.092   3.532   0.137
 9255SOL    HW128664   4.995   3.539   0.163
 9255SOL    HW228665   5.148   3.569   0.211
 9256SOL     OW28666   2.449   6.980   2.205
 9256SOL    HW128667   2.405   0.043   2.170
 9256SOL    HW228668   2.419   6.965   2.299
 9257SOL     OW28669   5.840   5.317   3.516
 9257SOL    HW128670   5.922   5.314   3.458
 9257SOL    HW228671   5.851   5.389   3.585
 9258SOL     OW28672   4.156   3.650   1.748
 9258SOL    HW128673   4.163   3.665   1.649
 9258SOL    HW228674   4.216   3.575   1.774
 9259SOL     OW28675   2.016   1.169   0.686
 9259SOL    HW128676   2.056   1.250   0.643
 9259SOL    HW228677   1.986   1.192   0.779
 9260SOL     OW28678   6.698   2.686   5.843
 9260SOL    HW128679   6.756   2.735   5.908
 9260SOL    HW228680   6.604   2.685   5.875
 9261SOL     OW28681   4.601   1.473   6.600
 9261SOL    HW128682   4.595   1.537   6.676
 9261SOL    HW228683   4.524   1.488   6.538
 9262SOL     OW28684   0.563   6.289   4.996
 9262SOL    HW128685   0.607   6.200   4.983
 9262SOL    HW228686   0.516   6.315   4.912
 9263SOL     OW28687   3.001   5.627   2.327
 9263SOL    HW128688   2.910   5.648   2.362
 9263SOL    HW228689   2.999   5.626   2.227
 9264SOL     OW28690   4.777   3.925   0.296
 9264SOL    HW128691   4.790   3.826   0.298
 9264SOL    HW228692   4.859   3.970   0.331
 9265SOL     OW28693   3.813   2.432   0.360
 9265SOL    HW128694   3.905   2.453   0.328
 9265SOL    HW228695   3.817   2.394   0.452
 9266SOL     OW28696   0.782   6.154   1.088
 9266SOL    HW128697   0.732   6.139   1.173
 9266SOL    HW228698   0.854   6.085   1.078
 9267SOL     OW28699   0.293   2.074   4.418
 9267SOL    HW128700   0.375   2.025   4.391
 9267SOL    HW228701   0.242   2.021   4.486
 9268SOL     OW28702   1.136   6.967   2.542
 9268SOL    HW128703   1.041   6.947   2.562
 9268SOL    HW228704   1.157   6.944   2.447
 9269SOL     OW28705   4.490   0.113   6.292
 9269SOL    HW128706   4.446   0.202   6.277
 9269SOL    HW228707   4.569   0.104   6.232
 9270SOL     OW28708   3.861   6.801   5.758
 9270SOL    HW128709   3.783   6.786   5.818
 9270SOL    HW228710   3.893   6.895   5.768
 9271SOL     OW28711   6.144   0.395   0.409
 9271SOL    HW128712   6.223   0.441   0.450
 9271SOL    HW228713   6.163   0.297   0.400
 9272SOL     OW28714   0.952   6.413   6.645
 9272SOL    HW128715   1.043   6.375   6.625
 9272SOL    HW228716   0.894   6.403   6.564
 9273SOL     OW28717   6.562   6.163   3.559
 9273SOL    HW128718   6.521   6.223   3.628
 9273SOL    HW228719   6.496   6.148   3.485
 9274SOL     OW28720   6.930   2.176   0.047
 9274SOL    HW128721   6.998   2.121   0.096
 9274SOL    HW228722   6.912   2.134   6.978
 9275SOL     OW28723   6.338   0.846   0.558
 9275SOL    HW128724   6.434   0.838   0.534
 9275SOL    HW228725   6.328   0.906   0.637
 9276SOL     OW28726   1.675   4.914   0.418
 9276SOL    HW128727   1.754   4.896   0.477
 9276SOL    HW228728   1.649   4.830   0.370
 9277SOL     OW28729   4.526   5.173   2.031
 9277SOL    HW128730   4.448   5.233   2.040
 9277SOL    HW228731   4.565   5.183   1.939
 9278SOL     OW28732   1.848   0.671   5.995
 9278SOL    HW128733   1.915   0.673   5.921
 9278SOL    HW228734   1.814   0.577   6.006
 9279SOL     OW28735   3.594   6.651   1.615
 9279SOL    HW128736   3.657   6.704   1.559
 9279SOL    HW228737   3.561   6.708   1.691
 9280SOL     OW28738   2.632   1.062   2.604
 9280SOL    HW128739   2.648   1.047   2.701
 9280SOL    HW228740   2.543   1.026   2.578
 9281SOL     OW28741   2.987   4.563   6.757
 9281SOL    HW128742   3.047   4.636   6.723
 9281SOL    HW228743   2.895   4.599   6.770
 9282SOL     OW28744   5.290   1.281   3.513
 9282SOL    HW128745   5.221   1.237   3.570
 9282SOL    HW228746   5.292   1.236   3.423
 9283SOL     OW28747   5.531   0.588   4.801
 9283SOL    HW128748   5.507   0.525   4.727
 9283SOL    HW228749   5.475   0.671   4.793
 9284SOL     OW28750   2.740   3.246   5.453
 9284SOL    HW128751   2.711   3.153   5.430
 9284SOL    HW228752   2.782   3.288   5.372
 9285SOL     OW28753   4.865   3.592   1.323
 9285SOL    HW128754   4.781   3.639   1.294
 9285SOL    HW228755   4.869   3.502   1.278
 9286SOL     OW28756   5.448   5.344   0.680
 9286SOL    HW128757   5.497   5.257   0.675
 9286SOL    HW228758   5.491   5.410   0.619
 9287SOL     OW28759   3.634   4.636   6.116
 9287SOL    HW128760   3.625   4.687   6.030
 9287SOL    HW228761   3.553   4.578   6.129
 9288SOL     OW28762   4.376   1.624   2.201
 9288SOL    HW128763   4.371   1.620   2.301
 9288SOL    HW228764   4.467   1.654   2.174
 9289SOL     OW28765   4.660   0.765   0.794
 9289SOL    HW128766   4.582   0.826   0.783
 9289SOL    HW228767   4.648   0.684   0.736
 9290SOL     OW28768   5.874   1.100   3.588
 9290SOL    HW128769   5.952   1.088   3.649
 9290SOL    HW228770   5.839   1.010   3.561
 9291SOL     OW28771   1.249   5.346   5.750
 9291SOL    HW128772   1.305   5.428   5.735
 9291SOL    HW228773   1.255   5.319   5.846
 9292SOL     OW28774   2.171   1.910   6.979
 9292SOL    HW128775   2.124   1.832   6.937
 9292SOL    HW228776   2.254   1.877   0.005
 9293SOL     OW28777   5.571   3.996   6.581
 9293SOL    HW128778   5.485   3.969   6.538
 9293SOL    HW228779   5.620   4.059   6.520
 9294SOL     OW28780   5.307   1.393   6.502
 9294SOL    HW128781   5.309   1.335   6.583
 9294SOL    HW228782   5.220   1.442   6.498
 9295SOL     OW28783   5.803   0.453   5.307
 9295SOL    HW128784   5.769   0.528   5.250
 9295SOL    HW228785   5.737   0.378   5.308
 9296SOL     OW28786   1.902   4.685   0.258
 9296SOL    HW128787   1.880   4.778   0.226
 9296SOL    HW228788   2.000   4.670   0.251
 9297SOL     OW28789   0.719   7.004   3.299
 9297SOL    HW128790   0.724   7.009   3.399
 9297SOL    HW228791   0.717   0.078   3.262
 9298SOL     OW28792   1.377   5.997   5.988
 9298SOL    HW128793   1.347   6.088   5.956
 9298SOL    HW228794   1.311   5.928   5.958
 9299SOL     OW28795   0.744   1.851   4.601
 9299SOL    HW128796   0.665   1.799   4.569
 9299SOL    HW228797   0.713   1.930   4.652
 9300SOL     OW28798   0.309   5.113   5.591
 9300SOL    HW128799   0.356   5.062   5.519
 9300SOL    HW228800   0.289   5.205   5.559
 9301SOL     OW28801   6.498   5.162   4.953
 9301SOL    HW128802   6.472   5.065   4.953
 9301SOL    HW228803   6.434   5.213   5.011
 9302SOL     OW28804   2.169   3.622   4.385
 9302SOL    HW128805   2.175   3.580   4.475
 9302SOL    HW228806   2.241   3.583   4.326
 9303SOL     OW28807   2.828   3.637   0.873
 9303SOL    HW128808   2.866   3.719   0.916
 9303SOL    HW228809   2.899   3.566   0.868
 9304SOL     OW28810   4.278   5.420   0.562
 9304SOL    HW128811   4.292   5.435   0.464
 9304SOL    HW228812   4.359   5.375   0.601
 9305SOL     OW28813   3.623   0.940   0.796
 9305SOL    HW128814   3.657   0.913   0.706
 9305SOL    HW228815   3.523   0.939   0.796
 9306SOL     OW28816   1.527   4.281   5.222
 9306SOL    HW128817   1.585   4.214   5.175
 9306SOL    HW228818   1.497   4.244   5.309
 9307SOL     OW28819   1.253   3.573   0.731
 9307SOL    HW128820   1.201   3.646   0.686
 9307SOL    HW228821   1.193   3.495   0.747
 9308SOL     OW28822   1.124   3.710   2.039
 9308SOL    HW128823   1.091   3.782   1.978
 9308SOL    HW228824   1.048   3.651   2.066
 9309SOL     OW28825   3.783   6.058   5.823
 9309SOL    HW128826   3.880   6.057   5.847
 9309SOL    HW228827   3.764   6.139   5.768
 9310SOL     OW28828   5.606   6.546   5.631
 9310SOL    HW128829   5.529   6.518   5.574
 9310SOL    HW228830   5.573   6.572   5.721
 9311SOL     OW28831   5.403   4.341   1.626
 9311SOL    HW128832   5.352   4.324   1.711
 9311SOL    HW228833   5.350   4.403   1.568
 9312SOL     OW28834   1.578   1.983   1.056
 9312SOL    HW128835   1.677   1.969   1.062
 9312SOL    HW228836   1.547   1.964   0.963
 9313SOL     OW28837   6.553   0.308   1.783
 9313SOL    HW128838   6.466   0.322   1.829
 9313SOL    HW228839   6.558   0.367   1.702
 9314SOL     OW28840   6.354   3.324   0.420
 9314SOL    HW128841   6.385   3.324   0.325
 9314SOL    HW228842   6.419   3.375   0.476
 9315SOL     OW28843   6.373   0.070   5.677
 9315SOL    HW128844   6.389   0.070   5.775
 9315SOL    HW228845   6.344   0.161   5.648
 9316SOL     OW28846   6.133   0.222   5.325
 9316SOL    HW128847   6.106   0.298   5.384
 9316SOL    HW228848   6.053   0.168   5.301
 9317SOL     OW28849   4.016   5.377   2.996
 9317SOL    HW128850   4.096   5.343   3.045
 9317SOL    HW228851   4.006   5.475   3.014
 9318SOL     OW28852   5.307   6.997   0.245
 9318SOL    HW128853   5.295   6.904   0.281
 9318SOL    HW228854   5.297   6.996   0.146
 9319SOL     OW28855   2.482   2.380   1.327
 9319SOL    HW128856   2.493   2.480   1.325
 9319SOL    HW228857   2.412   2.356   1.394
 9320SOL     OW28858   4.520   0.546   5.391
 9320SOL    HW128859   4.439   0.490   5.377
 9320SOL    HW228860   4.512   0.630   5.336
 9321SOL     OW28861   0.890   1.091   5.092
 9321SOL    HW128862   0.942   1.169   5.057
 9321SOL    HW228863   0.811   1.125   5.144
 9322SOL     OW28864   6.975   4.561   0.106
 9322SOL    HW128865   0.013   4.568   0.025
 9322SOL    HW228866   6.886   4.603   0.088
 9323SOL     OW28867   1.808   0.992   5.023
 9323SOL    HW128868   1.788   0.966   5.117
 9323SOL    HW228869   1.761   0.931   4.960
 9324SOL     OW28870   2.084   3.871   2.676
 9324SOL    HW128871   2.087   3.818   2.761
 9324SOL    HW228872   2.087   3.809   2.598
 9325SOL     OW28873   6.910   6.980   0.500
 9325SOL    HW128874   6.971   6.927   0.558
 9325SOL    HW228875   6.923   0.058   0.518
 9326SOL     OW28876   2.973   5.056   6.785
 9326SOL    HW128877   3.005   4.980   6.842
 9326SOL    HW228878   2.977   5.140   6.838
 9327SOL     OW28879   3.996   6.686   2.462
 9327SOL    HW128880   4.035   6.773   2.431
 9327SOL    HW228881   3.946   6.643   2.387
 9328SOL     OW28882   1.659   0.553   5.074
 9328SOL    HW128883   1.697   0.543   5.167
 9328SOL    HW228884   1.686   0.475   5.019
 9329SOL     OW28885   7.010   5.283   1.296
 9329SOL    HW128886   0.015   5.368   1.250
 9329SOL    HW228887   0.040   5.275   1.382
 9330SOL     OW28888   7.015   6.965   5.880
 9330SOL    HW128889   0.026   6.883   5.831
 9330SOL    HW228890   6.916   6.976   5.869
 9331SOL     OW28891   2.114   1.516   6.174
 9331SOL    HW128892   2.135   1.604   6.216
 9331SOL    HW228893   2.141   1.517   6.078
 9332SOL     OW28894   4.234   5.686   0.549
 9332SOL    HW128895   4.238   5.586   0.553
 9332SOL    HW228896   4.318   5.724   0.587
 9333SOL     OW28897   3.847   5.366   6.399
 9333SOL    HW128898   3.844   5.402   6.305
 9333SOL    HW228899   3.813   5.435   6.462
 9334SOL     OW28900   4.918   6.694   4.164
 9334SOL    HW128901   4.888   6.785   4.136
 9334SOL    HW228902   4.911   6.685   4.264
 9335SOL     OW28903   1.520   1.658   6.891
 9335SOL    HW128904   1.565   1.747   6.898
 9335SOL    HW228905   1.432   1.661   6.938
 9336SOL     OW28906   5.196   6.839   4.486
 9336SOL    HW128907   5.208   6.918   4.426
 9336SOL    HW228908   5.102   6.805   4.477
 9337SOL     OW28909   4.962   1.218   6.012
 9337SOL    HW128910   4.908   1.136   6.031
 9337SOL    HW228911   4.980   1.224   5.914
 9338SOL     OW28912   6.524   6.387   0.744
 9338SOL    HW128913   6.488   6.360   0.834
 9338SOL    HW228914   6.621   6.362   0.738
 9339SOL     OW28915   5.833   5.893   0.164
 9339SOL    HW128916   5.830   5.804   0.209
 9339SOL    HW228917   5.760   5.951   0.201
 9340SOL     OW28918   3.747   4.953   2.575
 9340SOL    HW128919   3.824   4.914   2.525
 9340SOL    HW228920   3.661   4.921   2.533
 9341SOL     OW28921   6.349   4.397   0.761
 9341SOL    HW128922   6.428   4.336   0.751
 9341SOL    HW228923   6.325   4.436   0.672
 9342SOL     OW28924   2.293   0.463   4.509
 9342SOL    HW128925   2.237   0.540   4.480
 9342SOL    HW228926   2.389   0.491   4.512
 9343SOL     OW28927   4.857   4.026   1.844
 9343SOL    HW128928   4.838   4.112   1.892
 9343SOL    HW228929   4.929   3.976   1.892
 9344SOL     OW28930   5.147   5.369   0.682
 9344SOL    HW128931   5.100   5.392   0.768
 9344SOL    HW228932   5.242   5.343   0.702
 9345SOL     OW28933   6.738   4.753   2.429
 9345SOL    HW128934   6.827   4.728   2.466
 9345SOL    HW228935   6.706   4.683   2.366
 9346SOL     OW28936   4.758   0.200   1.928
 9346SOL    HW128937   4.717   0.250   2.004
 9346SOL    HW228938   4.857   0.193   1.943
 9347SOL     OW28939   2.842   6.070   0.388
 9347SOL    HW128940   2.895   6.049   0.306
 9347SOL    HW228941   2.899   6.058   0.469
 9348SOL     OW28942   2.536   5.851   2.255
 9348SOL    HW128943   2.615   5.899   2.219
 9348SOL    HW228944   2.498   5.792   2.183
 9349SOL     OW28945   6.568   5.355   2.569
 9349SOL    HW128946   6.662   5.366   2.600
 9349SOL    HW228947   6.544   5.431   2.508
 9350SOL     OW28948   6.532   1.748   4.139
 9350SOL    HW128949   6.599   1.696   4.192
 9350SOL    HW228950   6.446   1.752   4.188
 9351SOL     OW28951   2.723   0.310   6.262
 9351SOL    HW128952   2.802   0.366   6.237
 9351SOL    HW228953   2.641   0.348   6.219
 9352SOL     OW28954   3.132   2.618   5.881
 9352SOL    HW128955   3.073   2.698   5.864
 9352SOL    HW228956   3.105   2.543   5.820
 9353SOL     OW28957   1.947   4.378   0.955
 9353SOL    HW128958   1.881   4.372   1.030
 9353SOL    HW228959   2.012   4.451   0.973
 9354SOL     OW28960   6.403   1.870   6.980
 9354SOL    HW128961   6.444   1.955   6.947
 9354SOL    HW228962   6.334   1.839   6.915
 9355SOL     OW28963   6.539   2.073   4.646
 9355SOL    HW128964   6.465   2.025   4.695
 9355SOL    HW228965   6.624   2.022   4.658
 9356SOL     OW28966   4.469   5.771   1.456
 9356SOL    HW128967   4.521   5.775   1.371
 9356SOL    HW228968   4.407   5.849   1.461
 9357SOL     OW28969   3.176   3.072   6.266
 9357SOL    HW128970   3.165   3.098   6.362
 9357SOL    HW228971   3.097   3.106   6.214
 9358SOL     OW28972   6.533   3.243   2.226
 9358SOL    HW128973   6.524   3.250   2.127
 9358SOL    HW228974   6.575   3.155   2.249
 9359SOL     OW28975   1.137   3.336   5.997
 9359SOL    HW128976   1.195   3.302   5.922
 9359SOL    HW228977   1.129   3.435   5.989
 9360SOL     OW28978   1.278   6.985   6.183
 9360SOL    HW128979   1.288   6.931   6.099
 9360SOL    HW228980   1.189   0.011   6.181
 9361SOL     OW28981   1.747   6.136   3.653
 9361SOL    HW128982   1.701   6.048   3.668
 9361SOL    HW228983   1.694   6.191   3.588
 9362SOL     OW28984   1.359   2.328   2.110
 9362SOL    HW128985   1.416   2.385   2.169
 9362SOL    HW228986   1.360   2.367   2.017
 9363SOL     OW28987   3.910   5.649   1.900
 9363SOL    HW128988   3.930   5.721   1.834
 9363SOL    HW228989   3.817   5.616   1.886
 9364SOL     OW28990   4.313   2.899   5.617
 9364SOL    HW128991   4.286   2.812   5.658
 9364SOL    HW228992   4.353   2.881   5.526
 9365SOL     OW28993   2.551   1.833   4.959
 9365SOL    HW128994   2.534   1.927   4.986
 9365SOL    HW228995   2.465   1.791   4.930
 9366SOL     OW28996   3.393   0.408   0.095
 9366SOL    HW128997   3.450   0.487   0.074
 9366SOL    HW228998   3.399   0.342   0.021
 9367SOL     OW28999   6.590   6.298   2.750
 9367SOL    HW129000   6.663   6.281   2.816
 9367SOL    HW229001   6.630   6.317   2.660
 9368SOL     OW29002   2.922   1.488   4.046
 9368SOL    HW129003   2.996   1.455   3.987
 9368SOL    HW229004   2.873   1.562   3.999
 9369SOL     OW29005   0.019   0.215   4.784
 9369SOL    HW129006   0.021   0.306   4.743
 9369SOL    HW229007   0.106   0.169   4.767
 9370SOL     OW29008   4.583   6.956   2.346
 9370SOL    HW129009   4.494   7.002   2.342
 9370SOL    HW229010   4.640   6.999   2.416
 9371SOL     OW29011   2.080   4.761   0.542
 9371SOL    HW129012   2.079   4.670   0.500
 9371SOL    HW229013   2.093   4.830   0.472
 9372SOL     OW29014   5.203   6.000   2.869
 9372SOL    HW129015   5.228   6.067   2.938
 9372SOL    HW229016   5.231   5.909   2.899
 9373SOL     OW29017   4.010   2.193   2.449
 9373SOL    HW129018   4.010   2.215   2.547
 9373SOL    HW229019   3.986   2.097   2.437
 9374SOL     OW29020   0.614   2.875   0.973
 9374SOL    HW129021   0.681   2.880   0.899
 9374SOL    HW229022   0.645   2.810   1.042
 9375SOL     OW29023   6.116   1.811   2.943
 9375SOL    HW129024   6.138   1.713   2.940
 9375SOL    HW229025   6.156   1.851   3.025
 9376SOL     OW29026   2.693   4.188   0.993
 9376SOL    HW129027   2.699   4.142   0.904
 9376SOL    HW229028   2.782   4.184   1.039
 9377SOL     OW29029   2.070   5.509   4.022
 9377SOL    HW129030   1.986   5.522   4.075
 9377SOL    HW229031   2.115   5.426   4.052
 9378SOL     OW29032   1.265   1.152   4.987
 9378SOL    HW129033   1.312   1.203   4.915
 9378SOL    HW229034   1.180   1.199   5.011
 9379SOL     OW29035   4.363   6.135   4.975
 9379SOL    HW129036   4.283   6.100   4.926
 9379SOL    HW229037   4.346   6.229   5.004
 9380SOL     OW29038   5.762   5.077   5.047
 9380SOL    HW129039   5.707   5.146   4.999
 9380SOL    HW229040   5.743   5.081   5.145
 9381SOL     OW29041   3.284   2.910   5.792
 9381SOL    HW129042   3.194   2.924   5.751
 9381SOL    HW229043   3.351   2.892   5.720
 9382SOL     OW29044   3.585   0.895   3.070
 9382SOL    HW129045   3.635   0.981   3.084
 9382SOL    HW229046   3.498   0.914   3.024
 9383SOL     OW29047   1.845   5.946   4.542
 9383SOL    HW129048   1.909   5.925   4.468
 9383SOL    HW229049   1.764   5.992   4.505
 9384SOL     OW29050   2.949   6.894   1.502
 9384SOL    HW129051   2.889   6.973   1.491
 9384SOL    HW229052   2.979   6.888   1.598
 9385SOL     OW29053   4.018   0.701   2.956
 9385SOL    HW129054   4.044   0.607   2.933
 9385SOL    HW229055   3.919   0.712   2.948
 9386SOL     OW29056   2.236   6.267   5.157
 9386SOL    HW129057   2.281   6.177   5.162
 9386SOL    HW229058   2.140   6.255   5.132
 9387SOL     OW29059   2.441   1.691   0.375
 9387SOL    HW129060   2.502   1.722   0.302
 9387SOL    HW229061   2.478   1.607   0.415
 9388SOL     OW29062   1.941   5.356   2.793
 9388SOL    HW129063   1.971   5.273   2.841
 9388SOL    HW229064   2.020   5.399   2.749
 9389SOL     OW29065   1.760   6.622   4.504
 9389SOL    HW129066   1.764   6.717   4.534
 9389SOL    HW229067   1.833   6.605   4.437
 9390SOL     OW29068   4.613   4.817   4.921
 9390SOL    HW129069   4.514   4.805   4.913
 9390SOL    HW229070   4.656   4.801   4.832
 9391SOL     OW29071   2.291   1.360   4.944
 9391SOL    HW129072   2.380   1.350   4.988
 9391SOL    HW229073   2.264   1.272   4.905
 9392SOL     OW29074   6.847   0.918   5.177
 9392SOL    HW129075   6.754   0.928   5.213
 9392SOL    HW229076   6.911   0.907   5.253
 9393SOL     OW29077   3.103   0.043   5.636
 9393SOL    HW129078   3.018   0.010   5.678
 9393SOL    HW229079   3.082   0.093   5.552
 9394SOL     OW29080   0.547   1.579   2.052
 9394SOL    HW129081   0.584   1.671   2.036
 9394SOL    HW229082   0.609   1.511   2.014
 9395SOL     OW29083   2.764   1.661   0.695
 9395SOL    HW129084   2.771   1.645   0.793
 9395SOL    HW229085   2.728   1.753   0.678
 9396SOL     OW29086   2.293   5.330   4.178
 9396SOL    HW129087   2.325   5.239   4.205
 9396SOL    HW229088   2.274   5.384   4.260
 9397SOL     OW29089   3.797   6.934   6.998
 9397SOL    HW129090   3.896   6.919   6.997
 9397SOL    HW229091   3.778   0.010   6.976
 9398SOL     OW29092   6.941   1.280   4.902
 9398SOL    HW129093   0.006   1.322   4.935
 9398SOL    HW229094   6.942   1.182   4.923
 9399SOL     OW29095   0.030   1.778   6.038
 9399SOL    HW129096   0.013   1.773   6.136
 9399SOL    HW229097   0.005   1.869   6.004
 9400SOL     OW29098   4.030   1.329   2.223
 9400SOL    HW129099   4.066   1.401   2.283
 9400SOL    HW229100   3.958   1.279   2.270
 9401SOL     OW29101   5.818   0.190   3.367
 9401SOL    HW129102   5.882   0.150   3.433
 9401SOL    HW229103   5.840   0.286   3.354
 9402SOL     OW29104   1.264   4.724   3.645
 9402SOL    HW129105   1.283   4.693   3.552
 9402SOL    HW229106   1.187   4.788   3.644
 9403SOL     OW29107   6.671   2.023   2.773
 9403SOL    HW129108   6.635   2.110   2.741
 9403SOL    HW229109   6.597   1.955   2.775
 9404SOL     OW29110   1.591   3.101   6.517
 9404SOL    HW129111   1.555   3.025   6.571
 9404SOL    HW229112   1.519   3.138   6.459
 9405SOL     OW29113   1.467   5.186   2.327
 9405SOL    HW129114   1.410   5.120   2.377
 9405SOL    HW229115   1.491   5.262   2.387
 9406SOL     OW29116   6.579   2.989   5.604
 9406SOL    HW129117   6.644   2.994   5.680
 9406SOL    HW229118   6.619   3.030   5.523
 9407SOL     OW29119   2.897   5.244   3.336
 9407SOL    HW129120   2.804   5.276   3.318
 9407SOL    HW229121   2.897   5.183   3.414
 9408SOL     OW29122   5.014   2.311   6.760
 9408SOL    HW129123   4.983   2.216   6.753
 9408SOL    HW229124   5.056   2.339   6.674
 9409SOL     OW29125   6.199   5.200   6.570
 9409SOL    HW129126   6.280   5.236   6.523
 9409SOL    HW229127   6.126   5.268   6.568
 9410SOL     OW29128   3.339   0.071   1.745
 9410SOL    HW129129   3.306   0.091   1.837
 9410SOL    HW229130   3.415   0.131   1.723
 9411SOL     OW29131   3.174   3.197   2.105
 9411SOL    HW129132   3.109   3.237   2.170
 9411SOL    HW229133   3.202   3.107   2.138
 9412SOL     OW29134   6.918   2.670   2.036
 9412SOL    HW129135   6.961   2.586   2.004
 9412SOL    HW229136   6.974   2.711   2.108
 9413SOL     OW29137   3.303   6.141   3.926
 9413SOL    HW129138   3.246   6.147   3.844
 9413SOL    HW229139   3.315   6.045   3.951
 9414SOL     OW29140   3.102   0.642   3.208
 9414SOL    HW129141   3.060   0.680   3.290
 9414SOL    HW229142   3.148   0.715   3.157
 9415SOL     OW29143   3.030   6.607   1.982
 9415SOL    HW129144   3.033   6.600   2.082
 9415SOL    HW229145   3.009   6.701   1.956
 9416SOL     OW29146   0.671   2.567   0.753
 9416SOL    HW129147   0.760   2.561   0.708
 9416SOL    HW229148   0.682   2.612   0.842
 9417SOL     OW29149   4.007   0.075   6.136
 9417SOL    HW129150   3.930   0.051   6.077
 9417SOL    HW229151   4.011   0.174   6.147
 9418SOL     OW29152   3.832   6.341   0.937
 9418SOL    HW129153   3.732   6.337   0.934
 9418SOL    HW229154   3.861   6.364   1.030
 9419SOL     OW29155   3.865   5.489   5.840
 9419SOL    HW129156   3.801   5.417   5.863
 9419SOL    HW229157   3.888   5.484   5.742
 9420SOL     OW29158   6.269   3.712   5.578
 9420SOL    HW129159   6.305   3.792   5.626
 9420SOL    HW229160   6.325   3.693   5.498
 9421SOL     OW29161   2.048   6.948   4.396
 9421SOL    HW129162   1.990   6.955   4.315
 9421SOL    HW229163   2.113   6.873   4.384
 9422SOL     OW29164   4.075   5.851   3.192
 9422SOL    HW129165   4.134   5.823   3.268
 9422SOL    HW229166   4.119   5.924   3.140
 9423SOL     OW29167   3.907   1.032   3.842
 9423SOL    HW129168   3.992   0.979   3.846
 9423SOL    HW229169   3.832   0.978   3.882
 9424SOL     OW29170   5.063   0.917   4.586
 9424SOL    HW129171   5.137   0.905   4.521
 9424SOL    HW229172   5.008   0.997   4.560
 9425SOL     OW29173   6.382   3.329   6.698
 9425SOL    HW129174   6.289   3.339   6.664
 9425SOL    HW229175   6.395   3.236   6.734
 9426SOL     OW29176   3.291   2.081   6.831
 9426SOL    HW129177   3.264   2.177   6.818
 9426SOL    HW229178   3.211   2.022   6.819
 9427SOL     OW29179   3.228   5.437   3.610
 9427SOL    HW129180   3.175   5.403   3.532
 9427SOL    HW229181   3.262   5.360   3.663
 9428SOL     OW29182   6.027   0.706   1.399
 9428SOL    HW129183   6.000   0.650   1.477
 9428SOL    HW229184   5.955   0.773   1.379
 9429SOL     OW29185   1.905   3.516   2.335
 9429SOL    HW129186   1.818   3.560   2.357
 9429SOL    HW229187   1.920   3.519   2.236
 9430SOL     OW29188   0.433   4.044   2.430
 9430SOL    HW129189   0.438   3.987   2.512
 9430SOL    HW229190   0.445   4.140   2.456
 9431SOL     OW29191   6.349   4.466   1.200
 9431SOL    HW129192   6.313   4.497   1.112
 9431SOL    HW229193   6.288   4.495   1.273
 9432SOL     OW29194   4.483   0.617   3.243
 9432SOL    HW129195   4.420   0.550   3.203
 9432SOL    HW229196   4.445   0.708   3.233
 9433SOL     OW29197   2.861   5.056   2.902
 9433SOL    HW129198   2.935   5.086   2.841
 9433SOL    HW229199   2.897   5.044   2.994
 9434SOL     OW29200   5.305   4.813   2.879
 9434SOL    HW129201   5.388   4.766   2.848
 9434SOL    HW229202   5.326   4.909   2.897
 9435SOL     OW29203   0.523   2.764   4.566
 9435SOL    HW129204   0.436   2.774   4.615
 9435SOL    HW229205   0.505   2.732   4.473
 9436SOL     OW29206   1.152   2.821   1.657
 9436SOL    HW129207   1.179   2.860   1.569
 9436SOL    HW229208   1.222   2.843   1.725
 9437SOL     OW29209   2.381   5.835   3.063
 9437SOL    HW129210   2.347   5.769   3.130
 9437SOL    HW229211   2.426   5.787   2.988
 9438SOL     OW29212   0.121   0.428   1.578
 9438SOL    HW129213   0.060   0.480   1.638
 9438SOL    HW229214   0.069   0.392   1.501
 9439SOL     OW29215   0.250   3.383   1.339
 9439SOL    HW129216   0.286   3.377   1.246
 9439SOL    HW229217   0.157   3.347   1.341
 9440SOL     OW29218   3.967   5.114   3.525
 9440SOL    HW129219   3.986   5.016   3.513
 9440SOL    HW229220   4.032   5.167   3.472
 9441SOL     OW29221   0.853   3.140   5.164
 9441SOL    HW129222   0.913   3.154   5.085
 9441SOL    HW229223   0.825   3.229   5.201
 9442SOL     OW29224   4.198   3.257   0.410
 9442SOL    HW129225   4.153   3.170   0.431
 9442SOL    HW229226   4.231   3.255   0.316
 9443SOL     OW29227   1.802   5.513   0.760
 9443SOL    HW129228   1.779   5.607   0.787
 9443SOL    HW229229   1.877   5.516   0.693
 9444SOL     OW29230   1.437   3.338   6.848
 9444SOL    HW129231   1.528   3.381   6.848
 9444SOL    HW229232   1.402   3.335   6.754
 9445SOL     OW29233   5.325   3.321   3.543
 9445SOL    HW129234   5.415   3.320   3.500
 9445SOL    HW229235   5.276   3.404   3.516
 9446SOL     OW29236   6.365   5.808   4.313
 9446SOL    HW129237   6.393   5.764   4.399
 9446SOL    HW229238   6.266   5.808   4.306
 9447SOL     OW29239   5.799   3.950   5.171
 9447SOL    HW129240   5.749   3.881   5.119
 9447SOL    HW229241   5.897   3.931   5.164
 9448SOL     OW29242   6.992   7.010   6.744
 9448SOL    HW129243   6.917   0.053   6.763
 9448SOL    HW229244   6.961   6.939   6.681
 9449SOL     OW29245   6.956   6.260   0.317
 9449SOL    HW129246   6.919   6.182   0.368
 9449SOL    HW229247   6.914   6.263   0.226
 9450SOL     OW29248   2.506   5.423   5.261
 9450SOL    HW129249   2.447   5.471   5.326
 9450SOL    HW229250   2.540   5.339   5.304
 9451SOL     OW29251   4.159   6.748   5.737
 9451SOL    HW129252   4.071   6.700   5.736
 9451SOL    HW229253   4.168   6.802   5.653
 9452SOL     OW29254   2.052   3.846   0.099
 9452SOL    HW129255   2.151   3.846   0.090
 9452SOL    HW229256   2.025   3.792   0.178
 9453SOL     OW29257   1.895   4.662   3.464
 9453SOL    HW129258   1.887   4.638   3.367
 9453SOL    HW229259   1.804   4.681   3.501
 9454SOL     OW29260   3.431   3.064   6.811
 9454SOL    HW129261   3.383   3.089   6.896
 9454SOL    HW229262   3.390   2.981   6.773
 9455SOL     OW29263   3.061   1.626   3.407
 9455SOL    HW129264   3.144   1.666   3.446
 9455SOL    HW229265   3.072   1.614   3.309
 9456SOL     OW29266   1.277   3.114   1.101
 9456SOL    HW129267   1.318   3.029   1.134
 9456SOL    HW229268   1.197   3.092   1.044
 9457SOL     OW29269   2.249   3.858   5.297
 9457SOL    HW129270   2.167   3.894   5.252
 9457SOL    HW229271   2.330   3.896   5.252
 9458SOL     OW29272   1.417   3.360   6.561
 9458SOL    HW129273   1.509   3.393   6.536
 9458SOL    HW229274   1.394   3.282   6.504
 9459SOL     OW29275   5.141   4.475   3.319
 9459SOL    HW129276   5.148   4.473   3.219
 9459SOL    HW229277   5.109   4.386   3.352
 9460SOL     OW29278   0.190   2.789   3.815
 9460SOL    HW129279   0.144   2.848   3.881
 9460SOL    HW229280   0.242   2.845   3.751
 9461SOL     OW29281   6.233   1.394   2.138
 9461SOL    HW129282   6.283   1.318   2.180
 9461SOL    HW229283   6.236   1.473   2.199
 9462SOL     OW29284   2.043   3.546   3.495
 9462SOL    HW129285   2.083   3.510   3.580
 9462SOL    HW229286   2.059   3.482   3.421
 9463SOL     OW29287   0.020   1.105   1.801
 9463SOL    HW129288   6.985   1.144   1.875
 9463SOL    HW229289   7.002   1.016   1.775
 9464SOL     OW29290   6.375   0.477   1.205
 9464SOL    HW129291   6.431   0.558   1.188
 9464SOL    HW229292   6.364   0.426   1.120
 9465SOL     OW29293   1.616   5.155   2.978
 9465SOL    HW129294   1.632   5.058   2.959
 9465SOL    HW229295   1.651   5.178   3.068
 9466SOL     OW29296   4.645   4.796   5.923
 9466SOL    HW129297   4.651   4.701   5.892
 9466SOL    HW229298   4.732   4.824   5.962
 9467SOL     OW29299   1.110   3.220   1.711
 9467SOL    HW129300   1.029   3.162   1.717
 9467SOL    HW229301   1.159   3.218   1.798
 9468SOL     OW29302   5.973   3.334   5.866
 9468SOL    HW129303   5.936   3.351   5.957
 9468SOL    HW229304   5.948   3.410   5.805
 9469SOL     OW29305   6.436   5.822   2.198
 9469SOL    HW129306   6.447   5.832   2.297
 9469SOL    HW229307   6.526   5.829   2.155
 9470SOL     OW29308   4.429   3.495   5.629
 9470SOL    HW129309   4.442   3.566   5.560
 9470SOL    HW229310   4.381   3.533   5.708
 9471SOL     OW29311   6.917   2.480   4.426
 9471SOL    HW129312   6.932   2.578   4.408
 9471SOL    HW229313   6.865   2.470   4.511
 9472SOL     OW29314   5.643   4.056   5.364
 9472SOL    HW129315   5.685   4.007   5.288
 9472SOL    HW229316   5.702   4.051   5.444
 9473SOL     OW29317   3.185   5.248   6.231
 9473SOL    HW129318   3.131   5.201   6.161
 9473SOL    HW229319   3.282   5.235   6.213
 9474SOL     OW29320   0.222   2.637   0.040
 9474SOL    HW129321   0.299   2.623   6.997
 9474SOL    HW229322   0.256   2.674   0.127
 9475SOL     OW29323   3.397   3.356   6.396
 9475SOL    HW129324   3.462   3.315   6.459
 9475SOL    HW229325   3.306   3.315   6.411
 9476SOL     OW29326   3.178   4.145   4.711
 9476SOL    HW129327   3.134   4.226   4.750
 9476SOL    HW229328   3.111   4.072   4.699
 9477SOL     OW29329   0.124   3.167   1.584
 9477SOL    HW129330   0.223   3.170   1.595
 9477SOL    HW229331   0.101   3.124   1.497
 9478SOL     OW29332   5.274   3.287   0.127
 9478SOL    HW129333   5.213   3.361   0.099
 9478SOL    HW229334   5.249   3.203   0.079
 9479SOL     OW29335   4.434   6.183   6.659
 9479SOL    HW129336   4.398   6.092   6.641
 9479SOL    HW229337   4.512   6.201   6.598
 9480SOL     OW29338   4.667   3.857   0.939
 9480SOL    HW129339   4.658   3.793   0.863
 9480SOL    HW229340   4.606   3.934   0.925
 9481SOL     OW29341   5.237   3.451   2.086
 9481SOL    HW129342   5.283   3.540   2.091
 9481SOL    HW229343   5.300   3.382   2.051
 9482SOL     OW29344   6.809   0.671   3.020
 9482SOL    HW129345   6.821   0.747   3.085
 9482SOL    HW229346   6.888   0.610   3.027
 9483SOL     OW29347   1.163   1.899   1.713
 9483SOL    HW129348   1.144   1.807   1.677
 9483SOL    HW229349   1.214   1.891   1.799
 9484SOL     OW29350   3.210   1.396   3.551
 9484SOL    HW129351   3.254   1.356   3.471
 9484SOL    HW229352   3.206   1.496   3.541
 9485SOL     OW29353   0.390   0.447   1.626
 9485SOL    HW129354   0.300   0.472   1.590
 9485SOL    HW229355   0.441   0.395   1.557
 9486SOL     OW29356   2.766   6.199   0.875
 9486SOL    HW129357   2.689   6.182   0.936
 9486SOL    HW229358   2.757   6.291   0.835
 9487SOL     OW29359   3.805   3.621   3.343
 9487SOL    HW129360   3.891   3.669   3.359
 9487SOL    HW229361   3.824   3.524   3.325
 9488SOL     OW29362   1.418   6.470   0.758
 9488SOL    HW129363   1.485   6.539   0.731
 9488SOL    HW229364   1.389   6.486   0.852
 9489SOL     OW29365   4.317   4.368   1.676
 9489SOL    HW129366   4.341   4.354   1.580
 9489SOL    HW229367   4.366   4.301   1.733
 9490SOL     OW29368   0.150   5.465   1.165
 9490SOL    HW129369   0.230   5.405   1.170
 9490SOL    HW229370   0.173   5.546   1.112
 9491SOL     OW29371   6.471   4.625   3.821
 9491SOL    HW129372   6.540   4.696   3.834
 9491SOL    HW229373   6.380   4.662   3.839
 9492SOL     OW29374   3.303   2.866   2.910
 9492SOL    HW129375   3.280   2.769   2.915
 9492SOL    HW229376   3.288   2.908   2.999
 9493SOL     OW29377   3.672   5.228   3.987
 9493SOL    HW129378   3.633   5.137   4.001
 9493SOL    HW229379   3.697   5.239   3.891
 9494SOL     OW29380   4.600   4.777   1.856
 9494SOL    HW129381   4.533   4.816   1.920
 9494SOL    HW229382   4.576   4.682   1.837
 9495SOL     OW29383   6.202   1.816   3.203
 9495SOL    HW129384   6.173   1.721   3.219
 9495SOL    HW229385   6.242   1.853   3.287
 9496SOL     OW29386   5.964   4.711   1.380
 9496SOL    HW129387   6.018   4.775   1.324
 9496SOL    HW229388   5.867   4.731   1.369
 9497SOL     OW29389   5.797   6.178   6.559
 9497SOL    HW129390   5.747   6.130   6.487
 9497SOL    HW229391   5.735   6.242   6.605
 9498SOL     OW29392   4.936   6.940   4.677
 9498SOL    HW129393   4.929   0.008   4.629
 9498SOL    HW229394   5.017   6.941   4.736
 9499SOL     OW29395   1.784   5.180   6.220
 9499SOL    HW129396   1.744   5.126   6.294
 9499SOL    HW229397   1.838   5.121   6.160
 9500SOL     OW29398   5.737   0.647   0.851
 9500SOL    HW129399   5.775   0.715   0.789
 9500SOL    HW229400   5.694   0.692   0.929
 9501SOL     OW29401   3.020   1.098   5.065
 9501SOL    HW129402   2.944   1.162   5.049
 9501SOL    HW229403   3.056   1.067   4.978
 9502SOL     OW29404   6.003   2.553   5.234
 9502SOL    HW129405   6.042   2.644   5.249
 9502SOL    HW229406   5.971   2.517   5.322
 9503SOL     OW29407   0.341   1.506   1.406
 9503SOL    HW129408   0.410   1.518   1.477
 9503SOL    HW229409   0.312   1.596   1.373
 9504SOL     OW29410   6.772   2.257   1.228
 9504SOL    HW129411   6.741   2.260   1.133
 9504SOL    HW229412   6.754   2.345   1.272
 9505SOL     OW29413   5.237   4.941   3.388
 9505SOL    HW129414   5.175   4.976   3.319
 9505SOL    HW229415   5.185   4.904   3.465
 9506SOL     OW29416   0.544   2.410   6.160
 9506SOL    HW129417   0.544   2.326   6.214
 9506SOL    HW229418   0.633   2.421   6.117
 9507SOL     OW29419   1.098   2.072   3.315
 9507SOL    HW129420   1.032   2.091   3.388
 9507SOL    HW229421   1.054   2.015   3.245
 9508SOL     OW29422   6.510   3.049   0.840
 9508SOL    HW129423   6.603   3.063   0.872
 9508SOL    HW229424   6.445   3.092   0.903
 9509SOL     OW29425   0.555   0.791   4.265
 9509SOL    HW129426   0.626   0.861   4.256
 9509SOL    HW229427   0.590   0.704   4.229
 9510SOL     OW29428   1.698   3.548   2.649
 9510SOL    HW129429   1.728   3.644   2.653
 9510SOL    HW229430   1.599   3.545   2.635
 9511SOL     OW29431   1.109   0.641   1.128
 9511SOL    HW129432   1.197   0.667   1.089
 9511SOL    HW229433   1.070   0.566   1.074
 9512SOL     OW29434   5.616   1.309   1.204
 9512SOL    HW129435   5.578   1.401   1.216
 9512SOL    HW229436   5.714   1.310   1.225
 9513SOL     OW29437   1.816   3.538   6.163
 9513SOL    HW129438   1.771   3.455   6.195
 9513SOL    HW229439   1.814   3.540   6.063
 9514SOL     OW29440   1.698   4.921   6.547
 9514SOL    HW129441   1.659   4.832   6.523
 9514SOL    HW229442   1.627   4.991   6.543
 9515SOL     OW29443   1.428   5.975   1.356
 9515SOL    HW129444   1.367   5.928   1.293
 9515SOL    HW229445   1.489   6.036   1.305
 9516SOL     OW29446   5.143   4.468   5.488
 9516SOL    HW129447   5.119   4.386   5.436
 9516SOL    HW229448   5.102   4.463   5.579
 9517SOL     OW29449   1.471   4.704   1.115
 9517SOL    HW129450   1.458   4.734   1.210
 9517SOL    HW229451   1.567   4.714   1.089
 9518SOL     OW29452   1.605   1.909   6.909
 9518SOL    HW129453   1.588   1.984   6.972
 9518SOL    HW229454   1.588   1.939   6.815
 9519SOL     OW29455   3.999   3.768   4.196
 9519SOL    HW129456   3.993   3.837   4.268
 9519SOL    HW229457   3.994   3.812   4.106
 9520SOL     OW29458   0.915   1.671   3.244
 9520SOL    HW129459   0.891   1.701   3.337
 9520SOL    HW229460   1.010   1.642   3.242
 9521SOL     OW29461   5.381   5.179   1.657
 9521SOL    HW129462   5.479   5.180   1.639
 9521SOL    HW229463   5.342   5.094   1.622
 9522SOL     OW29464   3.903   4.990   1.308
 9522SOL    HW129465   3.834   4.948   1.249
 9522SOL    HW229466   3.946   5.067   1.261
 9523SOL     OW29467   2.541   4.980   4.871
 9523SOL    HW129468   2.441   4.976   4.857
 9523SOL    HW229469   2.579   4.888   4.857
 9524SOL     OW29470   3.306   3.142   0.899
 9524SOL    HW129471   3.258   3.207   0.839
 9524SOL    HW229472   3.243   3.108   0.969
 9525SOL     OW29473   2.166   2.124   5.955
 9525SOL    HW129474   2.231   2.050   5.937
 9525SOL    HW229475   2.138   2.166   5.869
 9526SOL     OW29476   6.439   4.726   0.961
 9526SOL    HW129477   6.496   4.713   1.042
 9526SOL    HW229478   6.387   4.643   0.943
 9527SOL     OW29479   0.615   1.136   4.554
 9527SOL    HW129480   0.521   1.124   4.523
 9527SOL    HW229481   0.654   1.046   4.576
 9528SOL     OW29482   6.479   1.323   1.026
 9528SOL    HW129483   6.436   1.369   1.104
 9528SOL    HW229484   6.547   1.383   0.985
 9529SOL     OW29485   6.244   3.509   6.418
 9529SOL    HW129486   6.190   3.497   6.335
 9529SOL    HW229487   6.210   3.447   6.489
 9530SOL     OW29488   2.093   3.289   2.990
 9530SOL    HW129489   2.110   3.383   3.019
 9530SOL    HW229490   2.112   3.280   2.892
 9531SOL     OW29491   5.096   5.164   2.691
 9531SOL    HW129492   5.017   5.106   2.673
 9531SOL    HW229493   5.175   5.131   2.638
 9532SOL     OW29494   0.353   6.231   1.439
 9532SOL    HW129495   0.406   6.316   1.433
 9532SOL    HW229496   0.377   6.183   1.524
 9533SOL     OW29497   0.380   5.807   5.157
 9533SOL    HW129498   0.427   5.719   5.154
 9533SOL    HW229499   0.433   5.871   5.212
 9534SOL     OW29500   6.920   4.105   4.941
 9534SOL    HW129501   6.976   4.058   4.873
 9534SOL    HW229502   6.892   4.040   5.012
 9535SOL     OW29503   2.172   0.772   6.520
 9535SOL    HW129504   2.192   0.847   6.458
 9535SOL    HW229505   2.081   0.736   6.502
 9536SOL     OW29506   3.053   3.971   6.182
 9536SOL    HW129507   2.971   3.917   6.200
 9536SOL    HW229508   3.097   3.938   6.099
 9537SOL     OW29509   2.781   6.856   4.196
 9537SOL    HW129510   2.795   6.951   4.168
 9537SOL    HW229511   2.687   6.843   4.228
 9538SOL     OW29512   5.649   1.261   3.607
 9538SOL    HW129513   5.733   1.208   3.594
 9538SOL    HW229514   5.573   1.198   3.627
 9539SOL     OW29515   3.549   3.662   4.781
 9539SOL    HW129516   3.618   3.694   4.716
 9539SOL    HW229517   3.580   3.678   4.874
 9540SOL     OW29518   6.034   4.167   4.451
 9540SOL    HW129519   6.048   4.102   4.376
 9540SOL    HW229520   6.117   4.222   4.462
 9541SOL     OW29521   3.190   0.732   5.983
 9541SOL    HW129522   3.256   0.713   5.911
 9541SOL    HW229523   3.219   0.812   6.035
 9542SOL     OW29524   4.945   4.174   4.704
 9542SOL    HW129525   4.987   4.110   4.640
 9542SOL    HW229526   4.851   4.195   4.675
 9543SOL     OW29527   3.459   0.326   5.876
 9543SOL    HW129528   3.393   0.261   5.914
 9543SOL    HW229529   3.545   0.318   5.926
 9544SOL     OW29530   6.860   2.145   2.948
 9544SOL    HW129531   6.947   2.147   2.897
 9544SOL    HW229532   6.797   2.081   2.905
 9545SOL     OW29533   5.798   5.644   4.479
 9545SOL    HW129534   5.729   5.664   4.548
 9545SOL    HW229535   5.880   5.699   4.496
 9546SOL     OW29536   3.914   2.028   5.418
 9546SOL    HW129537   3.826   1.981   5.409
 9546SOL    HW229538   3.912   2.112   5.363
 9547SOL     OW29539   2.246   5.804   4.318
 9547SOL    HW129540   2.310   5.868   4.359
 9547SOL    HW229541   2.250   5.810   4.219
 9548SOL     OW29542   6.128   5.660   6.379
 9548SOL    HW129543   6.145   5.745   6.330
 9548SOL    HW229544   6.056   5.674   6.448
 9549SOL     OW29545   2.647   2.878   1.267
 9549SOL    HW129546   2.679   2.786   1.289
 9549SOL    HW229547   2.551   2.887   1.295
 9550SOL     OW29548   0.292   1.580   0.227
 9550SOL    HW129549   0.308   1.484   0.251
 9550SOL    HW229550   0.361   1.609   0.160
 9551SOL     OW29551   5.433   1.714   4.491
 9551SOL    HW129552   5.392   1.733   4.402
 9551SOL    HW229553   5.361   1.705   4.560
 9552SOL     OW29554   1.471   0.007   4.086
 9552SOL    HW129555   1.519   6.989   4.007
 9552SOL    HW229556   1.377   6.993   4.087
 9553SOL     OW29557   6.293   3.123   5.954
 9553SOL    HW129558   6.341   3.053   5.902
 9553SOL    HW229559   6.315   3.213   5.917
 9554SOL     OW29560   2.081   6.248   1.297
 9554SOL    HW129561   2.067   6.328   1.238
 9554SOL    HW229562   1.993   6.220   1.336
 9555SOL     OW29563   0.941   0.753   3.204
 9555SOL    HW129564   0.890   0.734   3.288
 9555SOL    HW229565   0.879   0.751   3.126
 9556SOL     OW29566   1.771   3.373   1.569
 9556SOL    HW129567   1.808   3.462   1.544
 9556SOL    HW229568   1.692   3.384   1.629
 9557SOL     OW29569   0.569   6.393   2.375
 9557SOL    HW129570   0.668   6.382   2.379
 9557SOL    HW229571   0.546   6.484   2.342
 9558SOL     OW29572   6.108   6.250   4.760
 9558SOL    HW129573   6.070   6.291   4.678
 9558SOL    HW229574   6.083   6.305   4.840
 9559SOL     OW29575   0.038   4.472   0.908
 9559SOL    HW129576   0.018   4.516   0.821
 9559SOL    HW229577   0.128   4.429   0.905
 9560SOL     OW29578   1.825   1.113   3.303
 9560SOL    HW129579   1.899   1.071   3.252
 9560SOL    HW229580   1.856   1.199   3.343
 9561SOL     OW29581   1.446   7.004   0.435
 9561SOL    HW129582   1.461   0.031   0.522
 9561SOL    HW229583   1.412   0.051   0.368
 9562SOL     OW29584   3.125   0.137   5.381
 9562SOL    HW129585   3.079   0.223   5.359
 9562SOL    HW229586   3.216   0.157   5.419
 9563SOL     OW29587   6.179   5.858   0.788
 9563SOL    HW129588   6.186   5.913   0.705
 9563SOL    HW229589   6.157   5.917   0.866
 9564SOL     OW29590   2.900   0.167   0.867
 9564SOL    HW129591   2.868   0.179   0.961
 9564SOL    HW229592   2.880   0.249   0.814
 9565SOL     OW29593   3.713   0.460   4.830
 9565SOL    HW129594   3.696   0.367   4.797
 9565SOL    HW229595   3.800   0.463   4.878
 9566SOL     OW29596   1.853   5.209   0.323
 9566SOL    HW129597   1.915   5.271   0.274
 9566SOL    HW229598   1.870   5.215   0.421
 9567SOL     OW29599   5.299   5.021   0.573
 9567SOL    HW129600   5.369   5.087   0.600
 9567SOL    HW229601   5.294   5.018   0.473
 9568SOL     OW29602   4.410   2.393   6.820
 9568SOL    HW129603   4.366   2.305   6.835
 9568SOL    HW229604   4.509   2.385   6.836
 9569SOL     OW29605   0.925   1.916   2.449
 9569SOL    HW129606   0.984   1.944   2.372
 9569SOL    HW229607   0.831   1.941   2.429
 9570SOL     OW29608   0.636   2.781   1.976
 9570SOL    HW129609   0.619   2.713   2.048
 9570SOL    HW229610   0.595   2.750   1.890
 9571SOL     OW29611   3.904   4.239   5.905
 9571SOL    HW129612   3.850   4.166   5.946
 9571SOL    HW229613   3.990   4.250   5.954
 9572SOL     OW29614   2.014   4.859   2.064
 9572SOL    HW129615   1.921   4.854   2.027
 9572SOL    HW229616   2.010   4.860   2.164
 9573SOL     OW29617   0.532   1.482   6.832
 9573SOL    HW129618   0.477   1.474   6.749
 9573SOL    HW229619   0.625   1.450   6.812
 9574SOL     OW29620   4.017   3.106   3.626
 9574SOL    HW129621   4.072   3.139   3.703
 9574SOL    HW229622   3.936   3.164   3.615
 9575SOL     OW29623   6.763   1.335   1.321
 9575SOL    HW129624   6.776   1.243   1.283
 9575SOL    HW229625   6.677   1.338   1.373
 9576SOL     OW29626   2.207   0.107   1.855
 9576SOL    HW129627   2.268   0.031   1.834
 9576SOL    HW229628   2.224   0.183   1.792
 9577SOL     OW29629   1.596   0.664   6.305
 9577SOL    HW129630   1.672   0.609   6.272
 9577SOL    HW229631   1.527   0.605   6.346
 9578SOL     OW29632   0.727   3.822   3.792
 9578SOL    HW129633   0.640   3.798   3.836
 9578SOL    HW229634   0.784   3.872   3.857
 9579SOL     OW29635   1.627   4.855   2.854
 9579SOL    HW129636   1.670   4.790   2.917
 9579SOL    HW229637   1.555   4.809   2.802
 9580SOL     OW29638   4.083   3.375   0.656
 9580SOL    HW129639   4.038   3.463   0.667
 9580SOL    HW229640   4.102   3.359   0.559
 9581SOL     OW29641   0.915   5.318   6.376
 9581SOL    HW129642   0.935   5.372   6.458
 9581SOL    HW229643   0.870   5.233   6.402
 9582SOL     OW29644   4.510   5.166   5.872
 9582SOL    HW129645   4.464   5.246   5.833
 9582SOL    HW229646   4.468   5.143   5.960
 9583SOL     OW29647   4.172   4.526   1.302
 9583SOL    HW129648   4.265   4.494   1.320
 9583SOL    HW229649   4.119   4.524   1.387
 9584SOL     OW29650   6.782   6.082   0.470
 9584SOL    HW129651   6.778   5.985   0.496
 9584SOL    HW229652   6.712   6.100   0.400
 9585SOL     OW29653   6.038   0.663   4.173
 9585SOL    HW129654   6.023   0.733   4.242
 9585SOL    HW229655   6.043   0.573   4.217
 9586SOL     OW29656   5.979   3.984   2.473
 9586SOL    HW129657   6.066   3.950   2.438
 9586SOL    HW229658   5.904   3.939   2.425
 9587SOL     OW29659   0.508   1.073   2.125
 9587SOL    HW129660   0.416   1.110   2.112
 9587SOL    HW229661   0.505   0.973   2.118
 9588SOL     OW29662   0.416   1.906   1.844
 9588SOL    HW129663   0.498   1.887   1.897
 9588SOL    HW229664   0.376   1.819   1.813
 9589SOL     OW29665   2.512   5.205   6.025
 9589SOL    HW129666   2.565   5.289   6.011
 9589SOL    HW229667   2.446   5.195   5.950
 9590SOL     OW29668   0.000   3.239   1.850
 9590SOL    HW129669   6.921   3.232   1.861
 9590SOL    HW229670   0.025   3.213   1.756
 9591SOL     OW29671   3.289   6.111   6.268
 9591SOL    HW129672   3.281   6.195   6.213
 9591SOL    HW229673   3.323   6.037   6.210
 9592SOL     OW29674   3.393   4.143   1.182
 9592SOL    HW129675   3.295   4.152   1.196
 9592SOL    HW229676   3.439   4.132   1.270
 9593SOL     OW29677   6.955   0.751   4.868
 9593SOL    HW129678   6.971   0.717   4.960
 9593SOL    HW229679   7.016   0.703   4.804
 9594SOL     OW29680   1.642   6.417   2.855
 9594SOL    HW129681   1.677   6.356   2.926
 9594SOL    HW229682   1.653   6.374   2.766
 9595SOL     OW29683   1.562   4.432   5.644
 9595SOL    HW129684   1.535   4.381   5.563
 9595SOL    HW229685   1.658   4.412   5.666
 9596SOL     OW29686   0.464   5.721   0.214
 9596SOL    HW129687   0.456   5.647   0.147
 9596SOL    HW229688   0.439   5.808   0.170
 9597SOL     OW29689   0.623   4.485   1.273
 9597SOL    HW129690   0.543   4.493   1.214
 9597SOL    HW229691   0.594   4.472   1.368
 9598SOL     OW29692   1.544   3.248   4.900
 9598SOL    HW129693   1.539   3.320   4.831
 9598SOL    HW229694   1.602   3.279   4.976
 9599SOL     OW29695   4.193   0.202   5.638
 9599SOL    HW129696   4.131   0.280   5.636
 9599SOL    HW229697   4.147   0.123   5.678
 9600SOL     OW29698   2.196   7.010   7.016
 9600SOL    HW129699   2.225   0.025   0.086
 9600SOL    HW229700   2.244   6.925   6.996
 9601SOL     OW29701   6.410   3.656   1.100
 9601SOL    HW129702   6.433   3.677   1.005
 9601SOL    HW229703   6.332   3.594   1.104
 9602SOL     OW29704   6.934   5.365   6.600
 9602SOL    HW129705   6.908   5.270   6.616
 9602SOL    HW229706   6.865   5.426   6.639
 9603SOL     OW29707   3.791   1.535   5.112
 9603SOL    HW129708   3.813   1.437   5.110
 9603SOL    HW229709   3.875   1.587   5.126
 9604SOL     OW29710   4.035   0.824   6.990
 9604SOL    HW129711   4.027   0.750   6.922
 9604SOL    HW229712   4.055   0.910   6.943
 9605SOL     OW29713   0.119   4.976   4.076
 9605SOL    HW129714   0.216   5.000   4.073
 9605SOL    HW229715   0.065   5.057   4.098
 9606SOL     OW29716   2.074   6.267   5.886
 9606SOL    HW129717   2.152   6.313   5.928
 9606SOL    HW229718   2.098   6.172   5.866
 9607SOL     OW29719   1.586   1.426   1.669
 9607SOL    HW129720   1.658   1.491   1.695
 9607SOL    HW229721   1.499   1.456   1.708
 9608SOL     OW29722   6.744   6.394   2.067
 9608SOL    HW129723   6.801   6.316   2.041
 9608SOL    HW229724   6.790   6.479   2.041
 9609SOL     OW29725   2.007   3.646   6.434
 9609SOL    HW129726   2.096   3.666   6.394
 9609SOL    HW229727   1.977   3.555   6.406
 9610SOL     OW29728   2.412   5.058   4.211
 9610SOL    HW129729   2.503   5.017   4.217
 9610SOL    HW229730   2.367   5.052   4.301
 9611SOL     OW29731   0.589   6.795   7.009
 9611SOL    HW129732   0.626   6.793   6.916
 9611SOL    HW229733   0.568   6.701   0.018
 9612SOL     OW29734   0.363   3.410   1.906
 9612SOL    HW129735   0.341   3.401   2.003
 9612SOL    HW229736   0.461   3.428   1.895
 9613SOL     OW29737   4.377   6.344   3.643
 9613SOL    HW129738   4.354   6.441   3.645
 9613SOL    HW229739   4.314   6.294   3.703
 9614SOL     OW29740   3.864   2.262   1.067
 9614SOL    HW129741   3.861   2.362   1.071
 9614SOL    HW229742   3.812   2.224   1.143
 9615SOL     OW29743   0.406   6.992   1.774
 9615SOL    HW129744   0.460   7.010   1.693
 9615SOL    HW229745   0.368   0.058   1.809
 9616SOL     OW29746   4.479   3.292   1.459
 9616SOL    HW129747   4.523   3.342   1.533
 9616SOL    HW229748   4.523   3.203   1.448
 9617SOL     OW29749   1.669   3.624   4.300
 9617SOL    HW129750   1.631   3.716   4.295
 9617SOL    HW229751   1.766   3.626   4.276
 9618SOL     OW29752   3.634   6.593   5.905
 9618SOL    HW129753   3.684   6.507   5.897
 9618SOL    HW229754   3.553   6.590   5.847
 9619SOL     OW29755   0.679   0.162   0.385
 9619SOL    HW129756   0.726   0.112   0.457
 9619SOL    HW229757   0.726   0.248   0.367
 9620SOL     OW29758   5.227   3.091   6.959
 9620SOL    HW129759   5.281   3.009   6.938
 9620SOL    HW229760   5.221   3.149   6.878
 9621SOL     OW29761   1.495   0.660   3.017
 9621SOL    HW129762   1.497   0.620   3.108
 9621SOL    HW229763   1.437   0.742   3.018
 9622SOL     OW29764   5.715   0.803   0.241
 9622SOL    HW129765   5.808   0.811   0.276
 9622SOL    HW229766   5.651   0.792   0.317
 9623SOL     OW29767   4.103   5.059   5.094
 9623SOL    HW129768   4.189   5.076   5.142
 9623SOL    HW229769   4.119   4.997   5.017
 9624SOL     OW29770   6.153   4.490   3.711
 9624SOL    HW129771   6.075   4.541   3.674
 9624SOL    HW229772   6.190   4.430   3.639
 9625SOL     OW29773   5.041   5.411   6.933
 9625SOL    HW129774   4.966   5.472   6.909
 9625SOL    HW229775   5.047   5.337   6.866
 9626SOL     OW29776   2.441   6.375   0.326
 9626SOL    HW129777   2.493   6.459   0.319
 9626SOL    HW229778   2.497   6.298   0.297
 9627SOL     OW29779   6.875   3.737   3.677
 9627SOL    HW129780   6.831   3.719   3.765
 9627SOL    HW229781   6.971   3.711   3.681
 9628SOL     OW29782   6.498   4.628   7.012
 9628SOL    HW129783   6.555   4.702   6.977
 9628SOL    HW229784   6.401   4.652   7.000
 9629SOL     OW29785   6.784   6.365   2.964
 9629SOL    HW129786   6.743   6.453   2.990
 9629SOL    HW229787   6.873   6.356   3.008
 9630SOL     OW29788   6.068   6.437   4.935
 9630SOL    HW129789   6.109   6.529   4.931
 9630SOL    HW229790   5.994   6.437   5.002
 9631SOL     OW29791   5.489   1.328   0.103
 9631SOL    HW129792   5.502   1.277   0.019
 9631SOL    HW229793   5.392   1.351   0.114
 9632SOL     OW29794   2.136   5.159   2.112
 9632SOL    HW129795   2.162   5.063   2.100
 9632SOL    HW229796   2.196   5.201   2.180
 9633SOL     OW29797   4.865   5.122   0.216
 9633SOL    HW129798   4.773   5.108   0.253
 9633SOL    HW229799   4.887   5.220   0.217
 9634SOL     OW29800   0.673   6.581   4.484
 9634SOL    HW129801   0.749   6.516   4.484
 9634SOL    HW229802   0.645   6.600   4.578
 9635SOL     OW29803   2.507   4.449   5.351
 9635SOL    HW129804   2.486   4.538   5.392
 9635SOL    HW229805   2.602   4.425   5.372
 9636SOL     OW29806   4.467   1.657   6.186
 9636SOL    HW129807   4.522   1.613   6.115
 9636SOL    HW229808   4.370   1.649   6.162
 9637SOL     OW29809   3.154   2.580   6.959
 9637SOL    HW129810   3.146   2.618   0.031
 9637SOL    HW229811   3.240   2.612   6.917
 9638SOL     OW29812   0.110   3.914   6.378
 9638SOL    HW129813   0.060   3.990   6.419
 9638SOL    HW229814   0.131   3.935   6.283
 9639SOL     OW29815   4.587   1.584   1.933
 9639SOL    HW129816   4.529   1.641   1.875
 9639SOL    HW229817   4.662   1.638   1.970
 9640SOL     OW29818   3.179   1.227   3.040
 9640SOL    HW129819   3.255   1.226   3.104
 9640SOL    HW229820   3.163   1.135   3.005
 9641SOL     OW29821   5.685   5.368   0.997
 9641SOL    HW129822   5.767   5.313   1.011
 9641SOL    HW229823   5.604   5.310   1.000
 9642SOL     OW29824   2.113   5.784   4.875
 9642SOL    HW129825   2.025   5.784   4.829
 9642SOL    HW229826   2.159   5.697   4.859
 9643SOL     OW29827   5.917   4.801   4.229
 9643SOL    HW129828   5.852   4.844   4.167
 9643SOL    HW229829   5.868   4.738   4.290
 9644SOL     OW29830   0.106   4.788   4.551
 9644SOL    HW129831   0.201   4.757   4.550
 9644SOL    HW229832   0.082   4.817   4.644
 9645SOL     OW29833   3.206   4.895   3.593
 9645SOL    HW129834   3.169   4.957   3.524
 9645SOL    HW229835   3.301   4.873   3.571
 9646SOL     OW29836   2.558   4.620   2.108
 9646SOL    HW129837   2.652   4.598   2.084
 9646SOL    HW229838   2.508   4.645   2.026
 9647SOL     OW29839   0.897   5.445   2.019
 9647SOL    HW129840   0.974   5.397   2.059
 9647SOL    HW229841   0.830   5.467   2.091
 9648SOL     OW29842   3.436   1.900   0.003
 9648SOL    HW129843   3.399   1.952   0.081
 9648SOL    HW229844   3.470   1.964   6.953
 9649SOL     OW29845   2.008   4.518   6.960
 9649SOL    HW129846   2.022   4.616   6.975
 9649SOL    HW229847   2.092   4.469   6.979
 9650SOL     OW29848   4.459   4.493   2.974
 9650SOL    HW129849   4.417   4.541   2.897
 9650SOL    HW229850   4.499   4.408   2.942
 9651SOL     OW29851   5.592   1.477   0.640
 9651SOL    HW129852   5.523   1.409   0.615
 9651SOL    HW229853   5.617   1.465   0.736
 9652SOL     OW29854   2.230   4.187   1.127
 9652SOL    HW129855   2.220   4.094   1.092
 9652SOL    HW229856   2.139   4.224   1.148
 9653SOL     OW29857   4.329   5.172   5.234
 9653SOL    HW129858   4.345   5.196   5.138
 9653SOL    HW229859   4.386   5.094   5.259
 9654SOL     OW29860   3.523   3.181   2.627
 9654SOL    HW129861   3.504   3.122   2.706
 9654SOL    HW229862   3.606   3.149   2.581
 9655SOL     OW29863   0.125   1.530   0.479
 9655SOL    HW129864   0.139   1.445   0.529
 9655SOL    HW229865   0.163   1.522   0.387
 9656SOL     OW29866   4.495   1.971   0.961
 9656SOL    HW129867   4.451   1.887   0.993
 9656SOL    HW229868   4.593   1.967   0.979
 9657SOL     OW29869   6.243   2.885   3.417
 9657SOL    HW129870   6.192   2.800   3.429
 9657SOL    HW229871   6.180   2.957   3.385
 9658SOL     OW29872   5.716   2.152   2.480
 9658SOL    HW129873   5.674   2.072   2.522
 9658SOL    HW229874   5.665   2.179   2.399
 9659SOL     OW29875   7.010   2.930   0.213
 9659SOL    HW129876   6.955   3.011   0.230
 9659SOL    HW229877   0.081   2.958   0.180
 9660SOL     OW29878   0.690   6.694   1.975
 9660SOL    HW129879   0.750   6.748   2.034
 9660SOL    HW229880   0.655   6.751   1.901
 9661SOL     OW29881   3.155   6.416   1.296
 9661SOL    HW129882   3.148   6.501   1.244
 9661SOL    HW229883   3.251   6.400   1.321
 9662SOL     OW29884   4.340   2.962   5.337
 9662SOL    HW129885   4.279   2.885   5.355
 9662SOL    HW229886   4.401   2.939   5.262
 9663SOL     OW29887   6.462   0.055   3.031
 9663SOL    HW129888   6.446   0.151   3.008
 9663SOL    HW229889   6.469   0.001   2.947
 9664SOL     OW29890   5.274   6.240   4.610
 9664SOL    HW129891   5.265   6.142   4.628
 9664SOL    HW229892   5.234   6.292   4.686
 9665SOL     OW29893   5.819   6.330   6.925
 9665SOL    HW129894   5.888   6.348   6.855
 9665SOL    HW229895   5.829   6.237   6.959
 9666SOL     OW29896   6.798   3.688   2.656
 9666SOL    HW129897   6.810   3.654   2.562
 9666SOL    HW229898   6.725   3.636   2.701
 9667SOL     OW29899   4.253   3.448   6.123
 9667SOL    HW129900   4.235   3.471   6.027
 9667SOL    HW229901   4.226   3.353   6.139
 9668SOL     OW29902   6.582   0.404   5.973
 9668SOL    HW129903   6.485   0.425   5.964
 9668SOL    HW229904   6.625   0.403   5.883
 9669SOL     OW29905   2.028   0.275   2.750
 9669SOL    HW129906   2.126   0.289   2.738
 9669SOL    HW229907   2.009   0.177   2.758
 9670SOL     OW29908   6.270   4.642   6.765
 9670SOL    HW129909   6.356   4.684   6.736
 9670SOL    HW229910   6.253   4.664   6.861
 9671SOL     OW29911   6.243   4.698   0.033
 9671SOL    HW129912   6.221   4.611   0.077
 9671SOL    HW229913   6.198   4.772   0.083
 9672SOL     OW29914   1.659   5.522   3.734
 9672SOL    HW129915   1.629   5.566   3.819
 9672SOL    HW229916   1.714   5.586   3.681
 9673SOL     OW29917   4.891   3.379   1.145
 9673SOL    HW129918   4.886   3.300   1.206
 9673SOL    HW229919   4.868   3.350   1.052
 9674SOL     OW29920   2.454   6.901   2.881
 9674SOL    HW129921   2.447   6.803   2.896
 9674SOL    HW229922   2.380   6.932   2.822
 9675SOL     OW29923   5.780   2.600   0.181
 9675SOL    HW129924   5.824   2.652   0.254
 9675SOL    HW229925   5.707   2.543   0.220
 9676SOL     OW29926   1.653   3.936   5.873
 9676SOL    HW129927   1.618   3.845   5.854
 9676SOL    HW229928   1.752   3.933   5.885
 9677SOL     OW29929   0.240   5.586   4.950
 9677SOL    HW129930   0.246   5.671   5.003
 9677SOL    HW229931   0.147   5.550   4.956
 9678SOL     OW29932   3.066   3.819   3.293
 9678SOL    HW129933   3.094   3.751   3.360
 9678SOL    HW229934   3.142   3.881   3.274
 9679SOL     OW29935   2.898   1.446   3.557
 9679SOL    HW129936   2.894   1.468   3.655
 9679SOL    HW229937   2.942   1.522   3.508
 9680SOL     OW29938   4.441   1.312   2.848
 9680SOL    HW129939   4.536   1.324   2.875
 9680SOL    HW229940   4.380   1.344   2.921
 9681SOL     OW29941   3.184   1.996   0.444
 9681SOL    HW129942   3.195   1.972   0.540
 9681SOL    HW229943   3.088   2.019   0.426
 9682SOL     OW29944   5.159   4.544   3.803
 9682SOL    HW129945   5.083   4.541   3.867
 9682SOL    HW229946   5.246   4.541   3.853
 9683SOL     OW29947   2.633   5.368   0.510
 9683SOL    HW129948   2.600   5.305   0.580
 9683SOL    HW229949   2.661   5.454   0.553
 9684SOL     OW29950   0.140   3.411   6.160
 9684SOL    HW129951   0.074   3.386   6.089
 9684SOL    HW229952   0.095   3.463   6.232
 9685SOL     OW29953   3.579   4.706   0.827
 9685SOL    HW129954   3.550   4.612   0.809
 9685SOL    HW229955   3.656   4.705   0.891
 9686SOL     OW29956   6.591   1.686   7.011
 9686SOL    HW129957   6.510   1.741   0.012
 9686SOL    HW229958   6.673   1.733   0.023
 9687SOL     OW29959   1.836   0.849   4.263
 9687SOL    HW129960   1.794   0.774   4.314
 9687SOL    HW229961   1.862   0.922   4.326
 9688SOL     OW29962   0.811   3.264   2.746
 9688SOL    HW129963   0.890   3.292   2.801
 9688SOL    HW229964   0.841   3.200   2.675
 9689SOL     OW29965   0.636   4.398   6.171
 9689SOL    HW129966   0.577   4.351   6.236
 9689SOL    HW229967   0.732   4.377   6.192
 9690SOL     OW29968   5.769   5.433   6.892
 9690SOL    HW129969   5.732   5.505   6.950
 9690SOL    HW229970   5.854   5.398   6.931
 9691SOL     OW29971   3.331   5.530   0.762
 9691SOL    HW129972   3.292   5.444   0.727
 9691SOL    HW229973   3.338   5.524   0.862
 9692SOL     OW29974   3.372   5.131   3.033
 9692SOL    HW129975   3.385   5.140   3.132
 9692SOL    HW229976   3.461   5.134   2.987
 9693SOL     OW29977   5.848   4.658   1.769
 9693SOL    HW129978   5.910   4.663   1.690
 9693SOL    HW229979   5.819   4.564   1.782
 9694SOL     OW29980   2.180   1.015   0.511
 9694SOL    HW129981   2.124   1.057   0.583
 9694SOL    HW229982   2.160   0.918   0.506
 9695SOL     OW29983   6.998   2.950   2.944
 9695SOL    HW129984   0.022   3.040   2.940
 9695SOL    HW229985   0.019   2.890   2.874
 9696SOL     OW29986   5.256   3.560   1.188
 9696SOL    HW129987   5.306   3.641   1.159
 9696SOL    HW229988   5.309   3.478   1.164
 9697SOL     OW29989   0.394   5.269   0.074
 9697SOL    HW129990   0.467   5.226   0.127
 9697SOL    HW229991   0.382   5.220   7.007
 9698SOL     OW29992   4.616   1.638   5.937
 9698SOL    HW129993   4.692   1.680   5.987
 9698SOL    HW229994   4.608   1.681   5.846
 9699SOL     OW29995   6.632   4.863   6.907
 9699SOL    HW129996   6.682   4.922   6.970
 9699SOL    HW229997   6.573   4.919   6.849
 9700SOL     OW29998   4.765   5.883   4.850
 9700SOL    HW129999   4.678   5.834   4.842
 9700SOL    HW230000   4.746   5.981   4.864
 9701SOL     OW30001   4.628   4.867   5.632
 9701SOL    HW130002   4.593   4.804   5.702
 9701SOL    HW230003   4.680   4.940   5.676
 9702SOL     OW30004   4.503   0.632   6.541
 9702SOL    HW130005   4.522   0.581   6.624
 9702SOL    HW230006   4.557   0.716   6.540
 9703SOL     OW30007   4.808   3.956   3.597
 9703SOL    HW130008   4.827   3.888   3.526
 9703SOL    HW230009   4.787   4.044   3.555
 9704SOL     OW30010   3.793   0.502   2.464
 9704SOL    HW130011   3.889   0.485   2.486
 9704SOL    HW230012   3.757   0.572   2.526
 9705SOL     OW30013   5.545   4.641   5.981
 9705SOL    HW130014   5.548   4.735   5.948
 9705SOL    HW230015   5.632   4.596   5.960
 9706SOL     OW30016   1.564   3.117   0.450
 9706SOL    HW130017   1.555   3.171   0.366
 9706SOL    HW230018   1.651   3.069   0.450
 9707SOL     OW30019   6.689   4.992   2.578
 9707SOL    HW130020   6.729   4.928   2.513
 9707SOL    HW230021   6.596   5.015   2.549
 9708SOL     OW30022   1.552   1.885   3.373
 9708SOL    HW130023   1.563   1.982   3.350
 9708SOL    HW230024   1.598   1.865   3.459
 9709SOL     OW30025   5.297   6.177   3.056
 9709SOL    HW130026   5.282   6.263   3.104
 9709SOL    HW230027   5.382   6.136   3.089
 9710SOL     OW30028   7.015   1.249   1.443
 9710SOL    HW130029   6.952   1.301   1.386
 9710SOL    HW230030   6.978   1.240   1.535
 9711SOL     OW30031   2.770   5.380   5.955
 9711SOL    HW130032   2.839   5.308   5.947
 9711SOL    HW230033   2.799   5.461   5.904
 9712SOL     OW30034   5.440   3.661   6.597
 9712SOL    HW130035   5.450   3.672   6.498
 9712SOL    HW230036   5.529   3.676   6.640
 9713SOL     OW30037   0.949   4.470   3.582
 9713SOL    HW130038   0.883   4.400   3.609
 9713SOL    HW230039   1.023   4.473   3.650
 9714SOL     OW30040   3.857   6.705   6.530
 9714SOL    HW130041   3.860   6.748   6.620
 9714SOL    HW230042   3.843   6.607   6.540
 9715SOL     OW30043   5.686   4.028   6.220
 9715SOL    HW130044   5.605   3.971   6.209
 9715SOL    HW230045   5.684   4.103   6.154
 9716SOL     OW30046   3.871   4.285   6.655
 9716SOL    HW130047   3.837   4.379   6.658
 9716SOL    HW230048   3.933   4.269   6.733
 9717SOL     OW30049   5.437   6.296   6.371
 9717SOL    HW130050   5.478   6.261   6.455
 9717SOL    HW230051   5.379   6.375   6.392
 9718SOL     OW30052   4.720   2.926   0.405
 9718SOL    HW130053   4.775   2.991   0.458
 9718SOL    HW230054   4.693   2.850   0.463
 9719SOL     OW30055   6.563   1.380   5.818
 9719SOL    HW130056   6.464   1.376   5.831
 9719SOL    HW230057   6.600   1.455   5.873
 9720SOL     OW30058   0.377   5.262   2.574
 9720SOL    HW130059   0.362   5.301   2.664
 9720SOL    HW230060   0.298   5.205   2.548
 9721SOL     OW30061   6.716   1.684   1.051
 9721SOL    HW130062   6.720   1.603   0.993
 9721SOL    HW230063   6.761   1.665   1.138
 9722SOL     OW30064   5.849   1.045   4.329
 9722SOL    HW130065   5.777   0.977   4.316
 9722SOL    HW230066   5.937   0.998   4.337
 9723SOL     OW30067   2.179   6.680   2.390
 9723SOL    HW130068   2.110   6.631   2.335
 9723SOL    HW230069   2.132   6.742   2.453
 9724SOL     OW30070   1.960   4.408   0.537
 9724SOL    HW130071   1.920   4.392   0.627
 9724SOL    HW230072   1.890   4.441   0.474
 9725SOL     OW30073   3.887   4.921   6.359
 9725SOL    HW130074   3.936   4.993   6.408
 9725SOL    HW230075   3.887   4.837   6.413
 9726SOL     OW30076   5.017   1.370   4.381
 9726SOL    HW130077   5.111   1.404   4.373
 9726SOL    HW230078   4.958   1.442   4.416
 9727SOL     OW30079   1.486   3.474   6.329
 9727SOL    HW130080   1.522   3.558   6.369
 9727SOL    HW230081   1.387   3.483   6.316
 9728SOL     OW30082   0.428   0.799   5.838
 9728SOL    HW130083   0.471   0.717   5.801
 9728SOL    HW230084   0.455   0.811   5.934
 9729SOL     OW30085   0.532   3.811   4.251
 9729SOL    HW130086   0.568   3.899   4.282
 9729SOL    HW230087   0.465   3.825   4.178
 9730SOL     OW30088   1.085   3.707   4.074
 9730SOL    HW130089   1.077   3.806   4.088
 9730SOL    HW230090   1.138   3.668   4.150
 9731SOL     OW30091   4.869   4.839   1.221
 9731SOL    HW130092   4.929   4.917   1.241
 9731SOL    HW230093   4.786   4.846   1.278
 9732SOL     OW30094   6.307   5.474   3.153
 9732SOL    HW130095   6.374   5.518   3.093
 9732SOL    HW230096   6.313   5.514   3.244
 9733SOL     OW30097   5.893   5.142   0.495
 9733SOL    HW130098   5.926   5.228   0.456
 9733SOL    HW230099   5.847   5.160   0.582
 9734SOL     OW30100   6.515   1.462   1.891
 9734SOL    HW130101   6.521   1.553   1.850
 9734SOL    HW230102   6.503   1.470   1.990
 9735SOL     OW30103   2.080   4.280   3.935
 9735SOL    HW130104   1.982   4.292   3.921
 9735SOL    HW230105   2.131   4.326   3.863
 9736SOL     OW30106   6.432   0.862   6.819
 9736SOL    HW130107   6.343   0.906   6.806
 9736SOL    HW230108   6.479   0.906   6.895
 9737SOL     OW30109   5.296   2.696   3.526
 9737SOL    HW130110   5.216   2.728   3.476
 9737SOL    HW230111   5.285   2.718   3.623
 9738SOL     OW30112   1.407   0.205   1.569
 9738SOL    HW130113   1.412   0.112   1.607
 9738SOL    HW230114   1.497   0.249   1.576
 9739SOL     OW30115   5.948   4.690   2.182
 9739SOL    HW130116   5.854   4.685   2.216
 9739SOL    HW230117   5.976   4.785   2.177
 9740SOL     OW30118   6.485   1.690   3.294
 9740SOL    HW130119   6.507   1.709   3.198
 9740SOL    HW230120   6.452   1.774   3.338
 9741SOL     OW30121   3.679   0.693   2.625
 9741SOL    HW130122   3.748   0.748   2.671
 9741SOL    HW230123   3.589   0.735   2.636
 9742SOL     OW30124   4.532   0.171   0.865
 9742SOL    HW130125   4.588   0.251   0.887
 9742SOL    HW230126   4.436   0.196   0.866
 9743SOL     OW30127   6.826   2.087   5.295
 9743SOL    HW130128   6.732   2.057   5.280
 9743SOL    HW230129   6.877   2.015   5.342
 9744SOL     OW30130   0.916   0.183   2.898
 9744SOL    HW130131   0.839   0.226   2.946
 9744SOL    HW230132   0.986   0.159   2.965
 9745SOL     OW30133   5.422   3.505   5.937
 9745SOL    HW130134   5.338   3.548   5.969
 9745SOL    HW230135   5.499   3.540   5.989
 9746SOL     OW30136   6.597   0.237   5.292
 9746SOL    HW130137   6.612   0.336   5.291
 9746SOL    HW230138   6.675   0.193   5.336
 9747SOL     OW30139   2.285   0.640   1.815
 9747SOL    HW130140   2.365   0.591   1.780
 9747SOL    HW230141   2.314   0.724   1.861
 9748SOL     OW30142   0.483   1.440   3.295
 9748SOL    HW130143   0.518   1.477   3.382
 9748SOL    HW230144   0.384   1.454   3.291
 9749SOL     OW30145   2.484   1.069   5.005
 9749SOL    HW130146   2.513   1.096   4.913
 9749SOL    HW230147   2.526   1.130   5.072
 9750SOL     OW30148   5.543   4.433   3.509
 9750SOL    HW130149   5.485   4.391   3.578
 9750SOL    HW230150   5.639   4.416   3.532
 9751SOL     OW30151   1.307   1.127   1.399
 9751SOL    HW130152   1.287   1.066   1.476
 9751SOL    HW230153   1.382   1.188   1.424
 9752SOL     OW30154   4.538   2.155   5.380
 9752SOL    HW130155   4.494   2.178   5.466
 9752SOL    HW230156   4.510   2.220   5.309
 9753SOL     OW30157   6.143   5.950   5.818
 9753SOL    HW130158   6.217   5.995   5.868
 9753SOL    HW230159   6.182   5.884   5.753
 9754SOL     OW30160   1.046   1.235   6.112
 9754SOL    HW130161   1.052   1.300   6.036
 9754SOL    HW230162   1.119   1.167   6.104
 9755SOL     OW30163   3.620   3.102   4.507
 9755SOL    HW130164   3.627   3.197   4.537
 9755SOL    HW230165   3.526   3.070   4.519
 9756SOL     OW30166   6.520   3.491   0.793
 9756SOL    HW130167   6.584   3.504   0.870
 9756SOL    HW230168   6.427   3.487   0.828
 9757SOL     OW30169   5.626   3.775   3.863
 9757SOL    HW130170   5.586   3.759   3.773
 9757SOL    HW230171   5.586   3.858   3.903
 9758SOL     OW30172   2.339   6.488   6.650
 9758SOL    HW130173   2.346   6.582   6.620
 9758SOL    HW230174   2.401   6.473   6.728
 9759SOL     OW30175   1.703   0.045   0.152
 9759SOL    HW130176   1.657   0.133   0.159
 9759SOL    HW230177   1.775   0.051   0.083
 9760SOL     OW30178   4.388   2.439   4.845
 9760SOL    HW130179   4.459   2.500   4.882
 9760SOL    HW230180   4.310   2.437   4.908
 9761SOL     OW30181   5.708   1.445   3.016
 9761SOL    HW130182   5.733   1.498   2.935
 9761SOL    HW230183   5.646   1.372   2.990
 9762SOL     OW30184   3.194   0.989   4.536
 9762SOL    HW130185   3.221   1.065   4.476
 9762SOL    HW230186   3.100   0.963   4.516
 9763SOL     OW30187   5.335   1.961   2.174
 9763SOL    HW130188   5.305   2.037   2.117
 9763SOL    HW230189   5.266   1.889   2.173
 9764SOL     OW30190   0.071   2.742   2.775
 9764SOL    HW130191   0.120   2.694   2.847
 9764SOL    HW230192   0.025   2.676   2.716
 9765SOL     OW30193   6.803   1.349   3.910
 9765SOL    HW130194   6.809   1.378   3.815
 9765SOL    HW230195   6.711   1.316   3.930
 9766SOL     OW30196   3.138   0.273   2.801
 9766SOL    HW130197   3.131   0.364   2.758
 9766SOL    HW230198   3.075   0.268   2.878
 9767SOL     OW30199   5.138   0.945   4.855
 9767SOL    HW130200   5.077   0.957   4.778
 9767SOL    HW230201   5.208   1.016   4.854
 9768SOL     OW30202   5.458   2.123   2.898
 9768SOL    HW130203   5.544   2.088   2.860
 9768SOL    HW230204   5.462   2.223   2.902
 9769SOL     OW30205   3.301   1.030   2.891
 9769SOL    HW130206   3.311   1.016   2.792
 9769SOL    HW230207   3.374   1.090   2.924
 9770SOL     OW30208   5.493   0.305   6.648
 9770SOL    HW130209   5.508   0.259   6.560
 9770SOL    HW230210   5.580   0.314   6.696
 9771SOL     OW30211   2.924   5.744   0.444
 9771SOL    HW130212   2.875   5.770   0.527
 9771SOL    HW230213   2.995   5.678   0.467
 9772SOL     OW30214   1.245   6.097   2.872
 9772SOL    HW130215   1.231   6.194   2.851
 9772SOL    HW230216   1.320   6.062   2.816
 9773SOL     OW30217   5.981   5.382   4.634
 9773SOL    HW130218   5.904   5.402   4.572
 9773SOL    HW230219   6.045   5.459   4.634
 9774SOL     OW30220   0.203   4.829   2.117
 9774SOL    HW130221   0.113   4.872   2.105
 9774SOL    HW230222   0.237   4.800   2.028
 9775SOL     OW30223   2.332   0.379   3.261
 9775SOL    HW130224   2.290   0.316   3.196
 9775SOL    HW230225   2.395   0.329   3.321
 9776SOL     OW30226   1.544   4.458   4.175
 9776SOL    HW130227   1.559   4.451   4.077
 9776SOL    HW230228   1.537   4.366   4.215
 9777SOL     OW30229   6.176   5.371   6.278
 9777SOL    HW130230   6.149   5.459   6.319
 9777SOL    HW230231   6.095   5.312   6.270
 9778SOL     OW30232   0.198   0.767   4.086
 9778SOL    HW130233   0.224   0.671   4.078
 9778SOL    HW230234   0.209   0.797   4.181
 9779SOL     OW30235   1.411   1.443   5.283
 9779SOL    HW130236   1.485   1.422   5.219
 9779SOL    HW230237   1.393   1.364   5.341
 9780SOL     OW30238   2.730   1.690   1.521
 9780SOL    HW130239   2.646   1.639   1.540
 9780SOL    HW230240   2.724   1.780   1.565
 9781SOL     OW30241   1.849   4.275   4.444
 9781SOL    HW130242   1.886   4.300   4.354
 9781SOL    HW230243   1.877   4.182   4.466
 9782SOL     OW30244   6.524   1.304   1.450
 9782SOL    HW130245   6.466   1.384   1.436
 9782SOL    HW230246   6.466   1.225   1.470
 9783SOL     OW30247   4.319   2.108   3.276
 9783SOL    HW130248   4.340   2.093   3.373
 9783SOL    HW230249   4.399   2.145   3.230
 9784SOL     OW30250   4.083   1.203   4.310
 9784SOL    HW130251   4.166   1.258   4.301
 9784SOL    HW230252   4.101   1.110   4.276
 9785SOL     OW30253   0.692   3.446   5.939
 9785SOL    HW130254   0.635   3.486   5.867
 9785SOL    HW230255   0.788   3.445   5.908
 9786SOL     OW30256   2.102   4.162   6.977
 9786SOL    HW130257   2.183   4.220   6.968
 9786SOL    HW230258   2.077   4.155   0.054
 9787SOL     OW30259   4.652   4.180   1.692
 9787SOL    HW130260   4.699   4.100   1.730
 9787SOL    HW230261   4.580   4.210   1.755
 9788SOL     OW30262   0.469   0.363   3.691
 9788SOL    HW130263   0.410   0.299   3.642
 9788SOL    HW230264   0.551   0.315   3.723
 9789SOL     OW30265   1.158   5.260   0.668
 9789SOL    HW130266   1.184   5.174   0.712
 9789SOL    HW230267   1.073   5.246   0.616
 9790SOL     OW30268   5.763   4.228   6.457
 9790SOL    HW130269   5.750   4.322   6.425
 9790SOL    HW230270   5.778   4.168   6.378
 9791SOL     OW30271   0.975   0.596   2.797
 9791SOL    HW130272   1.048   0.662   2.817
 9791SOL    HW230273   0.925   0.625   2.715
 9792SOL     OW30274   4.809   5.418   1.218
 9792SOL    HW130275   4.897   5.441   1.260
 9792SOL    HW230276   4.773   5.334   1.258
 9793SOL     OW30277   4.694   5.989   3.650
 9793SOL    HW130278   4.723   6.023   3.560
 9793SOL    HW230279   4.724   6.053   3.721
 9794SOL     OW30280   6.820   4.344   0.891
 9794SOL    HW130281   6.902   4.390   0.924
 9794SOL    HW230282   6.743   4.367   0.951
 9795SOL     OW30283   2.226   1.723   4.363
 9795SOL    HW130284   2.259   1.774   4.283
 9795SOL    HW230285   2.172   1.784   4.421
 9796SOL     OW30286   3.911   2.505   1.450
 9796SOL    HW130287   3.826   2.508   1.397
 9796SOL    HW230288   3.888   2.496   1.548
 9797SOL     OW30289   2.556   5.221   6.431
 9797SOL    HW130290   2.563   5.153   6.358
 9797SOL    HW230291   2.506   5.301   6.398
 9798SOL     OW30292   2.858   0.196   1.172
 9798SOL    HW130293   2.790   0.268   1.186
 9798SOL    HW230294   2.883   0.156   1.261
 9799SOL     OW30295   4.124   3.672   3.804
 9799SOL    HW130296   4.115   3.620   3.889
 9799SOL    HW230297   4.087   3.618   3.728
 9800SOL     OW30298   4.031   6.342   4.477
 9800SOL    HW130299   4.050   6.316   4.572
 9800SOL    HW230300   4.058   6.437   4.463
 9801SOL     OW30301   4.784   4.122   0.709
 9801SOL    HW130302   4.827   4.045   0.662
 9801SOL    HW230303   4.761   4.193   0.642
 9802SOL     OW30304   0.638   3.363   1.315
 9802SOL    HW130305   0.583   3.300   1.370
 9802SOL    HW230306   0.616   3.349   1.218
 9803SOL     OW30307   0.444   2.340   6.591
 9803SOL    HW130308   0.400   2.343   6.501
 9803SOL    HW230309   0.410   2.261   6.642
 9804SOL     OW30310   1.156   7.016   2.958
 9804SOL    HW130311   1.193   7.006   3.050
 9804SOL    HW230312   1.162   6.929   2.910
 9805SOL     OW30313   1.193   0.720   5.175
 9805SOL    HW130314   1.253   0.799   5.166
 9805SOL    HW230315   1.218   0.668   5.257
 9806SOL     OW30316   1.867   1.183   0.402
 9806SOL    HW130317   1.890   1.202   0.497
 9806SOL    HW230318   1.804   1.105   0.398
 9807SOL     OW30319   2.420   3.371   0.223
 9807SOL    HW130320   2.384   3.465   0.225
 9807SOL    HW230321   2.488   3.363   0.150
 9808SOL     OW30322   4.707   0.834   5.831
 9808SOL    HW130323   4.607   0.826   5.821
 9808SOL    HW230324   4.745   0.744   5.854
 9809SOL     OW30325   0.780   2.118   0.037
 9809SOL    HW130326   0.826   2.188   7.003
 9809SOL    HW230327   0.848   2.055   0.076
 9810SOL     OW30328   2.256   3.020   3.437
 9810SOL    HW130329   2.237   3.090   3.506
 9810SOL    HW230330   2.234   3.056   3.347
 9811SOL     OW30331   5.546   4.785   3.783
 9811SOL    HW130332   5.536   4.883   3.767
 9811SOL    HW230333   5.570   4.770   3.879
 9812SOL     OW30334   3.594   1.763   5.744
 9812SOL    HW130335   3.524   1.809   5.799
 9812SOL    HW230336   3.613   1.819   5.663
 9813SOL     OW30337   5.711   0.526   0.232
 9813SOL    HW130338   5.691   0.622   0.213
 9813SOL    HW230339   5.797   0.520   0.283
 9814SOL     OW30340   0.608   0.537   0.518
 9814SOL    HW130341   0.548   0.457   0.510
 9814SOL    HW230342   0.631   0.552   0.614
 9815SOL     OW30343   5.621   4.064   3.314
 9815SOL    HW130344   5.526   4.088   3.296
 9815SOL    HW230345   5.679   4.144   3.298
 9816SOL     OW30346   6.945   1.036   6.314
 9816SOL    HW130347   6.875   1.019   6.245
 9816SOL    HW230348   7.005   0.956   6.321
 9817SOL     OW30349   2.390   6.269   2.506
 9817SOL    HW130350   2.443   6.220   2.437
 9817SOL    HW230351   2.394   6.367   2.488
 9818SOL     OW30352   1.664   0.774   4.920
 9818SOL    HW130353   1.567   0.776   4.894
 9818SOL    HW230354   1.676   0.712   4.998
 9819SOL     OW30355   4.970   3.035   3.883
 9819SOL    HW130356   4.982   3.078   3.972
 9819SOL    HW230357   4.917   3.095   3.824
 9820SOL     OW30358   4.701   3.249   6.031
 9820SOL    HW130359   4.628   3.284   5.973
 9820SOL    HW230360   4.736   3.164   5.993
 9821SOL     OW30361   5.112   0.590   0.560
 9821SOL    HW130362   5.071   0.508   0.521
 9821SOL    HW230363   5.043   0.640   0.613
 9822SOL     OW30364   2.845   5.930   3.619
 9822SOL    HW130365   2.880   5.851   3.669
 9822SOL    HW230366   2.847   5.911   3.521
 9823SOL     OW30367   2.664   0.344   1.302
 9823SOL    HW130368   2.675   0.398   1.385
 9823SOL    HW230369   2.615   0.259   1.323
 9824SOL     OW30370   1.874   5.525   4.200
 9824SOL    HW130371   1.868   5.605   4.258
 9824SOL    HW230372   1.886   5.443   4.256
 9825SOL     OW30373   5.419   6.536   4.128
 9825SOL    HW130374   5.470   6.452   4.146
 9825SOL    HW230375   5.382   6.572   4.214
 9826SOL     OW30376   4.162   5.585   5.382
 9826SOL    HW130377   4.075   5.538   5.374
 9826SOL    HW230378   4.199   5.603   5.291
 9827SOL     OW30379   1.486   3.925   3.476
 9827SOL    HW130380   1.580   3.926   3.442
 9827SOL    HW230381   1.451   3.831   3.476
 9828SOL     OW30382   2.957   2.367   5.307
 9828SOL    HW130383   3.037   2.404   5.259
 9828SOL    HW230384   2.909   2.441   5.353
 9829SOL     OW30385   4.701   5.907   6.439
 9829SOL    HW130386   4.672   5.816   6.409
 9829SOL    HW230387   4.785   5.932   6.390
 9830SOL     OW30388   5.245   1.557   1.820
 9830SOL    HW130389   5.234   1.623   1.745
 9830SOL    HW230390   5.229   1.465   1.785
 9831SOL     OW30391   1.245   4.777   3.068
 9831SOL    HW130392   1.225   4.843   3.141
 9831SOL    HW230393   1.287   4.825   2.991
 9832SOL     OW30394   5.074   5.442   2.624
 9832SOL    HW130395   5.077   5.345   2.648
 9832SOL    HW230396   5.057   5.497   2.705
 9833SOL     OW30397   3.725   3.326   4.035
 9833SOL    HW130398   3.630   3.308   4.061
 9833SOL    HW230399   3.746   3.277   3.951
 9834SOL     OW30400   2.102   4.604   5.384
 9834SOL    HW130401   2.153   4.641   5.306
 9834SOL    HW230402   2.118   4.661   5.465
 9835SOL     OW30403   3.855   3.288   4.329
 9835SOL    HW130404   3.780   3.224   4.311
 9835SOL    HW230405   3.821   3.382   4.327
 9836SOL     OW30406   0.485   4.094   3.885
 9836SOL    HW130407   0.550   4.122   3.956
 9836SOL    HW230408   0.432   4.016   3.918
 9837SOL     OW30409   4.338   0.769   2.163
 9837SOL    HW130410   4.334   0.760   2.063
 9837SOL    HW230411   4.247   0.792   2.197
 9838SOL     OW30412   1.732   6.849   0.389
 9838SOL    HW130413   1.717   6.898   0.303
 9838SOL    HW230414   1.704   6.908   0.465
 9839SOL     OW30415   5.117   6.707   3.764
 9839SOL    HW130416   5.131   6.693   3.862
 9839SOL    HW230417   5.194   6.759   3.726
 9840SOL     OW30418   5.547   1.919   0.620
 9840SOL    HW130419   5.491   1.860   0.679
 9840SOL    HW230420   5.644   1.904   0.641
 9841SOL     OW30421   1.109   4.038   4.769
 9841SOL    HW130422   1.148   4.094   4.695
 9841SOL    HW230423   1.064   3.958   4.730
 9842SOL     OW30424   3.372   3.553   1.302
 9842SOL    HW130425   3.278   3.521   1.308
 9842SOL    HW230426   3.409   3.566   1.394
 9843SOL     OW30427   6.658   0.480   2.446
 9843SOL    HW130428   6.577   0.425   2.425
 9843SOL    HW230429   6.729   0.464   2.377
 9844SOL     OW30430   6.195   1.243   3.536
 9844SOL    HW130431   6.216   1.185   3.457
 9844SOL    HW230432   6.184   1.338   3.505
 9845SOL     OW30433   1.588   1.838   4.088
 9845SOL    HW130434   1.642   1.866   4.008
 9845SOL    HW230435   1.633   1.871   4.171
 9846SOL     OW30436   3.752   2.675   1.290
 9846SOL    HW130437   3.730   2.590   1.242
 9846SOL    HW230438   3.679   2.697   1.355
 9847SOL     OW30439   3.926   3.019   2.691
 9847SOL    HW130440   4.024   3.011   2.706
 9847SOL    HW230441   3.879   3.024   2.778
 9848SOL     OW30442   4.298   4.502   5.748
 9848SOL    HW130443   4.234   4.518   5.823
 9848SOL    HW230444   4.359   4.582   5.738
 9849SOL     OW30445   1.078   0.035   6.469
 9849SOL    HW130446   0.979   0.028   6.481
 9849SOL    HW230447   1.118   0.077   6.550
 9850SOL     OW30448   6.853   0.883   3.713
 9850SOL    HW130449   6.916   0.853   3.785
 9850SOL    HW230450   6.762   0.845   3.730
 9851SOL     OW30451   1.651   0.351   4.290
 9851SOL    HW130452   1.740   0.353   4.246
 9851SOL    HW230453   1.591   0.287   4.242
 9852SOL     OW30454   2.427   2.057   4.503
 9852SOL    HW130455   2.441   2.114   4.422
 9852SOL    HW230456   2.330   2.040   4.515
 9853SOL     OW30457   6.046   3.426   5.375
 9853SOL    HW130458   6.122   3.377   5.332
 9853SOL    HW230459   5.991   3.362   5.429
 9854SOL     OW30460   0.743   6.103   4.210
 9854SOL    HW130461   0.692   6.137   4.131
 9854SOL    HW230462   0.687   6.112   4.293
 9855SOL     OW30463   2.237   3.363   1.491
 9855SOL    HW130464   2.315   3.301   1.483
 9855SOL    HW230465   2.172   3.344   1.418
 9856SOL     OW30466   4.919   4.467   3.942
 9856SOL    HW130467   4.844   4.401   3.944
 9856SOL    HW230468   4.969   4.464   4.029
 9857SOL     OW30469   5.052   2.380   2.614
 9857SOL    HW130470   5.020   2.438   2.539
 9857SOL    HW230471   5.120   2.429   2.668
 9858SOL     OW30472   0.371   6.705   1.213
 9858SOL    HW130473   0.288   6.675   1.167
 9858SOL    HW230474   0.355   6.793   1.257
 9859SOL     OW30475   6.796   5.568   3.161
 9859SOL    HW130476   6.727   5.636   3.188
 9859SOL    HW230477   6.795   5.493   3.226
 9860SOL     OW30478   2.261   2.372   4.835
 9860SOL    HW130479   2.355   2.347   4.812
 9860SOL    HW230480   2.210   2.390   4.751
 9861SOL     OW30481   2.992   7.017   3.297
 9861SOL    HW130482   2.971   6.989   3.204
 9861SOL    HW230483   2.983   6.939   3.359
 9862SOL     OW30484   2.583   3.439   6.789
 9862SOL    HW130485   2.503   3.382   6.768
 9862SOL    HW230486   2.614   3.485   6.706
 9863SOL     OW30487   2.731   5.889   1.067
 9863SOL    HW130488   2.668   5.966   1.075
 9863SOL    HW230489   2.816   5.909   1.115
 9864SOL     OW30490   3.379   0.651   4.368
 9864SOL    HW130491   3.284   0.659   4.400
 9864SOL    HW230492   3.380   0.652   4.268
 9865SOL     OW30493   1.274   6.567   4.434
 9865SOL    HW130494   1.331   6.593   4.356
 9865SOL    HW230495   1.323   6.586   4.519
 9866SOL     OW30496   5.979   4.864   6.057
 9866SOL    HW130497   5.890   4.909   6.055
 9866SOL    HW230498   6.039   4.910   6.122
 9867SOL     OW30499   6.887   1.381   1.886
 9867SOL    HW130500   6.822   1.446   1.924
 9867SOL    HW230501   6.867   1.366   1.789
 9868SOL     OW30502   0.005   3.187   4.325
 9868SOL    HW130503   0.034   3.168   4.232
 9868SOL    HW230504   6.971   3.271   4.328
 9869SOL     OW30505   0.110   2.383   1.484
 9869SOL    HW130506   0.152   2.407   1.397
 9869SOL    HW230507   0.140   2.292   1.512
 9870SOL     OW30508   4.237   5.684   2.604
 9870SOL    HW130509   4.166   5.714   2.668
 9870SOL    HW230510   4.206   5.699   2.511
 9871SOL     OW30511   6.503   4.535   5.986
 9871SOL    HW130512   6.532   4.583   5.902
 9871SOL    HW230513   6.581   4.529   6.048
 9872SOL     OW30514   3.402   5.528   4.452
 9872SOL    HW130515   3.350   5.536   4.367
 9872SOL    HW230516   3.409   5.432   4.478
 9873SOL     OW30517   2.092   2.395   0.816
 9873SOL    HW130518   2.037   2.366   0.738
 9873SOL    HW230519   2.183   2.353   0.810
 9874SOL     OW30520   7.017   2.969   5.718
 9874SOL    HW130521   7.009   2.911   5.638
 9874SOL    HW230522   0.069   3.038   5.703
 9875SOL     OW30523   6.156   5.939   2.846
 9875SOL    HW130524   6.246   5.924   2.806
 9875SOL    HW230525   6.167   5.973   2.939
 9876SOL     OW30526   5.556   0.223   4.222
 9876SOL    HW130527   5.642   0.271   4.236
 9876SOL    HW230528   5.567   0.157   4.148
 9877SOL     OW30529   6.951   4.570   4.335
 9877SOL    HW130530   6.974   4.596   4.429
 9877SOL    HW230531   6.985   4.478   4.316
 9878SOL     OW30532   3.052   3.352   5.927
 9878SOL    HW130533   2.996   3.320   6.004
 9878SOL    HW230534   2.994   3.362   5.846
 9879SOL     OW30535   5.539   4.979   5.574
 9879SOL    HW130536   5.535   5.079   5.585
 9879SOL    HW230537   5.476   4.950   5.502
 9880SOL     OW30538   2.635   0.992   0.819
 9880SOL    HW130539   2.659   0.996   0.916
 9880SOL    HW230540   2.664   0.905   0.781
 9881SOL     OW30541   6.993   2.019   4.481
 9881SOL    HW130542   6.923   1.958   4.444
 9881SOL    HW230543   0.036   1.967   4.539
 9882SOL     OW30544   2.873   3.807   5.739
 9882SOL    HW130545   2.803   3.861   5.694
 9882SOL    HW230546   2.964   3.837   5.709
 9883SOL     OW30547   0.930   6.434   1.149
 9883SOL    HW130548   0.873   6.391   1.079
 9883SOL    HW230549   0.976   6.514   1.110
 9884SOL     OW30550   4.411   1.505   0.836
 9884SOL    HW130551   4.439   1.430   0.776
 9884SOL    HW230552   4.312   1.516   0.832
 9885SOL     OW30553   0.537   3.188   4.807
 9885SOL    HW130554   0.530   3.134   4.891
 9885SOL    HW230555   0.496   3.279   4.822
 9886SOL     OW30556   0.793   6.187   1.479
 9886SOL    HW130557   0.881   6.161   1.439
 9886SOL    HW230558   0.721   6.175   1.411
 9887SOL     OW30559   3.737   0.148   6.870
 9887SOL    HW130560   3.748   0.134   6.772
 9887SOL    HW230561   3.723   0.245   6.888
 9888SOL     OW30562   5.855   5.074   3.326
 9888SOL    HW130563   5.823   5.000   3.385
 9888SOL    HW230564   5.908   5.139   3.381
 9889SOL     OW30565   0.395   4.468   1.800
 9889SOL    HW130566   0.307   4.513   1.782
 9889SOL    HW230567   0.390   4.417   1.886
 9890SOL     OW30568   0.384   2.745   0.930
 9890SOL    HW130569   0.454   2.816   0.946
 9890SOL    HW230570   0.414   2.685   0.856
 9891SOL     OW30571   6.130   4.499   1.376
 9891SOL    HW130572   6.087   4.586   1.349
 9891SOL    HW230573   6.059   4.430   1.389
 9892SOL     OW30574   1.649   5.489   3.286
 9892SOL    HW130575   1.672   5.570   3.231
 9892SOL    HW230576   1.712   5.415   3.263
 9893SOL     OW30577   6.285   6.850   2.044
 9893SOL    HW130578   6.229   6.884   1.968
 9893SOL    HW230579   6.370   6.812   2.008
 9894SOL     OW30580   2.784   1.827   6.046
 9894SOL    HW130581   2.817   1.857   5.956
 9894SOL    HW230582   2.860   1.789   6.098
 9895SOL     OW30583   6.037   2.818   5.402
 9895SOL    HW130584   6.027   2.896   5.463
 9895SOL    HW230585   5.968   2.823   5.330
 9896SOL     OW30586   5.036   1.803   0.905
 9896SOL    HW130587   5.079   1.733   0.848
 9896SOL    HW230588   4.940   1.812   0.878
 9897SOL     OW30589   4.646   0.644   3.013
 9897SOL    HW130590   4.578   0.633   3.086
 9897SOL    HW230591   4.648   0.740   2.984
 9898SOL     OW30592   6.850   4.570   5.210
 9898SOL    HW130593   6.792   4.495   5.241
 9898SOL    HW230594   6.799   4.656   5.214
 9899SOL     OW30595   6.747   5.793   2.404
 9899SOL    HW130596   6.652   5.770   2.426
 9899SOL    HW230597   6.759   5.892   2.410
 9900SOL     OW30598   1.490   3.012   2.955
 9900SOL    HW130599   1.430   2.934   2.936
 9900SOL    HW230600   1.574   3.003   2.902
 9901SOL     OW30601   1.851   1.276   6.996
 9901SOL    HW130602   1.898   1.364   6.984
 9901SOL    HW230603   1.756   1.285   6.965
 9902SOL     OW30604   4.278   3.954   1.454
 9902SOL    HW130605   4.281   3.940   1.355
 9902SOL    HW230606   4.230   4.040   1.474
 9903SOL     OW30607   4.838   6.865   2.245
 9903SOL    HW130608   4.759   6.874   2.306
 9903SOL    HW230609   4.810   6.887   2.151
 9904SOL     OW30610   0.471   3.991   6.596
 9904SOL    HW130611   0.382   4.018   6.631
 9904SOL    HW230612   0.462   3.965   6.500
 9905SOL     OW30613   1.432   6.776   6.648
 9905SOL    HW130614   1.378   6.745   6.726
 9905SOL    HW230615   1.372   6.787   6.569
 9906SOL     OW30616   2.238   3.512   6.981
 9906SOL    HW130617   2.241   3.574   6.903
 9906SOL    HW230618   2.307   3.440   6.969
 9907SOL     OW30619   1.575   0.180   3.622
 9907SOL    HW130620   1.493   0.167   3.565
 9907SOL    HW230621   1.655   0.189   3.563
 9908SOL     OW30622   0.571   3.564   5.716
 9908SOL    HW130623   0.474   3.546   5.699
 9908SOL    HW230624   0.626   3.494   5.671
 9909SOL     OW30625   3.402   0.422   2.965
 9909SOL    HW130626   3.482   0.420   2.906
 9909SOL    HW230627   3.405   0.345   3.029
 9910SOL     OW30628   1.428   5.066   1.792
 9910SOL    HW130629   1.480   5.149   1.808
 9910SOL    HW230630   1.388   5.035   1.878
 9911SOL     OW30631   4.280   6.044   2.408
 9911SOL    HW130632   4.242   6.133   2.434
 9911SOL    HW230633   4.226   5.971   2.449
 9912SOL     OW30634   4.232   0.796   1.187
 9912SOL    HW130635   4.266   0.877   1.139
 9912SOL    HW230636   4.132   0.799   1.192
 9913SOL     OW30637   6.229   4.041   1.516
 9913SOL    HW130638   6.292   4.060   1.441
 9913SOL    HW230639   6.201   3.945   1.511
 9914SOL     OW30640   0.916   0.684   5.458
 9914SOL    HW130641   1.012   0.663   5.443
 9914SOL    HW230642   0.904   0.722   5.549
 9915SOL     OW30643   4.914   2.769   4.013
 9915SOL    HW130644   4.946   2.856   3.975
 9915SOL    HW230645   4.957   2.694   3.963
 9916SOL     OW30646   1.944   2.214   3.288
 9916SOL    HW130647   1.930   2.123   3.327
 9916SOL    HW230648   2.037   2.245   3.310
 9917SOL     OW30649   3.399   3.853   4.703
 9917SOL    HW130650   3.450   3.783   4.754
 9917SOL    HW230651   3.439   3.942   4.721
 9918SOL     OW30652   0.676   2.213   1.691
 9918SOL    HW130653   0.704   2.280   1.623
 9918SOL    HW230654   0.755   2.186   1.746
 9919SOL     OW30655   2.489   5.482   1.094
 9919SOL    HW130656   2.571   5.526   1.131
 9919SOL    HW230657   2.451   5.539   1.021
 9920SOL     OW30658   3.611   6.889   2.348
 9920SOL    HW130659   3.517   6.865   2.326
 9920SOL    HW230660   3.642   6.837   2.428
 9921SOL     OW30661   4.612   6.614   4.619
 9921SOL    HW130662   4.537   6.619   4.553
 9921SOL    HW230663   4.583   6.653   4.706
 9922SOL     OW30664   4.671   4.740   0.939
 9922SOL    HW130665   4.638   4.657   0.983
 9922SOL    HW230666   4.594   4.789   0.897
 9923SOL     OW30667   6.948   3.220   6.807
 9923SOL    HW130668   7.011   3.143   6.815
 9923SOL    HW230669   6.868   3.192   6.754
 9924SOL     OW30670   4.740   1.936   3.457
 9924SOL    HW130671   4.730   1.965   3.552
 9924SOL    HW230672   4.819   1.875   3.448
 9925SOL     OW30673   1.606   4.451   3.874
 9925SOL    HW130674   1.594   4.366   3.824
 9925SOL    HW230675   1.563   4.526   3.824
 9926SOL     OW30676   3.387   2.608   0.599
 9926SOL    HW130677   3.446   2.623   0.520
 9926SOL    HW230678   3.296   2.646   0.580
 9927SOL     OW30679   0.884   1.919   0.492
 9927SOL    HW130680   0.945   1.897   0.567
 9927SOL    HW230681   0.850   2.012   0.501
 9928SOL     OW30682   5.224   3.665   2.545
 9928SOL    HW130683   5.137   3.711   2.522
 9928SOL    HW230684   5.226   3.646   2.643
 9929SOL     OW30685   3.652   4.217   5.025
 9929SOL    HW130686   3.613   4.125   5.037
 9929SOL    HW230687   3.657   4.239   4.928
 9930SOL     OW30688   0.719   0.359   6.031
 9930SOL    HW130689   0.625   0.393   6.036
 9930SOL    HW230690   0.735   0.320   5.940
 9931SOL     OW30691   6.681   5.511   4.550
 9931SOL    HW130692   6.682   5.427   4.495
 9931SOL    HW230693   6.757   5.570   4.522
 9932SOL     OW30694   1.675   1.718   6.609
 9932SOL    HW130695   1.668   1.643   6.674
 9932SOL    HW230696   1.697   1.682   6.518
 9933SOL     OW30697   1.572   1.163   4.317
 9933SOL    HW130698   1.610   1.169   4.224
 9933SOL    HW230699   1.483   1.209   4.320
 9934SOL     OW30700   6.307   1.591   6.842
 9934SOL    HW130701   6.391   1.627   6.803
 9934SOL    HW230702   6.327   1.540   6.926
 9935SOL     OW30703   2.243   0.613   0.297
 9935SOL    HW130704   2.329   0.642   0.256
 9935SOL    HW230705   2.184   0.573   0.227
 9936SOL     OW30706   6.697   5.468   6.729
 9936SOL    HW130707   6.752   5.513   6.799
 9936SOL    HW230708   6.643   5.536   6.680
 9937SOL     OW30709   1.686   0.949   3.462
 9937SOL    HW130710   1.724   1.021   3.405
 9937SOL    HW230711   1.724   0.956   3.554
 9938SOL     OW30712   5.983   0.247   3.892
 9938SOL    HW130713   6.032   0.210   3.971
 9938SOL    HW230714   5.982   0.179   3.819
 9939SOL     OW30715   2.563   2.560   0.882
 9939SOL    HW130716   2.486   2.620   0.861
 9939SOL    HW230717   2.537   2.497   0.955
 9940SOL     OW30718   0.911   0.205   3.619
 9940SOL    HW130719   0.961   0.286   3.586
 9940SOL    HW230720   0.959   0.122   3.590
 9941SOL     OW30721   2.999   5.497   5.338
 9941SOL    HW130722   3.056   5.444   5.400
 9941SOL    HW230723   2.912   5.519   5.383
 9942SOL     OW30724   4.851   5.704   1.453
 9942SOL    HW130725   4.815   5.764   1.524
 9942SOL    HW230726   4.788   5.702   1.376
 9943SOL     OW30727   1.079   4.011   6.501
 9943SOL    HW130728   1.072   4.057   6.413
 9943SOL    HW230729   1.064   3.913   6.489
 9944SOL     OW30730   0.583   5.255   6.571
 9944SOL    HW130731   0.561   5.322   6.500
 9944SOL    HW230732   0.616   5.302   6.653
 9945SOL     OW30733   5.361   4.120   6.753
 9945SOL    HW130734   5.352   4.219   6.761
 9945SOL    HW230735   5.424   4.097   6.680
 9946SOL     OW30736   6.052   0.390   3.009
 9946SOL    HW130737   6.029   0.488   3.006
 9946SOL    HW230738   6.023   0.352   3.097
 9947SOL     OW30739   2.474   1.585   4.424
 9947SOL    HW130740   2.550   1.642   4.392
 9947SOL    HW230741   2.391   1.640   4.430
 9948SOL     OW30742   6.968   5.686   5.337
 9948SOL    HW130743   6.885   5.698   5.391
 9948SOL    HW230744   0.023   5.656   5.396
 9949SOL     OW30745   6.764   5.075   4.109
 9949SOL    HW130746   6.786   4.993   4.161
 9949SOL    HW230747   6.668   5.075   4.083
 9950SOL     OW30748   6.915   6.003   5.749
 9950SOL    HW130749   6.900   5.943   5.828
 9950SOL    HW230750   6.837   5.996   5.687
 9951SOL     OW30751   1.889   2.375   2.703
 9951SOL    HW130752   1.939   2.316   2.639
 9951SOL    HW230753   1.794   2.344   2.709
 9952SOL     OW30754   1.518   3.659   0.712
 9952SOL    HW130755   1.418   3.654   0.712
 9952SOL    HW230756   1.547   3.754   0.721
 9953SOL     OW30757   5.374   3.205   3.797
 9953SOL    HW130758   5.317   3.132   3.834
 9953SOL    HW230759   5.319   3.263   3.736
 9954SOL     OW30760   1.629   6.900   4.930
 9954SOL    HW130761   1.594   6.935   4.843
 9954SOL    HW230762   1.727   6.918   4.936
 9955SOL     OW30763   3.896   3.897   6.777
 9955SOL    HW130764   3.885   3.803   6.742
 9955SOL    HW230765   3.885   3.961   6.701
 9956SOL     OW30766   0.587   3.382   2.277
 9956SOL    HW130767   0.614   3.468   2.321
 9956SOL    HW230768   0.534   3.326   2.341
 9957SOL     OW30769   5.857   0.029   2.153
 9957SOL    HW130770   5.922   0.102   2.129
 9957SOL    HW230771   5.770   0.070   2.180
 9958SOL     OW30772   3.146   6.108   5.980
 9958SOL    HW130773   3.145   6.043   6.056
 9958SOL    HW230774   3.222   6.087   5.919
 9959SOL     OW30775   4.151   3.483   2.354
 9959SOL    HW130776   4.248   3.503   2.365
 9959SOL    HW230777   4.136   3.439   2.266
 9960SOL     OW30778   0.649   6.411   1.210
 9960SOL    HW130779   0.746   6.419   1.234
 9960SOL    HW230780   0.606   6.341   1.268
 9961SOL     OW30781   1.971   4.211   3.191
 9961SOL    HW130782   1.898   4.259   3.143
 9961SOL    HW230783   2.051   4.270   3.197
 9962SOL     OW30784   4.094   0.541   2.065
 9962SOL    HW130785   4.026   0.612   2.080
 9962SOL    HW230786   4.169   0.577   2.009
 9963SOL     OW30787   2.769   3.067   6.004
 9963SOL    HW130788   2.720   3.138   6.055
 9963SOL    HW230789   2.704   3.005   5.961
 9964SOL     OW30790   4.282   5.038   5.731
 9964SOL    HW130791   4.375   5.073   5.745
 9964SOL    HW230792   4.280   4.981   5.649
 9965SOL     OW30793   3.553   4.959   5.155
 9965SOL    HW130794   3.502   4.987   5.074
 9965SOL    HW230795   3.513   5.001   5.236
 9966SOL     OW30796   2.132   4.640   1.608
 9966SOL    HW130797   2.073   4.664   1.531
 9966SOL    HW230798   2.152   4.723   1.661
 9967SOL     OW30799   6.006   5.174   2.487
 9967SOL    HW130800   5.961   5.104   2.543
 9967SOL    HW230801   6.005   5.146   2.391
 9968SOL     OW30802   3.693   6.158   6.211
 9968SOL    HW130803   3.792   6.143   6.203
 9968SOL    HW230804   3.645   6.074   6.187
 9969SOL     OW30805   1.289   3.274   3.723
 9969SOL    HW130806   1.255   3.252   3.815
 9969SOL    HW230807   1.319   3.190   3.678
 9970SOL     OW30808   6.999   4.961   2.414
 9970SOL    HW130809   6.915   4.953   2.361
 9970SOL    HW230810   0.002   4.872   2.454
 9971SOL     OW30811   2.481   3.843   0.602
 9971SOL    HW130812   2.394   3.808   0.567
 9971SOL    HW230813   2.463   3.909   0.676
 9972SOL     OW30814   3.220   4.695   0.811
 9972SOL    HW130815   3.198   4.628   0.740
 9972SOL    HW230816   3.319   4.692   0.830
 9973SOL     OW30817   4.081   1.863   4.672
 9973SOL    HW130818   4.039   1.773   4.676
 9973SOL    HW230819   4.052   1.917   4.752
 9974SOL     OW30820   6.719   3.240   3.068
 9974SOL    HW130821   6.740   3.200   3.157
 9974SOL    HW230822   6.620   3.249   3.057
 9975SOL     OW30823   0.230   4.793   6.913
 9975SOL    HW130824   0.164   4.726   6.877
 9975SOL    HW230825   0.320   4.776   6.872
 9976SOL     OW30826   6.962   4.982   5.190
 9976SOL    HW130827   0.021   4.977   5.251
 9976SOL    HW230828   6.979   5.051   5.120
 9977SOL     OW30829   6.650   5.178   6.057
 9977SOL    HW130830   6.557   5.203   6.082
 9977SOL    HW230831   6.704   5.163   6.140
 9978SOL     OW30832   6.075   1.676   5.024
 9978SOL    HW130833   6.030   1.613   5.088
 9978SOL    HW230834   6.111   1.624   4.946
 9979SOL     OW30835   6.453   4.256   5.984
 9979SOL    HW130836   6.463   4.355   5.971
 9979SOL    HW230837   6.383   4.237   6.053
 9980SOL     OW30838   1.666   0.978   0.363
 9980SOL    HW130839   1.571   0.946   0.358
 9980SOL    HW230840   1.707   0.973   0.272
 9981SOL     OW30841   2.555   1.589   0.109
 9981SOL    HW130842   2.629   1.648   0.141
 9981SOL    HW230843   2.550   1.594   0.009
 9982SOL     OW30844   0.508   1.951   3.989
 9982SOL    HW130845   0.604   1.940   4.016
 9982SOL    HW230846   0.502   1.949   3.889
 9983SOL     OW30847   1.218   0.941   1.588
 9983SOL    HW130848   1.219   0.868   1.520
 9983SOL    HW230849   1.265   0.911   1.671
 9984SOL     OW30850   0.480   0.282   0.185
 9984SOL    HW130851   0.428   0.263   0.269
 9984SOL    HW230852   0.527   0.198   0.157
 9985SOL     OW30853   3.565   0.108   1.407
 9985SOL    HW130854   3.507   0.032   1.379
 9985SOL    HW230855   3.653   0.101   1.361
 9986SOL     OW30856   5.189   4.373   6.890
 9986SOL    HW130857   5.096   4.343   6.873
 9986SOL    HW230858   5.208   4.455   6.836
 9987SOL     OW30859   5.893   1.679   2.184
 9987SOL    HW130860   5.914   1.765   2.138
 9987SOL    HW230861   5.891   1.605   2.116
 9988SOL     OW30862   6.900   4.944   4.398
 9988SOL    HW130863   6.899   5.043   4.389
 9988SOL    HW230864   6.989   4.913   4.430
 9989SOL     OW30865   5.473   3.577   3.305
 9989SOL    HW130866   5.530   3.558   3.384
 9989SOL    HW230867   5.473   3.499   3.243
 9990SOL     OW30868   2.512   0.263   3.483
 9990SOL    HW130869   2.546   0.171   3.465
 9990SOL    HW230870   2.589   0.327   3.484
 9991SOL     OW30871   1.313   3.124   4.896
 9991SOL    HW130872   1.404   3.165   4.902
 9991SOL    HW230873   1.264   3.164   4.818
 9992SOL     OW30874   3.504   3.346   0.867
 9992SOL    HW130875   3.520   3.371   0.962
 9992SOL    HW230876   3.454   3.260   0.862
 9993SOL     OW30877   3.840   6.342   3.090
 9993SOL    HW130878   3.784   6.392   3.156
 9993SOL    HW230879   3.808   6.364   2.997
 9994SOL     OW30880   0.136   3.917   3.292
 9994SOL    HW130881   0.179   3.828   3.277
 9994SOL    HW230882   0.045   3.904   3.332
 9995SOL     OW30883   3.183   0.050   3.569
 9995SOL    HW130884   3.277   0.083   3.582
 9995SOL    HW230885   3.144   0.092   3.488
 9996SOL     OW30886   2.982   2.889   1.240
 9996SOL    HW130887   2.906   2.915   1.300
 9996SOL    HW230888   3.068   2.911   1.285
 9997SOL     OW30889   4.960   1.181   0.961
 9997SOL    HW130890   5.016   1.189   0.878
 9997SOL    HW230891   4.884   1.119   0.943
 9998SOL     OW30892   5.348   3.915   2.457
 9998SOL    HW130893   5.288   3.939   2.381
 9998SOL    HW230894   5.318   3.829   2.498
 9999SOL     OW30895   6.692   5.750   5.434
 9999SOL    HW130896   6.615   5.759   5.372
 9999SOL    HW230897   6.727   5.841   5.457
10000SOL     OW30898   6.055   2.229   6.602
10000SOL    HW130899   6.018   2.145   6.641
10000SOL    HW230900   6.057   2.300   6.672
10001SOL     OW30901   4.092   0.321   1.474
10001SOL    HW130902   4.053   0.412   1.458
10001SOL    HW230903   4.192   0.328   1.478
10002SOL     OW30904   1.308   1.348   1.803
10002SOL    HW130905   1.324   1.258   1.843
10002SOL    HW230906   1.273   1.410   1.874
10003SOL     OW30907   3.060   2.120   2.445
10003SOL    HW130908   3.102   2.112   2.355
10003SOL    HW230909   3.131   2.129   2.515
10004SOL     OW30910   5.291   3.119   4.885
10004SOL    HW130911   5.191   3.121   4.888
10004SOL    HW230912   5.322   3.029   4.852
10005SOL     OW30913   3.747   5.380   2.937
10005SOL    HW130914   3.721   5.450   3.003
10005SOL    HW230915   3.836   5.342   2.961
10006SOL     OW30916   5.411   1.723   5.274
10006SOL    HW130917   5.385   1.716   5.371
10006SOL    HW230918   5.368   1.804   5.234
10007SOL     OW30919   0.778   3.285   4.702
10007SOL    HW130920   0.804   3.246   4.614
10007SOL    HW230921   0.698   3.237   4.738
10008SOL     OW30922   4.028   1.593   2.875
10008SOL    HW130923   4.021   1.605   2.776
10008SOL    HW230924   3.938   1.568   2.912
10009SOL     OW30925   2.008   3.908   1.657
10009SOL    HW130926   1.931   3.850   1.683
10009SOL    HW230927   2.039   3.961   1.736
10010SOL     OW30928   1.987   6.248   0.249
10010SOL    HW130929   1.951   6.160   0.282
10010SOL    HW230930   1.919   6.292   0.191
10011SOL     OW30931   0.584   3.591   6.508
10011SOL    HW130932   0.515   3.587   6.436
10011SOL    HW230933   0.565   3.670   6.567
10012SOL     OW30934   5.087   6.764   2.334
10012SOL    HW130935   4.991   6.776   2.308
10012SOL    HW230936   5.137   6.722   2.258
10013SOL     OW30937   1.986   1.842   4.431
10013SOL    HW130938   2.021   1.932   4.457
10013SOL    HW230939   1.937   1.802   4.508
10014SOL     OW30940   0.280   1.770   1.373
10014SOL    HW130941   0.191   1.775   1.327
10014SOL    HW230942   0.333   1.852   1.353
10015SOL     OW30943   4.262   4.805   0.305
10015SOL    HW130944   4.320   4.831   0.228
10015SOL    HW230945   4.248   4.885   0.364
10016SOL     OW30946   2.154   0.106   4.812
10016SOL    HW130947   2.072   0.077   4.763
10016SOL    HW230948   2.235   0.080   4.759
10017SOL     OW30949   1.873   1.401   2.471
10017SOL    HW130950   1.853   1.394   2.373
10017SOL    HW230951   1.969   1.379   2.487
10018SOL     OW30952   6.523   4.814   6.169
10018SOL    HW130953   6.590   4.847   6.102
10018SOL    HW230954   6.431   4.841   6.141
10019SOL     OW30955   0.462   1.912   3.165
10019SOL    HW130956   0.512   1.826   3.152
10019SOL    HW230957   0.417   1.911   3.253
10020SOL     OW30958   0.547   1.075   0.968
10020SOL    HW130959   0.494   1.157   0.943
10020SOL    HW230960   0.484   0.999   0.984
10021SOL     OW30961   1.058   2.096   2.644
10021SOL    HW130962   1.154   2.078   2.665
10021SOL    HW230963   1.018   2.017   2.598
10022SOL     OW30964   3.918   6.838   0.882
10022SOL    HW130965   3.929   6.814   0.978
10022SOL    HW230966   3.973   6.775   0.826
10023SOL     OW30967   2.061   4.900   5.485
10023SOL    HW130968   2.114   4.853   5.556
10023SOL    HW230969   2.122   4.928   5.411
10024SOL     OW30970   1.685   6.333   1.729
10024SOL    HW130971   1.657   6.259   1.668
10024SOL    HW230972   1.615   6.347   1.799
10025SOL     OW30973   2.210   2.044   1.652
10025SOL    HW130974   2.192   2.011   1.560
10025SOL    HW230975   2.301   2.014   1.681
10026SOL     OW30976   4.055   6.206   3.291
10026SOL    HW130977   3.980   6.241   3.235
10026SOL    HW230978   4.141   6.211   3.240
10027SOL     OW30979   1.220   3.883   5.100
10027SOL    HW130980   1.150   3.916   5.037
10027SOL    HW230981   1.303   3.937   5.089
10028SOL     OW30982   1.198   1.451   2.041
10028SOL    HW130983   1.205   1.456   2.141
10028SOL    HW230984   1.105   1.472   2.012
10029SOL     OW30985   2.571   1.682   4.067
10029SOL    HW130986   2.592   1.721   4.156
10029SOL    HW230987   2.509   1.604   4.079
10030SOL     OW30988   2.236   0.195   4.332
10030SOL    HW130989   2.199   0.194   4.239
10030SOL    HW230990   2.171   0.240   4.393
10031SOL     OW30991   5.869   4.722   3.887
10031SOL    HW130992   5.878   4.673   3.974
10031SOL    HW230993   5.834   4.814   3.903
10032SOL     OW30994   3.892   0.455   5.429
10032SOL    HW130995   3.942   0.524   5.377
10032SOL    HW230996   3.798   0.449   5.395
10033SOL     OW30997   4.230   1.451   4.256
10033SOL    HW130998   4.169   1.526   4.229
10033SOL    HW230999   4.241   1.388   4.180
10034SOL     OW31000   3.836   0.267   4.284
10034SOL    HW131001   3.738   0.248   4.274
10034SOL    HW231002   3.855   0.359   4.250
10035SOL     OW31003   0.018   4.583   2.761
10035SOL    HW131004   0.102   4.601   2.709
10035SOL    HW231005   7.005   4.668   2.801
10036SOL     OW31006   6.012   0.347   1.088
10036SOL    HW131007   6.063   0.331   1.173
10036SOL    HW231008   5.998   0.259   1.041
10037SOL     OW31009   5.747   1.770   1.173
10037SOL    HW131010   5.682   1.695   1.181
10037SOL    HW231011   5.763   1.809   1.264
10038SOL     OW31012   4.596   1.199   6.499
10038SOL    HW131013   4.530   1.189   6.424
10038SOL    HW231014   4.573   1.278   6.554
10039SOL     OW31015   4.069   7.008   5.175
10039SOL    HW131016   4.128   0.033   5.243
10039SOL    HW231017   4.016   6.935   5.219
10040SOL     OW31018   4.404   5.787   6.278
10040SOL    HW131019   4.498   5.767   6.249
10040SOL    HW231020   4.388   5.886   6.277
10041SOL     OW31021   4.136   6.029   6.383
10041SOL    HW131022   4.194   6.008   6.304
10041SOL    HW231023   4.124   5.947   6.439
10042SOL     OW31024   1.174   2.025   4.745
10042SOL    HW131025   1.215   1.936   4.763
10042SOL    HW231026   1.198   2.056   4.654
10043SOL     OW31027   0.199   2.631   4.401
10043SOL    HW131028   0.129   2.648   4.332
10043SOL    HW231029   0.205   2.533   4.419
10044SOL     OW31030   2.666   1.453   4.965
10044SOL    HW131031   2.621   1.483   4.881
10044SOL    HW231032   2.765   1.470   4.958
10045SOL     OW31033   5.166   0.042   3.484
10045SOL    HW131034   5.240   7.007   3.446
10045SOL    HW231035   5.087   7.002   3.502
10046SOL     OW31036   1.854   3.630   1.478
10046SOL    HW131037   1.827   3.679   1.561
10046SOL    HW231038   1.948   3.654   1.453
10047SOL     OW31039   6.547   3.944   5.154
10047SOL    HW131040   6.450   3.935   5.135
10047SOL    HW231041   6.568   3.909   5.245
10048SOL     OW31042   6.024   1.194   2.935
10048SOL    HW131043   5.967   1.240   2.867
10048SOL    HW231044   6.119   1.222   2.923
10049SOL     OW31045   7.009   0.542   6.909
10049SOL    HW131046   0.074   0.488   6.918
10049SOL    HW231047   7.015   0.623   6.967
10050SOL     OW31048   5.703   3.410   4.915
10050SOL    HW131049   5.610   3.376   4.907
10050SOL    HW231050   5.757   3.347   4.971
10051SOL     OW31051   5.173   2.479   4.992
10051SOL    HW131052   5.254   2.537   4.992
10051SOL    HW231053   5.091   2.536   4.986
10052SOL     OW31054   2.274   1.729   2.628
10052SOL    HW131055   2.353   1.789   2.617
10052SOL    HW231056   2.208   1.749   2.555
10053SOL     OW31057   3.148   5.794   2.574
10053SOL    HW131058   3.187   5.718   2.626
10053SOL    HW231059   3.106   5.758   2.490
10054SOL     OW31060   5.149   5.754   6.448
10054SOL    HW131061   5.207   5.819   6.400
10054SOL    HW231062   5.158   5.664   6.406
10055SOL     OW31063   5.748   2.370   4.744
10055SOL    HW131064   5.656   2.351   4.709
10055SOL    HW231065   5.816   2.331   4.681
10056SOL     OW31066   5.387   4.227   3.280
10056SOL    HW131067   5.291   4.203   3.264
10056SOL    HW231068   5.395   4.326   3.293
10057SOL     OW31069   4.224   1.709   4.920
10057SOL    HW131070   4.256   1.704   4.825
10057SOL    HW231071   4.267   1.786   4.966
10058SOL     OW31072   0.322   3.654   4.353
10058SOL    HW131073   0.286   3.567   4.317
10058SOL    HW231074   0.378   3.698   4.283
10059SOL     OW31075   6.232   0.531   1.736
10059SOL    HW131076   6.134   0.544   1.718
10059SOL    HW231077   6.244   0.462   1.807
10060SOL     OW31078   1.444   2.288   1.576
10060SOL    HW131079   1.472   2.196   1.602
10060SOL    HW231080   1.365   2.316   1.631
10061SOL     OW31081   4.360   1.377   3.693
10061SOL    HW131082   4.393   1.458   3.741
10061SOL    HW231083   4.295   1.403   3.622
10062SOL     OW31084   5.963   6.991   4.669
10062SOL    HW131085   5.891   0.029   4.630
10062SOL    HW231086   6.028   6.966   4.598
10063SOL     OW31087   2.548   1.078   3.935
10063SOL    HW131088   2.486   1.079   3.857
10063SOL    HW231089   2.613   1.153   3.927
10064SOL     OW31090   5.006   0.002   0.057
10064SOL    HW131091   5.077   6.958   0.086
10064SOL    HW231092   4.980   7.001   6.982
10065SOL     OW31093   2.464   0.695   2.137
10065SOL    HW131094   2.410   0.778   2.148
10065SOL    HW231095   2.547   0.716   2.086
10066SOL     OW31096   0.510   2.598   4.052
10066SOL    HW131097   0.424   2.548   4.045
10066SOL    HW231098   0.580   2.538   4.090
10067SOL     OW31099   6.877   4.091   5.329
10067SOL    HW131100   6.786   4.115   5.363
10067SOL    HW231101   6.870   4.065   5.232
10068SOL     OW31102   0.298   2.980   3.154
10068SOL    HW131103   0.386   2.984   3.108
10068SOL    HW231104   0.268   3.073   3.176
10069SOL     OW31105   2.341   4.879   2.301
10069SOL    HW131106   2.318   4.896   2.205
10069SOL    HW231107   2.317   4.786   2.325
10070SOL     OW31108   6.781   6.222   4.903
10070SOL    HW131109   6.820   6.135   4.875
10070SOL    HW231110   6.724   6.258   4.829
10071SOL     OW31111   6.077   6.026   4.606
10071SOL    HW131112   6.106   6.102   4.665
10071SOL    HW231113   5.989   6.048   4.564
10072SOL     OW31114   6.798   6.718   3.939
10072SOL    HW131115   6.883   6.673   3.913
10072SOL    HW231116   6.810   6.763   4.028
10073SOL     OW31117   5.956   4.629   5.134
10073SOL    HW131118   5.924   4.642   5.040
10073SOL    HW231119   5.890   4.573   5.184
10074SOL     OW31120   1.976   0.686   5.415
10074SOL    HW131121   1.996   0.633   5.333
10074SOL    HW231122   2.060   0.705   5.465
10075SOL     OW31123   1.922   2.852   2.724
10075SOL    HW131124   1.997   2.918   2.720
10075SOL    HW231125   1.950   2.768   2.677
10076SOL     OW31126   6.276   0.516   4.402
10076SOL    HW131127   6.318   0.599   4.366
10076SOL    HW231128   6.333   0.479   4.476
10077SOL     OW31129   4.044   2.607   6.242
10077SOL    HW131130   4.096   2.686   6.210
10077SOL    HW231131   4.086   2.571   6.325
10078SOL     OW31132   0.530   5.770   3.873
10078SOL    HW131133   0.486   5.776   3.784
10078SOL    HW231134   0.537   5.674   3.900
10079SOL     OW31135   5.659   3.185   3.758
10079SOL    HW131136   5.706   3.273   3.768
10079SOL    HW231137   5.562   3.196   3.778
10080SOL     OW31138   4.430   0.590   5.692
10080SOL    HW131139   4.525   0.578   5.666
10080SOL    HW231140   4.389   0.501   5.710
10081SOL     OW31141   6.781   0.787   0.638
10081SOL    HW131142   6.715   0.775   0.564
10081SOL    HW231143   6.752   0.864   0.696
10082SOL     OW31144   0.519   5.046   1.654
10082SOL    HW131145   0.567   5.131   1.633
10082SOL    HW231146   0.547   5.013   1.744
10083SOL     OW31147   3.599   0.623   3.553
10083SOL    HW131148   3.687   0.610   3.506
10083SOL    HW231149   3.537   0.548   3.528
10084SOL     OW31150   2.279   1.038   5.595
10084SOL    HW131151   2.324   1.023   5.684
10084SOL    HW231152   2.349   1.057   5.526
10085SOL     OW31153   2.219   5.557   0.782
10085SOL    HW131154   2.243   5.460   0.781
10085SOL    HW231155   2.300   5.612   0.804
10086SOL     OW31156   4.814   5.842   2.536
10086SOL    HW131157   4.728   5.885   2.510
10086SOL    HW231158   4.822   5.840   2.635
10087SOL     OW31159   6.751   6.924   4.435
10087SOL    HW131160   6.820   6.961   4.498
10087SOL    HW231161   6.697   6.855   4.483
10088SOL     OW31162   6.460   0.312   2.314
10088SOL    HW131163   6.408   0.236   2.275
10088SOL    HW231164   6.511   0.358   2.241
10089SOL     OW31165   2.845   1.646   2.895
10089SOL    HW131166   2.942   1.667   2.903
10089SOL    HW231167   2.802   1.652   2.985
10090SOL     OW31168   0.935   4.900   1.880
10090SOL    HW131169   0.999   4.942   1.943
10090SOL    HW231170   0.950   4.801   1.878
10091SOL     OW31171   6.821   4.688   6.777
10091SOL    HW131172   6.783   4.653   6.691
10091SOL    HW231173   6.764   4.762   6.811
10092SOL     OW31174   2.220   2.575   5.580
10092SOL    HW131175   2.215   2.673   5.559
10092SOL    HW231176   2.128   2.539   5.593
10093SOL     OW31177   5.872   3.287   5.561
10093SOL    HW131178   5.819   3.255   5.483
10093SOL    HW231179   5.820   3.355   5.612
10094SOL     OW31180   3.422   5.546   1.412
10094SOL    HW131181   3.340   5.494   1.432
10094SOL    HW231182   3.401   5.644   1.415
10095SOL     OW31183   5.884   2.089   5.099
10095SOL    HW131184   5.818   2.139   5.042
10095SOL    HW231185   5.915   2.149   5.174
10096SOL     OW31186   4.425   5.361   2.846
10096SOL    HW131187   4.472   5.277   2.817
10096SOL    HW231188   4.343   5.374   2.791
10097SOL     OW31189   0.938   1.530   0.192
10097SOL    HW131190   0.947   1.584   0.276
10097SOL    HW231191   0.879   1.578   0.127
10098SOL     OW31192   2.966   0.183   5.026
10098SOL    HW131193   2.981   0.266   5.080
10098SOL    HW231194   3.054   0.138   5.009
10099SOL     OW31195   0.513   5.024   1.132
10099SOL    HW131196   0.539   5.022   1.229
10099SOL    HW231197   0.577   4.969   1.079
10100SOL     OW31198   4.546   6.292   5.138
10100SOL    HW131199   4.527   6.210   5.191
10100SOL    HW231200   4.609   6.351   5.189
10101SOL     OW31201   5.986   3.575   2.180
10101SOL    HW131202   6.003   3.539   2.088
10101SOL    HW231203   6.012   3.671   2.183
10102SOL     OW31204   0.084   1.322   2.051
10102SOL    HW131205   0.021   1.342   1.977
10102SOL    HW231206   0.048   1.358   2.137
10103SOL     OW31207   3.482   0.589   5.997
10103SOL    HW131208   3.568   0.627   5.964
10103SOL    HW231209   3.465   0.501   5.953
10104SOL     OW31210   1.767   1.753   4.825
10104SOL    HW131211   1.704   1.808   4.880
10104SOL    HW231212   1.730   1.742   4.733
10105SOL     OW31213   1.529   0.885   6.624
10105SOL    HW131214   1.619   0.843   6.635
10105SOL    HW231215   1.473   0.865   6.703
10106SOL     OW31216   3.894   6.176   0.438
10106SOL    HW131217   3.993   6.166   0.434
10106SOL    HW231218   3.850   6.087   0.429
10107SOL     OW31219   5.915   1.659   5.591
10107SOL    HW131220   5.948   1.650   5.497
10107SOL    HW231221   5.843   1.591   5.607
10108SOL     OW31222   6.588   0.786   0.420
10108SOL    HW131223   6.582   0.827   0.330
10108SOL    HW231224   6.633   0.697   0.414
10109SOL     OW31225   5.749   1.118   0.506
10109SOL    HW131226   5.741   1.218   0.505
10109SOL    HW231227   5.840   1.092   0.473
10110SOL     OW31228   4.379   4.626   4.657
10110SOL    HW131229   4.422   4.543   4.621
10110SOL    HW231230   4.280   4.611   4.667
10111SOL     OW31231   5.881   3.627   3.981
10111SOL    HW131232   5.796   3.679   3.992
10111SOL    HW231233   5.957   3.691   3.968
10112SOL     OW31234   5.854   3.793   3.701
10112SOL    HW131235   5.772   3.780   3.756
10112SOL    HW231236   5.831   3.843   3.617
10113SOL     OW31237   4.509   6.973   6.735
10113SOL    HW131238   4.557   0.021   6.679
10113SOL    HW231239   4.454   6.914   6.675
10114SOL     OW31240   4.379   2.379   1.465
10114SOL    HW131241   4.406   2.476   1.462
10114SOL    HW231242   4.336   2.354   1.378
10115SOL     OW31243   3.910   0.501   5.013
10115SOL    HW131244   3.936   0.477   5.107
10115SOL    HW231245   3.991   0.494   4.954
10116SOL     OW31246   0.531   6.942   0.362
10116SOL    HW131247   0.577   0.012   0.356
10116SOL    HW231248   0.437   6.955   0.392
10117SOL     OW31249   7.006   6.366   6.333
10117SOL    HW131250   0.070   6.420   6.329
10117SOL    HW231251   6.968   6.356   6.241
10118SOL     OW31252   2.203   4.073   2.835
10118SOL    HW131253   2.167   4.027   2.916
10118SOL    HW231254   2.188   4.016   2.754
10119SOL     OW31255   6.975   5.565   4.839
10119SOL    HW131256   6.965   5.635   4.768
10119SOL    HW231257   6.951   5.604   4.928
10120SOL     OW31258   2.220   3.106   4.470
10120SOL    HW131259   2.130   3.096   4.513
10120SOL    HW231260   2.214   3.172   4.396
10121SOL     OW31261   5.686   4.004   6.826
10121SOL    HW131262   5.650   3.987   6.734
10121SOL    HW231263   5.621   3.970   6.894
10122SOL     OW31264   5.380   3.213   2.613
10122SOL    HW131265   5.448   3.140   2.624
10122SOL    HW231266   5.292   3.173   2.586
10123SOL     OW31267   5.618   5.601   0.855
10123SOL    HW131268   5.653   5.518   0.896
10123SOL    HW231269   5.608   5.588   0.756
10124SOL     OW31270   1.460   4.547   0.754
10124SOL    HW131271   1.369   4.554   0.714
10124SOL    HW231272   1.495   4.638   0.774
10125SOL     OW31273   1.513   1.475   2.007
10125SOL    HW131274   1.477   1.566   2.031
10125SOL    HW231275   1.442   1.423   1.961
10126SOL     OW31276   6.738   0.228   0.231
10126SOL    HW131277   6.815   0.236   0.293
10126SOL    HW231278   6.653   0.220   0.284
10127SOL     OW31279   2.595   3.635   0.070
10127SOL    HW131280   2.631   3.549   0.034
10127SOL    HW231281   2.577   3.625   0.167
10128SOL     OW31282   3.099   1.240   6.769
10128SOL    HW131283   3.168   1.240   6.841
10128SOL    HW231284   3.106   1.324   6.716
10129SOL     OW31285   6.294   1.330   2.866
10129SOL    HW131286   6.339   1.314   2.953
10129SOL    HW231287   6.362   1.344   2.794
10130SOL     OW31288   1.127   2.215   1.002
10130SOL    HW131289   1.208   2.173   1.043
10130SOL    HW231290   1.152   2.303   0.963
10131SOL     OW31291   1.936   6.679   4.274
10131SOL    HW131292   1.946   6.726   4.186
10131SOL    HW231293   2.026   6.656   4.310
10132SOL     OW31294   3.219   0.358   3.773
10132SOL    HW131295   3.140   0.307   3.738
10132SOL    HW231296   3.203   0.456   3.762
10133SOL     OW31297   4.272   6.319   0.601
10133SOL    HW131298   4.203   6.382   0.565
10133SOL    HW231299   4.332   6.369   0.664
10134SOL     OW31300   6.016   0.571   2.594
10134SOL    HW131301   6.075   0.631   2.647
10134SOL    HW231302   6.007   0.483   2.640
10135SOL     OW31303   4.891   3.556   3.640
10135SOL    HW131304   4.944   3.624   3.590
10135SOL    HW231305   4.934   3.540   3.729
10136SOL     OW31306   4.818   1.963   2.154
10136SOL    HW131307   4.731   1.957   2.202
10136SOL    HW231308   4.826   2.053   2.110
10137SOL     OW31309   0.129   3.907   4.318
10137SOL    HW131310   0.072   3.901   4.236
10137SOL    HW231311   0.152   3.815   4.350
10138SOL     OW31312   5.453   3.560   0.453
10138SOL    HW131313   5.448   3.466   0.420
10138SOL    HW231314   5.520   3.611   0.399
10139SOL     OW31315   3.107   3.467   3.225
10139SOL    HW131316   3.083   3.520   3.306
10139SOL    HW231317   3.197   3.424   3.238
10140SOL     OW31318   0.065   6.443   0.170
10140SOL    HW131319   7.018   6.465   0.098
10140SOL    HW231320   0.019   6.400   0.247
10141SOL     OW31321   4.358   1.015   5.734
10141SOL    HW131322   4.377   0.973   5.646
10141SOL    HW231323   4.403   1.104   5.739
10142SOL     OW31324   6.263   6.575   5.915
10142SOL    HW131325   6.204   6.524   5.978
10142SOL    HW231326   6.353   6.533   5.912
10143SOL     OW31327   5.507   1.801   0.352
10143SOL    HW131328   5.596   1.757   0.337
10143SOL    HW231329   5.515   1.866   0.428
10144SOL     OW31330   3.953   0.065   6.439
10144SOL    HW131331   4.031   0.066   6.501
10144SOL    HW231332   3.983   0.033   6.349
10145SOL     OW31333   2.869   5.606   2.805
10145SOL    HW131334   2.844   5.691   2.757
10145SOL    HW231335   2.807   5.533   2.777
10146SOL     OW31336   4.974   4.273   4.987
10146SOL    HW131337   4.979   4.222   4.901
10146SOL    HW231338   4.918   4.222   5.052
10147SOL     OW31339   5.125   4.476   6.551
10147SOL    HW131340   5.028   4.496   6.564
10147SOL    HW231341   5.136   4.412   6.476
10148SOL     OW31342   4.814   5.093   6.808
10148SOL    HW131343   4.899   5.096   6.861
10148SOL    HW231344   4.758   5.016   6.839
10149SOL     OW31345   5.439   3.843   1.811
10149SOL    HW131346   5.492   3.771   1.855
10149SOL    HW231347   5.342   3.831   1.834
10150SOL     OW31348   3.731   3.130   1.049
10150SOL    HW131349   3.670   3.185   1.108
10150SOL    HW231350   3.804   3.092   1.105
10151SOL     OW31351   0.832   6.043   0.081
10151SOL    HW131352   0.902   6.007   0.142
10151SOL    HW231353   0.831   5.989   7.016
10152SOL     OW31354   6.666   6.691   3.678
10152SOL    HW131355   6.690   6.684   3.774
10152SOL    HW231356   6.714   6.769   3.637
10153SOL     OW31357   4.203   5.752   3.415
10153SOL    HW131358   4.110   5.737   3.450
10153SOL    HW231359   4.253   5.811   3.478
10154SOL     OW31360   3.836   6.001   4.785
10154SOL    HW131361   3.827   5.903   4.770
10154SOL    HW231362   3.917   6.036   4.739
10155SOL     OW31363   4.373   2.428   6.546
10155SOL    HW131364   4.393   2.523   6.525
10155SOL    HW231365   4.383   2.412   6.644
10156SOL     OW31366   5.042   0.822   2.316
10156SOL    HW131367   5.029   0.919   2.333
10156SOL    HW231368   4.954   0.775   2.318
10157SOL     OW31369   0.073   2.023   0.223
10157SOL    HW131370   0.117   1.950   0.276
10157SOL    HW231371   0.048   2.098   0.283
10158SOL     OW31372   6.527   5.696   0.683
10158SOL    HW131373   6.576   5.723   0.766
10158SOL    HW231374   6.430   5.717   0.694
10159SOL     OW31375   2.989   2.618   1.297
10159SOL    HW131376   2.993   2.718   1.285
10159SOL    HW231377   3.024   2.594   1.387
10160SOL     OW31378   1.519   2.931   2.292
10160SOL    HW131379   1.451   3.004   2.301
10160SOL    HW231380   1.611   2.970   2.299
10161SOL     OW31381   3.704   4.012   0.568
10161SOL    HW131382   3.786   3.966   0.536
10161SOL    HW231383   3.633   3.945   0.590
10162SOL     OW31384   3.903   4.987   0.385
10162SOL    HW131385   3.885   5.068   0.441
10162SOL    HW231386   3.946   4.916   0.442
10163SOL     OW31387   6.714   3.570   0.295
10163SOL    HW131388   6.765   3.501   0.244
10163SOL    HW231389   6.664   3.525   0.370
10164SOL     OW31390   6.177   3.873   5.211
10164SOL    HW131391   6.213   3.948   5.267
10164SOL    HW231392   6.130   3.808   5.269
10165SOL     OW31393   6.502   1.503   3.618
10165SOL    HW131394   6.559   1.534   3.693
10165SOL    HW231395   6.557   1.499   3.534
10166SOL     OW31396   3.040   1.833   1.480
10166SOL    HW131397   2.941   1.840   1.492
10166SOL    HW231398   3.070   1.901   1.413
10167SOL     OW31399   1.069   4.938   0.223
10167SOL    HW131400   1.028   4.930   0.132
10167SOL    HW231401   1.130   4.861   0.239
10168SOL     OW31402   6.084   2.570   6.417
10168SOL    HW131403   6.106   2.581   6.320
10168SOL    HW231404   5.993   2.531   6.426
10169SOL     OW31405   0.326   4.170   3.307
10169SOL    HW131406   0.273   4.255   3.309
10169SOL    HW231407   0.265   4.092   3.306
10170SOL     OW31408   6.887   5.776   6.244
10170SOL    HW131409   6.959   5.707   6.248
10170SOL    HW231410   6.803   5.740   6.283
10171SOL     OW31411   0.980   2.516   5.026
10171SOL    HW131412   1.059   2.457   5.043
10171SOL    HW231413   0.925   2.478   4.952
10172SOL     OW31414   1.105   5.527   4.881
10172SOL    HW131415   1.159   5.597   4.834
10172SOL    HW231416   1.025   5.504   4.826
10173SOL     OW31417   1.826   2.003   0.765
10173SOL    HW131418   1.884   1.928   0.796
10173SOL    HW231419   1.824   2.074   0.836
10174SOL     OW31420   5.296   5.207   3.345
10174SOL    HW131421   5.389   5.176   3.327
10174SOL    HW231422   5.235   5.127   3.352
10175SOL     OW31423   5.177   3.057   2.870
10175SOL    HW131424   5.274   3.035   2.882
10175SOL    HW231425   5.143   3.102   2.953
10176SOL     OW31426   0.200   2.628   5.052
10176SOL    HW131427   0.102   2.641   5.035
10176SOL    HW231428   0.249   2.712   5.030
10177SOL     OW31429   1.925   0.724   1.194
10177SOL    HW131430   1.882   0.800   1.146
10177SOL    HW231431   2.009   0.697   1.146
10178SOL     OW31432   6.682   0.542   0.337
10178SOL    HW131433   6.702   0.511   0.244
10178SOL    HW231434   6.668   0.463   0.397
10179SOL     OW31435   0.411   2.594   6.847
10179SOL    HW131436   0.500   2.550   6.841
10179SOL    HW231437   0.361   2.582   6.761
10180SOL     OW31438   4.124   0.548   6.522
10180SOL    HW131439   4.145   0.605   6.443
10180SOL    HW231440   4.106   0.454   6.491
10181SOL     OW31441   6.705   2.976   1.372
10181SOL    HW131442   6.743   2.937   1.455
10181SOL    HW231443   6.778   2.997   1.307
10182SOL     OW31444   4.478   0.988   0.766
10182SOL    HW131445   4.484   0.994   0.666
10182SOL    HW231446   4.381   0.979   0.792
10183SOL     OW31447   6.189   2.595   5.496
10183SOL    HW131448   6.174   2.683   5.451
10183SOL    HW231449   6.103   2.544   5.500
10184SOL     OW31450   4.625   1.789   6.385
10184SOL    HW131451   4.583   1.730   6.315
10184SOL    HW231452   4.555   1.848   6.425
10185SOL     OW31453   6.167   6.672   3.134
10185SOL    HW131454   6.139   6.695   3.227
10185SOL    HW231455   6.168   6.755   3.078
10186SOL     OW31456   4.997   3.978   4.517
10186SOL    HW131457   5.034   3.903   4.571
10186SOL    HW231458   4.958   3.943   4.432
10187SOL     OW31459   1.318   4.241   6.885
10187SOL    HW131460   1.349   4.232   6.980
10187SOL    HW231461   1.385   4.198   6.824
10188SOL     OW31462   3.620   4.283   6.949
10188SOL    HW131463   3.595   4.205   6.892
10188SOL    HW231464   3.555   4.290   0.006
10189SOL     OW31465   0.109   1.341   6.873
10189SOL    HW131466   0.200   1.318   6.909
10189SOL    HW231467   0.067   1.259   6.835
10190SOL     OW31468   3.727   3.455   1.144
10190SOL    HW131469   3.729   3.554   1.129
10190SOL    HW231470   3.818   3.424   1.172
10191SOL     OW31471   4.648   5.637   6.440
10191SOL    HW131472   4.697   5.629   6.353
10191SOL    HW231473   4.559   5.592   6.432
10192SOL     OW31474   4.381   0.863   5.485
10192SOL    HW131475   4.425   0.912   5.410
10192SOL    HW231476   4.315   0.798   5.448
10193SOL     OW31477   3.688   3.300   2.333
10193SOL    HW131478   3.641   3.380   2.368
10193SOL    HW231479   3.761   3.273   2.396
10194SOL     OW31480   5.094   0.574   5.427
10194SOL    HW131481   5.031   0.544   5.355
10194SOL    HW231482   5.140   0.658   5.398
10195SOL     OW31483   6.863   6.631   0.600
10195SOL    HW131484   6.785   6.602   0.656
10195SOL    HW231485   6.866   6.576   0.516
10196SOL     OW31486   3.561   2.092   4.256
10196SOL    HW131487   3.659   2.107   4.242
10196SOL    HW231488   3.511   2.125   4.175
10197SOL     OW31489   5.547   2.026   4.525
10197SOL    HW131490   5.551   2.035   4.426
10197SOL    HW231491   5.639   2.010   4.561
10198SOL     OW31492   3.478   6.594   2.006
10198SOL    HW131493   3.568   6.568   1.970
10198SOL    HW231494   3.472   6.568   2.102
10199SOL     OW31495   1.126   2.157   0.592
10199SOL    HW131496   1.046   2.216   0.583
10199SOL    HW231497   1.097   2.067   0.627
10200SOL     OW31498   4.705   3.392   5.405
10200SOL    HW131499   4.612   3.360   5.426
10200SOL    HW231500   4.704   3.445   5.321
10201SOL     OW31501   1.066   5.581   0.067
10201SOL    HW131502   1.034   5.620   0.153
10201SOL    HW231503   1.147   5.524   0.084
10202SOL     OW31504   3.034   4.448   0.341
10202SOL    HW131505   2.966   4.463   0.270
10202SOL    HW231506   2.993   4.394   0.415
10203SOL     OW31507   6.690   2.822   2.031
10203SOL    HW131508   6.726   2.767   1.956
10203SOL    HW231509   6.760   2.888   2.061
10204SOL     OW31510   4.032   5.155   6.413
10204SOL    HW131511   3.962   5.223   6.433
10204SOL    HW231512   4.119   5.201   6.393
10205SOL     OW31513   2.747   0.806   2.055
10205SOL    HW131514   2.743   0.713   2.019
10205SOL    HW231515   2.840   0.826   2.086
10206SOL     OW31516   6.754   0.079   6.433
10206SOL    HW131517   6.705   0.158   6.396
10206SOL    HW231518   6.716   0.055   6.522
10207SOL     OW31519   1.361   1.883   0.119
10207SOL    HW131520   1.335   1.906   0.213
10207SOL    HW231521   1.292   1.918   0.055
10208SOL     OW31522   6.472   5.563   3.442
10208SOL    HW131523   6.489   5.552   3.540
10208SOL    HW231524   6.545   5.519   3.390
10209SOL     OW31525   0.107   6.786   6.481
10209SOL    HW131526   0.169   6.817   6.554
10209SOL    HW231527   0.078   6.865   6.427
10210SOL     OW31528   5.159   6.251   0.812
10210SOL    HW131529   5.137   6.155   0.794
10210SOL    HW231530   5.146   6.270   0.909
10211SOL     OW31531   4.087   6.433   4.882
10211SOL    HW131532   4.160   6.470   4.824
10211SOL    HW231533   4.112   6.445   4.978
10212SOL     OW31534   7.006   6.556   5.565
10212SOL    HW131535   0.076   6.564   5.521
10212SOL    HW231536   6.936   6.538   5.496
10213SOL     OW31537   5.395   3.289   2.257
10213SOL    HW131538   5.321   3.356   2.252
10213SOL    HW231539   5.357   3.198   2.273
10214SOL     OW31540   0.680   1.780   1.521
10214SOL    HW131541   0.708   1.875   1.506
10214SOL    HW231542   0.684   1.731   1.434
10215SOL     OW31543   3.278   3.011   3.637
10215SOL    HW131544   3.232   2.998   3.549
10215SOL    HW231545   3.211   3.041   3.705
10216SOL     OW31546   1.036   1.200   0.923
10216SOL    HW131547   1.026   1.169   0.828
10216SOL    HW231548   0.961   1.162   0.978
10217SOL     OW31549   1.898   2.417   3.657
10217SOL    HW131550   1.837   2.385   3.585
10217SOL    HW231551   1.845   2.470   3.724
10218SOL     OW31552   1.556   0.695   1.692
10218SOL    HW131553   1.640   0.742   1.667
10218SOL    HW231554   1.545   0.696   1.792
10219SOL     OW31555   0.398   2.149   2.646
10219SOL    HW131556   0.329   2.108   2.586
10219SOL    HW231557   0.431   2.080   2.711
10220SOL     OW31558   4.013   1.401   1.628
10220SOL    HW131559   3.962   1.352   1.699
10220SOL    HW231560   4.092   1.448   1.669
10221SOL     OW31561   1.833   3.600   4.574
10221SOL    HW131562   1.868   3.627   4.484
10221SOL    HW231563   1.844   3.501   4.586
10222SOL     OW31564   2.618   3.889   5.583
10222SOL    HW131565   2.626   3.883   5.483
10222SOL    HW231566   2.545   3.828   5.614
10223SOL     OW31567   2.440   5.053   0.395
10223SOL    HW131568   2.495   4.997   0.456
10223SOL    HW231569   2.479   5.051   0.303
10224SOL     OW31570   6.271   1.931   5.577
10224SOL    HW131571   6.173   1.929   5.593
10224SOL    HW231572   6.289   1.932   5.479
10225SOL     OW31573   2.016   5.898   6.413
10225SOL    HW131574   2.095   5.916   6.355
10225SOL    HW231575   2.027   5.810   6.459
10226SOL     OW31576   2.087   0.679   6.191
10226SOL    HW131577   2.131   0.589   6.188
10226SOL    HW231578   1.993   0.671   6.158
10227SOL     OW31579   4.750   4.518   0.686
10227SOL    HW131580   4.671   4.456   0.687
10227SOL    HW231581   4.744   4.578   0.606
10228SOL     OW31582   1.426   5.654   1.966
10228SOL    HW131583   1.397   5.695   2.052
10228SOL    HW231584   1.441   5.556   1.979
10229SOL     OW31585   1.645   2.137   4.405
10229SOL    HW131586   1.649   2.038   4.394
10229SOL    HW231587   1.655   2.181   4.316
10230SOL     OW31588   6.491   6.904   3.246
10230SOL    HW131589   6.585   6.873   3.229
10230SOL    HW231590   6.454   6.943   3.161
10231SOL     OW31591   6.197   5.131   5.678
10231SOL    HW131592   6.229   5.038   5.663
10231SOL    HW231593   6.269   5.185   5.720
10232SOL     OW31594   2.811   1.964   4.452
10232SOL    HW131595   2.773   1.989   4.541
10232SOL    HW231596   2.909   1.949   4.461
10233SOL     OW31597   4.426   3.906   5.812
10233SOL    HW131598   4.488   3.910   5.890
10233SOL    HW231599   4.459   3.967   5.740
10234SOL     OW31600   6.390   0.513   6.691
10234SOL    HW131601   6.326   0.472   6.626
10234SOL    HW231602   6.338   0.563   6.761
10235SOL     OW31603   3.558   2.269   0.396
10235SOL    HW131604   3.650   2.308   0.396
10235SOL    HW231605   3.560   2.181   0.347
10236SOL     OW31606   1.759   0.908   1.652
10236SOL    HW131607   1.825   0.929   1.580
10236SOL    HW231608   1.690   0.979   1.656
10237SOL     OW31609   0.207   4.023   6.661
10237SOL    HW131610   0.145   4.027   6.739
10237SOL    HW231611   0.157   4.048   6.578
10238SOL     OW31612   3.827   4.053   2.310
10238SOL    HW131613   3.907   4.018   2.359
10238SOL    HW231614   3.765   4.097   2.374
10239SOL     OW31615   2.180   3.819   5.576
10239SOL    HW131616   2.222   3.839   5.487
10239SOL    HW231617   2.174   3.903   5.630
10240SOL     OW31618   1.958   4.392   2.550
10240SOL    HW131619   1.930   4.354   2.462
10240SOL    HW231620   1.970   4.317   2.616
10241SOL     OW31621   6.713   6.638   2.662
10241SOL    HW131622   6.655   6.573   2.613
10241SOL    HW231623   6.700   6.627   2.761
10242SOL     OW31624   0.277   1.254   1.360
10242SOL    HW131625   0.178   1.262   1.370
10242SOL    HW231626   0.321   1.338   1.391
10243SOL     OW31627   2.111   4.637   1.925
10243SOL    HW131628   2.091   4.709   1.992
10243SOL    HW231629   2.032   4.626   1.864
10244SOL     OW31630   1.518   4.485   0.454
10244SOL    HW131631   1.602   4.478   0.400
10244SOL    HW231632   1.541   4.493   0.551
10245SOL     OW31633   3.180   4.949   0.383
10245SOL    HW131634   3.159   5.000   0.466
10245SOL    HW231635   3.120   4.868   0.378
10246SOL     OW31636   3.485   3.599   3.330
10246SOL    HW131637   3.404   3.600   3.270
10246SOL    HW231638   3.552   3.534   3.294
10247SOL     OW31639   6.706   4.467   6.142
10247SOL    HW131640   6.691   4.373   6.172
10247SOL    HW231641   6.796   4.497   6.173
10248SOL     OW31642   1.707   0.068   3.205
10248SOL    HW131643   1.782   0.024   3.254
10248SOL    HW231644   1.730   0.164   3.190
10249SOL     OW31645   2.760   6.839   6.812
10249SOL    HW131646   2.751   6.741   6.801
10249SOL    HW231647   2.855   6.862   6.832
10250SOL     OW31648   6.063   3.374   2.013
10250SOL    HW131649   6.018   3.307   2.072
10250SOL    HW231650   6.156   3.389   2.045
10251SOL     OW31651   2.195   1.589   4.835
10251SOL    HW131652   2.208   1.492   4.858
10251SOL    HW231653   2.131   1.631   4.899
10252SOL     OW31654   4.264   4.875   6.909
10252SOL    HW131655   4.233   4.782   6.894
10252SOL    HW231656   4.208   4.918   6.981
10253SOL     OW31657   2.887   6.649   0.593
10253SOL    HW131658   2.792   6.679   0.579
10253SOL    HW231659   2.891   6.587   0.671
10254SOL     OW31660   5.398   0.835   5.413
10254SOL    HW131661   5.332   0.836   5.338
10254SOL    HW231662   5.390   0.749   5.463
10255SOL     OW31663   1.719   6.363   1.093
10255SOL    HW131664   1.659   6.346   1.015
10255SOL    HW231665   1.664   6.375   1.176
10256SOL     OW31666   5.806   1.051   1.852
10256SOL    HW131667   5.835   1.082   1.943
10256SOL    HW231668   5.797   1.130   1.791
10257SOL     OW31669   2.231   4.917   4.789
10257SOL    HW131670   2.293   4.862   4.733
10257SOL    HW231671   2.160   4.858   4.828
10258SOL     OW31672   3.378   0.922   3.768
10258SOL    HW131673   3.341   0.999   3.716
10258SOL    HW231674   3.380   0.946   3.865
10259SOL     OW31675   0.972   4.586   3.323
10259SOL    HW131676   0.877   4.594   3.294
10259SOL    HW231677   0.977   4.590   3.423
10260SOL     OW31678   0.969   1.080   3.973
10260SOL    HW131679   0.873   1.108   3.971
10260SOL    HW231680   1.010   1.108   4.059
10261SOL     OW31681   6.930   5.627   3.618
10261SOL    HW131682   6.915   5.646   3.521
10261SOL    HW231683   6.991   5.549   3.628
10262SOL     OW31684   2.127   6.927   5.282
10262SOL    HW131685   2.202   6.943   5.218
10262SOL    HW231686   2.044   6.903   5.231
10263SOL     OW31687   5.211   0.752   6.827
10263SOL    HW131688   5.242   0.833   6.877
10263SOL    HW231689   5.130   0.714   6.871
10264SOL     OW31690   5.779   0.980   6.937
10264SOL    HW131691   5.692   0.935   6.953
10264SOL    HW231692   5.770   1.044   6.861
10265SOL     OW31693   2.436   2.511   2.128
10265SOL    HW131694   2.469   2.423   2.163
10265SOL    HW231695   2.483   2.533   2.043
10266SOL     OW31696   3.762   2.955   3.794
10266SOL    HW131697   3.802   2.951   3.886
10266SOL    HW231698   3.836   2.959   3.726
10267SOL     OW31699   6.013   2.371   6.849
10267SOL    HW131700   6.064   2.457   6.842
10267SOL    HW231701   5.952   2.375   6.928
10268SOL     OW31702   5.902   5.826   2.516
10268SOL    HW131703   5.920   5.732   2.488
10268SOL    HW231704   5.804   5.844   2.509
10269SOL     OW31705   0.703   3.139   7.001
10269SOL    HW131706   0.781   3.202   7.000
10269SOL    HW231707   0.631   3.175   6.942
10270SOL     OW31708   3.782   4.888   2.862
10270SOL    HW131709   3.757   4.865   2.768
10270SOL    HW231710   3.881   4.883   2.873
10271SOL     OW31711   3.413   2.509   5.816
10271SOL    HW131712   3.430   2.527   5.720
10271SOL    HW231713   3.343   2.571   5.851
10272SOL     OW31714   1.244   1.037   4.405
10272SOL    HW131715   1.287   1.082   4.484
10272SOL    HW231716   1.154   1.003   4.431
10273SOL     OW31717   2.833   5.818   2.656
10273SOL    HW131718   2.782   5.780   2.579
10273SOL    HW231719   2.916   5.862   2.622
10274SOL     OW31720   6.904   5.683   4.456
10274SOL    HW131721   6.987   5.628   4.446
10274SOL    HW231722   6.879   5.722   4.367
10275SOL     OW31723   0.354   6.723   1.752
10275SOL    HW131724   0.341   6.821   1.767
10275SOL    HW231725   0.441   6.707   1.705
10276SOL     OW31726   5.645   5.242   5.280
10276SOL    HW131727   5.547   5.232   5.264
10276SOL    HW231728   5.678   5.163   5.332
10277SOL     OW31729   2.075   4.844   3.556
10277SOL    HW131730   2.135   4.863   3.479
10277SOL    HW231731   2.002   4.782   3.528
10278SOL     OW31732   6.911   1.668   4.749
10278SOL    HW131733   6.855   1.606   4.695
10278SOL    HW231734   6.961   1.616   4.819
10279SOL     OW31735   2.967   4.818   3.676
10279SOL    HW131736   2.942   4.881   3.749
10279SOL    HW231737   3.059   4.839   3.644
10280SOL     OW31738   0.165   2.863   0.765
10280SOL    HW131739   0.225   2.832   0.839
10280SOL    HW231740   0.092   2.919   0.802
10281SOL     OW31741   6.030   1.456   2.724
10281SOL    HW131742   6.107   1.437   2.665
10281SOL    HW231743   6.063   1.479   2.816
10282SOL     OW31744   5.299   4.292   4.756
10282SOL    HW131745   5.215   4.311   4.706
10282SOL    HW231746   5.310   4.194   4.767
10283SOL     OW31747   1.078   3.034   0.476
10283SOL    HW131748   1.082   2.939   0.508
10283SOL    HW231749   1.042   3.036   0.382
10284SOL     OW31750   4.828   3.021   5.190
10284SOL    HW131751   4.913   2.997   5.237
10284SOL    HW231752   4.760   3.052   5.258
10285SOL     OW31753   5.489   0.467   2.218
10285SOL    HW131754   5.493   0.512   2.307
10285SOL    HW231755   5.402   0.418   2.209
10286SOL     OW31756   3.084   1.848   4.161
10286SOL    HW131757   3.092   1.810   4.253
10286SOL    HW231758   3.155   1.810   4.102
10287SOL     OW31759   1.925   7.008   1.154
10287SOL    HW131760   1.873   0.028   1.230
10287SOL    HW231761   1.955   6.916   1.178
10288SOL     OW31762   4.628   6.963   3.699
10288SOL    HW131763   4.595   6.937   3.609
10288SOL    HW231764   4.700   6.900   3.729
10289SOL     OW31765   1.555   6.325   1.404
10289SOL    HW131766   1.509   6.382   1.336
10289SOL    HW231767   1.487   6.278   1.460
10290SOL     OW31768   3.553   3.978   2.235
10290SOL    HW131769   3.459   3.945   2.241
10290SOL    HW231770   3.589   3.993   2.327
10291SOL     OW31771   3.737   1.436   2.764
10291SOL    HW131772   3.697   1.486   2.688
10291SOL    HW231773   3.732   1.492   2.847
10292SOL     OW31774   1.461   0.555   5.241
10292SOL    HW131775   1.518   0.576   5.162
10292SOL    HW231776   1.381   0.502   5.211
10293SOL     OW31777   2.108   4.046   3.610
10293SOL    HW131778   2.083   4.013   3.519
10293SOL    HW231779   2.026   4.068   3.662
10294SOL     OW31780   5.425   2.944   2.879
10294SOL    HW131781   5.477   2.961   2.796
10294SOL    HW231782   5.469   2.872   2.933
10295SOL     OW31783   6.125   5.040   6.208
10295SOL    HW131784   6.221   5.048   6.182
10295SOL    HW231785   6.118   4.989   6.294
10296SOL     OW31786   4.654   1.963   0.686
10296SOL    HW131787   4.572   1.959   0.743
10296SOL    HW231788   4.723   2.021   0.730
10297SOL     OW31789   2.345   6.729   6.524
10297SOL    HW131790   2.391   6.719   6.436
10297SOL    HW231791   2.258   6.777   6.511
10298SOL     OW31792   2.990   4.330   1.379
10298SOL    HW131793   2.898   4.302   1.353
10298SOL    HW231794   2.994   4.339   1.479
10299SOL     OW31795   4.845   5.350   3.183
10299SOL    HW131796   4.909   5.360   3.259
10299SOL    HW231797   4.872   5.411   3.108
10300SOL     OW31798   1.038   3.814   3.596
10300SOL    HW131799   1.059   3.755   3.674
10300SOL    HW231800   0.949   3.790   3.558
10301SOL     OW31801   5.446   2.800   4.469
10301SOL    HW131802   5.463   2.885   4.418
10301SOL    HW231803   5.386   2.741   4.416
10302SOL     OW31804   2.628   6.254   4.208
10302SOL    HW131805   2.575   6.316   4.266
10302SOL    HW231806   2.714   6.297   4.182
10303SOL     OW31807   1.945   6.137   2.219
10303SOL    HW131808   1.853   6.099   2.222
10303SOL    HW231809   1.977   6.155   2.312
10304SOL     OW31810   5.653   6.702   1.836
10304SOL    HW131811   5.710   6.785   1.843
10304SOL    HW231812   5.557   6.728   1.827
10305SOL     OW31813   0.916   4.165   0.205
10305SOL    HW131814   0.968   4.249   0.223
10305SOL    HW231815   0.950   4.123   0.121
10306SOL     OW31816   4.942   6.986   6.311
10306SOL    HW131817   4.859   6.935   6.288
10306SOL    HW231818   5.003   6.988   6.233
10307SOL     OW31819   2.821   1.891   5.196
10307SOL    HW131820   2.783   1.838   5.120
10307SOL    HW231821   2.802   1.988   5.182
10308SOL     OW31822   2.518   5.106   3.787
10308SOL    HW131823   2.423   5.091   3.815
10308SOL    HW231824   2.526   5.196   3.744
10309SOL     OW31825   6.738   1.821   5.088
10309SOL    HW131826   6.771   1.737   5.133
10309SOL    HW231827   6.691   1.878   5.155
10310SOL     OW31828   3.359   4.046   1.625
10310SOL    HW131829   3.323   3.963   1.666
10310SOL    HW231830   3.289   4.117   1.625
10311SOL     OW31831   0.671   6.120   0.441
10311SOL    HW131832   0.657   6.219   0.439
10311SOL    HW231833   0.641   6.080   0.355
10312SOL     OW31834   3.040   6.010   2.221
10312SOL    HW131835   3.069   6.106   2.226
10312SOL    HW231836   3.114   5.951   2.252
10313SOL     OW31837   4.980   6.807   1.587
10313SOL    HW131838   5.052   6.741   1.569
10313SOL    HW231839   4.892   6.761   1.591
10314SOL     OW31840   6.502   0.739   2.030
10314SOL    HW131841   6.441   0.709   2.103
10314SOL    HW231842   6.485   0.835   2.010
10315SOL     OW31843   5.588   6.149   4.614
10315SOL    HW131844   5.627   6.175   4.702
10315SOL    HW231845   5.505   6.202   4.598
10316SOL     OW31846   6.493   2.798   4.526
10316SOL    HW131847   6.506   2.703   4.499
10316SOL    HW231848   6.562   2.824   4.594
10317SOL     OW31849   3.779   5.504   5.103
10317SOL    HW131850   3.817   5.509   5.011
10317SOL    HW231851   3.681   5.485   5.097
10318SOL     OW31852   5.426   5.530   6.193
10318SOL    HW131853   5.428   5.625   6.160
10318SOL    HW231854   5.336   5.510   6.230
10319SOL     OW31855   1.532   2.310   5.784
10319SOL    HW131856   1.600   2.383   5.797
10319SOL    HW231857   1.440   2.350   5.784
10320SOL     OW31858   0.482   0.555   3.198
10320SOL    HW131859   0.503   0.653   3.208
10320SOL    HW231860   0.489   0.510   3.287
10321SOL     OW31861   4.024   0.752   2.519
10321SOL    HW131862   3.957   0.795   2.580
10321SOL    HW231863   4.116   0.780   2.546
10322SOL     OW31864   6.413   5.754   6.466
10322SOL    HW131865   6.357   5.673   6.484
10322SOL    HW231866   6.359   5.823   6.420
10323SOL     OW31867   6.203   3.859   5.933
10323SOL    HW131868   6.164   3.926   5.870
10323SOL    HW231869   6.269   3.802   5.884
10324SOL     OW31870   3.127   3.005   2.722
10324SOL    HW131871   3.141   2.945   2.802
10324SOL    HW231872   3.180   2.970   2.645
10325SOL     OW31873   0.033   3.781   2.985
10325SOL    HW131874   0.026   3.796   2.887
10325SOL    HW231875   6.961   3.772   3.025
10326SOL     OW31876   4.220   3.565   0.456
10326SOL    HW131877   4.242   3.656   0.423
10326SOL    HW231878   4.279   3.498   0.411
10327SOL     OW31879   2.713   2.438   1.731
10327SOL    HW131880   2.784   2.429   1.801
10327SOL    HW231881   2.652   2.360   1.736
10328SOL     OW31882   6.029   2.334   1.630
10328SOL    HW131883   6.053   2.429   1.608
10328SOL    HW231884   6.107   2.291   1.677
10329SOL     OW31885   3.413   0.493   3.375
10329SOL    HW131886   3.412   0.559   3.300
10329SOL    HW231887   3.319   0.471   3.402
10330SOL     OW31888   4.191   6.851   1.933
10330SOL    HW131889   4.175   6.904   2.017
10330SOL    HW231890   4.284   6.866   1.901
10331SOL     OW31891   6.753   1.227   4.650
10331SOL    HW131892   6.808   1.260   4.727
10331SOL    HW231893   6.812   1.214   4.570
10332SOL     OW31894   6.056   0.901   1.184
10332SOL    HW131895   5.965   0.890   1.223
10332SOL    HW231896   6.083   0.817   1.137
10333SOL     OW31897   6.329   4.571   4.698
10333SOL    HW131898   6.316   4.566   4.599
10333SOL    HW231899   6.246   4.604   4.741
10334SOL     OW31900   3.609   6.381   3.979
10334SOL    HW131901   3.588   6.425   3.891
10334SOL    HW231902   3.532   6.391   4.041
10335SOL     OW31903   2.992   4.196   6.690
10335SOL    HW131904   2.952   4.278   6.648
10335SOL    HW231905   3.089   4.211   6.708
10336SOL     OW31906   5.843   0.006   2.912
10336SOL    HW131907   5.751   0.021   2.877
10336SOL    HW231908   5.908   0.059   2.857
10337SOL     OW31909   0.010   6.351   5.745
10337SOL    HW131910   0.016   6.426   5.679
10337SOL    HW231911   6.987   6.271   5.701
10338SOL     OW31912   2.193   6.240   1.546
10338SOL    HW131913   2.139   6.244   1.462
10338SOL    HW231914   2.290   6.249   1.524
10339SOL     OW31915   2.918   5.280   7.019
10339SOL    HW131916   2.947   5.256   0.092
10339SOL    HW231917   2.998   5.298   6.963
10340SOL     OW31918   0.883   5.521   0.905
10340SOL    HW131919   0.896   5.495   0.810
10340SOL    HW231920   0.953   5.478   0.962
10341SOL     OW31921   2.007   3.546   2.092
10341SOL    HW131922   2.091   3.517   2.047
10341SOL    HW231923   1.929   3.497   2.051
10342SOL     OW31924   1.094   6.828   4.961
10342SOL    HW131925   1.099   6.790   4.868
10342SOL    HW231926   1.172   6.796   5.014
10343SOL     OW31927   2.735   4.978   0.291
10343SOL    HW131928   2.818   5.021   0.328
10343SOL    HW231929   2.675   5.048   0.253
10344SOL     OW31930   4.080   4.537   1.566
10344SOL    HW131931   4.156   4.602   1.565
10344SOL    HW231932   3.994   4.587   1.577
10345SOL     OW31933   1.846   1.100   6.679
10345SOL    HW131934   1.761   1.136   6.717
10345SOL    HW231935   1.919   1.168   6.690
10346SOL     OW31936   5.837   0.356   1.674
10346SOL    HW131937   5.784   0.326   1.753
10346SOL    HW231938   5.851   0.279   1.612
10347SOL     OW31939   5.324   2.312   2.379
10347SOL    HW131940   5.324   2.411   2.366
10347SOL    HW231941   5.405   2.272   2.334
10348SOL     OW31942   6.241   1.312   0.220
10348SOL    HW131943   6.278   1.397   0.257
10348SOL    HW231944   6.271   1.234   0.275
10349SOL     OW31945   6.582   1.244   1.775
10349SOL    HW131946   6.556   1.330   1.819
10349SOL    HW231947   6.501   1.189   1.757
10350SOL     OW31948   2.365   5.926   5.467
10350SOL    HW131949   2.280   5.880   5.491
10350SOL    HW231950   2.376   6.008   5.524
10351SOL     OW31951   4.624   5.319   6.404
10351SOL    HW131952   4.711   5.365   6.425
10351SOL    HW231953   4.569   5.376   6.344
10352SOL     OW31954   5.061   2.340   0.371
10352SOL    HW131955   4.997   2.280   0.323
10352SOL    HW231956   5.151   2.297   0.374
10353SOL     OW31957   6.418   2.513   5.658
10353SOL    HW131958   6.471   2.485   5.578
10353SOL    HW231959   6.336   2.561   5.628
10354SOL     OW31960   6.055   1.893   2.097
10354SOL    HW131961   6.084   1.968   2.155
10354SOL    HW231962   6.092   1.906   2.005
10355SOL     OW31963   2.085   0.438   1.952
10355SOL    HW131964   2.123   0.445   1.860
10355SOL    HW231965   2.093   0.527   1.998
10356SOL     OW31966   6.728   4.200   5.690
10356SOL    HW131967   6.811   4.244   5.655
10356SOL    HW231968   6.724   4.210   5.789
10357SOL     OW31969   2.948   2.881   6.392
10357SOL    HW131970   2.880   2.897   6.321
10357SOL    HW231971   3.020   2.820   6.356
10358SOL     OW31972   6.085   3.598   3.707
10358SOL    HW131973   6.168   3.623   3.756
10358SOL    HW231974   6.011   3.659   3.735
10359SOL     OW31975   6.020   1.302   1.859
10359SOL    HW131976   5.982   1.285   1.768
10359SOL    HW231977   6.105   1.353   1.851
10360SOL     OW31978   4.729   5.447   1.551
10360SOL    HW131979   4.793   5.524   1.549
10360SOL    HW231980   4.654   5.467   1.614
10361SOL     OW31981   2.842   1.258   3.001
10361SOL    HW131982   2.936   1.285   2.978
10361SOL    HW231983   2.809   1.192   2.933
10362SOL     OW31984   0.509   5.468   3.869
10362SOL    HW131985   0.437   5.460   3.939
10362SOL    HW231986   0.594   5.432   3.906
10363SOL     OW31987   4.601   2.658   0.848
10363SOL    HW131988   4.605   2.566   0.811
10363SOL    HW231989   4.693   2.693   0.863
10364SOL     OW31990   3.472   3.833   1.902
10364SOL    HW131991   3.485   3.747   1.951
10364SOL    HW231992   3.547   3.848   1.838
10365SOL     OW31993   5.053   4.372   5.740
10365SOL    HW131994   5.020   4.436   5.809
10365SOL    HW231995   5.086   4.289   5.784
10366SOL     OW31996   3.995   0.141   4.452
10366SOL    HW131997   3.929   0.195   4.401
10366SOL    HW231998   3.948   0.066   4.500
10367SOL     OW31999   6.840   2.044   2.110
10367SOL    HW132000   6.852   1.979   2.035
10367SOL    HW232001   6.779   2.005   2.179
10368SOL     OW32002   2.383   0.998   2.525
10368SOL    HW132003   2.381   0.930   2.598
10368SOL    HW232004   2.327   0.967   2.448
10369SOL     OW32005   2.714   1.397   5.551
10369SOL    HW132006   2.740   1.312   5.506
10369SOL    HW232007   2.746   1.475   5.497
10370SOL     OW32008   5.596   1.342   5.051
10370SOL    HW132009   5.621   1.303   4.962
10370SOL    HW232010   5.654   1.421   5.070
10371SOL     OW32011   2.471   5.918   4.500
10371SOL    HW132012   2.396   5.923   4.567
10371SOL    HW232013   2.555   5.890   4.546
10372SOL     OW32014   1.616   0.903   0.088
10372SOL    HW132015   1.622   0.810   0.125
10372SOL    HW232016   1.523   0.920   0.056
10373SOL     OW32017   1.896   6.551   5.170
10373SOL    HW132018   1.956   6.594   5.238
10373SOL    HW232019   1.801   6.573   5.192
10374SOL     OW32020   2.873   1.053   3.499
10374SOL    HW132021   2.938   1.097   3.437
10374SOL    HW232022   2.780   1.081   3.475
10375SOL     OW32023   2.568   1.993   6.150
10375SOL    HW132024   2.649   1.937   6.132
10375SOL    HW232025   2.583   2.086   6.115
10376SOL     OW32026   1.316   5.686   3.531
10376SOL    HW132027   1.258   5.768   3.530
10376SOL    HW232028   1.260   5.605   3.512
10377SOL     OW32029   6.377   0.992   3.478
10377SOL    HW132030   6.471   1.003   3.445
10377SOL    HW232031   6.313   1.011   3.404
10378SOL     OW32032   5.452   6.659   5.318
10378SOL    HW132033   5.523   6.722   5.351
10378SOL    HW232034   5.480   6.624   5.229
10379SOL     OW32035   3.868   6.870   3.968
10379SOL    HW132036   3.927   6.923   4.029
10379SOL    HW232037   3.778   6.859   4.010
10380SOL     OW32038   0.849   2.202   5.157
10380SOL    HW132039   0.896   2.280   5.199
10380SOL    HW232040   0.770   2.235   5.105
10381SOL     OW32041   4.005   4.819   0.561
10381SOL    HW132042   3.973   4.845   0.653
10381SOL    HW232043   4.090   4.768   0.568
10382SOL     OW32044   2.099   4.613   1.315
10382SOL    HW132045   2.146   4.700   1.296
10382SOL    HW232046   2.008   4.632   1.350
10383SOL     OW32047   0.587   4.100   1.223
10383SOL    HW132048   0.489   4.120   1.216
10383SOL    HW232049   0.627   4.157   1.294
10384SOL     OW32050   6.912   0.418   1.193
10384SOL    HW132051   6.978   0.479   1.237
10384SOL    HW232052   6.958   0.366   1.120
10385SOL     OW32053   4.057   6.231   5.623
10385SOL    HW132054   4.072   6.146   5.573
10385SOL    HW232055   4.143   6.263   5.661
10386SOL     OW32056   6.506   1.733   5.389
10386SOL    HW132057   6.451   1.760   5.468
10386SOL    HW232058   6.527   1.636   5.395
10387SOL     OW32059   4.626   1.809   2.398
10387SOL    HW132060   4.537   1.771   2.423
10387SOL    HW232061   4.696   1.738   2.402
10388SOL     OW32062   2.166   5.484   2.294
10388SOL    HW132063   2.218   5.407   2.257
10388SOL    HW232064   2.068   5.467   2.282
10389SOL     OW32065   6.793   6.495   1.384
10389SOL    HW132066   6.856   6.534   1.451
10389SOL    HW232067   6.845   6.458   1.307
10390SOL     OW32068   1.799   2.300   1.196
10390SOL    HW132069   1.857   2.279   1.275
10390SOL    HW232070   1.781   2.398   1.193
10391SOL     OW32071   0.405   6.475   4.037
10391SOL    HW132072   0.454   6.544   3.985
10391SOL    HW232073   0.334   6.433   3.980
10392SOL     OW32074   6.735   4.202   6.226
10392SOL    HW132075   6.686   4.135   6.281
10392SOL    HW232076   6.712   4.189   6.129
10393SOL     OW32077   2.595   2.383   2.995
10393SOL    HW132078   2.523   2.449   2.976
10393SOL    HW232079   2.566   2.322   3.070
10394SOL     OW32080   2.268   5.946   4.716
10394SOL    HW132081   2.346   5.969   4.773
10394SOL    HW232082   2.211   5.878   4.763
10395SOL     OW32083   6.751   1.121   3.558
10395SOL    HW132084   6.776   1.190   3.626
10395SOL    HW232085   6.796   1.034   3.580
10396SOL     OW32086   3.486   1.308   3.817
10396SOL    HW132087   3.491   1.234   3.749
10396SOL    HW232088   3.545   1.286   3.894
10397SOL     OW32089   2.824   1.450   4.607
10397SOL    HW132090   2.917   1.426   4.636
10397SOL    HW232091   2.808   1.414   4.515
10398SOL     OW32092   4.891   2.073   0.752
10398SOL    HW132093   4.925   2.159   0.712
10398SOL    HW232094   4.883   2.083   0.851
10399SOL     OW32095   4.365   1.642   4.383
10399SOL    HW132096   4.354   1.551   4.344
10399SOL    HW232097   4.284   1.666   4.437
10400SOL     OW32098   4.016   5.792   0.199
10400SOL    HW132099   4.022   5.698   0.164
10400SOL    HW232100   4.108   5.824   0.222
10401SOL     OW32101   6.863   7.001   2.148
10401SOL    HW132102   6.777   0.004   2.102
10401SOL    HW232103   6.890   0.058   2.206
10402SOL     OW32104   6.942   2.021   5.974
10402SOL    HW132105   6.925   2.026   6.072
10402SOL    HW232106   6.856   2.035   5.925
10403SOL     OW32107   4.262   1.457   3.047
10403SOL    HW132108   4.224   1.520   2.979
10403SOL    HW232109   4.294   1.508   3.126
10404SOL     OW32110   6.628   0.142   4.341
10404SOL    HW132111   6.661   0.048   4.341
10404SOL    HW232112   6.620   0.174   4.436
10405SOL     OW32113   1.508   5.876   4.805
10405SOL    HW132114   1.573   5.950   4.822
10405SOL    HW232115   1.557   5.799   4.763
10406SOL     OW32116   2.259   3.294   5.331
10406SOL    HW132117   2.281   3.392   5.327
10406SOL    HW232118   2.171   3.283   5.376
10407SOL     OW32119   2.256   0.482   6.440
10407SOL    HW132120   2.246   0.444   6.531
10407SOL    HW232121   2.180   0.544   6.421
10408SOL     OW32122   4.440   6.076   1.936
10408SOL    HW132123   4.447   6.041   2.030
10408SOL    HW232124   4.346   6.067   1.904
10409SOL     OW32125   0.748   3.837   0.609
10409SOL    HW132126   0.716   3.914   0.553
10409SOL    HW232127   0.823   3.791   0.561
10410SOL     OW32128   5.608   2.471   1.386
10410SOL    HW132129   5.664   2.524   1.322
10410SOL    HW232130   5.557   2.401   1.336
10411SOL     OW32131   3.832   5.741   4.743
10411SOL    HW132132   3.795   5.667   4.688
10411SOL    HW232133   3.786   5.745   4.831
10412SOL     OW32134   6.618   1.153   0.334
10412SOL    HW132135   6.521   1.160   0.353
10412SOL    HW232136   6.647   1.231   0.278
10413SOL     OW32137   6.810   1.789   1.825
10413SOL    HW132138   6.905   1.759   1.823
10413SOL    HW232139   6.766   1.756   1.909
10414SOL     OW32140   3.640   5.697   5.917
10414SOL    HW132141   3.648   5.636   5.996
10414SOL    HW232142   3.714   5.677   5.852
10415SOL     OW32143   1.577   4.196   3.762
10415SOL    HW132144   1.508   4.158   3.701
10415SOL    HW232145   1.609   4.125   3.825
10416SOL     OW32146   6.276   0.086   5.139
10416SOL    HW132147   6.238   0.128   5.222
10416SOL    HW232148   6.253   7.008   5.138
10417SOL     OW32149   4.865   5.672   4.681
10417SOL    HW132150   4.934   5.611   4.721
10417SOL    HW232151   4.851   5.751   4.741
10418SOL     OW32152   6.212   4.213   6.191
10418SOL    HW132153   6.218   4.169   6.281
10418SOL    HW232154   6.204   4.312   6.204
10419SOL     OW32155   3.575   0.006   5.353
10419SOL    HW132156   3.652   7.003   5.294
10419SOL    HW232157   3.497   6.966   5.330
10420SOL     OW32158   6.749   4.076   3.959
10420SOL    HW132159   6.810   4.131   3.901
10420SOL    HW232160   6.654   4.093   3.933
10421SOL     OW32161   1.611   3.240   4.565
10421SOL    HW132162   1.615   3.140   4.574
10421SOL    HW232163   1.615   3.265   4.468
10422SOL     OW32164   6.836   3.373   4.991
10422SOL    HW132165   6.917   3.333   5.033
10422SOL    HW232166   6.821   3.331   4.901
10423SOL     OW32167   4.724   5.331   5.325
10423SOL    HW132168   4.634   5.303   5.358
10423SOL    HW232169   4.749   5.276   5.245
10424SOL     OW32170   4.074   3.014   0.413
10424SOL    HW132171   4.063   2.985   0.318
10424SOL    HW232172   3.989   3.056   0.444
10425SOL     OW32173   1.104   5.827   2.262
10425SOL    HW132174   1.056   5.907   2.297
10425SOL    HW232175   1.073   5.807   2.169
10426SOL     OW32176   5.697   4.472   6.397
10426SOL    HW132177   5.745   4.462   6.309
10426SOL    HW232178   5.599   4.485   6.380
10427SOL     OW32179   5.125   0.895   0.185
10427SOL    HW132180   5.072   0.894   0.101
10427SOL    HW232181   5.195   0.823   0.181
10428SOL     OW32182   3.196   1.332   3.898
10428SOL    HW132183   3.275   1.308   3.842
10428SOL    HW232184   3.135   1.392   3.846
10429SOL     OW32185   0.991   3.800   2.929
10429SOL    HW132186   0.903   3.835   2.896
10429SOL    HW232187   1.020   3.723   2.872
10430SOL     OW32188   3.507   6.638   5.101
10430SOL    HW132189   3.565   6.571   5.146
10430SOL    HW232190   3.411   6.620   5.122
10431SOL     OW32191   3.002   6.497   4.489
10431SOL    HW132192   2.989   6.549   4.405
10431SOL    HW232193   2.961   6.547   4.566
10432SOL     OW32194   6.618   1.411   4.930
10432SOL    HW132195   6.716   1.412   4.914
10432SOL    HW232196   6.596   1.343   5.000
10433SOL     OW32197   0.459   6.927   2.638
10433SOL    HW132198   0.452   0.007   2.637
10433SOL    HW232199   0.387   6.889   2.696
10434SOL     OW32200   3.102   6.470   4.066
10434SOL    HW132201   3.141   6.558   4.092
10434SOL    HW232202   3.174   6.400   4.069
10435SOL     OW32203   1.887   2.125   5.672
10435SOL    HW132204   1.984   2.134   5.647
10435SOL    HW232205   1.877   2.051   5.738
10436SOL     OW32206   6.457   4.065   4.781
10436SOL    HW132207   6.370   4.075   4.732
10436SOL    HW232208   6.463   3.972   4.819
10437SOL     OW32209   6.333   4.921   6.005
10437SOL    HW132210   6.249   4.918   5.951
10437SOL    HW232211   6.406   4.963   5.951
10438SOL     OW32212   1.222   6.221   5.856
10438SOL    HW132213   1.150   6.194   5.920
10438SOL    HW232214   1.223   6.320   5.845
10439SOL     OW32215   5.178   1.382   4.823
10439SOL    HW132216   5.200   1.446   4.897
10439SOL    HW232217   5.239   1.302   4.829
10440SOL     OW32218   0.293   6.964   6.997
10440SOL    HW132219   0.278   0.020   6.933
10440SOL    HW232220   0.387   6.965   0.009
10441SOL     OW32221   3.065   1.479   1.296
10441SOL    HW132222   3.154   1.507   1.263
10441SOL    HW232223   3.043   1.388   1.260
10442SOL     OW32224   4.352   6.659   5.106
10442SOL    HW132225   4.355   6.559   5.098
10442SOL    HW232226   4.350   6.700   5.015
10443SOL     OW32227   5.359   2.343   3.221
10443SOL    HW132228   5.345   2.388   3.309
10443SOL    HW232229   5.270   2.317   3.183
10444SOL     OW32230   3.854   5.878   2.249
10444SOL    HW132231   3.796   5.942   2.299
10444SOL    HW232232   3.859   5.906   2.153
10445SOL     OW32233   0.729   3.556   3.211
10445SOL    HW132234   0.825   3.584   3.211
10445SOL    HW232235   0.694   3.555   3.118
10446SOL     OW32236   2.341   3.386   6.175
10446SOL    HW132237   2.389   3.332   6.105
10446SOL    HW232238   2.244   3.393   6.151
10447SOL     OW32239   0.466   0.498   2.924
10447SOL    HW132240   0.517   0.567   2.873
10447SOL    HW232241   0.475   0.516   3.022
10448SOL     OW32242   4.290   0.693   1.897
10448SOL    HW132243   4.333   0.605   1.878
10448SOL    HW232244   4.257   0.733   1.812
10449SOL     OW32245   1.741   5.637   6.295
10449SOL    HW132246   1.810   5.633   6.223
10449SOL    HW232247   1.714   5.545   6.322
10450SOL     OW32248   6.942   1.540   6.934
10450SOL    HW132249   7.011   1.472   6.908
10450SOL    HW232250   6.911   1.589   6.852
10451SOL     OW32251   2.176   6.039   2.995
10451SOL    HW132252   2.235   5.960   3.006
10451SOL    HW232253   2.119   6.028   2.914
10452SOL     OW32254   6.106   2.846   2.865
10452SOL    HW132255   6.079   2.932   2.908
10452SOL    HW232256   6.094   2.771   2.930
10453SOL     OW32257   5.859   6.245   1.753
10453SOL    HW132258   5.950   6.284   1.764
10453SOL    HW232259   5.862   6.147   1.772
10454SOL     OW32260   6.033   2.370   0.209
10454SOL    HW132261   6.100   2.321   0.265
10454SOL    HW232262   6.062   2.464   0.196
10455SOL     OW32263   0.226   6.396   3.811
10455SOL    HW132264   0.306   6.425   3.758
10455SOL    HW232265   0.196   6.306   3.779
10456SOL     OW32266   1.293   4.833   0.945
10456SOL    HW132267   1.335   4.773   1.012
10456SOL    HW232268   1.363   4.887   0.899
10457SOL     OW32269   4.008   2.908   0.129
10457SOL    HW132270   3.947   2.836   0.098
10457SOL    HW232271   4.024   2.972   0.055
10458SOL     OW32272   6.399   0.131   5.933
10458SOL    HW132273   6.379   0.225   5.906
10458SOL    HW232274   6.354   0.111   6.020
10459SOL     OW32275   5.059   5.975   1.116
10459SOL    HW132276   4.982   6.031   1.084
10459SOL    HW232277   5.041   5.879   1.095
10460SOL     OW32278   1.425   4.363   1.656
10460SOL    HW132279   1.491   4.289   1.642
10460SOL    HW232280   1.386   4.389   1.568
10461SOL     OW32281   6.150   5.100   5.293
10461SOL    HW132282   6.137   5.003   5.271
10461SOL    HW232283   6.107   5.157   5.223
10462SOL     OW32284   5.190   2.510   2.809
10462SOL    HW132285   5.269   2.565   2.780
10462SOL    HW232286   5.151   2.550   2.892
10463SOL     OW32287   4.386   2.619   6.213
10463SOL    HW132288   4.355   2.524   6.216
10463SOL    HW232289   4.316   2.679   6.251
10464SOL     OW32290   6.437   6.649   2.287
10464SOL    HW132291   6.370   6.723   2.298
10464SOL    HW232292   6.505   6.675   2.219
10465SOL     OW32293   5.886   5.530   1.238
10465SOL    HW132294   5.794   5.519   1.275
10465SOL    HW232295   5.915   5.626   1.249
10466SOL     OW32296   4.506   4.688   5.326
10466SOL    HW132297   4.547   4.599   5.344
10466SOL    HW232298   4.577   4.751   5.292
10467SOL     OW32299   2.401   1.871   0.117
10467SOL    HW132300   2.467   1.855   0.044
10467SOL    HW232301   2.442   1.931   0.186
10468SOL     OW32302   3.846   5.058   3.209
10468SOL    HW132303   3.754   5.021   3.211
10468SOL    HW232304   3.846   5.152   3.243
10469SOL     OW32305   3.935   4.273   5.606
10469SOL    HW132306   3.924   4.362   5.561
10469SOL    HW232307   3.879   4.271   5.689
10470SOL     OW32308   1.740   1.979   3.879
10470SOL    HW132309   1.834   1.979   3.846
10470SOL    HW232310   1.689   2.051   3.832
10471SOL     OW32311   2.485   0.464   0.457
10471SOL    HW132312   2.530   0.553   0.455
10471SOL    HW232313   2.399   0.469   0.407
10472SOL     OW32314   3.119   5.937   0.427
10472SOL    HW132315   3.121   5.978   0.518
10472SOL    HW232316   3.045   5.871   0.421
10473SOL     OW32317   5.888   7.010   6.640
10473SOL    HW132318   5.882   6.933   6.704
10473SOL    HW232319   5.912   6.977   6.549
10474SOL     OW32320   4.278   1.259   4.086
10474SOL    HW132321   4.248   1.229   3.995
10474SOL    HW232322   4.314   1.181   4.137
10475SOL     OW32323   4.439   6.240   1.514
10475SOL    HW132324   4.466   6.304   1.442
10475SOL    HW232325   4.440   6.287   1.603
10476SOL     OW32326   6.396   6.299   6.842
10476SOL    HW132327   6.435   6.259   6.758
10476SOL    HW232328   6.315   6.248   6.869
10477SOL     OW32329   6.469   1.274   4.597
10477SOL    HW132330   6.559   1.230   4.603
10477SOL    HW232331   6.444   1.311   4.687
10478SOL     OW32332   6.496   0.734   0.858
10478SOL    HW132333   6.498   0.828   0.826
10478SOL    HW232334   6.511   0.672   0.780
10479SOL     OW32335   6.855   1.529   2.625
10479SOL    HW132336   6.830   1.599   2.692
10479SOL    HW232337   6.895   1.451   2.673
10480SOL     OW32338   0.765   0.472   1.995
10480SOL    HW132339   0.756   0.374   2.014
10480SOL    HW232340   0.821   0.514   2.066
10481SOL     OW32341   2.002   5.961   3.988
10481SOL    HW132342   2.046   6.048   4.008
10481SOL    HW232343   2.071   5.889   3.978
10482SOL     OW32344   6.470   5.179   4.419
10482SOL    HW132345   6.470   5.120   4.499
10482SOL    HW232346   6.405   5.143   4.351
10483SOL     OW32347   6.160   5.196   0.665
10483SOL    HW132348   6.070   5.182   0.624
10483SOL    HW232349   6.214   5.112   0.653
10484SOL     OW32350   5.548   1.688   1.462
10484SOL    HW132351   5.478   1.753   1.492
10484SOL    HW232352   5.635   1.736   1.454
10485SOL     OW32353   3.339   4.088   0.619
10485SOL    HW132354   3.345   3.991   0.639
10485SOL    HW232355   3.315   4.100   0.522
10486SOL     OW32356   0.000   0.533   0.386
10486SOL    HW132357   0.057   0.502   0.310
10486SOL    HW232358   6.982   0.623   0.365
10487SOL     OW32359   4.485   0.561   0.969
10487SOL    HW132360   4.553   0.515   0.912
10487SOL    HW232361   4.529   0.598   1.050
10488SOL     OW32362   3.338   1.134   5.974
10488SOL    HW132363   3.378   1.217   6.014
10488SOL    HW232364   3.409   1.082   5.927
10489SOL     OW32365   0.948   6.786   5.673
10489SOL    HW132366   1.030   6.814   5.723
10489SOL    HW232367   0.920   6.695   5.704
10490SOL     OW32368   5.646   1.051   1.183
10490SOL    HW132369   5.646   1.149   1.201
10490SOL    HW232370   5.573   1.007   1.235
10491SOL     OW32371   2.122   2.738   0.258
10491SOL    HW132372   2.152   2.646   0.235
10491SOL    HW232373   2.023   2.738   0.275
10492SOL     OW32374   5.956   4.820   6.446
10492SOL    HW132375   5.920   4.728   6.466
10492SOL    HW232376   5.899   4.863   6.377
10493SOL     OW32377   3.317   0.834   2.350
10493SOL    HW132378   3.253   0.901   2.312
10493SOL    HW232379   3.302   0.826   2.449
10494SOL     OW32380   5.660   4.266   6.031
10494SOL    HW132381   5.588   4.267   6.101
10494SOL    HW232382   5.618   4.261   5.940
10495SOL     OW32383   1.468   6.939   0.061
10495SOL    HW132384   1.553   6.985   0.085
10495SOL    HW232385   1.468   6.919   6.982
10496SOL     OW32386   0.146   3.922   6.073
10496SOL    HW132387   0.193   4.002   6.037
10496SOL    HW232388   0.175   3.841   6.022
10497SOL     OW32389   2.137   6.700   2.014
10497SOL    HW132390   2.228   6.720   2.051
10497SOL    HW232391   2.144   6.632   1.941
10498SOL     OW32392   3.849   5.754   0.642
10498SOL    HW132393   3.859   5.696   0.723
10498SOL    HW232394   3.815   5.844   0.668
10499SOL     OW32395   3.885   0.102   2.082
10499SOL    HW132396   3.855   0.186   2.127
10499SOL    HW232397   3.821   0.080   2.009
10500SOL     OW32398   6.056   1.422   6.411
10500SOL    HW132399   5.987   1.357   6.440
10500SOL    HW232400   6.134   1.418   6.474
10501SOL     OW32401   2.087   5.441   2.565
10501SOL    HW132402   2.145   5.460   2.486
10501SOL    HW232403   2.005   5.497   2.560
10502SOL     OW32404   2.484   0.473   1.736
10502SOL    HW132405   2.571   0.465   1.785
10502SOL    HW232406   2.502   0.480   1.638
10503SOL     OW32407   4.283   2.620   0.677
10503SOL    HW132408   4.280   2.643   0.774
10503SOL    HW232409   4.258   2.701   0.623
10504SOL     OW32410   0.639   2.177   5.684
10504SOL    HW132411   0.686   2.265   5.685
10504SOL    HW232412   0.701   2.107   5.647
10505SOL     OW32413   5.531   5.129   0.492
10505SOL    HW132414   5.501   5.186   0.415
10505SOL    HW232415   5.570   5.044   0.457
10506SOL     OW32416   0.222   4.445   0.619
10506SOL    HW132417   0.227   4.426   0.717
10506SOL    HW232418   0.154   4.515   0.602
10507SOL     OW32419   2.292   6.822   0.283
10507SOL    HW132420   2.206   6.775   0.264
10507SOL    HW232421   2.348   6.825   0.199
10508SOL     OW32422   6.034   6.614   4.541
10508SOL    HW132423   5.945   6.628   4.585
10508SOL    HW232424   6.051   6.517   4.528
10509SOL     OW32425   1.103   5.198   4.159
10509SOL    HW132426   1.105   5.187   4.060
10509SOL    HW232427   1.028   5.145   4.197
10510SOL     OW32428   4.514   6.003   5.992
10510SOL    HW132429   4.607   6.009   5.957
10510SOL    HW232430   4.504   5.920   6.046
10511SOL     OW32431   3.892   1.136   2.396
10511SOL    HW132432   3.935   1.153   2.485
10511SOL    HW232433   3.814   1.075   2.408
10512SOL     OW32434   4.119   0.354   6.127
10512SOL    HW132435   4.044   0.420   6.131
10512SOL    HW232436   4.180   0.376   6.051
10513SOL     OW32437   5.916   2.750   4.892
10513SOL    HW132438   5.883   2.660   4.922
10513SOL    HW232439   5.925   2.750   4.792
10514SOL     OW32440   0.436   3.809   0.984
10514SOL    HW132441   0.418   3.803   1.083
10514SOL    HW232442   0.376   3.878   0.944
10515SOL     OW32443   0.778   3.317   3.372
10515SOL    HW132444   0.778   3.229   3.325
10515SOL    HW232445   0.768   3.390   3.305
10516SOL     OW32446   3.765   1.227   0.123
10516SOL    HW132447   3.836   1.160   0.145
10516SOL    HW232448   3.691   1.221   0.189
10517SOL     OW32449   0.896   2.560   2.818
10517SOL    HW132450   0.950   2.612   2.884
10517SOL    HW232451   0.822   2.511   2.865
10518SOL     OW32452   0.890   5.672   6.242
10518SOL    HW132453   0.884   5.735   6.165
10518SOL    HW232454   0.940   5.590   6.215
10519SOL     OW32455   2.634   3.360   0.043
10519SOL    HW132456   2.701   3.289   0.065
10519SOL    HW232457   2.610   3.355   6.966
10520SOL     OW32458   0.386   2.657   6.441
10520SOL    HW132459   0.361   2.740   6.390
10520SOL    HW232460   0.472   2.672   6.490
10521SOL     OW32461   6.445   6.355   2.183
10521SOL    HW132462   6.476   6.449   2.200
10521SOL    HW232463   6.516   6.306   2.132
10522SOL     OW32464   0.713   0.491   5.507
10522SOL    HW132465   0.799   0.536   5.486
10522SOL    HW232466   0.717   0.396   5.474
10523SOL     OW32467   0.075   5.035   3.587
10523SOL    HW132468   0.082   4.973   3.509
10523SOL    HW232469   0.161   5.085   3.599
10524SOL     OW32470   1.836   0.373   4.670
10524SOL    HW132471   1.820   0.471   4.678
10524SOL    HW232472   1.834   0.331   4.761
10525SOL     OW32473   3.612   6.251   6.807
10525SOL    HW132474   3.652   6.293   6.889
10525SOL    HW232475   3.592   6.322   6.740
10526SOL     OW32476   1.640   0.112   3.883
10526SOL    HW132477   1.587   0.135   3.801
10526SOL    HW232478   1.647   0.193   3.941
10527SOL     OW32479   0.276   1.685   4.874
10527SOL    HW132480   0.290   1.616   4.946
10527SOL    HW232481   0.197   1.742   4.898
10528SOL     OW32482   1.644   3.333   6.162
10528SOL    HW132483   1.649   3.234   6.163
10528SOL    HW232484   1.564   3.364   6.213
10529SOL     OW32485   3.354   5.690   3.620
10529SOL    HW132486   3.292   5.754   3.665
10529SOL    HW232487   3.304   5.607   3.596
10530SOL     OW32488   1.894   6.844   6.816
10530SOL    HW132489   1.937   6.845   6.726
10530SOL    HW232490   1.853   6.754   6.832
10531SOL     OW32491   1.437   3.032   4.012
10531SOL    HW132492   1.440   3.049   3.914
10531SOL    HW232493   1.485   3.105   4.060
10532SOL     OW32494   1.305   5.892   5.275
10532SOL    HW132495   1.318   5.820   5.206
10532SOL    HW232496   1.245   5.963   5.238
10533SOL     OW32497   2.803   0.897   4.747
10533SOL    HW132498   2.782   0.904   4.845
10533SOL    HW232499   2.771   0.979   4.700
10534SOL     OW32500   0.130   6.066   1.400
10534SOL    HW132501   0.213   6.121   1.392
10534SOL    HW232502   0.147   5.975   1.361
10535SOL     OW32503   1.034   2.001   1.453
10535SOL    HW132504   1.092   1.960   1.382
10535SOL    HW232505   1.066   1.971   1.543
10536SOL     OW32506   4.104   0.403   2.965
10536SOL    HW132507   4.154   0.468   3.021
10536SOL    HW232508   4.134   0.310   2.987
10537SOL     OW32509   3.975   5.840   3.832
10537SOL    HW132510   3.878   5.855   3.813
10537SOL    HW232511   4.021   5.809   3.749
10538SOL     OW32512   5.250   1.978   0.966
10538SOL    HW132513   5.215   2.071   0.968
10538SOL    HW232514   5.175   1.915   0.944
10539SOL     OW32515   0.799   4.355   0.348
10539SOL    HW132516   0.734   4.316   0.413
10539SOL    HW232517   0.818   4.289   0.275
10540SOL     OW32518   1.467   2.241   5.159
10540SOL    HW132519   1.554   2.291   5.159
10540SOL    HW232520   1.465   2.178   5.237
10541SOL     OW32521   3.616   4.055   2.489
10541SOL    HW132522   3.562   3.979   2.525
10541SOL    HW232523   3.592   4.139   2.538
10542SOL     OW32524   6.781   0.059   5.416
10542SOL    HW132525   6.772   7.013   5.491
10542SOL    HW232526   6.872   0.101   5.419
10543SOL     OW32527   0.427   0.889   4.869
10543SOL    HW132528   0.419   0.892   4.769
10543SOL    HW232529   0.354   0.945   4.910
10544SOL     OW32530   2.481   6.253   1.448
10544SOL    HW132531   2.580   6.266   1.460
10544SOL    HW232532   2.447   6.319   1.381
10545SOL     OW32533   6.443   1.247   2.266
10545SOL    HW132534   6.469   1.151   2.268
10545SOL    HW232535   6.525   1.304   2.276
10546SOL     OW32536   1.791   0.899   6.842
10546SOL    HW132537   1.798   0.930   6.937
10546SOL    HW232538   1.808   0.976   6.781
10547SOL     OW32539   5.387   2.736   2.470
10547SOL    HW132540   5.407   2.718   2.373
10547SOL    HW232541   5.291   2.760   2.480
10548SOL     OW32542   5.529   4.708   4.461
10548SOL    HW132543   5.581   4.754   4.533
10548SOL    HW232544   5.561   4.614   4.451
10549SOL     OW32545   0.249   6.808   2.037
10549SOL    HW132546   0.229   6.902   2.009
10549SOL    HW232547   0.280   6.756   1.958
10550SOL     OW32548   4.436   6.408   3.973
10550SOL    HW132549   4.491   6.326   3.956
10550SOL    HW232550   4.339   6.384   3.971
10551SOL     OW32551   1.131   2.391   6.083
10551SOL    HW132552   1.178   2.478   6.068
10551SOL    HW232553   1.159   2.354   6.172
10552SOL     OW32554   3.155   1.414   5.894
10552SOL    HW132555   3.103   1.404   5.810
10552SOL    HW232556   3.178   1.323   5.930
10553SOL     OW32557   0.994   4.443   2.216
10553SOL    HW132558   1.073   4.488   2.176
10553SOL    HW232559   1.003   4.344   2.207
10554SOL     OW32560   5.281   5.088   0.247
10554SOL    HW132561   5.236   5.172   0.219
10554SOL    HW232562   5.314   5.039   0.166
10555SOL     OW32563   1.973   2.688   0.507
10555SOL    HW132564   2.041   2.657   0.573
10555SOL    HW232565   1.994   2.781   0.477
10556SOL     OW32566   1.668   1.913   5.561
10556SOL    HW132567   1.688   1.819   5.589
10556SOL    HW232568   1.743   1.948   5.505
10557SOL     OW32569   2.319   2.762   3.316
10557SOL    HW132570   2.277   2.802   3.397
10557SOL    HW232571   2.303   2.822   3.237
10558SOL     OW32572   3.648   1.094   3.449
10558SOL    HW132573   3.607   1.010   3.486
10558SOL    HW232574   3.725   1.122   3.506
10559SOL     OW32575   5.010   0.509   1.402
10559SOL    HW132576   4.936   0.545   1.458
10559SOL    HW232577   4.991   0.527   1.305
10560SOL     OW32578   3.557   6.329   2.674
10560SOL    HW132579   3.484   6.369   2.729
10560SOL    HW232580   3.521   6.302   2.584
10561SOL     OW32581   2.942   3.815   1.058
10561SOL    HW132582   2.903   3.867   1.134
10561SOL    HW232583   3.040   3.800   1.074
10562SOL     OW32584   4.568   5.322   0.353
10562SOL    HW132585   4.502   5.386   0.314
10562SOL    HW232586   4.661   5.353   0.331
10563SOL     OW32587   0.340   1.730   3.809
10563SOL    HW132588   0.298   1.748   3.898
10563SOL    HW232589   0.302   1.646   3.771
10564SOL     OW32590   6.081   5.871   2.217
10564SOL    HW132591   6.123   5.961   2.217
10564SOL    HW232592   6.101   5.825   2.304
10565SOL     OW32593   0.465   0.416   5.949
10565SOL    HW132594   0.458   0.362   5.866
10565SOL    HW232595   0.374   0.437   5.984
10566SOL     OW32596   3.592   2.004   6.816
10566SOL    HW132597   3.541   2.086   6.790
10566SOL    HW232598   3.690   2.024   6.814
10567SOL     OW32599   3.285   1.634   4.780
10567SOL    HW132600   3.349   1.637   4.703
10567SOL    HW232601   3.239   1.723   4.787
10568SOL     OW32602   6.431   2.893   1.690
10568SOL    HW132603   6.477   2.954   1.754
10568SOL    HW232604   6.424   2.802   1.730
10569SOL     OW32605   5.531   1.624   1.925
10569SOL    HW132606   5.451   1.587   1.971
10569SOL    HW232607   5.502   1.680   1.847
10570SOL     OW32608   1.697   5.109   3.595
10570SOL    HW132609   1.742   5.091   3.682
10570SOL    HW232610   1.631   5.183   3.606
10571SOL     OW32611   0.061   4.524   5.366
10571SOL    HW132612   0.075   4.590   5.441
10571SOL    HW232613   6.994   4.545   5.320
10572SOL     OW32614   0.281   4.547   2.929
10572SOL    HW132615   0.267   4.599   2.845
10572SOL    HW232616   0.192   4.521   2.968
10573SOL     OW32617   4.729   0.379   5.020
10573SOL    HW132618   4.674   0.319   5.078
10573SOL    HW232619   4.788   0.324   4.961
10574SOL     OW32620   1.787   1.622   4.027
10574SOL    HW132621   1.723   1.652   3.956
10574SOL    HW232622   1.735   1.594   4.108
10575SOL     OW32623   0.346   0.963   3.370
10575SOL    HW132624   0.256   0.983   3.332
10575SOL    HW232625   0.336   0.910   3.454
10576SOL     OW32626   0.096   6.010   4.696
10576SOL    HW132627   0.171   5.962   4.651
10576SOL    HW232628   0.116   6.108   4.698
10577SOL     OW32629   1.904   3.741   6.853
10577SOL    HW132630   1.864   3.765   6.942
10577SOL    HW232631   1.975   3.807   6.830
10578SOL     OW32632   5.008   1.726   2.687
10578SOL    HW132633   5.106   1.710   2.696
10578SOL    HW232634   4.990   1.774   2.601
10579SOL     OW32635   4.264   2.717   1.640
10579SOL    HW132636   4.247   2.625   1.674
10579SOL    HW232637   4.349   2.753   1.681
10580SOL     OW32638   6.386   0.197   7.010
10580SOL    HW132639   6.337   0.128   0.044
10580SOL    HW232640   6.350   0.198   6.917
10581SOL     OW32641   6.781   6.821   3.102
10581SOL    HW132642   6.758   6.913   3.071
10581SOL    HW232643   6.878   6.804   3.087
10582SOL     OW32644   5.571   5.338   6.075
10582SOL    HW132645   5.511   5.410   6.108
10582SOL    HW232646   5.658   5.378   6.044
10583SOL     OW32647   3.988   1.254   4.668
10583SOL    HW132648   3.938   1.330   4.626
10583SOL    HW232649   3.955   1.167   4.630
10584SOL     OW32650   6.536   6.542   1.371
10584SOL    HW132651   6.484   6.531   1.456
10584SOL    HW232652   6.633   6.528   1.390
10585SOL     OW32653   2.153   2.157   5.648
10585SOL    HW132654   2.228   2.127   5.588
10585SOL    HW232655   2.119   2.246   5.618
10586SOL     OW32656   6.221   5.353   5.435
10586SOL    HW132657   6.220   5.280   5.367
10586SOL    HW232658   6.313   5.361   5.474
10587SOL     OW32659   6.486   4.386   0.252
10587SOL    HW132660   6.488   4.286   0.253
10587SOL    HW232661   6.417   4.418   0.187
10588SOL     OW32662   0.647   3.248   4.088
10588SOL    HW132663   0.666   3.186   4.164
10588SOL    HW232664   0.699   3.332   4.100
10589SOL     OW32665   5.895   2.036   4.189
10589SOL    HW132666   5.809   2.004   4.230
10589SOL    HW232667   5.963   2.049   4.261
10590SOL     OW32668   0.422   0.267   1.823
10590SOL    HW132669   0.345   0.318   1.783
10590SOL    HW232670   0.502   0.276   1.764
10591SOL     OW32671   1.186   1.951   6.962
10591SOL    HW132672   1.207   1.995   6.875
10591SOL    HW232673   1.091   1.920   6.961
10592SOL     OW32674   5.681   3.964   1.760
10592SOL    HW132675   5.638   4.037   1.707
10592SOL    HW232676   5.611   3.901   1.794
10593SOL     OW32677   2.470   5.703   0.448
10593SOL    HW132678   2.538   5.665   0.511
10593SOL    HW232679   2.495   5.797   0.426
10594SOL     OW32680   4.874   0.388   2.347
10594SOL    HW132681   4.832   0.478   2.359
10594SOL    HW232682   4.952   0.380   2.409
10595SOL     OW32683   4.086   6.707   6.353
10595SOL    HW132684   4.095   6.786   6.292
10595SOL    HW232685   4.017   6.726   6.423
10596SOL     OW32686   4.310   0.248   0.172
10596SOL    HW132687   4.372   0.187   0.222
10596SOL    HW232688   4.288   0.207   0.084
10597SOL     OW32689   3.670   0.719   5.237
10597SOL    HW132690   3.661   0.649   5.165
10597SOL    HW232691   3.679   0.809   5.195
10598SOL     OW32692   2.951   2.841   0.529
10598SOL    HW132693   2.859   2.822   0.495
10598SOL    HW232694   2.965   2.940   0.532
10599SOL     OW32695   5.311   3.105   5.632
10599SOL    HW132696   5.367   3.157   5.567
10599SOL    HW232697   5.231   3.069   5.586
10600SOL     OW32698   2.447   2.282   0.502
10600SOL    HW132699   2.517   2.304   0.569
10600SOL    HW232700   2.456   2.186   0.475
10601SOL     OW32701   1.551   4.797   5.008
10601SOL    HW132702   1.513   4.879   5.053
10601SOL    HW232703   1.549   4.721   5.073
10602SOL     OW32704   3.735   1.488   2.186
10602SOL    HW132705   3.690   1.424   2.124
10602SOL    HW232706   3.720   1.582   2.153
10603SOL     OW32707   3.071   5.975   3.034
10603SOL    HW132708   3.166   5.992   3.008
10603SOL    HW232709   3.045   6.037   3.108
10604SOL     OW32710   5.978   5.464   5.769
10604SOL    HW132711   5.980   5.386   5.706
10604SOL    HW232712   5.984   5.549   5.718
10605SOL     OW32713   1.553   5.958   0.490
10605SOL    HW132714   1.538   5.940   0.393
10605SOL    HW232715   1.553   6.057   0.505
10606SOL     OW32716   6.737   0.776   2.774
10606SOL    HW132717   6.768   0.728   2.857
10606SOL    HW232718   6.640   0.758   2.759
10607SOL     OW32719   4.159   4.796   5.296
10607SOL    HW132720   4.073   4.832   5.259
10607SOL    HW232721   4.175   4.834   5.387
10608SOL     OW32722   5.214   2.619   5.606
10608SOL    HW132723   5.193   2.530   5.566
10608SOL    HW232724   5.302   2.651   5.570
10609SOL     OW32725   2.698   6.871   0.348
10609SOL    HW132726   2.793   6.860   0.376
10609SOL    HW232727   2.656   6.945   0.401
10610SOL     OW32728   1.044   2.381   5.610
10610SOL    HW132729   0.990   2.316   5.664
10610SOL    HW232730   1.014   2.378   5.514
10611SOL     OW32731   4.009   3.731   6.071
10611SOL    HW132732   3.954   3.680   6.005
10611SOL    HW232733   4.025   3.675   6.152
10612SOL     OW32734   2.919   0.895   4.467
10612SOL    HW132735   2.853   0.925   4.398
10612SOL    HW232736   2.877   0.899   4.558
10613SOL     OW32737   6.231   6.744   4.866
10613SOL    HW132738   6.187   6.834   4.870
10613SOL    HW232739   6.230   6.711   4.772
10614SOL     OW32740   6.303   2.118   4.080
10614SOL    HW132741   6.307   2.216   4.063
10614SOL    HW232742   6.374   2.072   4.026
10615SOL     OW32743   3.523   6.650   5.425
10615SOL    HW132744   3.500   6.744   5.397
10615SOL    HW232745   3.440   6.596   5.431
10616SOL     OW32746   2.878   6.037   0.673
10616SOL    HW132747   2.977   6.023   0.682
10616SOL    HW232748   2.847   6.103   0.741
10617SOL     OW32749   2.325   2.298   1.525
10617SOL    HW132750   2.290   2.236   1.596
10617SOL    HW232751   2.251   2.354   1.490
10618SOL     OW32752   0.183   3.717   6.636
10618SOL    HW132753   0.127   3.705   6.554
10618SOL    HW232754   0.167   3.808   6.674
10619SOL     OW32755   0.017   4.445   2.432
10619SOL    HW132756   6.960   4.385   2.408
10619SOL    HW232757   0.090   4.436   2.364
10620SOL     OW32758   1.510   5.587   4.900
10620SOL    HW132759   1.500   5.600   4.801
10620SOL    HW232760   1.491   5.492   4.923
10621SOL     OW32761   1.105   6.169   2.031
10621SOL    HW132762   1.042   6.099   2.064
10621SOL    HW232763   1.099   6.176   1.931
10622SOL     OW32764   5.028   1.751   1.190
10622SOL    HW132765   4.995   1.845   1.199
10622SOL    HW232766   5.051   1.732   1.095
10623SOL     OW32767   0.180   4.682   5.124
10623SOL    HW132768   0.118   4.621   5.173
10623SOL    HW232769   0.235   4.735   5.189
10624SOL     OW32770   0.363   2.836   4.969
10624SOL    HW132771   0.372   2.926   5.010
10624SOL    HW232772   0.446   2.813   4.918
10625SOL     OW32773   0.563   4.238   0.472
10625SOL    HW132774   0.514   4.152   0.456
10625SOL    HW232775   0.581   4.248   0.570
10626SOL     OW32776   2.739   3.116   0.866
10626SOL    HW132777   2.778   3.123   0.958
10626SOL    HW232778   2.689   3.200   0.844
10627SOL     OW32779   5.305   6.756   0.383
10627SOL    HW132780   5.223   6.710   0.347
10627SOL    HW232781   5.377   6.688   0.398
10628SOL     OW32782   4.705   6.259   0.370
10628SOL    HW132783   4.767   6.287   0.298
10628SOL    HW232784   4.610   6.269   0.339
10629SOL     OW32785   2.551   4.982   5.150
10629SOL    HW132786   2.548   4.989   5.050
10629SOL    HW232787   2.622   4.916   5.176
10630SOL     OW32788   6.530   1.204   3.955
10630SOL    HW132789   6.477   1.191   3.871
10630SOL    HW232790   6.480   1.264   4.018
10631SOL     OW32791   2.423   4.440   4.529
10631SOL    HW132792   2.465   4.476   4.613
10631SOL    HW232793   2.336   4.486   4.512
10632SOL     OW32794   6.155   1.924   3.633
10632SOL    HW132795   6.199   1.933   3.723
10632SOL    HW232796   6.063   1.964   3.637
10633SOL     OW32797   2.790   3.111   1.214
10633SOL    HW132798   2.731   3.030   1.220
10633SOL    HW232799   2.762   3.178   1.282
10634SOL     OW32800   3.141   6.046   0.699
10634SOL    HW132801   3.197   6.129   0.696
10634SOL    HW232802   3.192   5.973   0.745
10635SOL     OW32803   3.154   2.090   0.974
10635SOL    HW132804   3.249   2.064   0.990
10635SOL    HW232805   3.144   2.188   0.993
10636SOL     OW32806   1.065   1.681   1.598
10636SOL    HW132807   1.008   1.716   1.524
10636SOL    HW232808   1.060   1.581   1.598
10637SOL     OW32809   2.631   4.638   6.058
10637SOL    HW132810   2.697   4.632   5.982
10637SOL    HW232811   2.667   4.587   6.136
10638SOL     OW32812   0.117   5.841   2.868
10638SOL    HW132813   0.170   5.760   2.892
10638SOL    HW232814   0.078   5.828   2.776
10639SOL     OW32815   1.004   3.212   3.511
10639SOL    HW132816   0.927   3.255   3.464
10639SOL    HW232817   0.970   3.153   3.584
10640SOL     OW32818   3.823   0.146   5.512
10640SOL    HW132819   3.866   0.223   5.464
10640SOL    HW232820   3.848   0.061   5.466
10641SOL     OW32821   2.803   1.585   1.258
10641SOL    HW132822   2.895   1.547   1.266
10641SOL    HW232823   2.757   1.581   1.347
10642SOL     OW32824   0.148   3.049   1.985
10642SOL    HW132825   0.099   3.102   1.916
10642SOL    HW232826   0.179   2.963   1.945
10643SOL     OW32827   1.797   4.963   5.490
10643SOL    HW132828   1.886   4.919   5.503
10643SOL    HW232829   1.735   4.901   5.442
10644SOL     OW32830   5.463   2.753   3.069
10644SOL    HW132831   5.455   2.809   3.152
10644SOL    HW232832   5.387   2.688   3.065
10645SOL     OW32833   1.149   1.915   5.050
10645SOL    HW132834   1.146   1.981   5.125
10645SOL    HW232835   1.219   1.942   4.984
10646SOL     OW32836   6.646   0.297   6.207
10646SOL    HW132837   6.582   0.335   6.274
10646SOL    HW232838   6.634   0.343   6.119
10647SOL     OW32839   2.769   5.230   5.574
10647SOL    HW132840   2.868   5.227   5.590
10647SOL    HW232841   2.721   5.209   5.659
10648SOL     OW32842   5.449   4.554   6.245
10648SOL    HW132843   5.362   4.602   6.235
10648SOL    HW232844   5.499   4.558   6.158
10649SOL     OW32845   6.927   4.245   3.096
10649SOL    HW132846   6.898   4.258   3.191
10649SOL    HW232847   6.988   4.167   3.090
10650SOL     OW32848   1.016   6.086   3.438
10650SOL    HW132849   1.035   6.182   3.421
10650SOL    HW232850   1.011   6.037   3.350
10651SOL     OW32851   4.517   6.430   6.202
10651SOL    HW132852   4.611   6.454   6.181
10651SOL    HW232853   4.513   6.387   6.292
10652SOL     OW32854   3.491   6.887   6.220
10652SOL    HW132855   3.468   6.984   6.216
10652SOL    HW232856   3.516   6.862   6.314
10653SOL     OW32857   4.665   4.355   4.130
10653SOL    HW132858   4.693   4.298   4.208
10653SOL    HW232859   4.633   4.296   4.056
10654SOL     OW32860   4.706   1.104   0.693
10654SOL    HW132861   4.794   1.079   0.734
10654SOL    HW232862   4.632   1.074   0.753
10655SOL     OW32863   2.351   5.318   0.375
10655SOL    HW132864   2.354   5.218   0.378
10655SOL    HW232865   2.437   5.355   0.410
10656SOL     OW32866   6.408   2.069   1.907
10656SOL    HW132867   6.399   2.115   1.994
10656SOL    HW232868   6.504   2.069   1.879
10657SOL     OW32869   6.730   0.669   6.004
10657SOL    HW132870   6.760   0.576   5.984
10657SOL    HW232871   6.748   0.728   5.925
10658SOL     OW32872   6.137   4.646   4.874
10658SOL    HW132873   6.052   4.698   4.867
10658SOL    HW232874   6.184   4.670   4.959
10659SOL     OW32875   6.848   6.070   1.133
10659SOL    HW132876   6.759   6.079   1.176
10659SOL    HW232877   6.886   5.980   1.153
10660SOL     OW32878   5.266   3.617   6.972
10660SOL    HW132879   5.187   3.583   0.004
10660SOL    HW232880   5.348   3.567   6.999
10661SOL     OW32881   0.158   6.692   2.473
10661SOL    HW132882   0.126   6.758   2.405
10661SOL    HW232883   0.101   6.699   2.555
10662SOL     OW32884   5.358   0.947   3.529
10662SOL    HW132885   5.328   0.855   3.555
10662SOL    HW232886   5.451   0.962   3.560
10663SOL     OW32887   1.021   0.879   1.930
10663SOL    HW132888   0.981   0.788   1.915
10663SOL    HW232889   1.108   0.886   1.881
10664SOL     OW32890   0.793   4.842   4.818
10664SOL    HW132891   0.719   4.886   4.767
10664SOL    HW232892   0.873   4.903   4.819
10665SOL     OW32893   0.814   1.324   0.547
10665SOL    HW132894   0.765   1.239   0.562
10665SOL    HW232895   0.752   1.401   0.562
10666SOL     OW32896   2.921   4.097   0.838
10666SOL    HW132897   2.936   4.091   0.937
10666SOL    HW232898   2.855   4.027   0.810
10667SOL     OW32899   3.957   3.234   5.225
10667SOL    HW132900   3.933   3.194   5.137
10667SOL    HW232901   3.876   3.242   5.282
10668SOL     OW32902   1.685   1.208   5.273
10668SOL    HW132903   1.738   1.231   5.192
10668SOL    HW232904   1.659   1.111   5.269
10669SOL     OW32905   5.936   6.042   0.565
10669SOL    HW132906   5.895   6.073   0.479
10669SOL    HW232907   6.032   6.068   0.567
10670SOL     OW32908   5.360   3.888   5.166
10670SOL    HW132909   5.403   3.881   5.256
10670SOL    HW232910   5.417   3.943   5.106
10671SOL     OW32911   2.534   2.229   3.207
10671SOL    HW132912   2.585   2.144   3.200
10671SOL    HW232913   2.588   2.296   3.259
10672SOL     OW32914   6.182   2.710   0.477
10672SOL    HW132915   6.084   2.705   0.458
10672SOL    HW232916   6.233   2.664   0.404
10673SOL     OW32917   1.102   1.263   0.183
10673SOL    HW132918   1.041   1.343   0.186
10673SOL    HW232919   1.097   1.213   0.269
10674SOL     OW32920   3.188   4.238   0.795
10674SOL    HW132921   3.099   4.194   0.804
10674SOL    HW232922   3.245   4.185   0.732
10675SOL     OW32923   2.258   7.016   6.394
10675SOL    HW132924   2.203   6.995   6.475
10675SOL    HW232925   2.216   6.976   6.313
10676SOL     OW32926   6.236   6.838   5.576
10676SOL    HW132927   6.300   6.772   5.615
10676SOL    HW232928   6.256   6.929   5.611
10677SOL     OW32929   0.520   0.786   2.135
10677SOL    HW132930   0.564   0.747   2.054
10677SOL    HW232931   0.429   0.747   2.146
10678SOL     OW32932   3.948   5.507   2.528
10678SOL    HW132933   3.895   5.525   2.611
10678SOL    HW232934   3.911   5.561   2.452
10679SOL     OW32935   5.247   5.097   6.246
10679SOL    HW132936   5.260   5.138   6.336
10679SOL    HW232937   5.319   5.127   6.185
10680SOL     OW32938   2.787   1.783   3.661
10680SOL    HW132939   2.747   1.710   3.716
10680SOL    HW232940   2.777   1.762   3.564
10681SOL     OW32941   0.636   4.094   0.060
10681SOL    HW132942   0.612   4.124   0.152
10681SOL    HW232943   0.732   4.067   0.057
10682SOL     OW32944   1.534   1.818   3.744
10682SOL    HW132945   1.606   1.748   3.752
10682SOL    HW232946   1.574   1.908   3.762
10683SOL     OW32947   3.364   1.845   4.085
10683SOL    HW132948   3.376   1.805   4.176
10683SOL    HW232949   3.403   1.937   4.084
10684SOL     OW32950   5.047   4.336   1.316
10684SOL    HW132951   4.976   4.367   1.254
10684SOL    HW232952   5.056   4.236   1.309
10685SOL     OW32953   0.388   5.292   2.875
10685SOL    HW132954   0.317   5.330   2.934
10685SOL    HW232955   0.452   5.238   2.929
10686SOL     OW32956   1.631   4.633   6.454
10686SOL    HW132957   1.659   4.618   6.359
10686SOL    HW232958   1.536   4.604   6.465
10687SOL     OW32959   0.012   5.497   2.094
10687SOL    HW132960   0.088   5.558   2.118
10687SOL    HW232961   0.041   5.402   2.108
10688SOL     OW32962   6.679   4.176   2.954
10688SOL    HW132963   6.762   4.175   3.009
10688SOL    HW232964   6.620   4.251   2.984
10689SOL     OW32965   0.858   6.834   3.846
10689SOL    HW132966   0.927   6.846   3.775
10689SOL    HW232967   0.771   6.808   3.804
10690SOL     OW32968   6.987   5.934   3.365
10690SOL    HW132969   7.002   5.862   3.298
10690SOL    HW232970   6.890   5.956   3.368
10691SOL     OW32971   0.956   1.202   2.490
10691SOL    HW132972   0.997   1.292   2.478
10691SOL    HW232973   0.878   1.208   2.552
10692SOL     OW32974   3.529   4.877   2.452
10692SOL    HW132975   3.470   4.805   2.488
10692SOL    HW232976   3.516   4.885   2.353
10693SOL     OW32977   2.227   0.121   1.324
10693SOL    HW132978   2.219   0.130   1.225
10693SOL    HW232979   2.195   0.205   1.368
10694SOL     OW32980   4.726   6.346   1.230
10694SOL    HW132981   4.800   6.286   1.261
10694SOL    HW232982   4.723   6.346   1.130
10695SOL     OW32983   5.391   2.677   2.731
10695SOL    HW132984   5.362   2.761   2.777
10695SOL    HW232985   5.398   2.692   2.633
10696SOL     OW32986   6.786   4.165   3.362
10696SOL    HW132987   6.855   4.134   3.428
10696SOL    HW232988   6.719   4.092   3.347
10697SOL     OW32989   0.335   5.875   4.637
10697SOL    HW132990   0.382   5.793   4.605
10697SOL    HW232991   0.339   5.880   4.736
10698SOL     OW32992   4.243   6.308   4.269
10698SOL    HW132993   4.208   6.230   4.321
10698SOL    HW232994   4.317   6.351   4.319
10699SOL     OW32995   4.224   2.280   2.020
10699SOL    HW132996   4.137   2.253   2.060
10699SOL    HW232997   4.209   2.343   1.944
10700SOL     OW32998   1.103   0.234   0.892
10700SOL    HW132999   1.131   0.162   0.956
10700SOL    HW233000   1.184   0.266   0.842
10701SOL     OW33001   3.512   5.918   0.260
10701SOL    HW133002   3.471   5.959   0.342
10701SOL    HW233003   3.468   5.955   0.178
10702SOL     OW33004   6.154   2.138   2.915
10702SOL    HW133005   6.089   2.161   2.988
10702SOL    HW233006   6.118   2.060   2.863
10703SOL     OW33007   3.342   2.924   4.230
10703SOL    HW133008   3.268   2.955   4.171
10703SOL    HW233009   3.410   2.875   4.175
10704SOL     OW33010   6.164   5.327   1.960
10704SOL    HW133011   6.215   5.413   1.957
10704SOL    HW233012   6.212   5.258   1.905
10705SOL     OW33013   6.787   4.310   2.353
10705SOL    HW133014   6.690   4.313   2.330
10705SOL    HW233015   6.833   4.242   2.297
10706SOL     OW33016   4.613   6.298   1.990
10706SOL    HW133017   4.571   6.214   1.956
10706SOL    HW233018   4.708   6.302   1.960
10707SOL     OW33019   0.975   6.789   4.095
10707SOL    HW133020   0.951   6.706   4.146
10707SOL    HW233021   0.945   6.780   4.000
10708SOL     OW33022   4.523   0.801   2.348
10708SOL    HW133023   4.483   0.839   2.432
10708SOL    HW233024   4.450   0.784   2.281
10709SOL     OW33025   5.970   0.682   4.985
10709SOL    HW133026   6.005   0.627   4.909
10709SOL    HW233027   5.879   0.716   4.961
10710SOL     OW33028   0.917   6.315   3.889
10710SOL    HW133029   0.913   6.215   3.889
10710SOL    HW233030   0.866   6.351   3.811
10711SOL     OW33031   1.788   6.820   3.973
10711SOL    HW133032   1.842   6.814   3.888
10711SOL    HW233033   1.784   6.915   4.002
10712SOL     OW33034   3.609   0.838   1.872
10712SOL    HW133035   3.580   0.826   1.777
10712SOL    HW233036   3.709   0.839   1.876
10713SOL     OW33037   1.019   3.497   1.804
10713SOL    HW133038   1.030   3.431   1.730
10713SOL    HW233039   1.021   3.590   1.766
10714SOL     OW33040   5.993   3.013   5.590
10714SOL    HW133041   5.943   3.099   5.593
10714SOL    HW233042   6.090   3.029   5.607
10715SOL     OW33043   4.493   6.895   2.795
10715SOL    HW133044   4.464   6.856   2.883
10715SOL    HW233045   4.566   6.961   2.811
10716SOL     OW33046   6.823   2.515   3.533
10716SOL    HW133047   6.843   2.577   3.608
10716SOL    HW233048   6.784   2.566   3.457
10717SOL     OW33049   0.371   2.422   0.352
10717SOL    HW133050   0.351   2.357   0.425
10717SOL    HW233051   0.396   2.372   0.269
10718SOL     OW33052   6.991   4.292   0.028
10718SOL    HW133053   6.982   4.375   0.082
10718SOL    HW233054   0.014   4.221   0.084
10719SOL     OW33055   4.588   5.975   0.987
10719SOL    HW133056   4.509   5.919   0.962
10719SOL    HW233057   4.565   6.031   1.067
10720SOL     OW33058   0.000   3.231   5.969
10720SOL    HW133059   6.934   3.196   6.007
10720SOL    HW233060   0.077   3.177   6.005
10721SOL     OW33061   5.825   2.826   5.236
10721SOL    HW133062   5.736   2.870   5.223
10721SOL    HW233063   5.821   2.733   5.199
10722SOL     OW33064   0.004   2.764   0.453
10722SOL    HW133065   6.991   2.813   0.373
10722SOL    HW233066   0.062   2.688   0.424
10723SOL     OW33067   6.919   4.374   6.637
10723SOL    HW133068   6.888   4.448   6.577
10723SOL    HW233069   6.852   4.359   6.709
10724SOL     OW33070   3.447   0.135   6.271
10724SOL    HW133071   3.507   0.215   6.260
10724SOL    HW233072   3.409   0.134   6.363
10725SOL     OW33073   0.007   4.917   3.833
10725SOL    HW133074   0.076   4.928   3.904
10725SOL    HW233075   0.043   4.954   3.747
10726SOL     OW33076   5.733   6.336   5.543
10726SOL    HW133077   5.803   6.380   5.486
10726SOL    HW233078   5.671   6.406   5.578
10727SOL     OW33079   1.933   4.554   4.375
10727SOL    HW133080   1.933   4.625   4.304
10727SOL    HW233081   1.838   4.531   4.398
10728SOL     OW33082   6.007   6.471   2.059
10728SOL    HW133083   5.933   6.405   2.043
10728SOL    HW233084   6.004   6.501   2.154
10729SOL     OW33085   6.446   1.264   3.086
10729SOL    HW133086   6.436   1.176   3.132
10729SOL    HW233087   6.538   1.300   3.103
10730SOL     OW33088   2.566   6.970   0.869
10730SOL    HW133089   2.532   6.884   0.832
10730SOL    HW233090   2.657   6.956   0.907
10731SOL     OW33091   2.186   5.677   6.823
10731SOL    HW133092   2.192   5.728   6.908
10731SOL    HW233093   2.217   5.734   6.747
10732SOL     OW33094   5.682   6.780   2.424
10732SOL    HW133095   5.682   6.759   2.522
10732SOL    HW233096   5.616   6.721   2.377
10733SOL     OW33097   5.802   2.721   6.934
10733SOL    HW133098   5.703   2.723   6.919
10733SOL    HW233099   5.822   2.671   7.019
10734SOL     OW33100   1.416   0.560   6.472
10734SOL    HW133101   1.349   0.634   6.476
10734SOL    HW233102   1.405   0.501   6.551
10735SOL     OW33103   1.339   4.363   2.372
10735SOL    HW133104   1.364   4.284   2.428
10735SOL    HW233105   1.256   4.406   2.408
10736SOL     OW33106   0.719   1.210   3.541
10736SOL    HW133107   0.629   1.213   3.498
10736SOL    HW233108   0.719   1.142   3.614
10737SOL     OW33109   0.926   1.977   0.209
10737SOL    HW133110   0.887   1.956   0.299
10737SOL    HW233111   0.992   2.052   0.218
10738SOL     OW33112   2.908   0.145   1.669
10738SOL    HW133113   2.958   0.231   1.675
10738SOL    HW233114   2.956   0.075   1.722
10739SOL     OW33115   0.536   0.804   3.267
10739SOL    HW133116   0.613   0.817   3.330
10739SOL    HW233117   0.470   0.877   3.280
10740SOL     OW33118   1.140   5.066   5.877
10740SOL    HW133119   1.138   5.136   5.805
10740SOL    HW233120   1.235   5.048   5.903
10741SOL     OW33121   1.384   1.207   3.527
10741SOL    HW133122   1.312   1.277   3.524
10741SOL    HW233123   1.342   1.116   3.529
10742SOL     OW33124   6.030   0.236   2.126
10742SOL    HW133125   6.055   0.310   2.064
10742SOL    HW233126   5.979   0.273   2.203
10743SOL     OW33127   2.599   2.467   3.541
10743SOL    HW133128   2.671   2.408   3.506
10743SOL    HW233129   2.560   2.520   3.466
10744SOL     OW33130   3.319   1.526   2.483
10744SOL    HW133131   3.378   1.596   2.525
10744SOL    HW233132   3.238   1.570   2.443
10745SOL     OW33133   1.378   4.728   0.455
10745SOL    HW133134   1.398   4.773   0.542
10745SOL    HW233135   1.419   4.637   0.455
10746SOL     OW33136   2.127   4.579   1.030
10746SOL    HW133137   2.223   4.589   1.002
10746SOL    HW233138   2.123   4.568   1.130
10747SOL     OW33139   5.168   1.564   3.250
10747SOL    HW133140   5.237   1.503   3.212
10747SOL    HW233141   5.188   1.658   3.222
10748SOL     OW33142   5.980   6.819   1.045
10748SOL    HW133143   6.062   6.789   0.997
10748SOL    HW233144   5.995   6.813   1.144
10749SOL     OW33145   0.226   5.021   2.899
10749SOL    HW133146   0.265   5.113   2.896
10749SOL    HW233147   0.255   4.970   2.818
10750SOL     OW33148   4.750   5.002   4.677
10750SOL    HW133149   4.797   4.923   4.717
10750SOL    HW233150   4.654   4.979   4.661
10751SOL     OW33151   0.804   3.411   5.182
10751SOL    HW133152   0.812   3.453   5.092
10751SOL    HW233153   0.732   3.456   5.234
10752SOL     OW33154   5.898   3.659   6.605
10752SOL    HW133155   5.877   3.621   6.695
10752SOL    HW233156   5.952   3.742   6.616
10753SOL     OW33157   6.027   0.117   3.538
10753SOL    HW133158   6.052   0.020   3.548
10753SOL    HW233159   6.102   0.166   3.493
10754SOL     OW33160   1.992   2.322   2.942
10754SOL    HW133161   1.973   2.355   2.849
10754SOL    HW233162   1.909   2.284   2.982
10755SOL     OW33163   6.974   1.639   0.847
10755SOL    HW133164   0.036   1.652   0.791
10755SOL    HW233165   6.896   1.620   0.788
10756SOL     OW33166   6.279   3.852   0.534
10756SOL    HW133167   6.289   3.822   0.439
10756SOL    HW233168   6.347   3.923   0.554
10757SOL     OW33169   6.910   3.738   0.366
10757SOL    HW133170   6.894   3.774   0.458
10757SOL    HW233171   6.843   3.667   0.347
10758SOL     OW33172   1.576   6.267   4.898
10758SOL    HW133173   1.624   6.187   4.860
10758SOL    HW233174   1.551   6.329   4.824
10759SOL     OW33175   1.914   3.129   6.827
10759SOL    HW133176   1.943   3.161   6.737
10759SOL    HW233177   1.976   3.167   6.896
10760SOL     OW33178   6.659   0.040   1.118
10760SOL    HW133179   6.649   6.974   1.169
10760SOL    HW233180   6.659   0.117   1.181
10761SOL     OW33181   0.318   2.090   6.107
10761SOL    HW133182   0.382   2.046   6.043
10761SOL    HW233183   0.264   2.158   6.058
10762SOL     OW33184   4.744   1.125   5.006
10762SOL    HW133185   4.810   1.176   4.951
10762SOL    HW233186   4.660   1.112   4.953
10763SOL     OW33187   4.849   6.072   0.979
10763SOL    HW133188   4.822   6.167   0.969
10763SOL    HW233189   4.767   6.014   0.980
10764SOL     OW33190   5.352   1.962   6.344
10764SOL    HW133191   5.349   2.021   6.425
10764SOL    HW233192   5.429   1.988   6.286
10765SOL     OW33193   5.610   2.521   1.084
10765SOL    HW133194   5.523   2.545   1.127
10765SOL    HW233195   5.684   2.573   1.126
10766SOL     OW33196   2.823   3.556   0.293
10766SOL    HW133197   2.834   3.456   0.292
10766SOL    HW233198   2.895   3.598   0.237
10767SOL     OW33199   1.533   0.734   0.879
10767SOL    HW133200   1.537   0.816   0.823
10767SOL    HW233201   1.586   0.661   0.835
10768SOL     OW33202   5.516   5.679   0.239
10768SOL    HW133203   5.453   5.652   0.311
10768SOL    HW233204   5.542   5.775   0.251
10769SOL     OW33205   2.495   5.259   5.036
10769SOL    HW133206   2.517   5.313   5.117
10769SOL    HW233207   2.400   5.229   5.042
10770SOL     OW33208   5.839   0.141   4.217
10770SOL    HW133209   5.825   0.237   4.243
10770SOL    HW233210   5.933   0.114   4.238
10771SOL     OW33211   4.803   7.008   5.491
10771SOL    HW133212   4.753   6.943   5.549
10771SOL    HW233213   4.802   0.079   5.533
10772SOL     OW33214   6.149   0.122   4.075
10772SOL    HW133215   6.179   0.041   4.025
10772SOL    HW233216   6.127   0.098   4.169
10773SOL     OW33217   6.986   5.117   6.832
10773SOL    HW133218   7.012   5.094   6.925
10773SOL    HW233219   0.039   5.089   6.769
10774SOL     OW33220   1.434   2.255   6.897
10774SOL    HW133221   1.504   2.199   6.943
10774SOL    HW233222   1.421   2.340   6.949
10775SOL     OW33223   1.788   3.759   0.339
10775SOL    HW133224   1.746   3.839   0.384
10775SOL    HW233225   1.732   3.732   0.261
10776SOL     OW33226   1.142   6.386   0.909
10776SOL    HW133227   1.114   6.467   0.857
10776SOL    HW233228   1.063   6.326   0.922
10777SOL     OW33229   4.407   0.471   3.868
10777SOL    HW133230   4.378   0.376   3.860
10777SOL    HW233231   4.417   0.495   3.964
10778SOL     OW33232   5.763   0.045   4.466
10778SOL    HW133233   5.798   0.059   4.373
10778SOL    HW233234   5.686   7.001   4.463
10779SOL     OW33235   6.847   4.609   3.218
10779SOL    HW133236   6.878   4.570   3.131
10779SOL    HW233237   6.802   4.697   3.200
10780SOL     OW33238   1.525   6.615   3.010
10780SOL    HW133239   1.490   6.694   2.961
10780SOL    HW233240   1.570   6.553   2.946
10781SOL     OW33241   3.658   1.812   3.846
10781SOL    HW133242   3.575   1.756   3.845
10781SOL    HW233243   3.707   1.798   3.932
10782SOL     OW33244   6.177   2.602   3.378
10782SOL    HW133245   6.275   2.605   3.399
10782SOL    HW233246   6.155   2.512   3.340
10783SOL     OW33247   1.331   3.253   2.625
10783SOL    HW133248   1.376   3.285   2.709
10783SOL    HW233249   1.401   3.224   2.560
10784SOL     OW33250   2.367   6.713   1.756
10784SOL    HW133251   2.295   6.757   1.701
10784SOL    HW233252   2.367   6.751   1.848
10785SOL     OW33253   1.805   4.337   1.608
10785SOL    HW133254   1.903   4.349   1.623
10785SOL    HW233255   1.787   4.242   1.583
10786SOL     OW33256   5.164   3.269   1.223
10786SOL    HW133257   5.132   3.363   1.209
10786SOL    HW233258   5.089   3.214   1.258
10787SOL     OW33259   3.455   1.846   4.922
10787SOL    HW133260   3.444   1.851   4.823
10787SOL    HW233261   3.445   1.937   4.962
10788SOL     OW33262   2.255   4.412   0.142
10788SOL    HW133263   2.329   4.377   0.084
10788SOL    HW233264   2.194   4.337   0.167
10789SOL     OW33265   5.386   1.706   0.695
10789SOL    HW133266   5.405   1.620   0.647
10789SOL    HW233267   5.287   1.721   0.698
10790SOL     OW33268   0.527   0.658   5.022
10790SOL    HW133269   0.508   0.736   4.964
10790SOL    HW233270   0.445   0.634   5.074
10791SOL     OW33271   0.832   1.172   1.505
10791SOL    HW133272   0.772   1.174   1.585
10791SOL    HW233273   0.927   1.171   1.535
10792SOL     OW33274   2.922   3.114   1.902
10792SOL    HW133275   2.940   3.018   1.925
10792SOL    HW233276   3.001   3.153   1.856
10793SOL     OW33277   5.393   2.396   4.297
10793SOL    HW133278   5.450   2.450   4.236
10793SOL    HW233279   5.323   2.455   4.338
10794SOL     OW33280   3.512   3.797   2.578
10794SOL    HW133281   3.502   3.743   2.662
10794SOL    HW233282   3.436   3.862   2.571
10795SOL     OW33283   6.127   4.482   4.004
10795SOL    HW133284   6.167   4.393   4.027
10795SOL    HW233285   6.116   4.489   3.905
10796SOL     OW33286   3.405   6.310   6.595
10796SOL    HW133287   3.443   6.308   6.503
10796SOL    HW233288   3.320   6.363   6.594
10797SOL     OW33289   4.344   2.649   0.948
10797SOL    HW133290   4.346   2.677   1.044
10797SOL    HW233291   4.438   2.647   0.913
10798SOL     OW33292   1.805   0.173   0.624
10798SOL    HW133293   1.724   0.126   0.658
10798SOL    HW233294   1.884   0.150   0.681
10799SOL     OW33295   3.543   1.557   1.841
10799SOL    HW133296   3.504   1.559   1.749
10799SOL    HW233297   3.598   1.640   1.856
10800SOL     OW33298   1.190   6.967   0.178
10800SOL    HW133299   1.152   6.948   0.269
10800SOL    HW233300   1.288   6.945   0.178
10801SOL     OW33301   0.914   0.190   4.879
10801SOL    HW133302   0.869   0.127   4.942
10801SOL    HW233303   0.877   0.177   4.787
10802SOL     OW33304   2.177   3.563   5.015
10802SOL    HW133305   2.188   3.496   4.941
10802SOL    HW233306   2.237   3.540   5.091
10803SOL     OW33307   5.218   4.423   4.987
10803SOL    HW133308   5.130   4.384   5.014
10803SOL    HW233309   5.251   4.376   4.905
10804SOL     OW33310   0.130   4.510   1.710
10804SOL    HW133311   0.122   4.515   1.611
10804SOL    HW233312   0.044   4.476   1.749
10805SOL     OW33313   3.531   6.540   6.765
10805SOL    HW133314   3.448   6.595   6.778
10805SOL    HW233315   3.610   6.590   6.800
10806SOL     OW33316   5.238   4.444   0.188
10806SOL    HW133317   5.251   4.444   0.288
10806SOL    HW233318   5.176   4.370   0.163
10807SOL     OW33319   3.198   6.641   3.578
10807SOL    HW133320   3.205   6.563   3.640
10807SOL    HW233321   3.252   6.623   3.496
10808SOL     OW33322   0.502   3.680   0.571
10808SOL    HW133323   0.519   3.651   0.665
10808SOL    HW233324   0.588   3.703   0.526
10809SOL     OW33325   2.818   0.045   3.979
10809SOL    HW133326   2.875   0.041   3.897
10809SOL    HW233327   2.852   0.118   4.039
10810SOL     OW33328   1.075   0.973   5.442
10810SOL    HW133329   1.061   0.879   5.412
10810SOL    HW233330   1.005   0.999   5.507
10811SOL     OW33331   4.577   5.108   4.955
10811SOL    HW133332   4.650   5.136   5.018
10811SOL    HW233333   4.587   5.011   4.934
10812SOL     OW33334   0.492   3.193   2.452
10812SOL    HW133335   0.534   3.119   2.400
10812SOL    HW233336   0.393   3.187   2.445
10813SOL     OW33337   1.876   6.098   6.950
10813SOL    HW133338   1.881   6.197   6.947
10813SOL    HW233339   1.822   6.070   0.010
10814SOL     OW33340   1.674   6.795   6.019
10814SOL    HW133341   1.731   6.726   5.973
10814SOL    HW233342   1.732   6.851   6.078
10815SOL     OW33343   5.054   5.428   3.646
10815SOL    HW133344   5.137   5.378   3.671
10815SOL    HW233345   5.062   5.523   3.675
10816SOL     OW33346   1.371   1.221   2.331
10816SOL    HW133347   1.421   1.188   2.251
10816SOL    HW233348   1.414   1.188   2.414
10817SOL     OW33349   5.445   6.557   2.511
10817SOL    HW133350   5.490   6.516   2.431
10817SOL    HW233351   5.352   6.521   2.519
10818SOL     OW33352   4.996   4.017   5.684
10818SOL    HW133353   5.027   3.928   5.717
10818SOL    HW233354   5.075   4.070   5.652
10819SOL     OW33355   0.393   4.390   0.265
10819SOL    HW133356   0.309   4.335   0.271
10819SOL    HW233357   0.465   4.346   0.320
10820SOL     OW33358   6.387   6.728   3.823
10820SOL    HW133359   6.369   6.791   3.747
10820SOL    HW233360   6.476   6.685   3.810
10821SOL     OW33361   5.035   5.868   2.350
10821SOL    HW133362   5.090   5.946   2.379
10821SOL    HW233363   4.949   5.868   2.401
10822SOL     OW33364   1.349   2.208   3.266
10822SOL    HW133365   1.265   2.154   3.270
10822SOL    HW233366   1.326   2.305   3.261
10823SOL     OW33367   1.654   4.910   1.251
10823SOL    HW133368   1.672   4.822   1.296
10823SOL    HW233369   1.630   4.978   1.320
10824SOL     OW33370   4.970   0.247   4.166
10824SOL    HW133371   4.973   0.232   4.067
10824SOL    HW233372   4.889   0.300   4.189
10825SOL     OW33373   2.222   0.737   0.557
10825SOL    HW133374   2.317   0.766   0.571
10825SOL    HW233375   2.212   0.698   0.466
10826SOL     OW33376   0.180   3.755   3.659
10826SOL    HW133377   0.210   3.844   3.626
10826SOL    HW233378   0.259   3.697   3.676
10827SOL     OW33379   5.970   3.988   4.670
10827SOL    HW133380   6.013   4.057   4.611
10827SOL    HW233381   5.985   4.012   4.766
10828SOL     OW33382   1.360   5.881   2.458
10828SOL    HW133383   1.324   5.816   2.524
10828SOL    HW233384   1.306   5.966   2.462
10829SOL     OW33385   3.699   2.916   0.319
10829SOL    HW133386   3.660   2.902   0.228
10829SOL    HW233387   3.763   2.993   0.316
10830SOL     OW33388   4.713   1.766   3.105
10830SOL    HW133389   4.627   1.759   3.054
10830SOL    HW233390   4.708   1.707   3.186
10831SOL     OW33391   4.504   5.805   2.145
10831SOL    HW133392   4.422   5.828   2.092
10831SOL    HW233393   4.512   5.706   2.152
10832SOL     OW33394   6.895   1.985   0.566
10832SOL    HW133395   6.921   1.952   0.657
10832SOL    HW233396   6.860   1.908   0.512
10833SOL     OW33397   1.743   0.992   4.039
10833SOL    HW133398   1.692   0.924   3.985
10833SOL    HW233399   1.779   0.949   4.121
10834SOL     OW33400   0.587   2.195   6.316
10834SOL    HW133401   0.589   2.096   6.304
10834SOL    HW233402   0.592   2.217   6.414
10835SOL     OW33403   5.197   2.203   1.250
10835SOL    HW133404   5.186   2.216   1.151
10835SOL    HW233405   5.203   2.292   1.295
10836SOL     OW33406   6.086   1.215   5.292
10836SOL    HW133407   5.996   1.207   5.248
10836SOL    HW233408   6.156   1.175   5.232
10837SOL     OW33409   0.607   5.029   0.366
10837SOL    HW133410   0.599   5.051   0.269
10837SOL    HW233411   0.543   5.085   0.418
10838SOL     OW33412   5.645   6.836   4.189
10838SOL    HW133413   5.597   6.832   4.276
10838SOL    HW233414   5.596   6.895   4.125
10839SOL     OW33415   3.436   2.909   0.452
10839SOL    HW133416   3.525   2.917   0.408
10839SOL    HW233417   3.365   2.896   0.382
10840SOL     OW33418   4.189   6.062   1.794
10840SOL    HW133419   4.113   6.006   1.762
10840SOL    HW233420   4.153   6.148   1.832
10841SOL     OW33421   3.957   6.436   6.725
10841SOL    HW133422   3.983   6.341   6.709
10841SOL    HW233423   3.863   6.440   6.759
10842SOL     OW33424   6.266   3.487   0.840
10842SOL    HW133425   6.202   3.448   0.773
10842SOL    HW233426   6.251   3.585   0.846
10843SOL     OW33427   0.656   1.816   1.987
10843SOL    HW133428   0.720   1.816   2.064
10843SOL    HW233429   0.706   1.806   1.901
10844SOL     OW33430   0.582   6.695   4.036
10844SOL    HW133431   0.663   6.738   4.077
10844SOL    HW233432   0.511   6.764   4.021
10845SOL     OW33433   2.162   0.742   0.946
10845SOL    HW133434   2.137   0.775   0.854
10845SOL    HW233435   2.106   0.663   0.969
10846SOL     OW33436   4.392   3.094   0.619
10846SOL    HW133437   4.381   3.000   0.589
10846SOL    HW233438   4.379   3.156   0.541
10847SOL     OW33439   2.983   2.171   6.279
10847SOL    HW133440   2.949   2.151   6.187
10847SOL    HW233441   3.075   2.210   6.271
10848SOL     OW33442   3.345   2.435   6.558
10848SOL    HW133443   3.407   2.405   6.631
10848SOL    HW233444   3.360   2.378   6.477
10849SOL     OW33445   3.179   4.981   3.343
10849SOL    HW133446   3.145   4.989   3.249
10849SOL    HW233447   3.277   4.963   3.342
10850SOL     OW33448   4.681   6.181   6.544
10850SOL    HW133449   4.666   6.094   6.497
10850SOL    HW233450   4.760   6.228   6.503
10851SOL     OW33451   2.408   2.636   6.513
10851SOL    HW133452   2.342   2.701   6.551
10851SOL    HW233453   2.358   2.566   6.462
10852SOL     OW33454   0.129   6.645   6.028
10852SOL    HW133455   0.228   6.660   6.028
10852SOL    HW233456   0.092   6.669   5.939
10853SOL     OW33457   3.836   1.588   5.515
10853SOL    HW133458   3.787   1.626   5.436
10853SOL    HW233459   3.852   1.491   5.501
10854SOL     OW33460   6.376   0.340   5.399
10854SOL    HW133461   6.440   0.268   5.372
10854SOL    HW233462   6.282   0.312   5.376
10855SOL     OW33463   2.787   6.250   2.402
10855SOL    HW133464   2.786   6.224   2.305
10855SOL    HW233465   2.722   6.192   2.452
10856SOL     OW33466   5.898   1.096   2.095
10856SOL    HW133467   5.927   1.001   2.112
10856SOL    HW233468   5.916   1.151   2.177
10857SOL     OW33469   5.645   2.441   3.762
10857SOL    HW133470   5.701   2.520   3.788
10857SOL    HW233471   5.550   2.457   3.789
10858SOL     OW33472   1.053   2.700   6.532
10858SOL    HW133473   0.975   2.713   6.471
10858SOL    HW233474   1.027   2.641   6.608
10859SOL     OW33475   2.551   4.503   4.120
10859SOL    HW133476   2.573   4.516   4.023
10859SOL    HW233477   2.464   4.453   4.127
10860SOL     OW33478   6.621   1.123   5.576
10860SOL    HW133479   6.544   1.113   5.639
10860SOL    HW233480   6.663   1.213   5.589
10861SOL     OW33481   3.673   2.896   2.018
10861SOL    HW133482   3.716   2.916   2.106
10861SOL    HW233483   3.700   2.965   1.951
10862SOL     OW33484   2.682   1.600   6.437
10862SOL    HW133485   2.747   1.592   6.512
10862SOL    HW233486   2.590   1.615   6.473
10863SOL     OW33487   3.742   0.647   2.207
10863SOL    HW133488   3.764   0.604   2.295
10863SOL    HW233489   3.644   0.661   2.200
10864SOL     OW33490   2.782   4.698   1.219
10864SOL    HW133491   2.832   4.641   1.155
10864SOL    HW233492   2.844   4.764   1.261
10865SOL     OW33493   5.540   2.170   3.846
10865SOL    HW133494   5.590   2.257   3.850
10865SOL    HW233495   5.554   2.128   3.757
10866SOL     OW33496   6.254   3.751   0.821
10866SOL    HW133497   6.254   3.765   0.722
10866SOL    HW233498   6.163   3.771   0.858
10867SOL     OW33499   3.158   3.552   0.343
10867SOL    HW133500   3.120   3.619   0.279
10867SOL    HW233501   3.096   3.473   0.349
10868SOL     OW33502   1.747   1.540   3.235
10868SOL    HW133503   1.683   1.615   3.221
10868SOL    HW233504   1.733   1.470   3.165
10869NA      NA33505   0.367   2.534   6.200
10870NA      NA33506   4.289   4.614   5.243
10871NA      NA33507   2.342   4.287   2.180
10872NA      NA33508   5.141   4.549   3.569
10873NA      NA33509   4.227   2.395   5.297
10874NA      NA33510   3.429   4.560   1.386
10875NA      NA33511   0.942   4.517   0.447
10876NA      NA33512   4.115   4.301   1.612
10877NA      NA33513   4.911   4.764   1.001
10878NA      NA33514   3.587   0.186   5.532
10879NA      NA33515   6.052   5.354   1.191
10880NA      NA33516   1.810   0.917   5.995
10881NA      NA33517   4.854   5.050   2.398
10882NA      NA33518   3.687   2.995   0.860
   7.01950   7.01950   7.01950
