Generated by trjconv : CNT in water t= 576.00000
33518
    1C        C    1   2.848   2.772   4.750
    1C        C    2   2.904   2.724   4.870
    1C        C    3   2.847   2.774   4.988
    1C        C    4   2.854   2.781   4.262
    1C        C    5   2.907   2.736   4.385
    1C        C    6   2.850   2.777   4.507
    1C        C    7   3.017   2.645   4.625
    1C        C    8   2.899   2.723   4.628
    1C        C    9   3.081   2.605   4.745
    1C        C   10   3.016   2.638   4.866
    1C        C   11   3.180   2.489   4.972
    1C        C   12   3.063   2.566   4.976
    1C        C   13   2.852   2.772   3.775
    1C        C   14   2.906   2.725   3.897
    1C        C   15   2.854   2.777   4.018
    1C        C   16   3.022   2.651   4.140
    1C        C   17   2.906   2.732   4.141
    1C        C   18   3.087   2.620   4.262
    1C        C   19   3.026   2.659   4.383
    1C        C   20   3.214   2.560   4.504
    1C        C   21   3.083   2.614   4.504
    1C        C   22   3.282   2.534   4.625
    1C        C   23   3.213   2.552   4.747
    1C        C   24   3.415   2.480   4.865
    1C        C   25   3.274   2.502   4.865
    1C        C   26   3.490   2.478   4.984
    1C        C   27   2.855   2.773   3.282
    1C        C   28   2.908   2.727   3.405
    1C        C   29   2.859   2.775   3.528
    1C        C   30   3.021   2.644   3.650
    1C        C   31   2.905   2.725   3.652
    1C        C   32   3.083   2.613   3.773
    1C        C   33   3.021   2.644   3.896
    1C        C   34   3.211   2.552   4.017
    1C        C   35   3.082   2.610   4.019
    1C        C   36   3.279   2.529   4.139
    1C        C   37   3.212   2.554   4.261
    1C        C   38   3.420   2.505   4.383
    1C        C   39   3.282   2.537   4.382
    1C        C   40   3.492   2.498   4.504
    1C        C   41   3.419   2.500   4.625
    1C        C   42   3.633   2.480   4.747
    1C        C   43   3.491   2.479   4.745
    1C        C   44   3.709   2.481   4.866
    1C        C   45   3.629   2.477   4.981
    1C        C   46   2.843   2.756   2.796
    1C        C   47   2.903   2.717   2.917
    1C        C   48   2.857   2.771   3.039
    1C        C   49   3.023   2.639   3.162
    1C        C   50   2.911   2.725   3.161
    1C        C   51   3.082   2.603   3.285
    1C        C   52   3.022   2.644   3.407
    1C        C   53   3.211   2.547   3.528
    1C        C   54   3.084   2.609   3.529
    1C        C   55   3.279   2.527   3.650
    1C        C   56   3.212   2.557   3.771
    1C        C   57   3.417   2.509   3.895
    1C        C   58   3.278   2.535   3.894
    1C        C   59   3.489   2.500   4.016
    1C        C   60   3.419   2.506   4.138
    1C        C   61   3.631   2.490   4.260
    1C        C   62   3.490   2.500   4.260
    1C        C   63   3.706   2.495   4.379
    1C        C   64   3.633   2.500   4.500
    1C        C   65   3.835   2.544   4.624
    1C        C   66   3.699   2.506   4.625
    1C        C   67   3.907   2.563   4.745
    1C        C   68   3.842   2.527   4.865
    1C        C   69   4.053   2.587   4.979
    1C        C   70   3.923   2.533   4.979
    1C        C   71   2.829   2.737   2.312
    1C        C   72   2.888   2.693   2.433
    1C        C   73   2.834   2.748   2.552
    1C        C   74   3.008   2.624   2.675
    1C        C   75   2.893   2.706   2.673
    1C        C   76   3.076   2.596   2.796
    1C        C   77   3.017   2.634   2.918
    1C        C   78   3.212   2.545   3.037
    1C        C   79   3.082   2.599   3.039
    1C        C   80   3.279   2.526   3.160
    1C        C   81   3.210   2.545   3.282
    1C        C   82   3.414   2.494   3.404
    1C        C   83   3.275   2.519   3.405
    1C        C   84   3.486   2.491   3.526
    1C        C   85   3.418   2.499   3.649
    1C        C   86   3.627   2.499   3.772
    1C        C   87   3.486   2.491   3.773
    1C        C   88   3.699   2.507   3.894
    1C        C   89   3.630   2.495   4.016
    1C        C   90   3.837   2.543   4.140
    1C        C   91   3.701   2.503   4.138
    1C        C   92   3.904   2.575   4.260
    1C        C   93   3.840   2.541   4.382
    1C        C   94   4.028   2.635   4.500
    1C        C   95   3.907   2.563   4.504
    1C        C   96   4.091   2.672   4.621
    1C        C   97   4.031   2.631   4.743
    1C        C   98   4.190   2.770   4.863
    1C        C   99   4.099   2.660   4.865
    1C        C  100   4.215   2.847   4.978
    1C        C  101   2.827   2.731   2.073
    1C        C  102   2.995   2.594   2.192
    1C        C  103   2.880   2.680   2.192
    1C        C  104   3.066   2.575   2.313
    1C        C  105   3.009   2.621   2.434
    1C        C  106   3.204   2.533   2.553
    1C        C  107   3.073   2.587   2.555
    1C        C  108   3.276   2.523   2.674
    1C        C  109   3.206   2.541   2.795
    1C        C  110   3.416   2.491   2.916
    1C        C  111   3.277   2.515   2.915
    1C        C  112   3.487   2.484   3.038
    1C        C  113   3.417   2.496   3.161
    1C        C  114   3.629   2.493   3.280
    1C        C  115   3.488   2.490   3.283
    1C        C  116   3.697   2.500   3.404
    1C        C  117   3.627   2.493   3.527
    1C        C  118   3.832   2.546   3.647
    1C        C  119   3.696   2.507   3.649
    1C        C  120   3.897   2.575   3.769
    1C        C  121   3.834   2.550   3.893
    1C        C  122   4.022   2.640   4.015
    1C        C  123   3.898   2.572   4.016
    1C        C  124   4.088   2.676   4.134
    1C        C  125   4.029   2.640   4.257
    1C        C  126   4.195   2.770   4.381
    1C        C  127   4.088   2.678   4.380
    1C        C  128   4.243   2.823   4.503
    1C        C  129   4.195   2.768   4.623
    1C        C  130   4.327   2.940   4.743
    1C        C  131   4.242   2.826   4.743
    1C        C  132   4.358   3.007   4.863
    1C        C  133   4.291   2.964   4.978
    1C        C  134   3.175   2.469   2.082
    1C        C  135   3.040   2.508   2.087
    1C        C  136   3.262   2.478   2.191
    1C        C  137   3.195   2.515   2.310
    1C        C  138   3.407   2.478   2.429
    1C        C  139   3.267   2.500   2.431
    1C        C  140   3.483   2.474   2.548
    1C        C  141   3.413   2.491   2.670
    1C        C  142   3.625   2.487   2.790
    1C        C  143   3.483   2.484   2.792
    1C        C  144   3.694   2.497   2.912
    1C        C  145   3.628   2.493   3.037
    1C        C  146   3.836   2.536   3.158
    1C        C  147   3.700   2.499   3.158
    1C        C  148   3.902   2.561   3.280
    1C        C  149   3.834   2.535   3.401
    1C        C  150   4.024   2.629   3.525
    1C        C  151   3.897   2.566   3.524
    1C        C  152   4.087   2.668   3.646
    1C        C  153   4.023   2.640   3.768
    1C        C  154   4.188   2.771   3.889
    1C        C  155   4.077   2.683   3.892
    1C        C  156   4.241   2.818   4.011
    1C        C  157   4.197   2.766   4.135
    1C        C  158   4.337   2.924   4.255
    1C        C  159   4.250   2.813   4.258
    1C        C  160   4.375   2.987   4.376
    1C        C  161   4.331   2.934   4.499
    1C        C  162   4.439   3.118   4.619
    1C        C  163   4.369   2.995   4.620
    1C        C  164   4.466   3.188   4.739
    1C        C  165   4.432   3.127   4.861
    1C        C  166   4.516   3.325   4.976
    1C        C  167   4.480   3.191   4.976
    1C        C  168   3.478   2.437   2.075
    1C        C  169   3.401   2.453   2.190
    1C        C  170   3.620   2.473   2.308
    1C        C  171   3.478   2.462   2.308
    1C        C  172   3.694   2.490   2.427
    1C        C  173   3.624   2.479   2.549
    1C        C  174   3.833   2.536   2.666
    1C        C  175   3.696   2.499   2.668
    1C        C  176   3.897   2.562   2.789
    1C        C  177   3.830   2.538   2.911
    1C        C  178   4.023   2.625   3.031
    1C        C  179   3.899   2.556   3.033
    1C        C  180   4.080   2.666   3.153
    1C        C  181   4.025   2.630   3.278
    1C        C  182   4.190   2.759   3.400
    1C        C  183   4.082   2.669   3.402
    1C        C  184   4.240   2.812   3.521
    1C        C  185   4.193   2.760   3.644
    1C        C  186   4.331   2.923   3.767
    1C        C  187   4.241   2.814   3.766
    1C        C  188   4.371   2.983   3.889
    1C        C  189   4.332   2.926   4.012
    1C        C  190   4.438   3.112   4.133
    1C        C  191   4.375   2.985   4.133
    1C        C  192   4.466   3.178   4.254
    1C        C  193   4.440   3.112   4.376
    1C        C  194   4.503   3.319   4.494
    1C        C  195   4.465   3.183   4.496
    1C        C  196   4.520   3.391   4.615
    1C        C  197   4.517   3.321   4.738
    1C        C  198   4.552   3.538   4.854
    1C        C  199   4.534   3.396   4.857
    1C        C  200   4.582   3.626   4.963
    1C        C  201   3.617   2.419   2.074
    1C        C  202   3.829   2.509   2.181
    1C        C  203   3.694   2.461   2.187
    1C        C  204   3.902   2.539   2.300
    1C        C  205   3.832   2.519   2.421
    1C        C  206   4.023   2.618   2.541
    1C        C  207   3.899   2.551   2.542
    1C        C  208   4.082   2.659   2.663
    1C        C  209   4.023   2.624   2.786
    1C        C  210   4.195   2.749   2.908
    1C        C  211   4.083   2.663   2.909
    1C        C  212   4.244   2.802   3.029
    1C        C  213   4.191   2.753   3.151
    1C        C  214   4.323   2.916   3.273
    1C        C  215   4.239   2.803   3.275
    1C        C  216   4.364   2.977   3.394
    1C        C  217   4.327   2.923   3.520
    1C        C  218   4.430   3.106   3.643
    1C        C  219   4.369   2.979   3.643
    1C        C  220   4.457   3.174   3.764
    1C        C  221   4.434   3.109   3.887
    1C        C  222   4.505   3.309   4.005
    1C        C  223   4.466   3.173   4.009
    1C        C  224   4.520   3.381   4.126
    1C        C  225   4.508   3.313   4.249
    1C        C  226   4.524   3.526   4.369
    1C        C  227   4.519   3.385   4.370
    1C        C  228   4.526   3.601   4.489
    1C        C  229   4.535   3.531   4.611
    1C        C  230   4.506   3.746   4.728
    1C        C  231   4.535   3.607   4.731
    1C        C  232   4.494   3.821   4.847
    1C        C  233   4.549   3.762   4.961
    1C        C  234   4.023   2.608   2.061
    1C        C  235   3.898   2.546   2.066
    1C        C  236   4.087   2.648   2.179
    1C        C  237   4.026   2.608   2.299
    1C        C  238   4.201   2.736   2.422
    1C        C  239   4.086   2.653   2.419
    1C        C  240   4.253   2.788   2.543
    1C        C  241   4.192   2.748   2.664
    1C        C  242   4.329   2.911   2.783
    1C        C  243   4.245   2.798   2.785
    1C        C  244   4.370   2.969   2.905
    1C        C  245   4.332   2.913   3.029
    1C        C  246   4.437   3.096   3.151
    1C        C  247   4.367   2.974   3.152
    1C        C  248   4.459   3.165   3.273
    1C        C  249   4.428   3.102   3.396
    1C        C  250   4.496   3.303   3.515
    1C        C  251   4.452   3.169   3.518
    1C        C  252   4.513   3.374   3.636
    1C        C  253   4.500   3.309   3.761
    1C        C  254   4.532   3.519   3.879
    1C        C  255   4.520   3.378   3.882
    1C        C  256   4.526   3.590   4.000
    1C        C  257   4.528   3.522   4.124
    1C        C  258   4.498   3.733   4.245
    1C        C  259   4.524   3.594   4.245
    1C        C  260   4.476   3.805   4.364
    1C        C  261   4.499   3.740   4.487
    1C        C  262   4.433   3.946   4.605
    1C        C  263   4.485   3.814   4.606
    1C        C  264   4.408   4.014   4.726
    1C        C  265   4.439   3.951   4.848
    1C        C  266   4.328   4.135   4.961
    1C        C  267   4.399   4.016   4.966
    1C        C  268   4.262   2.780   2.062
    1C        C  269   4.200   2.733   2.178
    1C        C  270   4.344   2.893   2.301
    1C        C  271   4.251   2.785   2.299
    1C        C  272   4.383   2.958   2.419
    1C        C  273   4.339   2.899   2.540
    1C        C  274   4.439   3.091   2.661
    1C        C  275   4.370   2.968   2.660
    1C        C  276   4.466   3.157   2.783
    1C        C  277   4.442   3.091   2.906
    1C        C  278   4.499   3.295   3.025
    1C        C  279   4.468   3.157   3.028
    1C        C  280   4.514   3.367   3.146
    1C        C  281   4.495   3.301   3.270
    1C        C  282   4.521   3.512   3.390
    1C        C  283   4.507   3.372   3.392
    1C        C  284   4.517   3.582   3.513
    1C        C  285   4.522   3.515   3.637
    1C        C  286   4.493   3.727   3.754
    1C        C  287   4.525   3.590   3.756
    1C        C  288   4.474   3.794   3.877
    1C        C  289   4.495   3.728   4.000
    1C        C  290   4.429   3.930   4.117
    1C        C  291   4.483   3.799   4.121
    1C        C  292   4.404   4.000   4.237
    1C        C  293   4.431   3.939   4.362
    1C        C  294   4.325   4.126   4.480
    1C        C  295   4.402   4.008   4.482
    1C        C  296   4.281   4.183   4.602
    1C        C  297   4.328   4.132   4.725
    1C        C  298   4.199   4.312   4.841
    1C        C  299   4.284   4.197   4.843
    1C        C  300   4.168   4.403   4.947
    1C        C  301   4.354   2.885   2.066
    1C        C  302   4.474   3.070   2.178
    1C        C  303   4.404   2.945   2.183
    1C        C  304   4.485   3.147   2.297
    1C        C  305   4.450   3.083   2.418
    1C        C  306   4.509   3.288   2.536
    1C        C  307   4.477   3.151   2.539
    1C        C  308   4.516   3.358   2.658
    1C        C  309   4.497   3.295   2.783
    1C        C  310   4.525   3.507   2.899
    1C        C  311   4.514   3.366   2.904
    1C        C  312   4.524   3.578   3.021
    1C        C  313   4.519   3.508   3.144
    1C        C  314   4.491   3.719   3.266
    1C        C  315   4.515   3.579   3.266
    1C        C  316   4.478   3.789   3.388
    1C        C  317   4.497   3.722   3.510
    1C        C  318   4.428   3.926   3.627
    1C        C  319   4.478   3.794   3.630
    1C        C  320   4.394   3.988   3.750
    1C        C  321   4.426   3.927   3.873
    1C        C  322   4.316   4.108   3.990
    1C        C  323   4.396   3.992   3.995
    1C        C  324   4.280   4.167   4.113
    1C        C  325   4.328   4.119   4.237
    1C        C  326   4.182   4.279   4.356
    1C        C  327   4.283   4.180   4.357
    1C        C  328   4.133   4.334   4.477
    1C        C  329   4.189   4.290   4.599
    1C        C  330   4.023   4.431   4.716
    1C        C  331   4.139   4.348   4.717
    1C        C  332   3.968   4.488   4.833
    1C        C  333   4.051   4.480   4.945
    1C        C  334   4.556   3.267   2.060
    1C        C  335   4.538   3.129   2.064
    1C        C  336   4.539   3.350   2.172
    1C        C  337   4.517   3.285   2.295
    1C        C  338   4.528   3.501   2.412
    1C        C  339   4.524   3.360   2.415
    1C        C  340   4.529   3.571   2.535
    1C        C  341   4.530   3.499   2.656
    1C        C  342   4.494   3.713   2.773
    1C        C  343   4.519   3.574   2.775
    1C        C  344   4.479   3.781   2.896
    1C        C  345   4.497   3.717   3.020
    1C        C  346   4.424   3.916   3.139
    1C        C  347   4.473   3.784   3.142
    1C        C  348   4.393   3.981   3.261
    1C        C  349   4.425   3.920   3.384
    1C        C  350   4.321   4.107   3.502
    1C        C  351   4.399   3.989   3.504
    1C        C  352   4.276   4.164   3.623
    1C        C  353   4.318   4.107   3.745
    1C        C  354   4.175   4.265   3.868
    1C        C  355   4.273   4.163   3.867
    1C        C  356   4.124   4.314   3.991
    1C        C  357   4.175   4.262   4.112
    1C        C  358   4.011   4.399   4.232
    1C        C  359   4.125   4.316   4.232
    1C        C  360   3.950   4.440   4.353
    1C        C  361   4.016   4.412   4.475
    1C        C  362   3.828   4.516   4.595
    1C        C  363   3.959   4.461   4.594
    1C        C  364   3.760   4.546   4.715
    1C        C  365   3.838   4.542   4.833
    1C        C  366   3.629   4.596   4.948
    1C        C  367   3.766   4.570   4.950
    1C        C  368   4.510   3.564   2.053
    1C        C  369   4.526   3.491   2.171
    1C        C  370   4.508   3.709   2.287
    1C        C  371   4.526   3.569   2.288
    1C        C  372   4.497   3.782   2.408
    1C        C  373   4.508   3.711   2.529
    1C        C  374   4.427   3.911   2.649
    1C        C  375   4.480   3.780   2.649
    1C        C  376   4.401   3.977   2.772
    1C        C  377   4.432   3.915   2.895
    1C        C  378   4.325   4.099   3.013
    1C        C  379   4.404   3.982   3.015
    1C        C  380   4.277   4.156   3.133
    1C        C  381   4.315   4.099   3.257
    1C        C  382   4.175   4.259   3.379
    1C        C  383   4.274   4.158   3.379
    1C        C  384   4.120   4.306   3.501
    1C        C  385   4.175   4.263   3.624
    1C        C  386   4.000   4.383   3.742
    1C        C  387   4.119   4.307   3.746
    1C        C  388   3.943   4.421   3.866
    1C        C  389   4.006   4.390   3.989
    1C        C  390   3.817   4.486   4.110
    1C        C  391   3.945   4.428   4.111
    1C        C  392   3.753   4.516   4.232
    1C        C  393   3.822   4.500   4.354
    1C        C  394   3.615   4.554   4.476
    1C        C  395   3.754   4.527   4.475
    1C        C  396   3.545   4.571   4.598
    1C        C  397   3.621   4.571   4.717
    1C        C  398   3.408   4.555   4.840
    1C        C  399   3.546   4.581   4.836
    1C        C  400   3.342   4.517   4.957
    1C        C  401   4.507   3.704   2.051
    1C        C  402   4.459   3.919   2.167
    1C        C  403   4.497   3.783   2.167
    1C        C  404   4.418   3.981   2.287
    1C        C  405   4.446   3.913   2.408
    1C        C  406   4.324   4.093   2.524
    1C        C  407   4.404   3.977   2.527
    1C        C  408   4.278   4.149   2.645
    1C        C  409   4.321   4.093   2.768
    1C        C  410   4.175   4.246   2.889
    1C        C  411   4.276   4.148   2.890
    1C        C  412   4.125   4.299   3.011
    1C        C  413   4.175   4.253   3.135
    1C        C  414   4.002   4.378   3.253
    1C        C  415   4.121   4.302   3.256
    1C        C  416   3.941   4.410   3.376
    1C        C  417   4.001   4.381   3.501
    1C        C  418   3.808   4.477   3.622
    1C        C  419   3.937   4.419   3.621
    1C        C  420   3.746   4.505   3.746
    1C        C  421   3.817   4.484   3.867
    1C        C  422   3.612   4.542   3.988
    1C        C  423   3.750   4.513   3.988
    1C        C  424   3.542   4.546   4.111
    1C        C  425   3.614   4.542   4.232
    1C        C  426   3.403   4.551   4.357
    1C        C  427   3.544   4.556   4.354
    1C        C  428   3.332   4.546   4.479
    1C        C  429   3.404   4.566   4.599
    1C        C  430   3.194   4.524   4.724
    1C        C  431   3.333   4.554   4.720
    1C        C  432   3.124   4.500   4.845
    1C        C  433   3.204   4.499   4.961
    1C        C  434   4.389   4.127   2.051
    1C        C  435   4.453   4.002   2.055
    1C        C  436   4.305   4.163   2.162
    1C        C  437   4.333   4.096   2.284
    1C        C  438   4.184   4.253   2.404
    1C        C  439   4.283   4.153   2.403
    1C        C  440   4.129   4.301   2.525
    1C        C  441   4.180   4.250   2.647
    1C        C  442   4.004   4.374   2.766
    1C        C  443   4.121   4.295   2.768
    1C        C  444   3.942   4.408   2.888
    1C        C  445   4.005   4.374   3.010
    1C        C  446   3.813   4.470   3.133
    1C        C  447   3.942   4.414   3.130
    1C        C  448   3.747   4.494   3.256
    1C        C  449   3.816   4.475   3.378
    1C        C  450   3.606   4.529   3.498
    1C        C  451   3.744   4.500   3.498
    1C        C  452   3.539   4.547   3.621
    1C        C  453   3.609   4.538   3.744
    1C        C  454   3.399   4.554   3.867
    1C        C  455   3.540   4.551   3.867
    1C        C  456   3.330   4.545   3.990
    1C        C  457   3.401   4.549   4.112
    1C        C  458   3.194   4.511   4.236
    1C        C  459   3.332   4.541   4.235
    1C        C  460   3.128   4.489   4.359
    1C        C  461   3.194   4.514   4.481
    1C        C  462   2.999   4.434   4.603
    1C        C  463   3.126   4.495   4.603
    1C        C  464   2.932   4.400   4.722
    1C        C  465   2.992   4.445   4.843
    1C        C  466   2.807   4.334   4.961
    1C        C  467   2.907   4.432   4.958
    1C        C  468   4.127   4.284   2.043
    1C        C  469   4.188   4.246   2.163
    1C        C  470   4.009   4.374   2.282
    1C        C  471   4.126   4.293   2.282
    1C        C  472   3.941   4.402   2.402
    1C        C  473   4.007   4.372   2.523
    1C        C  474   3.814   4.467   2.644
    1C        C  475   3.942   4.407   2.643
    1C        C  476   3.748   4.491   2.766
    1C        C  477   3.814   4.467   2.889
    1C        C  478   3.608   4.522   3.010
    1C        C  479   3.747   4.494   3.010
    1C        C  480   3.536   4.531   3.131
    1C        C  481   3.609   4.522   3.252
    1C        C  482   3.397   4.540   3.377
    1C        C  483   3.538   4.535   3.374
    1C        C  484   3.328   4.542   3.500
    1C        C  485   3.398   4.553   3.622
    1C        C  486   3.192   4.510   3.746
    1C        C  487   3.328   4.546   3.744
    1C        C  488   3.126   4.483   3.868
    1C        C  489   3.193   4.510   3.990
    1C        C  490   3.002   4.423   4.114
    1C        C  491   3.127   4.490   4.113
    1C        C  492   2.942   4.389   4.237
    1C        C  493   3.000   4.430   4.359
    1C        C  494   2.828   4.306   4.482
    1C        C  495   2.938   4.395   4.481
    1C        C  496   2.777   4.254   4.603
    1C        C  497   2.821   4.311   4.725
    1C        C  498   2.666   4.166   4.847
    1C        C  499   2.758   4.273   4.845
    1C        C  500   2.600   4.117   4.961
    1C        C  501   4.006   4.352   2.047
    1C        C  502   3.816   4.465   2.157
    1C        C  503   3.943   4.405   2.161
    1C        C  504   3.743   4.482   2.277
    1C        C  505   3.810   4.457   2.399
    1C        C  506   3.606   4.505   2.522
    1C        C  507   3.745   4.484   2.522
    1C        C  508   3.536   4.519   2.644
    1C        C  509   3.609   4.519   2.765
    1C        C  510   3.398   4.527   2.886
    1C        C  511   3.539   4.528   2.887
    1C        C  512   3.326   4.528   3.008
    1C        C  513   3.395   4.537   3.131
    1C        C  514   3.191   4.495   3.255
    1C        C  515   3.328   4.529   3.255
    1C        C  516   3.126   4.472   3.378
    1C        C  517   3.192   4.502   3.499
    1C        C  518   3.004   4.412   3.625
    1C        C  519   3.127   4.481   3.623
    1C        C  520   2.946   4.370   3.747
    1C        C  521   3.005   4.411   3.868
    1C        C  522   2.840   4.284   3.996
    1C        C  523   2.948   4.376   3.993
    1C        C  524   2.790   4.237   4.120
    1C        C  525   2.838   4.293   4.241
    1C        C  526   2.698   4.135   4.364
    1C        C  527   2.780   4.250   4.362
    1C        C  528   2.655   4.079   4.486
    1C        C  529   2.688   4.145   4.607
    1C        C  530   2.580   3.964   4.730
    1C        C  531   2.640   4.093   4.729
    1C        C  532   2.542   3.905   4.854
    1C        C  533   2.530   3.996   4.964
    1C        C  534   3.618   4.559   2.039
    1C        C  535   3.752   4.517   2.044
    1C        C  536   3.536   4.537   2.154
    1C        C  537   3.606   4.517   2.276
    1C        C  538   3.396   4.511   2.402
    1C        C  539   3.537   4.517   2.399
    1C        C  540   3.321   4.508   2.522
    1C        C  541   3.395   4.514   2.642
    1C        C  542   3.188   4.487   2.766
    1C        C  543   3.326   4.516   2.765
    1C        C  544   3.124   4.465   2.890
    1C        C  545   3.190   4.490   3.012
    1C        C  546   2.998   4.403   3.135
    1C        C  547   3.122   4.471   3.134
    1C        C  548   2.946   4.362   3.259
    1C        C  549   3.001   4.405   3.382
    1C        C  550   2.835   4.278   3.508
    1C        C  551   2.943   4.369   3.505
    1C        C  552   2.782   4.230   3.630
    1C        C  553   2.836   4.281   3.750
    1C        C  554   2.702   4.123   3.875
    1C        C  555   2.790   4.234   3.875
    1C        C  556   2.663   4.065   3.998
    1C        C  557   2.703   4.126   4.120
    1C        C  558   2.599   3.945   4.248
    1C        C  559   2.663   4.070   4.243
    1C        C  560   2.572   3.881   4.371
    1C        C  561   2.592   3.952   4.492
    1C        C  562   2.528   3.750   4.616
    1C        C  563   2.561   3.888   4.613
    1C        C  564   2.519   3.684   4.741
    1C        C  565   2.527   3.763   4.859
    1C        C  566   2.543   3.547   4.978
    1C        C  567   2.527   3.685   4.975
    1C        C  568   3.330   4.473   2.040
    1C        C  569   3.396   4.511   2.158
    1C        C  570   3.186   4.472   2.280
    1C        C  571   3.324   4.508   2.280
    1C        C  572   3.117   4.455   2.401
    1C        C  573   3.183   4.480   2.523
    1C        C  574   2.988   4.403   2.648
    1C        C  575   3.115   4.465   2.646
    1C        C  576   2.931   4.366   2.772
    1C        C  577   2.997   4.402   2.891
    1C        C  578   2.831   4.271   3.017
    1C        C  579   2.936   4.366   3.013
    1C        C  580   2.782   4.223   3.141
    1C        C  581   2.834   4.275   3.261
    1C        C  582   2.701   4.115   3.386
    1C        C  583   2.788   4.226   3.385
    1C        C  584   2.664   4.054   3.508
    1C        C  585   2.701   4.114   3.631
    1C        C  586   2.592   3.937   3.759
    1C        C  587   2.661   4.061   3.755
    1C        C  588   2.569   3.872   3.882
    1C        C  589   2.603   3.938   4.003
    1C        C  590   2.541   3.740   4.131
    1C        C  591   2.575   3.877   4.127
    1C        C  592   2.524   3.672   4.253
    1C        C  593   2.532   3.745   4.374
    1C        C  594   2.513   3.535   4.501
    1C        C  595   2.519   3.677   4.496
    1C        C  596   2.516   3.465   4.623
    1C        C  597   2.518   3.542   4.742
    1C        C  598   2.539   3.328   4.868
    1C        C  599   2.530   3.468   4.862
    1C        C  600   2.540   3.250   4.984
    1C        C  601   3.198   4.433   2.044
    1C        C  602   2.982   4.393   2.162
    1C        C  603   3.119   4.436   2.160
    1C        C  604   2.922   4.360   2.287
    1C        C  605   2.988   4.397   2.406
    1C        C  606   2.822   4.265   2.530
    1C        C  607   2.928   4.358   2.528
    1C        C  608   2.772   4.221   2.654
    1C        C  609   2.825   4.272   2.775
    1C        C  610   2.687   4.111   2.898
    1C        C  611   2.777   4.220   2.897
    1C        C  612   2.654   4.053   3.023
    1C        C  613   2.696   4.111   3.144
    1C        C  614   2.589   3.929   3.269
    1C        C  615   2.656   4.054   3.267
    1C        C  616   2.565   3.867   3.394
    1C        C  617   2.596   3.930   3.516
    1C        C  618   2.531   3.732   3.639
    1C        C  619   2.564   3.869   3.639
    1C        C  620   2.519   3.664   3.763
    1C        C  621   2.526   3.737   3.884
    1C        C  622   2.514   3.530   4.010
    1C        C  623   2.523   3.671   4.009
    1C        C  624   2.517   3.461   4.133
    1C        C  625   2.514   3.531   4.256
    1C        C  626   2.547   3.324   4.381
    1C        C  627   2.520   3.463   4.380
    1C        C  628   2.567   3.258   4.504
    1C        C  629   2.539   3.326   4.625
    1C        C  630   2.596   3.120   4.748
    1C        C  631   2.555   3.256   4.747
    1C        C  632   2.617   3.050   4.870
    1C        C  633   2.560   3.111   4.986
    1C        C  634   2.782   4.307   2.055
    1C        C  635   2.892   4.393   2.051
    1C        C  636   2.746   4.232   2.168
    1C        C  637   2.810   4.272   2.287
    1C        C  638   2.677   4.108   2.411
    1C        C  639   2.766   4.217   2.410
    1C        C  640   2.641   4.050   2.535
    1C        C  641   2.685   4.109   2.656
    1C        C  642   2.586   3.922   2.779
    1C        C  643   2.649   4.048   2.778
    1C        C  644   2.560   3.859   2.903
    1C        C  645   2.590   3.927   3.024
    1C        C  646   2.523   3.728   3.150
    1C        C  647   2.561   3.864   3.147
    1C        C  648   2.513   3.660   3.273
    1C        C  649   2.524   3.732   3.394
    1C        C  650   2.509   3.522   3.520
    1C        C  651   2.513   3.663   3.517
    1C        C  652   2.516   3.452   3.642
    1C        C  653   2.514   3.523   3.764
    1C        C  654   2.536   3.318   3.893
    1C        C  655   2.511   3.457   3.889
    1C        C  656   2.559   3.251   4.016
    1C        C  657   2.541   3.322   4.137
    1C        C  658   2.603   3.120   4.262
    1C        C  659   2.558   3.254   4.259
    1C        C  660   2.634   3.056   4.384
    1C        C  661   2.602   3.121   4.505
    1C        C  662   2.712   2.941   4.629
    1C        C  663   2.627   3.054   4.627
    1C        C  664   2.753   2.878   4.749
    1C        C  665   2.695   2.929   4.868
    1C        C  666   2.748   2.872   4.984
    1C        C  667   2.680   4.025   2.053
    1C        C  668   2.685   4.105   2.168
    1C        C  669   2.586   3.914   2.289
    1C        C  670   2.645   4.044   2.289
    1C        C  671   2.559   3.851   2.412
    1C        C  672   2.585   3.921   2.532
    1C        C  673   2.518   3.723   2.659
    1C        C  674   2.561   3.857   2.656
    1C        C  675   2.509   3.654   2.782
    1C        C  676   2.525   3.723   2.904
    1C        C  677   2.505   3.515   3.031
    1C        C  678   2.510   3.657   3.028
    1C        C  679   2.508   3.447   3.154
    1C        C  680   2.504   3.519   3.276
    1C        C  681   2.532   3.309   3.401
    1C        C  682   2.508   3.449   3.399
    1C        C  683   2.557   3.246   3.525
    1C        C  684   2.539   3.313   3.648
    1C        C  685   2.609   3.116   3.771
    1C        C  686   2.555   3.247   3.772
    1C        C  687   2.645   3.057   3.895
    1C        C  688   2.611   3.120   4.017
    1C        C  689   2.714   2.939   4.140
    1C        C  690   2.632   3.054   4.140
    1C        C  691   2.758   2.886   4.263
    1C        C  692   2.714   2.939   4.386
    1C        C  693   2.757   2.883   4.508
    1C        C  694   2.623   3.897   2.055
    1C        C  695   2.523   3.706   2.175
    1C        C  696   2.573   3.837   2.171
    1C        C  697   2.503   3.640   2.299
    1C        C  698   2.518   3.716   2.417
    1C        C  699   2.490   3.508   2.544
    1C        C  700   2.501   3.649   2.540
    1C        C  701   2.502   3.437   2.666
    1C        C  702   2.500   3.513   2.786
    1C        C  703   2.529   3.304   2.910
    1C        C  704   2.507   3.444   2.909
    1C        C  705   2.551   3.239   3.033
    1C        C  706   2.534   3.308   3.155
    1C        C  707   2.606   3.112   3.280
    1C        C  708   2.551   3.242   3.279
    1C        C  709   2.640   3.052   3.404
    1C        C  710   2.611   3.116   3.526
    1C        C  711   2.721   2.936   3.650
    1C        C  712   2.643   3.054   3.649
    1C        C  713   2.762   2.881   3.774
    1C        C  714   2.720   2.938   3.896
    1C        C  715   2.765   2.887   4.020
    1C        C  716   2.449   3.499   2.062
    1C        C  717   2.486   3.634   2.061
    1C        C  718   2.469   3.424   2.182
    1C        C  719   2.483   3.499   2.302
    1C        C  720   2.514   3.294   2.428
    1C        C  721   2.482   3.431   2.426
    1C        C  722   2.549   3.229   2.549
    1C        C  723   2.530   3.299   2.670
    1C        C  724   2.592   3.096   2.794
    1C        C  725   2.543   3.229   2.792
    1C        C  726   2.630   3.038   2.918
    1C        C  727   2.600   3.106   3.038
    1C        C  728   2.713   2.926   3.160
    1C        C  729   2.634   3.043   3.160
    1C        C  730   2.760   2.877   3.284
    1C        C  731   2.717   2.933   3.406
    1C        C  732   2.761   2.877   3.528
    1C        C  733   2.494   3.199   2.073
    1C        C  734   2.492   3.282   2.185
    1C        C  735   2.581   3.089   2.309
    1C        C  736   2.523   3.218   2.308
    1C        C  737   2.618   3.024   2.429
    1C        C  738   2.591   3.094   2.548
    1C        C  739   2.698   2.914   2.673
    1C        C  740   2.622   3.033   2.671
    1C        C  741   2.748   2.861   2.794
    1C        C  742   2.711   2.923   2.915
    1C        C  743   2.754   2.868   3.038
    1C        C  744   2.551   3.072   2.078
    1C        C  745   2.688   2.898   2.188
    1C        C  746   2.609   3.015   2.192
    1C        C  747   2.732   2.841   2.309
    1C        C  748   2.695   2.905   2.429
    1C        C  749   2.740   2.853   2.552
    1C        C  750   2.743   2.841   2.072
    1C        C  751   3.671   2.356   1.950
    1C        O  752   3.746   2.255   1.950
    1C        O  753   3.630   2.394   1.822
    1C        C  754   4.624   3.055   1.970
    1C        O  755   4.593   3.035   1.849
    1C        O  756   4.748   3.008   2.017
    1C        C  757   4.452   4.227   1.962
    1C        O  758   4.564   4.280   1.988
    1C        O  759   4.421   4.243   1.827
    1C        C  760   3.602   4.675   1.948
    1C        O  761   3.565   4.791   1.982
    1C        O  762   3.576   4.665   1.811
    1C        C  763   2.886   4.494   1.943
    1C        O  764   2.901   4.454   1.825
    1C        O  765   2.872   4.630   1.973
    1C        C  766   2.334   3.478   1.971
    1C        O  767   2.336   3.477   1.845
    1C        O  768   2.208   3.531   2.001
    1C        C  769   4.707   3.591   5.033
    1C        O  770   4.697   3.561   5.155
    1C        O  771   4.831   3.645   4.997
    1C        C  772   4.259   4.436   5.059
    1C        O  773   4.243   4.387   5.174
    1C        O  774   4.333   4.554   5.065
    1C        C  775   4.152   2.524   5.069
    1C        O  776   4.174   2.404   5.101
    1C        O  777   4.184   2.598   5.184
    1C        C  778   2.879   4.549   5.044
    1C        O  779   2.794   4.635   5.007
    1C        O  780   2.922   4.573   5.175
    1C        C  781   2.470   3.037   5.077
    1C        O  782   2.346   3.047   5.060
    1C        O  783   2.526   2.979   5.190
    1C        C  784   2.413   3.999   5.055
    1C        O  785   2.307   4.043   5.003
    1C        O  786   2.425   4.034   5.190
    1C        C  787   2.938   2.420   2.026
    1C        O  788   2.865   2.446   1.927
    1C        O  789   2.920   2.298   2.091
    1C        C  790   3.184   2.375   5.066
    1C        O  791   3.098   2.284   5.049
    1C        O  792   3.208   2.410   5.199
    1C        H  793   4.263   3.036   5.052
    1C        H  794   4.184   2.807   5.072
    1C        H  795   4.467   3.147   5.073
    1C        H  796   4.577   3.353   5.060
    1C        H  797   4.595   3.827   5.033
    1C        H  798   4.426   3.981   5.064
    1C        H  799   4.300   4.178   5.055
    1C        H  800   4.022   4.536   5.032
    1C        H  801   3.819   4.604   5.036
    1C        H  802   3.586   4.627   5.041
    1C        H  803   3.395   4.494   5.047
    1C        H  804   3.159   4.518   5.056
    1C        H  805   3.891   2.478   5.065
    1C        H  806   3.677   2.422   5.059
    1C        H  807   3.024   2.588   5.074
    1C        H  808   3.441   2.449   5.074
    1C        H  809   2.911   2.781   5.074
    1C        H  810   2.711   2.901   5.080
    1C        H  811   2.493   3.292   5.071
    1C        H  812   2.591   3.503   5.063
    1C        H  813   2.548   3.739   5.065
    1C        H  814   2.611   4.170   5.054
    1C        H  815   2.799   4.279   5.053
    1C        H  816   2.714   2.880   1.976
    1C        H  817   2.824   2.668   1.986
    1C        H  818   3.199   2.391   2.012
    1C        H  819   3.429   2.454   1.981
    1C        H  820   3.869   2.504   1.972
    1C        H  821   4.074   2.611   1.967
    1C        H  822   4.273   2.715   1.978
    1C        H  823   4.393   2.919   1.973
    1C        H  824   4.566   3.311   1.963
    1C        H  825   4.534   3.516   1.960
    1C        H  826   4.563   3.742   1.968
    1C        H  827   3.803   4.510   1.951
    1C        H  828   3.956   4.367   1.953
    1C        H  829   4.157   4.242   1.950
    1C        H  830   4.544   3.998   1.999
    1C        H  831   2.565   3.874   1.968
    1C        H  832   2.766   4.027   1.989
    1C        H  833   2.707   4.324   1.981
    1C        H  834   3.361   4.530   1.955
    1C        H  835   3.174   4.368   1.963
    1C        H  836   2.508   3.003   2.008
    1C        H  837   2.412   3.211   2.005
    1C        H  838   2.456   3.694   1.977
    2V3OU   H29  839   2.799   3.552   6.343
    2V3OU   C27  840   2.782   3.501   6.441
    2V3OU   H27  841   2.725   3.570   6.508
    2V3OU   H28  842   2.729   3.403   6.435
    2V3OU   O11  843   2.908   3.473   6.501
    2V3OU   C15  844   2.923   3.397   6.615
    2V3OU   C13  845   3.052   3.379   6.668
    2V3OU   C14  846   3.077   3.269   6.751
    2V3OU   C16  847   2.973   3.189   6.796
    2V3OU    H6  848   2.999   3.094   6.844
    2V3OU   C12  849   3.217   3.230   6.782
    2V3OU    O2  850   3.244   3.130   6.853
    2V3OU   C10  851   3.327   3.306   6.721
    2V3OU    C8  852   3.460   3.267   6.730
    2V3OU   O10  853   3.488   3.146   6.784
    2V3OU   H26  854   3.400   3.116   6.811
    2V3OU    C6  855   3.568   3.348   6.683
    2V3OU    C5  856   3.541   3.469   6.621
    2V3OU    C4  857   3.707   3.294   6.683
    2V3OU    H4  858   3.723   3.230   6.775
    2V3OU    H5  859   3.713   3.227   6.592
    2V3OU    C2  860   3.817   3.400   6.682
    2V3OU    O6  861   3.799   3.472   6.804
    2V3OU   H21  862   3.769   3.562   6.784
    2V3OU    C3  863   3.783   3.501   6.573
    2V3OU    H2  864   3.866   3.576   6.578
    2V3OU    H3  865   3.783   3.445   6.476
    2V3OU   C25  866   3.954   3.334   6.665
    2V3OU    O7  867   4.006   3.301   6.558
    2V3OU   C26  868   4.029   3.290   6.789
    2V3OU   H22  869   4.057   3.386   6.840
    2V3OU   H23  870   4.118   3.228   6.762
    2V3OU    O8  871   3.966   3.210   6.887
    2V3OU   H24  872   3.920   3.270   6.947
    2V3OU    C1  873   3.648   3.569   6.586
    2V3OU    H1  874   3.625   3.622   6.489
    2V3OU    O3  875   3.657   3.659   6.697
    2V3OU   C19  876   3.619   3.796   6.689
    2V3OU    H9  877   3.519   3.800   6.637
    2V3OU    O4  878   3.713   3.855   6.601
    2V3OU   C20  879   3.843   3.875   6.657
    2V3OU   H10  880   3.891   3.774   6.674
    2V3OU   C24  881   3.610   3.859   6.828
    2V3OU   H16  882   3.540   3.796   6.888
    2V3OU   H17  883   3.565   3.960   6.814
    2V3OU   C23  884   3.750   3.878   6.887
    2V3OU   H15  885   3.790   3.773   6.907
    2V3OU    N1  886   3.737   3.955   7.010
    2V3OU   H19  887   3.807   3.922   0.046
    2V3OU   H20  888   3.651   3.930   0.029
    2V3OU   C21  889   3.848   3.950   6.789
    2V3OU   H11  890   3.953   3.936   6.830
    2V3OU    O5  891   3.824   4.090   6.784
    2V3OU   H18  892   3.785   4.104   6.872
    2V3OU   C22  893   3.914   3.952   6.547
    2V3OU   H12  894   3.860   4.048   6.525
    2V3OU   H13  895   3.911   3.891   6.453
    2V3OU   H14  896   4.024   3.964   6.568
    2V3OU   C11  897   3.160   3.473   6.635
    2V3OU    O1  898   3.136   3.590   6.596
    2V3OU    C9  899   3.299   3.426   6.650
    2V3OU    C7  900   3.404   3.502   6.599
    2V3OU    O9  901   3.387   3.621   6.532
    2V3OU   H25  902   3.292   3.639   6.544
    2V3OU   C17  903   2.820   3.319   6.671
    2V3OU    H7  904   2.720   3.348   6.639
    2V3OU   C18  905   2.841   3.213   6.759
    2V3OU    H8  906   2.760   3.146   6.792
    3SOL     OW  907   2.889   3.771   5.137
    3SOL    HW1  908   2.944   3.807   5.061
    3SOL    HW2  909   2.793   3.767   5.110
    4SOL     OW  910   1.483   7.005   0.799
    4SOL    HW1  911   1.506   0.061   0.747
    4SOL    HW2  912   1.384   6.997   0.807
    5SOL     OW  913   3.975   2.091   0.701
    5SOL    HW1  914   4.051   2.110   0.638
    5SOL    HW2  915   4.004   2.021   0.766
    6SOL     OW  916   3.352   1.910   2.075
    6SOL    HW1  917   3.295   1.973   2.127
    6SOL    HW2  918   3.424   1.961   2.028
    7SOL     OW  919   2.248   2.725   4.592
    7SOL    HW1  920   2.252   2.818   4.554
    7SOL    HW2  921   2.244   2.731   4.692
    8SOL     OW  922   1.293   1.921   6.144
    8SOL    HW1  923   1.352   1.873   6.208
    8SOL    HW2  924   1.281   2.016   6.176
    9SOL     OW  925   2.362   2.358   5.628
    9SOL    HW1  926   2.268   2.333   5.653
    9SOL    HW2  927   2.369   2.457   5.622
   10SOL     OW  928   5.476   5.028   0.921
   10SOL    HW1  929   5.396   5.087   0.924
   10SOL    HW2  930   5.456   4.947   0.865
   11SOL     OW  931   3.141   1.271   0.701
   11SOL    HW1  932   3.101   1.259   0.792
   11SOL    HW2  933   3.217   1.207   0.689
   12SOL     OW  934   5.549   4.938   1.199
   12SOL    HW1  935   5.523   5.030   1.172
   12SOL    HW2  936   5.505   4.915   1.286
   13SOL     OW  937   4.128   5.276   1.772
   13SOL    HW1  938   4.043   5.321   1.800
   13SOL    HW2  939   4.205   5.339   1.784
   14SOL     OW  940   4.372   6.095   0.868
   14SOL    HW1  941   4.289   6.060   0.912
   14SOL    HW2  942   4.349   6.172   0.808
   15SOL     OW  943   0.550   0.338   6.529
   15SOL    HW1  944   0.640   0.379   6.512
   15SOL    HW2  945   0.541   0.318   6.626
   16SOL     OW  946   1.907   4.943   5.785
   16SOL    HW1  947   1.858   4.946   5.698
   16SOL    HW2  948   1.983   5.008   5.784
   17SOL     OW  949   0.029   1.865   3.876
   17SOL    HW1  950   6.969   1.869   3.827
   17SOL    HW2  951   0.020   1.910   3.965
   18SOL     OW  952   2.667   7.004   5.440
   18SOL    HW1  953   2.754   0.007   5.479
   18SOL    HW2  954   2.631   6.927   5.494
   19SOL     OW  955   4.337   5.920   2.998
   19SOL    HW1  956   4.255   5.969   3.028
   19SOL    HW2  957   4.384   5.882   3.078
   20SOL     OW  958   0.437   1.826   4.679
   20SOL    HW1  959   0.491   1.851   4.599
   20SOL    HW2  960   0.358   1.887   4.687
   21SOL     OW  961   1.772   3.075   1.778
   21SOL    HW1  962   1.839   3.056   1.708
   21SOL    HW2  963   1.794   3.024   1.861
   22SOL     OW  964   0.751   0.684   0.616
   22SOL    HW1  965   0.831   0.660   0.671
   22SOL    HW2  966   0.716   0.603   0.570
   23SOL     OW  967   0.832   5.613   0.398
   23SOL    HW1  968   0.740   5.580   0.422
   23SOL    HW2  969   0.866   5.673   0.470
   24SOL     OW  970   4.664   0.828   0.085
   24SOL    HW1  971   4.604   0.833   0.005
   24SOL    HW2  972   4.736   0.897   0.077
   25SOL     OW  973   1.218   0.848   5.398
   25SOL    HW1  974   1.309   0.885   5.412
   25SOL    HW2  975   1.158   0.877   5.473
   26SOL     OW  976   2.451   6.713   5.376
   26SOL    HW1  977   2.406   6.652   5.442
   26SOL    HW2  978   2.381   6.762   5.324
   27SOL     OW  979   6.838   0.125   2.403
   27SOL    HW1  980   6.916   0.101   2.346
   27SOL    HW2  981   6.853   0.215   2.444
   28SOL     OW  982   2.310   0.877   5.049
   28SOL    HW1  983   2.381   0.935   5.088
   28SOL    HW2  984   2.244   0.933   4.999
   29SOL     OW  985   5.529   0.746   1.364
   29SOL    HW1  986   5.466   0.813   1.326
   29SOL    HW2  987   5.546   0.674   1.297
   30SOL     OW  988   4.950   6.553   4.771
   30SOL    HW1  989   4.956   6.617   4.847
   30SOL    HW2  990   4.889   6.477   4.796
   31SOL     OW  991   6.315   4.124   4.029
   31SOL    HW1  992   6.240   4.084   4.083
   31SOL    HW2  993   6.398   4.070   4.043
   32SOL     OW  994   3.231   1.291   1.583
   32SOL    HW1  995   3.215   1.193   1.566
   32SOL    HW2  996   3.161   1.344   1.536
   33SOL     OW  997   1.935   4.351   5.366
   33SOL    HW1  998   1.978   4.266   5.336
   33SOL    HW2  999   1.856   4.330   5.423
   34SOL     OW 1000   2.596   6.815   5.049
   34SOL    HW1 1001   2.632   6.788   4.960
   34SOL    HW2 1002   2.596   6.736   5.110
   35SOL     OW 1003   1.568   3.399   5.009
   35SOL    HW1 1004   1.663   3.415   4.982
   35SOL    HW2 1005   1.550   3.444   5.097
   36SOL     OW 1006   5.182   1.224   4.006
   36SOL    HW1 1007   5.095   1.272   4.017
   36SOL    HW2 1008   5.216   1.238   3.913
   37SOL     OW 1009   1.011   5.576   4.074
   37SOL    HW1 1010   0.941   5.636   4.113
   37SOL    HW2 1011   1.010   5.584   3.974
   38SOL     OW 1012   0.879   3.207   1.945
   38SOL    HW1 1013   0.838   3.261   1.872
   38SOL    HW2 1014   0.901   3.116   1.912
   39SOL     OW 1015   6.197   5.426   1.215
   39SOL    HW1 1016   6.211   5.351   1.279
   39SOL    HW2 1017   6.285   5.458   1.180
   40SOL     OW 1018   4.112   0.930   6.391
   40SOL    HW1 1019   4.143   0.861   6.326
   40SOL    HW2 1020   4.128   1.021   6.354
   41SOL     OW 1021   0.095   3.741   1.048
   41SOL    HW1 1022   0.137   3.659   1.088
   41SOL    HW2 1023   0.166   3.806   1.023
   42SOL     OW 1024   2.773   3.545   0.861
   42SOL    HW1 1025   2.816   3.620   0.810
   42SOL    HW2 1026   2.844   3.486   0.900
   43SOL     OW 1027   4.796   0.803   3.824
   43SOL    HW1 1028   4.814   0.764   3.734
   43SOL    HW2 1029   4.778   0.901   3.815
   44SOL     OW 1030   0.101   1.045   6.795
   44SOL    HW1 1031   0.073   1.037   6.891
   44SOL    HW2 1032   0.141   1.135   6.778
   45SOL     OW 1033   1.829   3.438   5.882
   45SOL    HW1 1034   1.842   3.527   5.926
   45SOL    HW2 1035   1.732   3.413   5.885
   46SOL     OW 1036   1.077   4.797   4.380
   46SOL    HW1 1037   1.122   4.710   4.398
   46SOL    HW2 1038   1.146   4.870   4.375
   47SOL     OW 1039   0.179   4.560   6.200
   47SOL    HW1 1040   0.165   4.487   6.133
   47SOL    HW2 1041   0.097   4.619   6.202
   48SOL     OW 1042   1.124   4.117   0.280
   48SOL    HW1 1043   1.048   4.120   0.345
   48SOL    HW2 1044   1.099   4.166   0.197
   49SOL     OW 1045   3.329   0.802   0.132
   49SOL    HW1 1046   3.381   0.839   0.209
   49SOL    HW2 1047   3.373   0.829   0.046
   50SOL     OW 1048   5.081   1.687   5.576
   50SOL    HW1 1049   5.065   1.602   5.626
   50SOL    HW2 1050   5.016   1.694   5.501
   51SOL     OW 1051   1.518   6.093   2.261
   51SOL    HW1 1052   1.548   6.065   2.352
   51SOL    HW2 1053   1.533   6.191   2.249
   52SOL     OW 1054   5.405   3.183   2.842
   52SOL    HW1 1055   5.487   3.217   2.888
   52SOL    HW2 1056   5.376   3.250   2.773
   53SOL     OW 1057   3.838   6.801   0.857
   53SOL    HW1 1058   3.916   6.833   0.910
   53SOL    HW2 1059   3.870   6.759   0.772
   54SOL     OW 1060   0.969   1.416   6.035
   54SOL    HW1 1061   1.001   1.448   6.124
   54SOL    HW2 1062   0.929   1.325   6.045
   55SOL     OW 1063   2.108   3.852   6.419
   55SOL    HW1 1064   2.043   3.778   6.435
   55SOL    HW2 1065   2.198   3.824   6.451
   56SOL     OW 1066   1.413   2.212   6.977
   56SOL    HW1 1067   1.356   2.202   6.895
   56SOL    HW2 1068   1.471   2.292   6.968
   57SOL     OW 1069   4.144   5.555   1.518
   57SOL    HW1 1070   4.208   5.524   1.588
   57SOL    HW2 1071   4.110   5.477   1.467
   58SOL     OW 1072   0.363   0.654   0.256
   58SOL    HW1 1073   0.309   0.737   0.269
   58SOL    HW2 1074   0.459   0.678   0.243
   59SOL     OW 1075   4.176   2.892   6.962
   59SOL    HW1 1076   4.197   2.900   6.865
   59SOL    HW2 1077   4.078   2.898   6.977
   60SOL     OW 1078   6.331   2.477   2.552
   60SOL    HW1 1079   6.426   2.450   2.536
   60SOL    HW2 1080   6.272   2.397   2.546
   61SOL     OW 1081   1.706   5.495   2.499
   61SOL    HW1 1082   1.644   5.418   2.511
   61SOL    HW2 1083   1.743   5.494   2.406
   62SOL     OW 1084   4.969   3.606   3.097
   62SOL    HW1 1085   4.963   3.515   3.056
   62SOL    HW2 1086   4.906   3.668   3.050
   63SOL     OW 1087   4.266   0.040   6.226
   63SOL    HW1 1088   4.262   6.999   6.153
   63SOL    HW2 1089   4.211   0.119   6.202
   64SOL     OW 1090   1.939   2.067   6.796
   64SOL    HW1 1091   1.913   1.973   6.820
   64SOL    HW2 1092   2.014   2.097   6.855
   65SOL     OW 1093   1.053   5.349   5.296
   65SOL    HW1 1094   1.094   5.265   5.330
   65SOL    HW2 1095   1.029   5.337   5.199
   66SOL     OW 1096   4.569   1.127   1.443
   66SOL    HW1 1097   4.504   1.173   1.382
   66SOL    HW2 1098   4.593   1.188   1.518
   67SOL     OW 1099   6.922   3.164   2.526
   67SOL    HW1 1100   6.874   3.200   2.606
   67SOL    HW2 1101   6.986   3.233   2.491
   68SOL     OW 1102   0.551   1.047   6.408
   68SOL    HW1 1103   0.624   1.007   6.465
   68SOL    HW2 1104   0.554   1.006   6.317
   69SOL     OW 1105   1.349   0.464   6.550
   69SOL    HW1 1106   1.306   0.519   6.479
   69SOL    HW2 1107   1.448   0.477   6.546
   70SOL     OW 1108   4.844   5.217   3.373
   70SOL    HW1 1109   4.769   5.168   3.329
   70SOL    HW2 1110   4.836   5.315   3.352
   71SOL     OW 1111   4.970   1.026   5.262
   71SOL    HW1 1112   4.985   1.042   5.359
   71SOL    HW2 1113   4.924   0.938   5.250
   72SOL     OW 1114   6.679   1.858   2.653
   72SOL    HW1 1115   6.646   1.813   2.570
   72SOL    HW2 1116   6.756   1.807   2.691
   73SOL     OW 1117   2.629   0.798   1.225
   73SOL    HW1 1118   2.604   0.890   1.196
   73SOL    HW2 1119   2.628   0.736   1.147
   74SOL     OW 1120   2.315   0.779   0.232
   74SOL    HW1 1121   2.350   0.782   0.138
   74SOL    HW2 1122   2.265   0.864   0.251
   75SOL     OW 1123   2.429   2.638   1.496
   75SOL    HW1 1124   2.331   2.632   1.479
   75SOL    HW2 1125   2.477   2.569   1.442
   76SOL     OW 1126   2.957   5.374   6.365
   76SOL    HW1 1127   2.872   5.393   6.316
   76SOL    HW2 1128   2.938   5.311   6.441
   77SOL     OW 1129   0.007   4.776   4.760
   77SOL    HW1 1130   6.975   4.828   4.696
   77SOL    HW2 1131   0.023   4.831   4.842
   78SOL     OW 1132   5.125   1.280   0.850
   78SOL    HW1 1133   5.159   1.188   0.867
   78SOL    HW2 1134   5.178   1.323   0.777
   79SOL     OW 1135   1.749   3.928   4.053
   79SOL    HW1 1136   1.744   3.832   4.081
   79SOL    HW2 1137   1.692   3.942   3.972
   80SOL     OW 1138   4.057   2.257   5.361
   80SOL    HW1 1139   3.993   2.217   5.427
   80SOL    HW2 1140   4.055   2.203   5.276
   81SOL     OW 1141   2.567   4.710   2.891
   81SOL    HW1 1142   2.486   4.766   2.878
   81SOL    HW2 1143   2.600   4.678   2.802
   82SOL     OW 1144   2.686   0.503   1.399
   82SOL    HW1 1145   2.601   0.465   1.363
   82SOL    HW2 1146   2.751   0.517   1.324
   83SOL     OW 1147   6.156   2.408   3.438
   83SOL    HW1 1148   6.175   2.468   3.516
   83SOL    HW2 1149   6.240   2.362   3.409
   84SOL     OW 1150   4.874   2.397   2.923
   84SOL    HW1 1151   4.852   2.442   2.837
   84SOL    HW2 1152   4.795   2.345   2.955
   85SOL     OW 1153   2.286   5.264   3.073
   85SOL    HW1 1154   2.189   5.283   3.090
   85SOL    HW2 1155   2.330   5.346   3.036
   86SOL     OW 1156   4.509   1.251   6.531
   86SOL    HW1 1157   4.569   1.188   6.581
   86SOL    HW2 1158   4.562   1.333   6.506
   87SOL     OW 1159   3.016   2.993   6.537
   87SOL    HW1 1160   2.953   2.916   6.530
   87SOL    HW2 1161   2.971   3.068   6.586
   88SOL     OW 1162   1.098   2.141   0.889
   88SOL    HW1 1163   1.071   2.237   0.882
   88SOL    HW2 1164   1.194   2.132   0.864
   89SOL     OW 1165   4.243   4.039   5.628
   89SOL    HW1 1166   4.164   4.069   5.682
   89SOL    HW2 1167   4.256   3.940   5.640
   90SOL     OW 1168   6.622   4.480   1.618
   90SOL    HW1 1169   6.720   4.463   1.625
   90SOL    HW2 1170   6.574   4.394   1.601
   91SOL     OW 1171   5.234   5.167   0.555
   91SOL    HW1 1172   5.290   5.089   0.526
   91SOL    HW2 1173   5.280   5.215   0.630
   92SOL     OW 1174   6.402   6.196   6.780
   92SOL    HW1 1175   6.479   6.183   6.843
   92SOL    HW2 1176   6.323   6.232   6.831
   93SOL     OW 1177   2.907   3.575   2.043
   93SOL    HW1 1178   2.940   3.525   2.122
   93SOL    HW2 1179   2.807   3.563   2.035
   94SOL     OW 1180   3.598   0.896   4.578
   94SOL    HW1 1181   3.683   0.848   4.600
   94SOL    HW2 1182   3.578   0.887   4.481
   95SOL     OW 1183   1.085   6.236   4.520
   95SOL    HW1 1184   1.060   6.283   4.605
   95SOL    HW2 1185   1.172   6.272   4.486
   96SOL     OW 1186   0.208   6.603   0.159
   96SOL    HW1 1187   0.296   6.597   0.111
   96SOL    HW2 1188   0.209   6.543   0.239
   97SOL     OW 1189   3.518   4.964   4.393
   97SOL    HW1 1190   3.583   4.953   4.468
   97SOL    HW2 1191   3.437   5.012   4.427
   98SOL     OW 1192   6.573   2.074   5.116
   98SOL    HW1 1193   6.624   2.140   5.171
   98SOL    HW2 1194   6.546   2.116   5.029
   99SOL     OW 1195   4.768   4.488   4.834
   99SOL    HW1 1196   4.769   4.508   4.932
   99SOL    HW2 1197   4.681   4.519   4.794
  100SOL     OW 1198   2.255   2.107   5.176
  100SOL    HW1 1199   2.220   2.104   5.270
  100SOL    HW2 1200   2.344   2.153   5.176
  101SOL     OW 1201   5.060   2.812   2.591
  101SOL    HW1 1202   5.068   2.911   2.587
  101SOL    HW2 1203   4.965   2.785   2.578
  102SOL     OW 1204   4.290   6.311   0.749
  102SOL    HW1 1205   4.204   6.346   0.786
  102SOL    HW2 1206   4.350   6.387   0.726
  103SOL     OW 1207   1.919   1.842   0.979
  103SOL    HW1 1208   1.972   1.868   0.899
  103SOL    HW2 1209   1.821   1.850   0.959
  104SOL     OW 1210   1.041   3.624   1.302
  104SOL    HW1 1211   0.988   3.613   1.217
  104SOL    HW2 1212   0.978   3.636   1.379
  105SOL     OW 1213   0.181   1.893   4.508
  105SOL    HW1 1214   0.148   1.983   4.479
  105SOL    HW2 1215   0.127   1.861   4.586
  106SOL     OW 1216   5.157   3.903   1.444
  106SOL    HW1 1217   5.236   3.876   1.390
  106SOL    HW2 1218   5.141   4.001   1.433
  107SOL     OW 1219   4.459   0.437   2.563
  107SOL    HW1 1220   4.473   0.452   2.661
  107SOL    HW2 1221   4.547   0.442   2.515
  108SOL     OW 1222   3.504   1.390   5.229
  108SOL    HW1 1223   3.506   1.314   5.293
  108SOL    HW2 1224   3.584   1.449   5.245
  109SOL     OW 1225   2.414   1.703   4.498
  109SOL    HW1 1226   2.427   1.753   4.413
  109SOL    HW2 1227   2.434   1.763   4.575
  110SOL     OW 1228   4.384   5.040   5.609
  110SOL    HW1 1229   4.331   5.004   5.685
  110SOL    HW2 1230   4.469   4.989   5.600
  111SOL     OW 1231   7.002   3.298   0.821
  111SOL    HW1 1232   6.963   3.330   0.734
  111SOL    HW2 1233   6.928   3.270   0.882
  112SOL     OW 1234   3.490   6.432   4.425
  112SOL    HW1 1235   3.487   6.482   4.511
  112SOL    HW2 1236   3.511   6.336   4.443
  113SOL     OW 1237   1.724   5.195   2.745
  113SOL    HW1 1238   1.695   5.161   2.835
  113SOL    HW2 1239   1.642   5.213   2.690
  114SOL     OW 1240   6.836   2.586   1.896
  114SOL    HW1 1241   6.923   2.551   1.929
  114SOL    HW2 1242   6.766   2.515   1.902
  115SOL     OW 1243   4.541   1.432   3.242
  115SOL    HW1 1244   4.555   1.452   3.145
  115SOL    HW2 1245   4.539   1.517   3.294
  116SOL     OW 1246   6.071   5.808   6.557
  116SOL    HW1 1247   6.144   5.816   6.489
  116SOL    HW2 1248   6.012   5.731   6.534
  117SOL     OW 1249   2.237   1.108   0.657
  117SOL    HW1 1250   2.147   1.066   0.645
  117SOL    HW2 1251   2.233   1.175   0.731
  118SOL     OW 1252   1.250   2.112   1.508
  118SOL    HW1 1253   1.230   2.142   1.601
  118SOL    HW2 1254   1.346   2.089   1.501
  119SOL     OW 1255   5.685   5.489   4.987
  119SOL    HW1 1256   5.601   5.523   4.945
  119SOL    HW2 1257   5.665   5.411   5.046
  120SOL     OW 1258   4.478   1.761   4.084
  120SOL    HW1 1259   4.439   1.715   4.163
  120SOL    HW2 1260   4.505   1.693   4.016
  121SOL     OW 1261   0.107   5.260   5.774
  121SOL    HW1 1262   0.206   5.247   5.776
  121SOL    HW2 1263   0.064   5.187   5.721
  122SOL     OW 1264   0.857   4.884   6.230
  122SOL    HW1 1265   0.906   4.816   6.177
  122SOL    HW2 1266   0.788   4.839   6.287
  123SOL     OW 1267   0.595   2.142   0.827
  123SOL    HW1 1268   0.514   2.198   0.813
  123SOL    HW2 1269   0.621   2.143   0.924
  124SOL     OW 1270   1.638   3.558   6.830
  124SOL    HW1 1271   1.631   3.627   6.758
  124SOL    HW2 1272   1.655   3.469   6.788
  125SOL     OW 1273   4.397   3.067   0.938
  125SOL    HW1 1274   4.469   3.010   0.978
  125SOL    HW2 1275   4.420   3.088   0.843
  126SOL     OW 1276   3.721   3.345   5.174
  126SOL    HW1 1277   3.788   3.272   5.165
  126SOL    HW2 1278   3.629   3.309   5.155
  127SOL     OW 1279   0.341   4.655   5.914
  127SOL    HW1 1280   0.349   4.561   5.882
  127SOL    HW2 1281   0.377   4.663   6.007
  128SOL     OW 1282   5.121   4.271   5.853
  128SOL    HW1 1283   5.091   4.356   5.896
  128SOL    HW2 1284   5.174   4.217   5.918
  129SOL     OW 1285   1.173   5.422   2.405
  129SOL    HW1 1286   1.087   5.410   2.454
  129SOL    HW2 1287   1.245   5.449   2.469
  130SOL     OW 1288   6.694   3.715   5.175
  130SOL    HW1 1289   6.754   3.682   5.102
  130SOL    HW2 1290   6.703   3.814   5.183
  131SOL     OW 1291   0.944   3.335   2.419
  131SOL    HW1 1292   0.981   3.373   2.503
  131SOL    HW2 1293   0.945   3.405   2.347
  132SOL     OW 1294   4.102   3.400   2.243
  132SOL    HW1 1295   4.174   3.460   2.207
  132SOL    HW2 1296   4.026   3.397   2.179
  133SOL     OW 1297   4.105   4.344   5.495
  133SOL    HW1 1298   4.046   4.291   5.557
  133SOL    HW2 1299   4.100   4.305   5.403
  134SOL     OW 1300   6.935   2.071   6.987
  134SOL    HW1 1301   6.858   2.018   6.950
  134SOL    HW2 1302   6.963   2.140   6.920
  135SOL     OW 1303   4.444   5.438   4.039
  135SOL    HW1 1304   4.397   5.376   4.101
  135SOL    HW2 1305   4.392   5.446   3.954
  136SOL     OW 1306   3.909   5.876   6.293
  136SOL    HW1 1307   3.954   5.965   6.283
  136SOL    HW2 1308   3.969   5.804   6.258
  137SOL     OW 1309   2.107   3.977   0.388
  137SOL    HW1 1310   2.083   3.934   0.475
  137SOL    HW2 1311   2.108   4.077   0.400
  138SOL     OW 1312   0.702   5.821   1.333
  138SOL    HW1 1313   0.653   5.821   1.420
  138SOL    HW2 1314   0.656   5.881   1.268
  139SOL     OW 1315   0.792   0.030   1.317
  139SOL    HW1 1316   0.874   0.026   1.261
  139SOL    HW2 1317   0.812   7.023   1.409
  140SOL     OW 1318   2.484   0.027   2.486
  140SOL    HW1 1319   2.482   6.995   2.567
  140SOL    HW2 1320   2.465   6.998   2.405
  141SOL     OW 1321   1.978   1.722   0.114
  141SOL    HW1 1322   1.966   1.704   0.211
  141SOL    HW2 1323   2.075   1.721   0.091
  142SOL     OW 1324   1.597   4.569   6.335
  142SOL    HW1 1325   1.685   4.526   6.313
  142SOL    HW2 1326   1.599   4.665   6.307
  143SOL     OW 1327   5.287   6.101   2.027
  143SOL    HW1 1328   5.333   6.150   1.953
  143SOL    HW2 1329   5.188   6.098   2.009
  144SOL     OW 1330   2.271   5.047   3.394
  144SOL    HW1 1331   2.353   4.995   3.419
  144SOL    HW2 1332   2.203   4.985   3.356
  145SOL     OW 1333   6.531   6.428   3.082
  145SOL    HW1 1334   6.573   6.350   3.036
  145SOL    HW2 1335   6.437   6.439   3.051
  146SOL     OW 1336   6.610   1.115   4.397
  146SOL    HW1 1337   6.690   1.096   4.453
  146SOL    HW2 1338   6.531   1.129   4.456
  147SOL     OW 1339   6.354   6.932   5.475
  147SOL    HW1 1340   6.376   7.012   5.420
  147SOL    HW2 1341   6.438   6.881   5.495
  148SOL     OW 1342   1.873   6.726   3.376
  148SOL    HW1 1343   1.780   6.703   3.407
  148SOL    HW2 1344   1.927   6.642   3.371
  149SOL     OW 1345   1.904   2.431   4.577
  149SOL    HW1 1346   1.965   2.364   4.619
  149SOL    HW2 1347   1.818   2.435   4.627
  150SOL     OW 1348   5.388   2.806   4.652
  150SOL    HW1 1349   5.305   2.784   4.601
  150SOL    HW2 1350   5.366   2.819   4.749
  151SOL     OW 1351   5.848   2.918   1.823
  151SOL    HW1 1352   5.903   2.996   1.793
  151SOL    HW2 1353   5.896   2.833   1.801
  152SOL     OW 1354   6.004   2.201   0.501
  152SOL    HW1 1355   6.067   2.164   0.570
  152SOL    HW2 1356   5.984   2.131   0.433
  153SOL     OW 1357   2.303   1.670   3.853
  153SOL    HW1 1358   2.381   1.637   3.800
  153SOL    HW2 1359   2.246   1.593   3.881
  154SOL     OW 1360   0.377   1.532   3.519
  154SOL    HW1 1361   0.325   1.466   3.572
  154SOL    HW2 1362   0.370   1.622   3.562
  155SOL     OW 1363   5.681   5.023   3.298
  155SOL    HW1 1364   5.708   4.932   3.330
  155SOL    HW2 1365   5.584   5.023   3.277
  156SOL     OW 1366   4.146   0.297   1.140
  156SOL    HW1 1367   4.228   0.266   1.090
  156SOL    HW2 1368   4.066   0.287   1.081
  157SOL     OW 1369   4.926   0.598   0.714
  157SOL    HW1 1370   4.950   0.567   0.623
  157SOL    HW2 1371   4.826   0.608   0.720
  158SOL     OW 1372   0.767   2.443   5.796
  158SOL    HW1 1373   0.738   2.399   5.881
  158SOL    HW2 1374   0.695   2.437   5.728
  159SOL     OW 1375   0.281   5.194   6.654
  159SOL    HW1 1376   0.191   5.237   6.647
  159SOL    HW2 1377   0.309   5.160   6.564
  160SOL     OW 1378   3.839   0.176   1.875
  160SOL    HW1 1379   3.746   0.185   1.911
  160SOL    HW2 1380   3.890   0.110   1.930
  161SOL     OW 1381   6.173   6.556   0.812
  161SOL    HW1 1382   6.120   6.623   0.864
  161SOL    HW2 1383   6.269   6.562   0.839
  162SOL     OW 1384   4.456   0.197   4.974
  162SOL    HW1 1385   4.435   0.240   4.886
  162SOL    HW2 1386   4.544   0.150   4.967
  163SOL     OW 1387   1.147   4.006   2.997
  163SOL    HW1 1388   1.220   3.937   3.000
  163SOL    HW2 1389   1.165   4.076   3.067
  164SOL     OW 1390   2.019   2.243   2.523
  164SOL    HW1 1391   2.084   2.261   2.597
  164SOL    HW2 1392   2.025   2.146   2.497
  165SOL     OW 1393   0.504   5.938   4.964
  165SOL    HW1 1394   0.550   6.017   4.923
  165SOL    HW2 1395   0.414   5.967   4.997
  166SOL     OW 1396   0.962   4.933   3.704
  166SOL    HW1 1397   0.907   5.016   3.687
  166SOL    HW2 1398   1.008   4.942   3.793
  167SOL     OW 1399   0.120   1.116   3.209
  167SOL    HW1 1400   0.100   1.208   3.243
  167SOL    HW2 1401   0.073   1.103   3.121
  168SOL     OW 1402   3.454   4.174   4.338
  168SOL    HW1 1403   3.540   4.122   4.336
  168SOL    HW2 1404   3.438   4.208   4.431
  169SOL     OW 1405   5.175   2.710   6.024
  169SOL    HW1 1406   5.078   2.716   6.048
  169SOL    HW2 1407   5.185   2.658   5.940
  170SOL     OW 1408   6.649   5.499   3.021
  170SOL    HW1 1409   6.669   5.545   3.108
  170SOL    HW2 1410   6.638   5.401   3.037
  171SOL     OW 1411   3.801   2.841   0.987
  171SOL    HW1 1412   3.861   2.790   0.925
  171SOL    HW2 1413   3.710   2.849   0.945
  172SOL     OW 1414   1.544   0.909   0.422
  172SOL    HW1 1415   1.561   0.946   0.513
  172SOL    HW2 1416   1.446   0.898   0.408
  173SOL     OW 1417   5.640   1.010   5.017
  173SOL    HW1 1418   5.725   0.983   4.972
  173SOL    HW2 1419   5.576   0.933   5.018
  174SOL     OW 1420   6.718   4.438   4.682
  174SOL    HW1 1421   6.817   4.441   4.698
  174SOL    HW2 1422   6.700   4.445   4.583
  175SOL     OW 1423   0.960   5.389   2.560
  175SOL    HW1 1424   0.934   5.312   2.617
  175SOL    HW2 1425   0.881   5.449   2.545
  176SOL     OW 1426   6.041   4.135   0.863
  176SOL    HW1 1427   6.054   4.048   0.911
  176SOL    HW2 1428   6.028   4.118   0.765
  177SOL     OW 1429   5.418   2.754   3.306
  177SOL    HW1 1430   5.435   2.819   3.233
  177SOL    HW2 1431   5.439   2.661   3.274
  178SOL     OW 1432   1.635   5.068   4.952
  178SOL    HW1 1433   1.605   4.977   4.923
  178SOL    HW2 1434   1.734   5.068   4.966
  179SOL     OW 1435   3.183   3.928   1.979
  179SOL    HW1 1436   3.156   3.913   1.884
  179SOL    HW2 1437   3.235   4.013   1.986
  180SOL     OW 1438   4.305   0.532   6.010
  180SOL    HW1 1439   4.280   0.458   5.946
  180SOL    HW2 1440   4.300   0.620   5.962
  181SOL     OW 1441   3.335   6.764   5.305
  181SOL    HW1 1442   3.248   6.750   5.257
  181SOL    HW2 1443   3.322   6.754   5.403
  182SOL     OW 1444   3.227   2.950   5.656
  182SOL    HW1 1445   3.160   2.878   5.671
  182SOL    HW2 1446   3.197   3.035   5.700
  183SOL     OW 1447   2.132   1.356   3.170
  183SOL    HW1 1448   2.148   1.276   3.228
  183SOL    HW2 1449   2.073   1.330   3.093
  184SOL     OW 1450   5.904   6.773   3.814
  184SOL    HW1 1451   5.883   6.870   3.806
  184SOL    HW2 1452   5.820   6.721   3.828
  185SOL     OW 1453   0.640   5.841   5.829
  185SOL    HW1 1454   0.549   5.871   5.858
  185SOL    HW2 1455   0.632   5.789   5.744
  186SOL     OW 1456   3.390   5.671   0.140
  186SOL    HW1 1457   3.341   5.633   0.218
  186SOL    HW2 1458   3.382   5.608   0.062
  187SOL     OW 1459   3.418   5.298   0.468
  187SOL    HW1 1460   3.436   5.232   0.395
  187SOL    HW2 1461   3.396   5.249   0.552
  188SOL     OW 1462   1.459   3.985   4.276
  188SOL    HW1 1463   1.451   3.917   4.204
  188SOL    HW2 1464   1.464   4.077   4.236
  189SOL     OW 1465   6.142   4.176   5.678
  189SOL    HW1 1466   6.166   4.171   5.775
  189SOL    HW2 1467   6.078   4.102   5.656
  190SOL     OW 1468   5.819   6.168   6.930
  190SOL    HW1 1469   5.852   6.087   6.979
  190SOL    HW2 1470   5.720   6.178   6.946
  191SOL     OW 1471   2.050   3.414   6.070
  191SOL    HW1 1472   1.983   3.422   5.996
  191SOL    HW2 1473   2.082   3.506   6.095
  192SOL     OW 1474   0.964   0.172   0.975
  192SOL    HW1 1475   0.950   0.271   0.980
  192SOL    HW2 1476   0.956   0.142   0.880
  193SOL     OW 1477   2.975   6.284   1.798
  193SOL    HW1 1478   2.935   6.305   1.709
  193SOL    HW2 1479   2.940   6.348   1.867
  194SOL     OW 1480   4.486   6.254   3.445
  194SOL    HW1 1481   4.517   6.348   3.428
  194SOL    HW2 1482   4.450   6.248   3.538
  195SOL     OW 1483   3.150   1.138   1.359
  195SOL    HW1 1484   3.117   1.083   1.435
  195SOL    HW2 1485   3.246   1.115   1.340
  196SOL     OW 1486   4.188   2.977   1.408
  196SOL    HW1 1487   4.246   3.030   1.347
  196SOL    HW2 1488   4.133   3.040   1.465
  197SOL     OW 1489   0.810   6.479   1.142
  197SOL    HW1 1490   0.880   6.409   1.156
  197SOL    HW2 1491   0.726   6.436   1.111
  198SOL     OW 1492   6.166   0.189   5.769
  198SOL    HW1 1493   6.234   0.117   5.752
  198SOL    HW2 1494   6.081   0.147   5.801
  199SOL     OW 1495   1.559   1.336   3.153
  199SOL    HW1 1496   1.554   1.380   3.243
  199SOL    HW2 1497   1.474   1.287   3.135
  200SOL     OW 1498   1.718   3.760   3.432
  200SOL    HW1 1499   1.718   3.661   3.423
  200SOL    HW2 1500   1.747   3.785   3.524
  201SOL     OW 1501   4.954   1.157   6.780
  201SOL    HW1 1502   5.042   1.190   6.815
  201SOL    HW2 1503   4.881   1.183   6.843
  202SOL     OW 1504   4.167   0.693   3.093
  202SOL    HW1 1505   4.086   0.634   3.094
  202SOL    HW2 1506   4.192   0.714   2.999
  203SOL     OW 1507   5.425   3.074   0.513
  203SOL    HW1 1508   5.512   3.049   0.470
  203SOL    HW2 1509   5.383   3.148   0.461
  204SOL     OW 1510   2.359   5.762   0.957
  204SOL    HW1 1511   2.331   5.697   1.028
  204SOL    HW2 1512   2.416   5.833   0.998
  205SOL     OW 1513   5.352   0.318   1.029
  205SOL    HW1 1514   5.398   0.248   0.974
  205SOL    HW2 1515   5.330   0.281   1.119
  206SOL     OW 1516   0.117   5.641   1.825
  206SOL    HW1 1517   0.137   5.686   1.738
  206SOL    HW2 1518   0.201   5.601   1.861
  207SOL     OW 1519   6.857   2.416   5.932
  207SOL    HW1 1520   6.842   2.353   6.008
  207SOL    HW2 1521   6.822   2.377   5.848
  208SOL     OW 1522   4.779   3.569   0.932
  208SOL    HW1 1523   4.739   3.495   0.987
  208SOL    HW2 1524   4.708   3.631   0.902
  209SOL     OW 1525   6.226   0.352   4.427
  209SOL    HW1 1526   6.158   0.335   4.499
  209SOL    HW2 1527   6.306   0.294   4.443
  210SOL     OW 1528   4.723   2.179   6.962
  210SOL    HW1 1529   4.688   2.247   6.897
  210SOL    HW2 1530   4.653   2.162   0.005
  211SOL     OW 1531   0.292   4.024   2.229
  211SOL    HW1 1532   0.237   3.942   2.214
  211SOL    HW2 1533   0.383   3.998   2.262
  212SOL     OW 1534   1.465   5.391   4.995
  212SOL    HW1 1535   1.526   5.427   5.066
  212SOL    HW2 1536   1.520   5.349   4.923
  213SOL     OW 1537   4.607   2.547   1.360
  213SOL    HW1 1538   4.677   2.509   1.299
  213SOL    HW2 1539   4.544   2.474   1.387
  214SOL     OW 1540   0.353   5.655   4.009
  214SOL    HW1 1541   0.277   5.614   4.059
  214SOL    HW2 1542   0.384   5.592   3.938
  215SOL     OW 1543   3.879   3.767   3.879
  215SOL    HW1 1544   3.836   3.824   3.809
  215SOL    HW2 1545   3.808   3.724   3.935
  216SOL     OW 1546   3.594   6.626   5.349
  216SOL    HW1 1547   3.668   6.673   5.396
  216SOL    HW2 1548   3.511   6.682   5.352
  217SOL     OW 1549   6.315   1.877   4.961
  217SOL    HW1 1550   6.382   1.877   4.887
  217SOL    HW2 1551   6.281   1.970   4.976
  218SOL     OW 1552   3.038   4.125   5.786
  218SOL    HW1 1553   3.036   4.224   5.770
  218SOL    HW2 1554   2.953   4.084   5.754
  219SOL     OW 1555   3.374   6.051   6.278
  219SOL    HW1 1556   3.407   6.079   6.369
  219SOL    HW2 1557   3.432   6.091   6.208
  220SOL     OW 1558   1.048   5.087   0.496
  220SOL    HW1 1559   1.110   5.123   0.566
  220SOL    HW2 1560   1.061   5.136   0.410
  221SOL     OW 1561   6.503   3.987   4.738
  221SOL    HW1 1562   6.510   4.028   4.647
  221SOL    HW2 1563   6.408   3.963   4.757
  222SOL     OW 1564   1.868   0.267   4.320
  222SOL    HW1 1565   1.770   0.252   4.306
  222SOL    HW2 1566   1.913   0.179   4.335
  223SOL     OW 1567   5.508   5.427   2.230
  223SOL    HW1 1568   5.447   5.386   2.162
  223SOL    HW2 1569   5.459   5.499   2.280
  224SOL     OW 1570   5.146   4.410   3.173
  224SOL    HW1 1571   5.200   4.392   3.091
  224SOL    HW2 1572   5.126   4.323   3.219
  225SOL     OW 1573   4.616   5.926   2.353
  225SOL    HW1 1574   4.590   5.859   2.423
  225SOL    HW2 1575   4.623   6.017   2.395
  226SOL     OW 1576   1.618   5.798   2.290
  226SOL    HW1 1577   1.608   5.872   2.356
  226SOL    HW2 1578   1.701   5.746   2.310
  227SOL     OW 1579   1.000   4.150   3.285
  227SOL    HW1 1580   1.040   4.169   3.375
  227SOL    HW2 1581   1.053   4.198   3.215
  228SOL     OW 1582   4.035   6.202   3.405
  228SOL    HW1 1583   4.085   6.165   3.483
  228SOL    HW2 1584   3.948   6.240   3.436
  229SOL     OW 1585   5.644   6.186   2.534
  229SOL    HW1 1586   5.728   6.140   2.562
  229SOL    HW2 1587   5.572   6.166   2.601
  230SOL     OW 1588   1.554   4.738   5.599
  230SOL    HW1 1589   1.524   4.820   5.550
  230SOL    HW2 1590   1.565   4.663   5.533
  231SOL     OW 1591   0.164   1.620   6.478
  231SOL    HW1 1592   0.210   1.701   6.442
  231SOL    HW2 1593   0.217   1.538   6.457
  232SOL     OW 1594   1.728   3.124   6.361
  232SOL    HW1 1595   1.762   3.097   6.271
  232SOL    HW2 1596   1.787   3.194   6.400
  233SOL     OW 1597   3.555   6.732   0.335
  233SOL    HW1 1598   3.498   6.718   0.254
  233SOL    HW2 1599   3.626   6.662   0.339
  234SOL     OW 1600   1.670   4.969   0.038
  234SOL    HW1 1601   1.698   5.050   0.089
  234SOL    HW2 1602   1.658   4.892   0.100
  235SOL     OW 1603   3.980   3.268   5.966
  235SOL    HW1 1604   4.065   3.224   5.996
  235SOL    HW2 1605   4.002   3.354   5.919
  236SOL     OW 1606   0.012   0.482   6.656
  236SOL    HW1 1607   0.111   0.499   6.655
  236SOL    HW2 1608   7.008   0.473   6.751
  237SOL     OW 1609   6.372   6.819   2.040
  237SOL    HW1 1610   6.365   6.898   2.101
  237SOL    HW2 1611   6.287   6.807   1.990
  238SOL     OW 1612   0.922   2.058   3.315
  238SOL    HW1 1613   1.001   2.096   3.363
  238SOL    HW2 1614   0.952   2.012   3.232
  239SOL     OW 1615   6.581   4.811   6.929
  239SOL    HW1 1616   6.608   4.811   7.025
  239SOL    HW2 1617   6.648   4.863   6.875
  240SOL     OW 1618   0.160   2.681   3.913
  240SOL    HW1 1619   0.211   2.637   3.838
  240SOL    HW2 1620   0.195   2.649   4.001
  241SOL     OW 1621   6.410   2.615   4.512
  241SOL    HW1 1622   6.506   2.595   4.530
  241SOL    HW2 1623   6.398   2.714   4.502
  242SOL     OW 1624   2.979   2.203   3.400
  242SOL    HW1 1625   3.055   2.140   3.384
  242SOL    HW2 1626   2.959   2.207   3.498
  243SOL     OW 1627   4.660   1.517   6.441
  243SOL    HW1 1628   4.726   1.467   6.385
  243SOL    HW2 1629   4.677   1.498   6.538
  244SOL     OW 1630   1.101   0.686   5.909
  244SOL    HW1 1631   1.114   0.669   5.811
  244SOL    HW2 1632   1.186   0.720   5.949
  245SOL     OW 1633   4.857   2.170   4.364
  245SOL    HW1 1634   4.825   2.150   4.272
  245SOL    HW2 1635   4.945   2.126   4.379
  246SOL     OW 1636   5.911   3.628   4.616
  246SOL    HW1 1637   5.847   3.669   4.681
  246SOL    HW2 1638   5.866   3.618   4.527
  247SOL     OW 1639   1.984   0.652   3.158
  247SOL    HW1 1640   1.996   0.751   3.157
  247SOL    HW2 1641   2.070   0.608   3.132
  248SOL     OW 1642   6.883   2.742   3.205
  248SOL    HW1 1643   6.861   2.664   3.146
  248SOL    HW2 1644   6.818   2.817   3.186
  249SOL     OW 1645   2.144   5.960   4.940
  249SOL    HW1 1646   2.060   5.997   4.901
  249SOL    HW2 1647   2.147   5.861   4.923
  250SOL     OW 1648   5.432   2.921   6.732
  250SOL    HW1 1649   5.419   2.823   6.717
  250SOL    HW2 1650   5.392   2.972   6.656
  251SOL     OW 1651   2.507   0.264   1.816
  251SOL    HW1 1652   2.407   0.255   1.807
  251SOL    HW2 1653   2.529   0.325   1.892
  252SOL     OW 1654   6.839   2.601   6.810
  252SOL    HW1 1655   6.929   2.579   6.848
  252SOL    HW2 1656   6.837   2.697   6.783
  253SOL     OW 1657   2.181   4.855   5.856
  253SOL    HW1 1658   2.104   4.803   5.818
  253SOL    HW2 1659   2.265   4.829   5.809
  254SOL     OW 1660   4.756   3.284   6.563
  254SOL    HW1 1661   4.732   3.254   6.471
  254SOL    HW2 1662   4.676   3.278   6.622
  255SOL     OW 1663   4.305   2.345   2.270
  255SOL    HW1 1664   4.288   2.311   2.178
  255SOL    HW2 1665   4.219   2.350   2.320
  256SOL     OW 1666   0.504   6.337   1.289
  256SOL    HW1 1667   0.460   6.255   1.254
  256SOL    HW2 1668   0.553   6.384   1.215
  257SOL     OW 1669   3.014   5.982   6.438
  257SOL    HW1 1670   3.088   5.947   6.380
  257SOL    HW2 1671   2.953   6.039   6.383
  258SOL     OW 1672   4.868   5.363   4.669
  258SOL    HW1 1673   4.896   5.376   4.574
  258SOL    HW2 1674   4.843   5.267   4.684
  259SOL     OW 1675   0.147   1.155   2.314
  259SOL    HW1 1676   0.236   1.115   2.296
  259SOL    HW2 1677   0.120   1.136   2.408
  260SOL     OW 1678   6.456   6.687   5.795
  260SOL    HW1 1679   6.374   6.631   5.790
  260SOL    HW2 1680   6.529   6.643   5.742
  261SOL     OW 1681   0.454   1.245   3.376
  261SOL    HW1 1682   0.440   1.180   3.301
  261SOL    HW2 1683   0.392   1.323   3.364
  262SOL     OW 1684   1.788   5.325   0.868
  262SOL    HW1 1685   1.811   5.253   0.934
  262SOL    HW2 1686   1.865   5.387   0.858
  263SOL     OW 1687   0.879   5.134   4.957
  263SOL    HW1 1688   0.828   5.066   4.904
  263SOL    HW2 1689   0.970   5.100   4.977
  264SOL     OW 1690   3.419   4.106   0.966
  264SOL    HW1 1691   3.342   4.089   0.905
  264SOL    HW2 1692   3.504   4.098   0.915
  265SOL     OW 1693   4.222   5.442   4.272
  265SOL    HW1 1694   4.318   5.447   4.302
  265SOL    HW2 1695   4.216   5.469   4.176
  266SOL     OW 1696   4.550   3.384   0.028
  266SOL    HW1 1697   4.581   3.290   0.020
  266SOL    HW2 1698   4.477   3.390   0.096
  267SOL     OW 1699   2.483   1.939   6.376
  267SOL    HW1 1700   2.464   1.841   6.370
  267SOL    HW2 1701   2.578   1.956   6.349
  268SOL     OW 1702   1.575   3.914   2.998
  268SOL    HW1 1703   1.514   3.840   3.027
  268SOL    HW2 1704   1.528   4.001   3.009
  269SOL     OW 1705   2.975   1.339   6.173
  269SOL    HW1 1706   3.005   1.287   6.092
  269SOL    HW2 1707   2.886   1.306   6.203
  270SOL     OW 1708   5.801   5.002   5.027
  270SOL    HW1 1709   5.718   4.960   5.062
  270SOL    HW2 1710   5.793   5.013   4.928
  271SOL     OW 1711   2.538   1.173   6.900
  271SOL    HW1 1712   2.465   1.106   6.884
  271SOL    HW2 1713   2.600   1.137   6.970
  272SOL     OW 1714   5.430   4.618   6.882
  272SOL    HW1 1715   5.449   4.520   6.891
  272SOL    HW2 1716   5.515   4.669   6.894
  273SOL     OW 1717   0.408   6.339   4.224
  273SOL    HW1 1718   0.488   6.303   4.272
  273SOL    HW2 1719   0.433   6.365   4.131
  274SOL     OW 1720   5.175   3.071   2.501
  274SOL    HW1 1721   5.250   3.128   2.466
  274SOL    HW2 1722   5.127   3.028   2.424
  275SOL     OW 1723   5.899   5.050   5.514
  275SOL    HW1 1724   5.912   4.954   5.538
  275SOL    HW2 1725   5.838   5.093   5.580
  276SOL     OW 1726   0.869   0.446   4.690
  276SOL    HW1 1727   0.968   0.459   4.697
  276SOL    HW2 1728   0.834   0.504   4.616
  277SOL     OW 1729   4.310   3.531   5.786
  277SOL    HW1 1730   4.307   3.478   5.700
  277SOL    HW2 1731   4.363   3.480   5.854
  278SOL     OW 1732   5.731   4.792   2.002
  278SOL    HW1 1733   5.689   4.741   1.927
  278SOL    HW2 1734   5.675   4.781   2.085
  279SOL     OW 1735   0.144   3.260   4.524
  279SOL    HW1 1736   0.063   3.316   4.507
  279SOL    HW2 1737   0.117   3.164   4.533
  280SOL     OW 1738   4.482   1.123   2.866
  280SOL    HW1 1739   4.438   1.160   2.784
  280SOL    HW2 1740   4.446   1.170   2.947
  281SOL     OW 1741   5.308   5.437   5.366
  281SOL    HW1 1742   5.386   5.406   5.419
  281SOL    HW2 1743   5.247   5.491   5.424
  282SOL     OW 1744   0.139   1.984   0.103
  282SOL    HW1 1745   0.058   2.005   0.050
  282SOL    HW2 1746   0.195   1.918   0.054
  283SOL     OW 1747   6.051   4.117   2.045
  283SOL    HW1 1748   6.028   4.186   2.113
  283SOL    HW2 1749   6.144   4.083   2.062
  284SOL     OW 1750   5.570   6.982   2.898
  284SOL    HW1 1751   5.595   7.001   2.803
  284SOL    HW2 1752   5.499   6.912   2.901
  285SOL     OW 1753   4.797   5.990   6.380
  285SOL    HW1 1754   4.875   6.053   6.373
  285SOL    HW2 1755   4.720   6.036   6.423
  286SOL     OW 1756   3.433   5.438   5.360
  286SOL    HW1 1757   3.396   5.495   5.287
  286SOL    HW2 1758   3.533   5.438   5.355
  287SOL     OW 1759   3.610   6.324   0.679
  287SOL    HW1 1760   3.577   6.286   0.766
  287SOL    HW2 1761   3.665   6.256   0.631
  288SOL     OW 1762   3.793   0.810   0.582
  288SOL    HW1 1763   3.873   0.858   0.544
  288SOL    HW2 1764   3.754   0.864   0.656
  289SOL     OW 1765   5.320   4.674   5.244
  289SOL    HW1 1766   5.302   4.721   5.330
  289SOL    HW2 1767   5.341   4.578   5.262
  290SOL     OW 1768   2.996   0.814   4.982
  290SOL    HW1 1769   3.056   0.869   5.040
  290SOL    HW2 1770   2.998   0.849   4.889
  291SOL     OW 1771   5.709   1.387   4.849
  291SOL    HW1 1772   5.731   1.292   4.831
  291SOL    HW2 1773   5.778   1.446   4.808
  292SOL     OW 1774   2.035   0.767   4.176
  292SOL    HW1 1775   2.070   0.717   4.097
  292SOL    HW2 1776   2.084   0.854   4.185
  293SOL     OW 1777   5.468   1.219   3.463
  293SOL    HW1 1778   5.451   1.317   3.458
  293SOL    HW2 1779   5.559   1.202   3.500
  294SOL     OW 1780   6.460   1.012   6.703
  294SOL    HW1 1781   6.535   1.055   6.653
  294SOL    HW2 1782   6.496   0.961   6.781
  295SOL     OW 1783   0.473   0.669   5.055
  295SOL    HW1 1784   0.432   0.758   5.073
  295SOL    HW2 1785   0.476   0.616   5.140
  296SOL     OW 1786   6.953   1.456   6.657
  296SOL    HW1 1787   7.022   1.529   6.659
  296SOL    HW2 1788   6.954   1.408   6.745
  297SOL     OW 1789   4.758   3.983   3.278
  297SOL    HW1 1790   4.703   3.902   3.299
  297SOL    HW2 1791   4.767   3.992   3.179
  298SOL     OW 1792   3.641   6.745   4.923
  298SOL    HW1 1793   3.660   6.647   4.920
  298SOL    HW2 1794   3.721   6.793   4.959
  299SOL     OW 1795   0.597   1.299   6.330
  299SOL    HW1 1796   0.650   1.287   6.246
  299SOL    HW2 1797   0.564   1.210   6.361
  300SOL     OW 1798   4.161   6.207   4.497
  300SOL    HW1 1799   4.197   6.300   4.497
  300SOL    HW2 1800   4.068   6.207   4.535
  301SOL     OW 1801   6.671   6.382   5.238
  301SOL    HW1 1802   6.753   6.342   5.280
  301SOL    HW2 1803   6.698   6.461   5.182
  302SOL     OW 1804   0.651   0.132   1.631
  302SOL    HW1 1805   0.724   0.082   1.584
  302SOL    HW2 1806   0.622   0.081   1.711
  303SOL     OW 1807   4.868   5.542   2.893
  303SOL    HW1 1808   4.770   5.551   2.878
  303SOL    HW2 1809   4.917   5.563   2.809
  304SOL     OW 1810   1.301   1.371   4.752
  304SOL    HW1 1811   1.270   1.284   4.713
  304SOL    HW2 1812   1.256   1.387   4.839
  305SOL     OW 1813   3.100   1.822   1.183
  305SOL    HW1 1814   3.159   1.741   1.181
  305SOL    HW2 1815   3.010   1.797   1.218
  306SOL     OW 1816   0.385   6.589   3.013
  306SOL    HW1 1817   0.412   6.674   2.967
  306SOL    HW2 1818   0.298   6.603   3.060
  307SOL     OW 1819   4.006   3.933   4.292
  307SOL    HW1 1820   4.079   4.000   4.304
  307SOL    HW2 1821   4.021   3.882   4.208
  308SOL     OW 1822   6.177   3.106   1.514
  308SOL    HW1 1823   6.097   3.141   1.467
  308SOL    HW2 1824   6.189   3.009   1.492
  309SOL     OW 1825   1.876   5.179   0.432
  309SOL    HW1 1826   1.816   5.179   0.511
  309SOL    HW2 1827   1.941   5.102   0.439
  310SOL     OW 1828   4.771   6.355   4.869
  310SOL    HW1 1829   4.818   6.266   4.866
  310SOL    HW2 1830   4.774   6.391   4.962
  311SOL     OW 1831   1.635   6.034   2.012
  311SOL    HW1 1832   1.729   6.069   2.020
  311SOL    HW2 1833   1.582   6.062   2.092
  312SOL     OW 1834   3.300   0.817   4.081
  312SOL    HW1 1835   3.292   0.764   3.997
  312SOL    HW2 1836   3.394   0.849   4.092
  313SOL     OW 1837   3.539   3.178   3.374
  313SOL    HW1 1838   3.552   3.128   3.288
  313SOL    HW2 1839   3.477   3.254   3.358
  314SOL     OW 1840   2.064   4.300   6.320
  314SOL    HW1 1841   2.018   4.379   6.360
  314SOL    HW2 1842   2.072   4.313   6.221
  315SOL     OW 1843   5.855   0.040   5.028
  315SOL    HW1 1844   5.935   7.008   5.026
  315SOL    HW2 1845   5.839   0.073   5.121
  316SOL     OW 1846   4.030   0.930   4.764
  316SOL    HW1 1847   3.989   0.985   4.837
  316SOL    HW2 1848   4.102   0.872   4.802
  317SOL     OW 1849   0.518   1.730   1.703
  317SOL    HW1 1850   0.598   1.790   1.705
  317SOL    HW2 1851   0.488   1.712   1.797
  318SOL     OW 1852   0.951   1.399   3.603
  318SOL    HW1 1853   0.862   1.372   3.565
  318SOL    HW2 1854   0.937   1.458   3.682
  319SOL     OW 1855   0.474   1.951   2.290
  319SOL    HW1 1856   0.436   2.038   2.257
  319SOL    HW2 1857   0.559   1.932   2.242
  320SOL     OW 1858   5.192   1.160   6.421
  320SOL    HW1 1859   5.233   1.077   6.383
  320SOL    HW2 1860   5.093   1.149   6.426
  321SOL     OW 1861   4.315   3.115   1.227
  321SOL    HW1 1862   4.355   3.205   1.246
  321SOL    HW2 1863   4.314   3.100   1.128
  322SOL     OW 1864   2.748   1.814   0.102
  322SOL    HW1 1865   2.711   1.845   0.014
  322SOL    HW2 1866   2.776   1.718   0.094
  323SOL     OW 1867   0.318   4.452   2.155
  323SOL    HW1 1868   0.240   4.510   2.132
  323SOL    HW2 1869   0.288   4.357   2.159
  324SOL     OW 1870   6.141   0.231   3.547
  324SOL    HW1 1871   6.133   0.145   3.497
  324SOL    HW2 1872   6.089   0.225   3.633
  325SOL     OW 1873   6.322   2.936   0.764
  325SOL    HW1 1874   6.322   2.920   0.666
  325SOL    HW2 1875   6.231   2.920   0.801
  326SOL     OW 1876   6.118   5.735   6.188
  326SOL    HW1 1877   6.190   5.725   6.120
  326SOL    HW2 1878   6.029   5.745   6.143
  327SOL     OW 1879   4.308   6.680   6.243
  327SOL    HW1 1880   4.363   6.608   6.200
  327SOL    HW2 1881   4.368   6.739   6.297
  328SOL     OW 1882   2.347   4.324   3.729
  328SOL    HW1 1883   2.390   4.405   3.768
  328SOL    HW2 1884   2.393   4.299   3.643
  329SOL     OW 1885   3.140   3.499   2.847
  329SOL    HW1 1886   3.144   3.550   2.933
  329SOL    HW2 1887   3.199   3.542   2.779
  330SOL     OW 1888   2.132   4.244   6.671
  330SOL    HW1 1889   2.182   4.226   6.756
  330SOL    HW2 1890   2.192   4.293   6.607
  331SOL     OW 1891   5.077   5.539   3.989
  331SOL    HW1 1892   5.018   5.619   3.982
  331SOL    HW2 1893   5.158   5.562   4.043
  332SOL     OW 1894   6.279   2.200   2.892
  332SOL    HW1 1895   6.288   2.266   2.966
  332SOL    HW2 1896   6.199   2.221   2.837
  333SOL     OW 1897   3.094   6.438   3.592
  333SOL    HW1 1898   2.997   6.424   3.611
  333SOL    HW2 1899   3.147   6.365   3.634
  334SOL     OW 1900   3.837   3.627   4.223
  334SOL    HW1 1901   3.800   3.582   4.305
  334SOL    HW2 1902   3.925   3.669   4.245
  335SOL     OW 1903   4.467   1.473   0.360
  335SOL    HW1 1904   4.520   1.558   0.359
  335SOL    HW2 1905   4.384   1.485   0.304
  336SOL     OW 1906   3.782   2.093   4.677
  336SOL    HW1 1907   3.866   2.048   4.706
  336SOL    HW2 1908   3.742   2.142   4.755
  337SOL     OW 1909   0.886   1.843   5.239
  337SOL    HW1 1910   0.861   1.934   5.272
  337SOL    HW2 1911   0.861   1.835   5.142
  338SOL     OW 1912   5.346   1.338   1.876
  338SOL    HW1 1913   5.247   1.325   1.886
  338SOL    HW2 1914   5.388   1.344   1.966
  339SOL     OW 1915   3.416   5.058   5.586
  339SOL    HW1 1916   3.418   5.131   5.654
  339SOL    HW2 1917   3.509   5.029   5.564
  340SOL     OW 1918   5.710   3.740   4.779
  340SOL    HW1 1919   5.673   3.676   4.846
  340SOL    HW2 1920   5.636   3.776   4.723
  341SOL     OW 1921   6.392   0.519   1.628
  341SOL    HW1 1922   6.328   0.594   1.608
  341SOL    HW2 1923   6.362   0.472   1.712
  342SOL     OW 1924   4.814   0.902   2.220
  342SOL    HW1 1925   4.747   0.837   2.186
  342SOL    HW2 1926   4.905   0.876   2.188
  343SOL     OW 1927   5.454   0.576   1.582
  343SOL    HW1 1928   5.479   0.503   1.518
  343SOL    HW2 1929   5.451   0.664   1.533
  344SOL     OW 1930   6.558   2.870   1.353
  344SOL    HW1 1931   6.472   2.882   1.304
  344SOL    HW2 1932   6.585   2.957   1.394
  345SOL     OW 1933   0.252   3.117   3.530
  345SOL    HW1 1934   0.349   3.094   3.521
  345SOL    HW2 1935   0.243   3.205   3.578
  346SOL     OW 1936   0.991   6.870   2.649
  346SOL    HW1 1937   0.907   6.832   2.688
  346SOL    HW2 1938   0.968   6.945   2.587
  347SOL     OW 1939   1.534   4.412   1.717
  347SOL    HW1 1940   1.484   4.366   1.645
  347SOL    HW2 1941   1.472   4.470   1.769
  348SOL     OW 1942   5.630   4.734   0.821
  348SOL    HW1 1943   5.555   4.739   0.887
  348SOL    HW2 1944   5.633   4.642   0.782
  349SOL     OW 1945   5.947   5.642   0.085
  349SOL    HW1 1946   5.883   5.585   0.136
  349SOL    HW2 1947   5.971   5.596   7.026
  350SOL     OW 1948   2.439   0.105   0.769
  350SOL    HW1 1949   2.532   0.129   0.739
  350SOL    HW2 1950   2.372   0.147   0.708
  351SOL     OW 1951   3.511   4.244   1.191
  351SOL    HW1 1952   3.462   4.198   1.117
  351SOL    HW2 1953   3.507   4.187   1.274
  352SOL     OW 1954   3.847   0.634   2.161
  352SOL    HW1 1955   3.836   0.551   2.107
  352SOL    HW2 1956   3.826   0.615   2.257
  353SOL     OW 1957   2.823   5.902   0.567
  353SOL    HW1 1958   2.745   5.916   0.627
  353SOL    HW2 1959   2.805   5.944   0.478
  354SOL     OW 1960   2.203   2.266   0.294
  354SOL    HW1 1961   2.119   2.318   0.277
  354SOL    HW2 1962   2.270   2.285   0.222
  355SOL     OW 1963   0.259   2.675   2.351
  355SOL    HW1 1964   0.188   2.738   2.320
  355SOL    HW2 1965   0.339   2.682   2.291
  356SOL     OW 1966   2.774   0.315   5.962
  356SOL    HW1 1967   2.762   0.313   5.863
  356SOL    HW2 1968   2.826   0.396   5.988
  357SOL     OW 1969   6.175   5.816   4.333
  357SOL    HW1 1970   6.131   5.740   4.285
  357SOL    HW2 1971   6.133   5.902   4.305
  358SOL     OW 1972   3.399   6.255   6.969
  358SOL    HW1 1973   3.362   6.168   6.999
  358SOL    HW2 1974   3.412   6.315   0.021
  359SOL     OW 1975   1.829   2.460   1.072
  359SOL    HW1 1976   1.890   2.400   1.019
  359SOL    HW2 1977   1.859   2.555   1.063
  360SOL     OW 1978   2.138   4.175   3.036
  360SOL    HW1 1979   2.171   4.123   2.957
  360SOL    HW2 1980   2.179   4.266   3.035
  361SOL     OW 1981   6.441   3.367   2.347
  361SOL    HW1 1982   6.468   3.453   2.303
  361SOL    HW2 1983   6.521   3.307   2.353
  362SOL     OW 1984   4.108   3.634   2.985
  362SOL    HW1 1985   4.204   3.653   2.966
  362SOL    HW2 1986   4.062   3.717   3.017
  363SOL     OW 1987   4.997   5.072   0.595
  363SOL    HW1 1988   5.095   5.092   0.594
  363SOL    HW2 1989   4.970   5.030   0.509
  364SOL     OW 1990   0.811   0.402   0.263
  364SOL    HW1 1991   0.903   0.421   0.296
  364SOL    HW2 1992   0.779   0.316   0.303
  365SOL     OW 1993   4.690   0.389   4.099
  365SOL    HW1 1994   4.662   0.441   4.018
  365SOL    HW2 1995   4.633   0.307   4.108
  366SOL     OW 1996   5.209   1.946   0.459
  366SOL    HW1 1997   5.253   2.034   0.474
  366SOL    HW2 1998   5.204   1.928   0.360
  367SOL     OW 1999   5.955   0.139   6.844
  367SOL    HW1 2000   6.014   0.122   6.765
  367SOL    HW2 2001   6.010   0.133   6.928
  368SOL     OW 2002   3.073   1.575   5.838
  368SOL    HW1 2003   3.135   1.499   5.822
  368SOL    HW2 2004   3.001   1.575   5.768
  369SOL     OW 2005   5.036   3.677   0.419
  369SOL    HW1 2006   4.983   3.738   0.478
  369SOL    HW2 2007   5.013   3.695   0.323
  370SOL     OW 2008   2.233   2.315   3.518
  370SOL    HW1 2009   2.199   2.248   3.452
  370SOL    HW2 2010   2.208   2.407   3.487
  371SOL     OW 2011   2.258   4.889   0.646
  371SOL    HW1 2012   2.286   4.920   0.737
  371SOL    HW2 2013   2.186   4.821   0.655
  372SOL     OW 2014   2.998   6.254   5.938
  372SOL    HW1 2015   2.964   6.326   5.878
  372SOL    HW2 2016   3.051   6.188   5.884
  373SOL     OW 2017   5.088   4.721   2.870
  373SOL    HW1 2018   5.090   4.736   2.969
  373SOL    HW2 2019   5.162   4.660   2.844
  374SOL     OW 2020   2.564   2.372   2.089
  374SOL    HW1 2021   2.622   2.300   2.052
  374SOL    HW2 2022   2.616   2.458   2.094
  375SOL     OW 2023   0.003   5.286   3.789
  375SOL    HW1 2024   0.043   5.377   3.784
  375SOL    HW2 2025   0.049   5.225   3.725
  376SOL     OW 2026   4.603   0.813   3.536
  376SOL    HW1 2027   4.596   0.874   3.615
  376SOL    HW2 2028   4.611   0.718   3.568
  377SOL     OW 2029   2.903   3.162   6.165
  377SOL    HW1 2030   2.918   3.145   6.068
  377SOL    HW2 2031   2.814   3.205   6.178
  378SOL     OW 2032   4.661   0.818   1.605
  378SOL    HW1 2033   4.681   0.908   1.642
  378SOL    HW2 2034   4.645   0.825   1.506
  379SOL     OW 2035   3.362   3.298   0.048
  379SOL    HW1 2036   3.328   3.209   0.079
  379SOL    HW2 2037   3.304   3.371   0.084
  380SOL     OW 2038   4.957   1.933   0.226
  380SOL    HW1 2039   4.894   1.960   0.299
  380SOL    HW2 2040   4.993   1.842   0.245
  381SOL     OW 2041   0.794   3.388   2.147
  381SOL    HW1 2042   0.701   3.377   2.184
  381SOL    HW2 2043   0.821   3.304   2.100
  382SOL     OW 2044   6.447   0.325   0.980
  382SOL    HW1 2045   6.420   0.421   0.984
  382SOL    HW2 2046   6.373   0.270   0.942
  383SOL     OW 2047   4.982   3.248   0.688
  383SOL    HW1 2048   5.052   3.215   0.751
  383SOL    HW2 2049   5.015   3.330   0.641
  384SOL     OW 2050   1.130   2.521   5.036
  384SOL    HW1 2051   1.180   2.440   5.066
  384SOL    HW2 2052   1.153   2.598   5.095
  385SOL     OW 2053   5.076   3.015   6.297
  385SOL    HW1 2054   4.995   2.957   6.294
  385SOL    HW2 2055   5.067   3.080   6.374
  386SOL     OW 2056   3.311   6.185   5.282
  386SOL    HW1 2057   3.301   6.281   5.258
  386SOL    HW2 2058   3.256   6.129   5.221
  387SOL     OW 2059   2.461   6.161   3.871
  387SOL    HW1 2060   2.546   6.135   3.824
  387SOL    HW2 2061   2.387   6.165   3.804
  388SOL     OW 2062   1.731   5.831   5.825
  388SOL    HW1 2063   1.731   5.857   5.728
  388SOL    HW2 2064   1.673   5.750   5.837
  389SOL     OW 2065   2.992   2.271   0.165
  389SOL    HW1 2066   3.072   2.302   0.217
  389SOL    HW2 2067   2.957   2.187   0.206
  390SOL     OW 2068   3.105   1.468   4.073
  390SOL    HW1 2069   3.042   1.436   4.144
  390SOL    HW2 2070   3.196   1.477   4.112
  391SOL     OW 2071   0.480   1.761   0.440
  391SOL    HW1 2072   0.381   1.767   0.429
  391SOL    HW2 2073   0.503   1.682   0.497
  392SOL     OW 2074   3.825   5.541   4.541
  392SOL    HW1 2075   3.800   5.446   4.525
  392SOL    HW2 2076   3.925   5.549   4.547
  393SOL     OW 2077   6.195   3.312   5.579
  393SOL    HW1 2078   6.165   3.352   5.665
  393SOL    HW2 2079   6.292   3.329   5.566
  394SOL     OW 2080   1.856   1.099   6.567
  394SOL    HW1 2081   1.892   1.168   6.505
  394SOL    HW2 2082   1.763   1.075   6.539
  395SOL     OW 2083   0.154   3.051   1.181
  395SOL    HW1 2084   0.109   3.095   1.103
  395SOL    HW2 2085   0.091   3.049   1.258
  396SOL     OW 2086   3.762   2.798   5.589
  396SOL    HW1 2087   3.837   2.857   5.617
  396SOL    HW2 2088   3.690   2.799   5.659
  397SOL     OW 2089   4.640   0.118   6.355
  397SOL    HW1 2090   4.588   0.191   6.398
  397SOL    HW2 2091   4.579   0.062   6.298
  398SOL     OW 2092   6.455   4.230   2.802
  398SOL    HW1 2093   6.395   4.278   2.737
  398SOL    HW2 2094   6.447   4.273   2.892
  399SOL     OW 2095   3.446   5.265   1.516
  399SOL    HW1 2096   3.450   5.330   1.440
  399SOL    HW2 2097   3.436   5.316   1.602
  400SOL     OW 2098   2.738   4.239   5.649
  400SOL    HW1 2099   2.797   4.309   5.690
  400SOL    HW2 2100   2.748   4.154   5.699
  401SOL     OW 2101   6.214   1.383   1.461
  401SOL    HW1 2102   6.214   1.322   1.541
  401SOL    HW2 2103   6.210   1.328   1.378
  402SOL     OW 2104   0.550   5.600   0.709
  402SOL    HW1 2105   0.532   5.505   0.684
  402SOL    HW2 2106   0.639   5.606   0.755
  403SOL     OW 2107   4.934   4.630   0.661
  403SOL    HW1 2108   4.867   4.666   0.597
  403SOL    HW2 2109   5.020   4.612   0.612
  404SOL     OW 2110   0.365   5.698   5.024
  404SOL    HW1 2111   0.447   5.749   4.997
  404SOL    HW2 2112   0.338   5.726   5.116
  405SOL     OW 2113   1.093   1.370   1.254
  405SOL    HW1 2114   1.133   1.425   1.327
  405SOL    HW2 2115   0.997   1.351   1.274
  406SOL     OW 2116   0.812   2.902   3.733
  406SOL    HW1 2117   0.776   2.885   3.641
  406SOL    HW2 2118   0.743   2.950   3.787
  407SOL     OW 2119   3.592   2.111   3.736
  407SOL    HW1 2120   3.575   2.208   3.755
  407SOL    HW2 2121   3.532   2.081   3.661
  408SOL     OW 2122   2.291   0.168   3.958
  408SOL    HW1 2123   2.353   0.115   4.015
  408SOL    HW2 2124   2.205   0.118   3.947
  409SOL     OW 2125   6.866   4.252   4.341
  409SOL    HW1 2126   6.927   4.331   4.331
  409SOL    HW2 2127   6.781   4.281   4.385
  410SOL     OW 2128   2.691   6.872   6.023
  410SOL    HW1 2129   2.653   6.880   6.116
  410SOL    HW2 2130   2.726   6.779   6.011
  411SOL     OW 2131   0.636   4.451   5.640
  411SOL    HW1 2132   0.612   4.484   5.731
  411SOL    HW2 2133   0.587   4.504   5.571
  412SOL     OW 2134   3.707   6.428   2.527
  412SOL    HW1 2135   3.731   6.373   2.606
  412SOL    HW2 2136   3.712   6.372   2.444
  413SOL     OW 2137   1.975   0.453   2.030
  413SOL    HW1 2138   1.892   0.440   1.976
  413SOL    HW2 2139   2.055   0.452   1.969
  414SOL     OW 2140   5.057   4.768   0.859
  414SOL    HW1 2141   4.993   4.691   0.848
  414SOL    HW2 2142   5.114   4.775   0.777
  415SOL     OW 2143   3.913   0.243   3.195
  415SOL    HW1 2144   3.964   0.212   3.275
  415SOL    HW2 2145   3.904   0.167   3.130
  416SOL     OW 2146   3.922   6.000   7.005
  416SOL    HW1 2147   3.839   5.970   0.025
  416SOL    HW2 2148   3.902   6.017   6.908
  417SOL     OW 2149   5.323   5.414   1.248
  417SOL    HW1 2150   5.249   5.480   1.261
  417SOL    HW2 2151   5.389   5.451   1.182
  418SOL     OW 2152   6.976   5.164   6.595
  418SOL    HW1 2153   6.988   5.069   6.565
  418SOL    HW2 2154   6.880   5.190   6.585
  419SOL     OW 2155   5.135   5.400   6.911
  419SOL    HW1 2156   5.069   5.462   6.952
  419SOL    HW2 2157   5.208   5.453   6.867
  420SOL     OW 2158   5.598   3.780   6.691
  420SOL    HW1 2159   5.604   3.693   6.740
  420SOL    HW2 2160   5.503   3.797   6.665
  421SOL     OW 2161   1.769   6.322   6.478
  421SOL    HW1 2162   1.702   6.316   6.403
  421SOL    HW2 2163   1.859   6.296   6.444
  422SOL     OW 2164   6.570   3.782   6.765
  422SOL    HW1 2165   6.494   3.789   6.829
  422SOL    HW2 2166   6.546   3.829   6.680
  423SOL     OW 2167   0.780   3.384   6.124
  423SOL    HW1 2168   0.871   3.348   6.105
  423SOL    HW2 2169   0.764   3.381   6.223
  424SOL     OW 2170   1.905   4.532   6.387
  424SOL    HW1 2171   1.910   4.561   6.483
  424SOL    HW2 2172   1.925   4.610   6.328
  425SOL     OW 2173   2.965   0.499   0.460
  425SOL    HW1 2174   2.988   0.446   0.379
  425SOL    HW2 2175   2.912   0.580   0.433
  426SOL     OW 2176   0.877   3.675   0.223
  426SOL    HW1 2177   0.863   3.642   0.316
  426SOL    HW2 2178   0.850   3.603   0.158
  427SOL     OW 2179   3.605   3.484   0.018
  427SOL    HW1 2180   3.533   3.415   0.027
  427SOL    HW2 2181   3.694   3.439   0.010
  428SOL     OW 2182   3.995   1.314   4.729
  428SOL    HW1 2183   4.012   1.413   4.726
  428SOL    HW2 2184   3.962   1.284   4.639
  429SOL     OW 2185   3.392   6.459   0.140
  429SOL    HW1 2186   3.418   6.458   0.236
  429SOL    HW2 2187   3.385   6.553   0.108
  430SOL     OW 2188   2.867   0.622   4.664
  430SOL    HW1 2189   2.915   0.625   4.751
  430SOL    HW2 2190   2.919   0.672   4.595
  431SOL     OW 2191   3.607   0.912   7.001
  431SOL    HW1 2192   3.649   0.839   0.028
  431SOL    HW2 2193   3.651   0.999   7.022
  432SOL     OW 2194   6.325   1.502   1.167
  432SOL    HW1 2195   6.354   1.427   1.108
  432SOL    HW2 2196   6.405   1.539   1.215
  433SOL     OW 2197   3.183   6.030   5.096
  433SOL    HW1 2198   3.164   5.935   5.069
  433SOL    HW2 2199   3.098   6.082   5.095
  434SOL     OW 2200   6.458   3.452   0.837
  434SOL    HW1 2201   6.537   3.488   0.887
  434SOL    HW2 2202   6.474   3.356   0.815
  435SOL     OW 2203   3.604   3.620   0.802
  435SOL    HW1 2204   3.608   3.664   0.892
  435SOL    HW2 2205   3.540   3.544   0.805
  436SOL     OW 2206   2.595   1.167   0.839
  436SOL    HW1 2207   2.521   1.213   0.791
  436SOL    HW2 2208   2.597   1.071   0.811
  437SOL     OW 2209   6.529   6.406   6.339
  437SOL    HW1 2210   6.512   6.480   6.404
  437SOL    HW2 2211   6.445   6.387   6.288
  438SOL     OW 2212   1.191   3.235   0.767
  438SOL    HW1 2213   1.150   3.144   0.760
  438SOL    HW2 2214   1.133   3.301   0.720
  439SOL     OW 2215   6.151   4.913   1.761
  439SOL    HW1 2216   6.245   4.934   1.786
  439SOL    HW2 2217   6.089   4.967   1.818
  440SOL     OW 2218   1.200   2.936   2.640
  440SOL    HW1 2219   1.284   2.909   2.593
  440SOL    HW2 2220   1.219   3.011   2.703
  441SOL     OW 2221   0.072   1.381   3.318
  441SOL    HW1 2222   0.081   1.378   3.417
  441SOL    HW2 2223   0.147   1.435   3.279
  442SOL     OW 2224   1.224   5.209   6.237
  442SOL    HW1 2225   1.132   5.179   6.210
  442SOL    HW2 2226   1.216   5.288   6.297
  443SOL     OW 2227   0.817   4.883   5.809
  443SOL    HW1 2228   0.905   4.838   5.819
  443SOL    HW2 2229   0.800   4.902   5.712
  444SOL     OW 2230   5.346   3.018   6.486
  444SOL    HW1 2231   5.362   2.943   6.422
  444SOL    HW2 2232   5.326   3.101   6.435
  445SOL     OW 2233   1.025   3.671   3.413
  445SOL    HW1 2234   1.110   3.636   3.452
  445SOL    HW2 2235   0.954   3.601   3.420
  446SOL     OW 2236   1.986   4.756   4.194
  446SOL    HW1 2237   1.996   4.737   4.097
  446SOL    HW2 2238   1.890   4.776   4.214
  447SOL     OW 2239   0.330   6.047   0.814
  447SOL    HW1 2240   0.314   5.955   0.848
  447SOL    HW2 2241   0.403   6.045   0.746
  448SOL     OW 2242   4.388   0.364   5.472
  448SOL    HW1 2243   4.331   0.311   5.410
  448SOL    HW2 2244   4.355   0.459   5.475
  449SOL     OW 2245   5.421   0.437   4.900
  449SOL    HW1 2246   5.479   0.518   4.897
  449SOL    HW2 2247   5.466   0.367   4.957
  450SOL     OW 2248   6.673   6.086   2.750
  450SOL    HW1 2249   6.757   6.130   2.718
  450SOL    HW2 2250   6.656   6.003   2.697
  451SOL     OW 2251   6.150   3.340   3.367
  451SOL    HW1 2252   6.218   3.311   3.300
  451SOL    HW2 2253   6.196   3.369   3.451
  452SOL     OW 2254   6.634   5.206   5.843
  452SOL    HW1 2255   6.706   5.162   5.897
  452SOL    HW2 2256   6.634   5.167   5.751
  453SOL     OW 2257   3.223   1.628   6.340
  453SOL    HW1 2258   3.252   1.708   6.393
  453SOL    HW2 2259   3.167   1.657   6.263
  454SOL     OW 2260   0.767   6.220   0.842
  454SOL    HW1 2261   0.856   6.197   0.881
  454SOL    HW2 2262   0.746   6.315   0.864
  455SOL     OW 2263   5.458   1.110   4.845
  455SOL    HW1 2264   5.423   1.204   4.836
  455SOL    HW2 2265   5.541   1.111   4.901
  456SOL     OW 2266   3.873   5.173   0.114
  456SOL    HW1 2267   3.961   5.183   0.067
  456SOL    HW2 2268   3.818   5.105   0.065
  457SOL     OW 2269   0.402   4.382   1.417
  457SOL    HW1 2270   0.385   4.364   1.320
  457SOL    HW2 2271   0.352   4.315   1.472
  458SOL     OW 2272   0.727   6.076   5.358
  458SOL    HW1 2273   0.653   6.055   5.422
  458SOL    HW2 2274   0.707   6.163   5.313
  459SOL     OW 2275   1.325   0.564   3.729
  459SOL    HW1 2276   1.245   0.510   3.754
  459SOL    HW2 2277   1.301   0.660   3.721
  460SOL     OW 2278   6.767   2.323   3.182
  460SOL    HW1 2279   6.814   2.235   3.180
  460SOL    HW2 2280   6.734   2.341   3.275
  461SOL     OW 2281   5.714   4.735   5.615
  461SOL    HW1 2282   5.697   4.640   5.644
  461SOL    HW2 2283   5.797   4.738   5.560
  462SOL     OW 2284   2.993   2.531   0.064
  462SOL    HW1 2285   2.969   2.434   0.068
  462SOL    HW2 2286   3.064   2.545   7.021
  463SOL     OW 2287   6.097   5.974   2.245
  463SOL    HW1 2288   6.114   6.064   2.206
  463SOL    HW2 2289   6.180   5.940   2.289
  464SOL     OW 2290   1.803   1.436   5.808
  464SOL    HW1 2291   1.900   1.417   5.823
  464SOL    HW2 2292   1.790   1.467   5.714
  465SOL     OW 2293   0.285   3.184   6.644
  465SOL    HW1 2294   0.206   3.244   6.632
  465SOL    HW2 2295   0.254   3.093   6.670
  466SOL     OW 2296   1.972   0.387   3.562
  466SOL    HW1 2297   2.049   0.419   3.508
  466SOL    HW2 2298   1.916   0.464   3.591
  467SOL     OW 2299   1.588   1.846   5.221
  467SOL    HW1 2300   1.571   1.756   5.263
  467SOL    HW2 2301   1.687   1.862   5.218
  468SOL     OW 2302   3.003   3.575   3.184
  468SOL    HW1 2303   2.996   3.475   3.182
  468SOL    HW2 2304   2.952   3.610   3.262
  469SOL     OW 2305   3.553   6.752   6.910
  469SOL    HW1 2306   3.556   6.669   6.856
  469SOL    HW2 2307   3.645   6.792   6.915
  470SOL     OW 2308   4.548   6.992   3.351
  470SOL    HW1 2309   4.579   7.014   3.258
  470SOL    HW2 2310   4.552   0.048   3.407
  471SOL     OW 2311   2.831   2.322   4.185
  471SOL    HW1 2312   2.883   2.309   4.100
  471SOL    HW2 2313   2.744   2.366   4.164
  472SOL     OW 2314   3.816   4.402   5.374
  472SOL    HW1 2315   3.778   4.324   5.424
  472SOL    HW2 2316   3.903   4.376   5.332
  473SOL     OW 2317   0.464   4.382   3.902
  473SOL    HW1 2318   0.542   4.399   3.842
  473SOL    HW2 2319   0.467   4.445   3.979
  474SOL     OW 2320   5.027   4.510   5.482
  474SOL    HW1 2321   5.001   4.507   5.386
  474SOL    HW2 2322   5.028   4.418   5.520
  475SOL     OW 2323   2.575   6.201   0.214
  475SOL    HW1 2324   2.514   6.278   0.234
  475SOL    HW2 2325   2.524   6.129   0.167
  476SOL     OW 2326   6.217   6.122   3.049
  476SOL    HW1 2327   6.266   6.055   2.994
  476SOL    HW2 2328   6.119   6.103   3.044
  477SOL     OW 2329   2.041   4.411   4.094
  477SOL    HW1 2330   2.051   4.510   4.087
  477SOL    HW2 2331   2.098   4.367   4.025
  478SOL     OW 2332   1.400   5.079   3.531
  478SOL    HW1 2333   1.323   5.021   3.558
  478SOL    HW2 2334   1.418   5.146   3.603
  479SOL     OW 2335   4.328   2.102   1.839
  479SOL    HW1 2336   4.292   2.089   1.931
  479SOL    HW2 2337   4.258   2.080   1.772
  480SOL     OW 2338   1.685   6.526   3.935
  480SOL    HW1 2339   1.640   6.446   3.974
  480SOL    HW2 2340   1.768   6.546   3.986
  481SOL     OW 2341   2.141   6.955   1.045
  481SOL    HW1 2342   2.113   6.881   0.983
  481SOL    HW2 2343   2.236   6.980   1.026
  482SOL     OW 2344   5.302   5.577   0.657
  482SOL    HW1 2345   5.384   5.629   0.632
  482SOL    HW2 2346   5.221   5.627   0.626
  483SOL     OW 2347   5.476   2.049   2.890
  483SOL    HW1 2348   5.422   2.060   2.806
  483SOL    HW2 2349   5.469   1.954   2.921
  484SOL     OW 2350   6.449   1.992   3.982
  484SOL    HW1 2351   6.486   1.905   3.951
  484SOL    HW2 2352   6.429   2.050   3.904
  485SOL     OW 2353   3.157   6.051   1.474
  485SOL    HW1 2354   3.197   6.141   1.453
  485SOL    HW2 2355   3.204   6.013   1.554
  486SOL     OW 2356   0.465   0.957   5.929
  486SOL    HW1 2357   0.446   0.867   5.890
  486SOL    HW2 2358   0.391   1.020   5.904
  487SOL     OW 2359   6.757   2.813   6.655
  487SOL    HW1 2360   6.741   2.910   6.670
  487SOL    HW2 2361   6.684   2.775   6.597
  488SOL     OW 2362   0.888   4.845   2.472
  488SOL    HW1 2363   0.817   4.775   2.472
  488SOL    HW2 2364   0.861   4.921   2.530
  489SOL     OW 2365   3.196   5.830   6.289
  489SOL    HW1 2366   3.255   5.896   6.336
  489SOL    HW2 2367   3.252   5.755   6.253
  490SOL     OW 2368   5.148   0.334   4.372
  490SOL    HW1 2369   5.188   0.248   4.338
  490SOL    HW2 2370   5.204   0.367   4.448
  491SOL     OW 2371   0.666   2.375   3.503
  491SOL    HW1 2372   0.734   2.387   3.430
  491SOL    HW2 2373   0.582   2.339   3.463
  492SOL     OW 2374   1.823   1.344   4.759
  492SOL    HW1 2375   1.919   1.343   4.786
  492SOL    HW2 2376   1.816   1.377   4.664
  493SOL     OW 2377   6.173   3.972   4.337
  493SOL    HW1 2378   6.096   3.911   4.323
  493SOL    HW2 2379   6.144   4.067   4.321
  494SOL     OW 2380   5.852   1.218   6.546
  494SOL    HW1 2381   5.815   1.298   6.498
  494SOL    HW2 2382   5.796   1.138   6.525
  495SOL     OW 2383   4.951   4.432   0.378
  495SOL    HW1 2384   5.004   4.517   0.386
  495SOL    HW2 2385   5.003   4.356   0.415
  496SOL     OW 2386   5.567   3.590   2.395
  496SOL    HW1 2387   5.592   3.523   2.464
  496SOL    HW2 2388   5.520   3.667   2.439
  497SOL     OW 2389   4.134   6.470   4.066
  497SOL    HW1 2390   4.141   6.402   4.138
  497SOL    HW2 2391   4.226   6.505   4.045
  498SOL     OW 2392   1.225   2.683   1.082
  498SOL    HW1 2393   1.253   2.587   1.077
  498SOL    HW2 2394   1.282   2.730   1.149
  499SOL     OW 2395   3.730   1.250   4.935
  499SOL    HW1 2396   3.710   1.348   4.947
  499SOL    HW2 2397   3.810   1.226   4.990
  500SOL     OW 2398   1.453   4.628   2.807
  500SOL    HW1 2399   1.386   4.581   2.864
  500SOL    HW2 2400   1.442   4.599   2.712
  501SOL     OW 2401   0.414   5.409   6.406
  501SOL    HW1 2402   0.485   5.352   6.365
  501SOL    HW2 2403   0.339   5.419   6.340
  502SOL     OW 2404   2.374   5.208   6.323
  502SOL    HW1 2405   2.313   5.189   6.246
  502SOL    HW2 2406   2.446   5.272   6.294
  503SOL     OW 2407   6.551   5.184   4.601
  503SOL    HW1 2408   6.572   5.086   4.609
  503SOL    HW2 2409   6.529   5.205   4.506
  504SOL     OW 2410   1.387   5.253   4.422
  504SOL    HW1 2411   1.426   5.242   4.514
  504SOL    HW2 2412   1.292   5.222   4.422
  505SOL     OW 2413   3.153   6.535   4.791
  505SOL    HW1 2414   3.234   6.511   4.845
  505SOL    HW2 2415   3.129   6.457   4.733
  506SOL     OW 2416   1.947   2.952   0.658
  506SOL    HW1 2417   1.912   2.953   0.752
  506SOL    HW2 2418   1.871   2.970   0.595
  507SOL     OW 2419   3.949   2.198   4.472
  507SOL    HW1 2420   3.925   2.109   4.511
  507SOL    HW2 2421   3.930   2.270   4.539
  508SOL     OW 2422   6.555   4.915   4.140
  508SOL    HW1 2423   6.545   5.001   4.090
  508SOL    HW2 2424   6.472   4.859   4.128
  509SOL     OW 2425   4.688   3.241   1.700
  509SOL    HW1 2426   4.667   3.174   1.771
  509SOL    HW2 2427   4.719   3.194   1.617
  510SOL     OW 2428   1.153   4.532   4.388
  510SOL    HW1 2429   1.100   4.448   4.401
  510SOL    HW2 2430   1.181   4.567   4.477
  511SOL     OW 2431   0.229   6.035   1.220
  511SOL    HW1 2432   0.159   5.971   1.187
  511SOL    HW2 2433   0.214   6.125   1.179
  512SOL     OW 2434   1.544   3.537   6.136
  512SOL    HW1 2435   1.539   3.537   6.236
  512SOL    HW2 2436   1.530   3.630   6.102
  513SOL     OW 2437   0.895   4.971   4.044
  513SOL    HW1 2438   0.864   4.922   4.126
  513SOL    HW2 2439   0.820   4.975   3.978
  514SOL     OW 2440   5.247   1.974   3.542
  514SOL    HW1 2441   5.271   2.055   3.488
  514SOL    HW2 2442   5.235   2.000   3.638
  515SOL     OW 2443   3.069   5.688   0.053
  515SOL    HW1 2444   3.031   5.763   0.108
  515SOL    HW2 2445   3.165   5.708   0.032
  516SOL     OW 2446   1.238   4.629   3.649
  516SOL    HW1 2447   1.250   4.712   3.595
  516SOL    HW2 2448   1.328   4.591   3.670
  517SOL     OW 2449   4.564   0.454   6.065
  517SOL    HW1 2450   4.469   0.478   6.044
  517SOL    HW2 2451   4.571   0.356   6.080
  518SOL     OW 2452   2.020   1.297   0.208
  518SOL    HW1 2453   1.929   1.291   0.167
  518SOL    HW2 2454   2.043   1.210   0.252
  519SOL     OW 2455   0.721   6.425   0.446
  519SOL    HW1 2456   0.688   6.401   0.355
  519SOL    HW2 2457   0.764   6.515   0.443
  520SOL     OW 2458   6.073   4.796   4.305
  520SOL    HW1 2459   6.069   4.696   4.307
  520SOL    HW2 2460   6.055   4.828   4.212
  521SOL     OW 2461   6.360   0.703   0.356
  521SOL    HW1 2462   6.422   0.694   0.278
  521SOL    HW2 2463   6.333   0.799   0.367
  522SOL     OW 2464   3.444   3.923   5.699
  522SOL    HW1 2465   3.446   4.006   5.643
  522SOL    HW2 2466   3.432   3.947   5.795
  523SOL     OW 2467   6.286   6.669   3.655
  523SOL    HW1 2468   6.371   6.649   3.704
  523SOL    HW2 2469   6.294   6.755   3.606
  524SOL     OW 2470   3.828   0.246   4.967
  524SOL    HW1 2471   3.783   0.279   4.885
  524SOL    HW2 2472   3.787   0.288   5.048
  525SOL     OW 2473   3.035   2.830   6.909
  525SOL    HW1 2474   3.129   2.824   6.877
  525SOL    HW2 2475   3.032   2.814   7.008
  526SOL     OW 2476   4.394   5.728   4.641
  526SOL    HW1 2477   4.428   5.643   4.600
  526SOL    HW2 2478   4.383   5.797   4.569
  527SOL     OW 2479   0.261   1.718   0.036
  527SOL    HW1 2480   0.292   1.631   7.024
  527SOL    HW2 2481   0.296   1.728   0.129
  528SOL     OW 2482   1.672   1.855   5.974
  528SOL    HW1 2483   1.576   1.827   5.981
  528SOL    HW2 2484   1.682   1.926   5.905
  529SOL     OW 2485   6.871   5.266   4.183
  529SOL    HW1 2486   6.925   5.232   4.260
  529SOL    HW2 2487   6.863   5.366   4.190
  530SOL     OW 2488   6.871   2.752   5.142
  530SOL    HW1 2489   6.809   2.722   5.214
  530SOL    HW2 2490   6.846   2.845   5.114
  531SOL     OW 2491   6.928   0.628   6.960
  531SOL    HW1 2492   6.948   0.530   6.968
  531SOL    HW2 2493   6.892   0.647   6.869
  532SOL     OW 2494   2.073   1.074   6.005
  532SOL    HW1 2495   2.019   1.048   6.085
  532SOL    HW2 2496   2.128   1.155   6.027
  533SOL     OW 2497   4.584   0.620   5.164
  533SOL    HW1 2498   4.625   0.611   5.254
  533SOL    HW2 2499   4.600   0.536   5.111
  534SOL     OW 2500   3.199   5.472   3.291
  534SOL    HW1 2501   3.230   5.517   3.374
  534SOL    HW2 2502   3.192   5.374   3.307
  535SOL     OW 2503   6.083   3.895   1.638
  535SOL    HW1 2504   6.036   3.886   1.726
  535SOL    HW2 2505   6.024   3.861   1.565
  536SOL     OW 2506   1.680   6.102   1.217
  536SOL    HW1 2507   1.735   6.179   1.249
  536SOL    HW2 2508   1.724   6.060   1.137
  537SOL     OW 2509   2.135   6.792   3.046
  537SOL    HW1 2510   2.144   6.723   3.118
  537SOL    HW2 2511   2.135   6.883   3.087
  538SOL     OW 2512   1.800   5.095   4.206
  538SOL    HW1 2513   1.727   5.106   4.138
  538SOL    HW2 2514   1.802   5.001   4.238
  539SOL     OW 2515   1.037   5.488   1.683
  539SOL    HW1 2516   1.101   5.550   1.638
  539SOL    HW2 2517   1.087   5.422   1.739
  540SOL     OW 2518   1.920   3.182   1.029
  540SOL    HW1 2519   2.008   3.220   1.001
  540SOL    HW2 2520   1.867   3.252   1.077
  541SOL     OW 2521   4.494   5.394   4.913
  541SOL    HW1 2522   4.587   5.392   4.949
  541SOL    HW2 2523   4.483   5.319   4.847
  542SOL     OW 2524   5.589   6.840   6.125
  542SOL    HW1 2525   5.680   6.831   6.086
  542SOL    HW2 2526   5.535   6.759   6.104
  543SOL     OW 2527   5.919   0.160   1.621
  543SOL    HW1 2528   5.864   0.096   1.566
  543SOL    HW2 2529   5.860   0.203   1.689
  544SOL     OW 2530   0.821   5.811   0.633
  544SOL    HW1 2531   0.893   5.877   0.612
  544SOL    HW2 2532   0.738   5.836   0.583
  545SOL     OW 2533   3.108   1.616   3.542
  545SOL    HW1 2534   3.055   1.531   3.542
  545SOL    HW2 2535   3.113   1.653   3.634
  546SOL     OW 2536   1.811   2.418   6.903
  546SOL    HW1 2537   1.840   2.333   6.947
  546SOL    HW2 2538   1.890   2.475   6.883
  547SOL     OW 2539   2.937   1.992   0.147
  547SOL    HW1 2540   2.850   1.944   0.139
  547SOL    HW2 2541   2.969   1.991   0.242
  548SOL     OW 2542   3.385   3.652   5.607
  548SOL    HW1 2543   3.400   3.750   5.621
  548SOL    HW2 2544   3.290   3.636   5.580
  549SOL     OW 2545   0.767   4.378   0.826
  549SOL    HW1 2546   0.828   4.300   0.822
  549SOL    HW2 2547   0.712   4.383   0.742
  550SOL     OW 2548   6.970   4.401   0.586
  550SOL    HW1 2549   6.878   4.370   0.609
  550SOL    HW2 2550   6.991   4.484   0.637
  551SOL     OW 2551   0.121   0.827   0.296
  551SOL    HW1 2552   0.091   0.764   0.367
  551SOL    HW2 2553   0.041   0.865   0.249
  552SOL     OW 2554   4.905   4.954   0.377
  552SOL    HW1 2555   4.945   5.013   0.307
  552SOL    HW2 2556   4.882   4.865   0.337
  553SOL     OW 2557   1.012   2.001   1.398
  553SOL    HW1 2558   1.091   2.012   1.458
  553SOL    HW2 2559   0.947   2.075   1.414
  554SOL     OW 2560   4.646   5.034   4.632
  554SOL    HW1 2561   4.608   5.110   4.685
  554SOL    HW2 2562   4.628   5.049   4.535
  555SOL     OW 2563   1.684   4.666   5.340
  555SOL    HW1 2564   1.756   4.703   5.398
  555SOL    HW2 2565   1.681   4.567   5.349
  556SOL     OW 2566   6.209   4.090   2.882
  556SOL    HW1 2567   6.242   4.015   2.824
  556SOL    HW2 2568   6.286   4.151   2.903
  557SOL     OW 2569   6.330   5.862   5.397
  557SOL    HW1 2570   6.248   5.904   5.358
  557SOL    HW2 2571   6.385   5.932   5.443
  558SOL     OW 2572   3.970   3.971   5.816
  558SOL    HW1 2573   4.025   3.888   5.829
  558SOL    HW2 2574   3.895   3.972   5.882
  559SOL     OW 2575   6.025   4.831   6.391
  559SOL    HW1 2576   6.112   4.848   6.437
  559SOL    HW2 2577   5.997   4.736   6.408
  560SOL     OW 2578   4.386   6.525   0.612
  560SOL    HW1 2579   4.457   6.523   0.542
  560SOL    HW2 2580   4.296   6.532   0.568
  561SOL     OW 2581   5.192   0.159   2.045
  561SOL    HW1 2582   5.109   0.209   2.024
  561SOL    HW2 2583   5.261   0.175   1.974
  562SOL     OW 2584   6.239   0.186   0.859
  562SOL    HW1 2585   6.244   0.151   0.765
  562SOL    HW2 2586   6.267   0.114   0.922
  563SOL     OW 2587   2.803   0.711   5.151
  563SOL    HW1 2588   2.857   0.762   5.084
  563SOL    HW2 2589   2.821   0.746   5.243
  564SOL     OW 2590   1.013   1.361   5.495
  564SOL    HW1 2591   1.023   1.368   5.594
  564SOL    HW2 2592   1.050   1.443   5.452
  565SOL     OW 2593   4.344   3.806   5.731
  565SOL    HW1 2594   4.304   3.715   5.737
  565SOL    HW2 2595   4.388   3.830   5.817
  566SOL     OW 2596   6.577   4.686   2.195
  566SOL    HW1 2597   6.659   4.724   2.152
  566SOL    HW2 2598   6.548   4.604   2.146
  567SOL     OW 2599   3.949   3.802   5.517
  567SOL    HW1 2600   3.990   3.755   5.595
  567SOL    HW2 2601   4.018   3.858   5.472
  568SOL     OW 2602   2.489   0.961   6.621
  568SOL    HW1 2603   2.479   0.909   6.536
  568SOL    HW2 2604   2.548   1.040   6.605
  569SOL     OW 2605   1.728   4.125   6.710
  569SOL    HW1 2606   1.802   4.109   6.644
  569SOL    HW2 2607   1.641   4.128   6.662
  570SOL     OW 2608   0.130   5.577   0.366
  570SOL    HW1 2609   0.047   5.531   0.336
  570SOL    HW2 2610   0.198   5.510   0.395
  571SOL     OW 2611   4.036   6.490   2.447
  571SOL    HW1 2612   4.121   6.539   2.469
  571SOL    HW2 2613   3.962   6.557   2.438
  572SOL     OW 2614   1.367   4.143   3.944
  572SOL    HW1 2615   1.299   4.198   3.896
  572SOL    HW2 2616   1.459   4.171   3.914
  573SOL     OW 2617   3.521   2.424   6.870
  573SOL    HW1 2618   3.522   2.352   6.940
  573SOL    HW2 2619   3.440   2.482   6.883
  574SOL     OW 2620   2.721   2.079   3.634
  574SOL    HW1 2621   2.641   2.139   3.642
  574SOL    HW2 2622   2.801   2.123   3.673
  575SOL     OW 2623   4.450   2.257   6.236
  575SOL    HW1 2624   4.353   2.280   6.227
  575SOL    HW2 2625   4.472   2.180   6.177
  576SOL     OW 2626   0.909   3.596   3.173
  576SOL    HW1 2627   0.991   3.609   3.229
  576SOL    HW2 2628   0.837   3.658   3.203
  577SOL     OW 2629   4.290   1.986   3.765
  577SOL    HW1 2630   4.314   2.017   3.857
  577SOL    HW2 2631   4.371   1.988   3.706
  578SOL     OW 2632   7.014   4.085   4.516
  578SOL    HW1 2633   6.960   4.007   4.546
  578SOL    HW2 2634   6.956   4.150   4.467
  579SOL     OW 2635   3.960   3.647   0.548
  579SOL    HW1 2636   4.021   3.709   0.598
  579SOL    HW2 2637   3.941   3.566   0.605
  580SOL     OW 2638   0.185   0.140   0.244
  580SOL    HW1 2639   0.223   0.052   0.274
  580SOL    HW2 2640   0.211   0.211   0.311
  581SOL     OW 2641   3.847   3.447   3.473
  581SOL    HW1 2642   3.913   3.476   3.543
  581SOL    HW2 2643   3.815   3.354   3.493
  582SOL     OW 2644   6.914   4.128   0.262
  582SOL    HW1 2645   6.936   4.073   0.343
  582SOL    HW2 2646   6.999   4.167   0.225
  583SOL     OW 2647   2.258   6.889   6.314
  583SOL    HW1 2648   2.261   6.792   6.338
  583SOL    HW2 2649   2.176   6.931   6.352
  584SOL     OW 2650   1.395   4.811   4.427
  584SOL    HW1 2651   1.385   4.744   4.501
  584SOL    HW2 2652   1.462   4.880   4.454
  585SOL     OW 2653   5.317   1.507   5.209
  585SOL    HW1 2654   5.250   1.506   5.283
  585SOL    HW2 2655   5.355   1.599   5.200
  586SOL     OW 2656   3.045   5.400   1.112
  586SOL    HW1 2657   3.112   5.340   1.068
  586SOL    HW2 2658   3.007   5.463   1.045
  587SOL     OW 2659   2.188   2.705   6.039
  587SOL    HW1 2660   2.275   2.689   6.086
  587SOL    HW2 2661   2.206   2.734   5.945
  588SOL     OW 2662   2.213   0.241   1.768
  588SOL    HW1 2663   2.202   0.151   1.810
  588SOL    HW2 2664   2.212   0.232   1.668
  589SOL     OW 2665   4.730   4.805   1.485
  589SOL    HW1 2666   4.676   4.889   1.491
  589SOL    HW2 2667   4.735   4.761   1.575
  590SOL     OW 2668   0.086   3.759   2.017
  590SOL    HW1 2669   0.184   3.758   2.000
  590SOL    HW2 2670   0.037   3.749   1.931
  591SOL     OW 2671   2.345   0.087   3.038
  591SOL    HW1 2672   2.257   0.076   3.085
  591SOL    HW2 2673   2.366   0.184   3.027
  592SOL     OW 2674   5.260   6.952   6.064
  592SOL    HW1 2675   5.334   6.992   6.010
  592SOL    HW2 2676   5.299   6.901   6.141
  593SOL     OW 2677   0.148   0.772   4.731
  593SOL    HW1 2678   0.060   0.766   4.777
  593SOL    HW2 2679   0.201   0.848   4.769
  594SOL     OW 2680   5.444   2.180   1.491
  594SOL    HW1 2681   5.469   2.262   1.543
  594SOL    HW2 2682   5.490   2.100   1.530
  595SOL     OW 2683   3.307   0.271   3.885
  595SOL    HW1 2684   3.285   0.299   3.792
  595SOL    HW2 2685   3.306   0.352   3.945
  596SOL     OW 2686   0.476   4.703   1.977
  596SOL    HW1 2687   0.421   4.622   1.999
  596SOL    HW2 2688   0.521   4.689   1.889
  597SOL     OW 2689   4.793   1.912   5.553
  597SOL    HW1 2690   4.714   1.971   5.542
  597SOL    HW2 2691   4.813   1.865   5.467
  598SOL     OW 2692   3.712   3.297   1.792
  598SOL    HW1 2693   3.726   3.202   1.818
  598SOL    HW2 2694   3.763   3.316   1.708
  599SOL     OW 2695   5.673   6.101   3.433
  599SOL    HW1 2696   5.663   6.199   3.416
  599SOL    HW2 2697   5.644   6.050   3.352
  600SOL     OW 2698   2.680   1.964   0.425
  600SOL    HW1 2699   2.754   1.910   0.386
  600SOL    HW2 2700   2.706   2.061   0.426
  601SOL     OW 2701   2.002   4.764   2.580
  601SOL    HW1 2702   2.013   4.732   2.674
  601SOL    HW2 2703   2.044   4.855   2.570
  602SOL     OW 2704   0.131   0.512   2.563
  602SOL    HW1 2705   0.172   0.421   2.564
  602SOL    HW2 2706   0.172   0.568   2.636
  603SOL     OW 2707   4.302   1.500   2.904
  603SOL    HW1 2708   4.304   1.543   2.814
  603SOL    HW2 2709   4.213   1.455   2.918
  604SOL     OW 2710   1.152   3.242   5.864
  604SOL    HW1 2711   1.112   3.331   5.885
  604SOL    HW2 2712   1.177   3.239   5.767
  605SOL     OW 2713   5.579   0.343   4.512
  605SOL    HW1 2714   5.602   0.440   4.513
  605SOL    HW2 2715   5.488   0.330   4.550
  606SOL     OW 2716   2.523   6.940   1.937
  606SOL    HW1 2717   2.580   6.968   2.014
  606SOL    HW2 2718   2.580   6.915   1.859
  607SOL     OW 2719   3.682   0.537   4.414
  607SOL    HW1 2720   3.762   0.532   4.354
  607SOL    HW2 2721   3.672   0.449   4.462
  608SOL     OW 2722   5.871   2.784   0.954
  608SOL    HW1 2723   5.927   2.840   0.893
  608SOL    HW2 2724   5.872   2.689   0.922
  609SOL     OW 2725   3.498   4.043   4.911
  609SOL    HW1 2726   3.530   4.101   4.836
  609SOL    HW2 2727   3.550   4.064   4.994
  610SOL     OW 2728   6.181   1.931   4.608
  610SOL    HW1 2729   6.258   1.990   4.633
  610SOL    HW2 2730   6.213   1.856   4.550
  611SOL     OW 2731   6.187   0.064   0.616
  611SOL    HW1 2732   6.251   0.106   0.552
  611SOL    HW2 2733   6.148   7.008   0.575
  612SOL     OW 2734   1.666   4.433   6.692
  612SOL    HW1 2735   1.625   4.524   6.692
  612SOL    HW2 2736   1.601   4.367   6.729
  613SOL     OW 2737   3.630   1.533   6.772
  613SOL    HW1 2738   3.539   1.493   6.760
  613SOL    HW2 2739   3.645   1.604   6.703
  614SOL     OW 2740   5.133   2.892   0.901
  614SOL    HW1 2741   5.149   2.943   0.816
  614SOL    HW2 2742   5.220   2.882   0.949
  615SOL     OW 2743   5.959   6.186   0.334
  615SOL    HW1 2744   5.888   6.256   0.327
  615SOL    HW2 2745   6.021   6.193   0.256
  616SOL     OW 2746   4.690   1.856   4.882
  616SOL    HW1 2747   4.708   1.861   4.783
  616SOL    HW2 2748   4.596   1.886   4.899
  617SOL     OW 2749   6.528   6.717   5.117
  617SOL    HW1 2750   6.615   6.685   5.153
  617SOL    HW2 2751   6.453   6.676   5.169
  618SOL     OW 2752   5.514   4.921   0.604
  618SOL    HW1 2753   5.593   4.889   0.656
  618SOL    HW2 2754   5.543   4.987   0.535
  619SOL     OW 2755   1.807   0.177   6.753
  619SOL    HW1 2756   1.715   0.156   6.721
  619SOL    HW2 2757   1.802   0.232   6.837
  620SOL     OW 2758   4.746   1.958   1.598
  620SOL    HW1 2759   4.668   2.008   1.634
  620SOL    HW2 2760   4.823   2.021   1.584
  621SOL     OW 2761   2.021   6.970   6.371
  621SOL    HW1 2762   2.017   7.010   6.463
  621SOL    HW2 2763   1.929   6.967   6.332
  622SOL     OW 2764   0.657   3.305   6.384
  622SOL    HW1 2765   0.711   3.339   6.461
  622SOL    HW2 2766   0.566   3.346   6.385
  623SOL     OW 2767   6.851   1.691   2.785
  623SOL    HW1 2768   6.844   1.595   2.812
  623SOL    HW2 2769   6.866   1.747   2.866
  624SOL     OW 2770   6.489   0.939   6.123
  624SOL    HW1 2771   6.585   0.919   6.140
  624SOL    HW2 2772   6.462   1.019   6.175
  625SOL     OW 2773   3.073   0.991   1.581
  625SOL    HW1 2774   2.975   0.987   1.600
  625SOL    HW2 2775   3.102   0.905   1.541
  626SOL     OW 2776   0.354   6.013   3.778
  626SOL    HW1 2777   0.384   6.102   3.745
  626SOL    HW2 2778   0.394   5.941   3.721
  627SOL     OW 2779   6.731   4.992   6.415
  627SOL    HW1 2780   6.818   4.943   6.408
  627SOL    HW2 2781   6.718   5.048   6.333
  628SOL     OW 2782   3.789   4.360   6.714
  628SOL    HW1 2783   3.792   4.410   6.801
  628SOL    HW2 2784   3.810   4.264   6.731
  629SOL     OW 2785   1.881   6.951   6.758
  629SOL    HW1 2786   1.792   6.906   6.770
  629SOL    HW2 2787   1.868   0.023   6.759
  630SOL     OW 2788   5.916   2.137   0.848
  630SOL    HW1 2789   5.948   2.185   0.930
  630SOL    HW2 2790   5.994   2.115   0.790
  631SOL     OW 2791   1.783   3.357   2.332
  631SOL    HW1 2792   1.785   3.364   2.232
  631SOL    HW2 2793   1.694   3.323   2.361
  632SOL     OW 2794   3.514   4.639   1.452
  632SOL    HW1 2795   3.447   4.645   1.526
  632SOL    HW2 2796   3.542   4.731   1.425
  633SOL     OW 2797   1.042   5.969   6.845
  633SOL    HW1 2798   1.055   5.871   6.863
  633SOL    HW2 2799   0.981   6.008   6.913
  634SOL     OW 2800   2.941   3.155   5.473
  634SOL    HW1 2801   2.891   3.084   5.523
  634SOL    HW2 2802   2.890   3.180   5.390
  635SOL     OW 2803   6.570   6.812   6.886
  635SOL    HW1 2804   6.509   6.734   6.895
  635SOL    HW2 2805   6.627   6.820   6.968
  636SOL     OW 2806   1.812   2.043   4.598
  636SOL    HW1 2807   1.817   1.971   4.667
  636SOL    HW2 2808   1.903   2.055   4.556
  637SOL     OW 2809   6.828   1.726   2.031
  637SOL    HW1 2810   6.861   1.694   1.942
  637SOL    HW2 2811   6.856   1.662   2.102
  638SOL     OW 2812   0.027   3.514   5.323
  638SOL    HW1 2813   0.040   3.594   5.265
  638SOL    HW2 2814   7.019   3.438   5.268
  639SOL     OW 2815   6.085   3.521   1.514
  639SOL    HW1 2816   6.030   3.469   1.578
  639SOL    HW2 2817   6.030   3.596   1.476
  640SOL     OW 2818   6.302   3.566   2.757
  640SOL    HW1 2819   6.350   3.497   2.703
  640SOL    HW2 2820   6.264   3.524   2.839
  641SOL     OW 2821   2.646   5.495   4.222
  641SOL    HW1 2822   2.629   5.443   4.138
  641SOL    HW2 2823   2.739   5.477   4.254
  642SOL     OW 2824   0.651   4.869   4.587
  642SOL    HW1 2825   0.665   4.901   4.493
  642SOL    HW2 2826   0.553   4.857   4.604
  643SOL     OW 2827   4.611   4.802   0.700
  643SOL    HW1 2828   4.628   4.759   0.612
  643SOL    HW2 2829   4.654   4.892   0.701
  644SOL     OW 2830   6.134   0.755   4.541
  644SOL    HW1 2831   6.042   0.789   4.557
  644SOL    HW2 2832   6.138   0.658   4.564
  645SOL     OW 2833   4.191   6.455   2.061
  645SOL    HW1 2834   4.147   6.532   2.107
  645SOL    HW2 2835   4.187   6.468   1.962
  646SOL     OW 2836   3.798   2.177   5.047
  646SOL    HW1 2837   3.749   2.138   5.125
  646SOL    HW2 2838   3.738   2.175   4.966
  647SOL     OW 2839   2.583   2.416   6.922
  647SOL    HW1 2840   2.567   2.355   6.844
  647SOL    HW2 2841   2.644   2.371   6.987
  648SOL     OW 2842   5.314   2.180   3.993
  648SOL    HW1 2843   5.233   2.197   4.050
  648SOL    HW2 2844   5.289   2.117   3.920
  649SOL     OW 2845   3.651   5.667   0.285
  649SOL    HW1 2846   3.707   5.598   0.238
  649SOL    HW2 2847   3.565   5.678   0.236
  650SOL     OW 2848   2.644   3.729   1.439
  650SOL    HW1 2849   2.694   3.804   1.396
  650SOL    HW2 2850   2.605   3.761   1.526
  651SOL     OW 2851   7.004   1.466   2.987
  651SOL    HW1 2852   7.018   1.512   3.075
  651SOL    HW2 2853   6.907   1.446   2.974
  652SOL     OW 2854   4.104   6.669   0.792
  652SOL    HW1 2855   4.065   6.580   0.817
  652SOL    HW2 2856   4.158   6.704   0.869
  653SOL     OW 2857   1.372   0.148   3.249
  653SOL    HW1 2858   1.467   0.116   3.260
  653SOL    HW2 2859   1.349   0.210   3.323
  654SOL     OW 2860   1.202   0.263   5.886
  654SOL    HW1 2861   1.234   0.226   5.798
  654SOL    HW2 2862   1.265   0.335   5.916
  655SOL     OW 2863   1.476   4.232   1.484
  655SOL    HW1 2864   1.456   4.322   1.445
  655SOL    HW2 2865   1.546   4.187   1.428
  656SOL     OW 2866   2.120   6.994   0.055
  656SOL    HW1 2867   2.202   0.004   0.012
  656SOL    HW2 2868   2.116   7.024   0.150
  657SOL     OW 2869   4.061   3.184   4.490
  657SOL    HW1 2870   4.146   3.158   4.537
  657SOL    HW2 2871   3.983   3.149   4.542
  658SOL     OW 2872   2.281   0.315   4.967
  658SOL    HW1 2873   2.285   0.335   4.870
  658SOL    HW2 2874   2.208   0.369   5.010
  659SOL     OW 2875   1.980   5.518   6.919
  659SOL    HW1 2876   2.043   5.586   6.957
  659SOL    HW2 2877   1.983   5.522   6.820
  660SOL     OW 2878   5.597   4.481   2.021
  660SOL    HW1 2879   5.502   4.480   2.054
  660SOL    HW2 2880   5.604   4.545   1.945
  661SOL     OW 2881   4.295   5.807   4.185
  661SOL    HW1 2882   4.370   5.808   4.251
  661SOL    HW2 2883   4.209   5.794   4.234
  662SOL     OW 2884   6.473   3.405   6.575
  662SOL    HW1 2885   6.501   3.479   6.514
  662SOL    HW2 2886   6.385   3.428   6.617
  663SOL     OW 2887   1.420   4.380   5.941
  663SOL    HW1 2888   1.390   4.463   5.895
  663SOL    HW2 2889   1.378   4.374   6.032
  664SOL     OW 2890   1.555   0.180   5.756
  664SOL    HW1 2891   1.654   0.173   5.757
  664SOL    HW2 2892   1.515   0.089   5.751
  665SOL     OW 2893   2.491   4.420   2.964
  665SOL    HW1 2894   2.457   4.363   2.889
  665SOL    HW2 2895   2.548   4.494   2.927
  666SOL     OW 2896   3.183   0.229   0.182
  666SOL    HW1 2897   3.236   0.291   0.239
  666SOL    HW2 2898   3.086   0.249   0.193
  667SOL     OW 2899   1.437   2.824   2.558
  667SOL    HW1 2900   1.447   2.757   2.631
  667SOL    HW2 2901   1.502   2.805   2.485
  668SOL     OW 2902   5.431   6.968   0.244
  668SOL    HW1 2903   5.449   6.903   0.318
  668SOL    HW2 2904   5.444   0.035   0.278
  669SOL     OW 2905   6.581   5.893   3.077
  669SOL    HW1 2906   6.660   5.947   3.107
  669SOL    HW2 2907   6.558   5.826   3.148
  670SOL     OW 2908   3.647   4.125   3.520
  670SOL    HW1 2909   3.657   4.207   3.577
  670SOL    HW2 2910   3.554   4.122   3.482
  671SOL     OW 2911   1.590   0.230   6.466
  671SOL    HW1 2912   1.525   0.180   6.522
  671SOL    HW2 2913   1.650   0.285   6.525
  672SOL     OW 2914   1.094   2.341   3.072
  672SOL    HW1 2915   1.058   2.355   2.980
  672SOL    HW2 2916   1.021   2.352   3.140
  673SOL     OW 2917   5.083   0.930   6.676
  673SOL    HW1 2918   5.078   0.890   6.768
  673SOL    HW2 2919   5.057   1.027   6.680
  674SOL     OW 2920   6.848   2.364   4.145
  674SOL    HW1 2921   6.898   2.450   4.132
  674SOL    HW2 2922   6.757   2.384   4.180
  675SOL     OW 2923   5.758   6.761   3.418
  675SOL    HW1 2924   5.758   6.822   3.497
  675SOL    HW2 2925   5.748   6.666   3.449
  676SOL     OW 2926   3.086   4.898   4.730
  676SOL    HW1 2927   3.183   4.901   4.754
  676SOL    HW2 2928   3.031   4.912   4.812
  677SOL     OW 2929   4.827   6.933   0.935
  677SOL    HW1 2930   4.878   6.872   0.996
  677SOL    HW2 2931   4.843   6.907   0.840
  678SOL     OW 2932   2.431   0.813   6.396
  678SOL    HW1 2933   2.338   0.779   6.408
  678SOL    HW2 2934   2.493   0.736   6.380
  679SOL     OW 2935   6.737   0.315   2.788
  679SOL    HW1 2936   6.741   0.395   2.727
  679SOL    HW2 2937   6.762   0.233   2.737
  680SOL     OW 2938   6.144   3.692   4.072
  680SOL    HW1 2939   6.105   3.782   4.088
  680SOL    HW2 2940   6.075   3.632   4.031
  681SOL     OW 2941   1.367   5.522   2.591
  681SOL    HW1 2942   1.290   5.567   2.636
  681SOL    HW2 2943   1.380   5.562   2.500
  682SOL     OW 2944   0.541   0.215   5.954
  682SOL    HW1 2945   0.544   0.216   6.054
  682SOL    HW2 2946   0.446   0.217   5.923
  683SOL     OW 2947   5.553   1.299   1.681
  683SOL    HW1 2948   5.516   1.232   1.617
  683SOL    HW2 2949   5.482   1.326   1.746
  684SOL     OW 2950   6.766   5.857   6.969
  684SOL    HW1 2951   6.682   5.834   6.921
  684SOL    HW2 2952   6.822   5.775   6.981
  685SOL     OW 2953   5.865   0.471   5.068
  685SOL    HW1 2954   5.775   0.501   5.101
  685SOL    HW2 2955   5.930   0.472   5.144
  686SOL     OW 2956   5.368   4.910   1.428
  686SOL    HW1 2957   5.369   5.009   1.440
  686SOL    HW2 2958   5.290   4.884   1.372
  687SOL     OW 2959   5.458   2.393   0.027
  687SOL    HW1 2960   5.403   2.459   0.077
  687SOL    HW2 2961   5.410   2.305   0.024
  688SOL     OW 2962   6.190   3.194   5.219
  688SOL    HW1 2963   6.152   3.258   5.286
  688SOL    HW2 2964   6.238   3.244   5.147
  689SOL     OW 2965   5.521   4.417   4.617
  689SOL    HW1 2966   5.487   4.371   4.699
  689SOL    HW2 2967   5.621   4.417   4.618
  690SOL     OW 2968   6.918   2.158   4.641
  690SOL    HW1 2969   6.867   2.074   4.622
  690SOL    HW2 2970   6.869   2.236   4.601
  691SOL     OW 2971   0.636   3.177   6.971
  691SOL    HW1 2972   0.702   3.108   7.000
  691SOL    HW2 2973   0.676   3.235   6.900
  692SOL     OW 2974   2.556   7.005   3.853
  692SOL    HW1 2975   2.650   7.026   3.880
  692SOL    HW2 2976   2.536   6.909   3.874
  693SOL     OW 2977   6.040   1.772   3.590
  693SOL    HW1 2978   6.051   1.861   3.634
  693SOL    HW2 2979   5.953   1.770   3.541
  694SOL     OW 2980   1.311   0.462   3.117
  694SOL    HW1 2981   1.310   0.405   3.035
  694SOL    HW2 2982   1.236   0.528   3.113
  695SOL     OW 2983   5.065   5.422   6.307
  695SOL    HW1 2984   5.012   5.389   6.386
  695SOL    HW2 2985   5.011   5.489   6.256
  696SOL     OW 2986   4.974   5.654   2.391
  696SOL    HW1 2987   5.055   5.653   2.332
  696SOL    HW2 2988   4.980   5.732   2.453
  697SOL     OW 2989   1.170   3.926   3.529
  697SOL    HW1 2990   1.145   3.832   3.505
  697SOL    HW2 2991   1.202   3.930   3.624
  698SOL     OW 2992   4.948   6.644   4.024
  698SOL    HW1 2993   4.933   6.735   3.986
  698SOL    HW2 2994   5.046   6.622   4.020
  699SOL     OW 2995   1.865   5.406   6.177
  699SOL    HW1 2996   1.799   5.399   6.251
  699SOL    HW2 2997   1.923   5.325   6.175
  700SOL     OW 2998   1.840   2.204   4.993
  700SOL    HW1 2999   1.922   2.148   4.978
  700SOL    HW2 3000   1.766   2.171   4.936
  701SOL     OW 3001   1.088   4.902   5.321
  701SOL    HW1 3002   0.996   4.925   5.353
  701SOL    HW2 3003   1.094   4.803   5.305
  702SOL     OW 3004   6.013   6.278   5.150
  702SOL    HW1 3005   6.098   6.225   5.152
  702SOL    HW2 3006   6.003   6.323   5.061
  703SOL     OW 3007   6.087   3.647   6.190
  703SOL    HW1 3008   6.036   3.562   6.196
  703SOL    HW2 3009   6.118   3.675   6.281
  704SOL     OW 3010   2.040   6.782   1.799
  704SOL    HW1 3011   2.026   6.879   1.779
  704SOL    HW2 3012   2.137   6.759   1.791
  705SOL     OW 3013   0.902   1.579   3.787
  705SOL    HW1 3014   0.805   1.576   3.761
  705SOL    HW2 3015   0.913   1.546   3.880
  706SOL     OW 3016   5.990   3.440   3.681
  706SOL    HW1 3017   5.978   3.500   3.760
  706SOL    HW2 3018   5.981   3.494   3.597
  707SOL     OW 3019   4.934   3.201   2.750
  707SOL    HW1 3020   4.889   3.123   2.706
  707SOL    HW2 3021   5.023   3.173   2.784
  708SOL     OW 3022   5.290   1.650   1.908
  708SOL    HW1 3023   5.368   1.599   1.943
  708SOL    HW2 3024   5.291   1.647   1.808
  709SOL     OW 3025   1.252   4.718   6.741
  709SOL    HW1 3026   1.287   4.625   6.738
  709SOL    HW2 3027   1.306   4.773   6.804
  710SOL     OW 3028   3.239   3.607   3.101
  710SOL    HW1 3029   3.142   3.602   3.124
  710SOL    HW2 3030   3.281   3.682   3.151
  711SOL     OW 3031   0.779   1.089   4.345
  711SOL    HW1 3032   0.819   1.011   4.296
  711SOL    HW2 3033   0.835   1.110   4.425
  712SOL     OW 3034   0.140   4.151   3.409
  712SOL    HW1 3035   0.057   4.113   3.451
  712SOL    HW2 3036   0.147   4.248   3.431
  713SOL     OW 3037   2.574   3.945   5.399
  713SOL    HW1 3038   2.534   3.961   5.309
  713SOL    HW2 3039   2.634   4.022   5.422
  714SOL     OW 3040   4.775   4.805   4.751
  714SOL    HW1 3041   4.703   4.769   4.812
  714SOL    HW2 3042   4.743   4.890   4.710
  715SOL     OW 3043   6.828   0.272   6.539
  715SOL    HW1 3044   6.882   0.204   6.490
  715SOL    HW2 3045   6.889   0.342   6.577
  716SOL     OW 3046   6.483   5.331   6.800
  716SOL    HW1 3047   6.418   5.407   6.798
  716SOL    HW2 3048   6.450   5.258   6.740
  717SOL     OW 3049   6.175   2.634   5.792
  717SOL    HW1 3050   6.085   2.591   5.798
  717SOL    HW2 3051   6.200   2.671   5.882
  718SOL     OW 3052   3.597   2.752   0.546
  718SOL    HW1 3053   3.631   2.696   0.471
  718SOL    HW2 3054   3.636   2.719   0.632
  719SOL     OW 3055   6.178   4.567   6.540
  719SOL    HW1 3056   6.193   4.521   6.452
  719SOL    HW2 3057   6.260   4.560   6.596
  720SOL     OW 3058   4.011   1.168   5.762
  720SOL    HW1 3059   4.068   1.159   5.843
  720SOL    HW2 3060   3.916   1.182   5.789
  721SOL     OW 3061   1.338   0.029   5.380
  721SOL    HW1 3062   1.422   0.084   5.373
  721SOL    HW2 3063   1.346   6.975   5.321
  722SOL     OW 3064   4.532   0.832   4.939
  722SOL    HW1 3065   4.593   0.799   4.867
  722SOL    HW2 3066   4.573   0.811   5.028
  723SOL     OW 3067   0.348   3.322   1.641
  723SOL    HW1 3068   0.278   3.293   1.706
  723SOL    HW2 3069   0.368   3.247   1.578
  724SOL     OW 3070   0.552   2.446   4.249
  724SOL    HW1 3071   0.622   2.443   4.320
  724SOL    HW2 3072   0.560   2.366   4.190
  725SOL     OW 3073   2.482   5.076   2.458
  725SOL    HW1 3074   2.505   5.169   2.485
  725SOL    HW2 3075   2.515   5.059   2.365
  726SOL     OW 3076   5.501   6.177   6.072
  726SOL    HW1 3077   5.503   6.128   6.159
  726SOL    HW2 3078   5.575   6.244   6.069
  727SOL     OW 3079   1.837   4.687   4.614
  727SOL    HW1 3080   1.843   4.776   4.660
  727SOL    HW2 3081   1.927   4.644   4.612
  728SOL     OW 3082   6.344   2.402   5.857
  728SOL    HW1 3083   6.273   2.464   5.823
  728SOL    HW2 3084   6.417   2.455   5.900
  729SOL     OW 3085   3.875   1.822   0.799
  729SOL    HW1 3086   3.846   1.739   0.751
  729SOL    HW2 3087   3.796   1.864   0.842
  730SOL     OW 3088   6.065   1.382   4.257
  730SOL    HW1 3089   6.047   1.394   4.159
  730SOL    HW2 3090   6.043   1.289   4.284
  731SOL     OW 3091   0.122   1.639   3.753
  731SOL    HW1 3092   0.190   1.672   3.688
  731SOL    HW2 3093   0.081   1.717   3.801
  732SOL     OW 3094   0.702   3.753   3.231
  732SOL    HW1 3095   0.668   3.810   3.156
  732SOL    HW2 3096   0.738   3.813   3.303
  733SOL     OW 3097   4.745   4.471   4.392
  733SOL    HW1 3098   4.782   4.560   4.419
  733SOL    HW2 3099   4.647   4.479   4.373
  734SOL     OW 3100   0.721   6.038   6.564
  734SOL    HW1 3101   0.662   6.103   6.516
  734SOL    HW2 3102   0.668   5.989   6.632
  735SOL     OW 3103   3.221   4.342   6.582
  735SOL    HW1 3104   3.195   4.325   6.677
  735SOL    HW2 3105   3.212   4.257   6.529
  736SOL     OW 3106   6.256   0.904   2.449
  736SOL    HW1 3107   6.173   0.955   2.470
  736SOL    HW2 3108   6.328   0.968   2.422
  737SOL     OW 3109   5.478   3.984   0.458
  737SOL    HW1 3110   5.520   3.902   0.420
  737SOL    HW2 3111   5.380   3.968   0.472
  738SOL     OW 3112   0.258   4.019   4.107
  738SOL    HW1 3113   0.206   4.022   4.192
  738SOL    HW2 3114   0.238   4.101   4.053
  739SOL     OW 3115   4.638   6.286   6.181
  739SOL    HW1 3116   4.614   6.241   6.266
  739SOL    HW2 3117   4.558   6.291   6.121
  740SOL     OW 3118   5.715   6.991   0.090
  740SOL    HW1 3119   5.616   6.993   0.102
  740SOL    HW2 3120   5.747   0.054   0.059
  741SOL     OW 3121   2.130   0.599   3.965
  741SOL    HW1 3122   2.093   0.511   3.996
  741SOL    HW2 3123   2.203   0.583   3.900
  742SOL     OW 3124   1.430   6.186   2.932
  742SOL    HW1 3125   1.453   6.221   3.023
  742SOL    HW2 3126   1.418   6.263   2.870
  743SOL     OW 3127   1.681   3.528   2.823
  743SOL    HW1 3128   1.652   3.459   2.756
  743SOL    HW2 3129   1.781   3.525   2.832
  744SOL     OW 3130   6.555   5.181   1.001
  744SOL    HW1 3131   6.626   5.116   1.027
  744SOL    HW2 3132   6.469   5.155   1.044
  745SOL     OW 3133   1.248   6.026   2.120
  745SOL    HW1 3134   1.185   5.977   2.181
  745SOL    HW2 3135   1.339   6.028   2.161
  746SOL     OW 3136   3.175   6.833   3.346
  746SOL    HW1 3137   3.133   6.743   3.356
  746SOL    HW2 3138   3.222   6.839   3.258
  747SOL     OW 3139   0.104   4.188   0.588
  747SOL    HW1 3140   0.031   4.120   0.578
  747SOL    HW2 3141   0.064   4.280   0.585
  748SOL     OW 3142   3.395   2.869   3.421
  748SOL    HW1 3143   3.306   2.866   3.467
  748SOL    HW2 3144   3.389   2.929   3.341
  749SOL     OW 3145   5.293   2.630   5.486
  749SOL    HW1 3146   5.238   2.687   5.547
  749SOL    HW2 3147   5.384   2.671   5.474
  750SOL     OW 3148   3.451   3.813   2.026
  750SOL    HW1 3149   3.473   3.804   2.123
  750SOL    HW2 3150   3.351   3.815   2.014
  751SOL     OW 3151   5.528   1.873   0.300
  751SOL    HW1 3152   5.571   1.881   0.389
  751SOL    HW2 3153   5.435   1.836   0.311
  752SOL     OW 3154   4.842   0.316   2.334
  752SOL    HW1 3155   4.779   0.239   2.333
  752SOL    HW2 3156   4.876   0.334   2.242
  753SOL     OW 3157   3.807   1.539   1.937
  753SOL    HW1 3158   3.789   1.537   1.839
  753SOL    HW2 3159   3.720   1.539   1.987
  754SOL     OW 3160   5.636   5.124   6.455
  754SOL    HW1 3161   5.595   5.081   6.374
  754SOL    HW2 3162   5.565   5.164   6.512
  755SOL     OW 3163   5.923   5.197   2.177
  755SOL    HW1 3164   5.954   5.289   2.201
  755SOL    HW2 3165   5.823   5.196   2.172
  756SOL     OW 3166   2.438   6.550   3.801
  756SOL    HW1 3167   2.368   6.526   3.868
  756SOL    HW2 3168   2.514   6.596   3.846
  757SOL     OW 3169   6.999   0.567   4.275
  757SOL    HW1 3170   6.994   0.564   4.375
  757SOL    HW2 3171   6.944   0.644   4.242
  758SOL     OW 3172   4.139   1.817   0.767
  758SOL    HW1 3173   4.042   1.817   0.791
  758SOL    HW2 3174   4.194   1.842   0.848
  759SOL     OW 3175   2.335   0.642   1.996
  759SOL    HW1 3176   2.425   0.600   1.980
  759SOL    HW2 3177   2.263   0.579   1.965
  760SOL     OW 3178   4.563   1.561   6.142
  760SOL    HW1 3179   4.610   1.632   6.195
  760SOL    HW2 3180   4.504   1.507   6.202
  761SOL     OW 3181   5.287   0.590   6.720
  761SOL    HW1 3182   5.192   0.616   6.733
  761SOL    HW2 3183   5.333   0.657   6.661
  762SOL     OW 3184   2.366   4.468   4.846
  762SOL    HW1 3185   2.316   4.550   4.875
  762SOL    HW2 3186   2.391   4.477   4.750
  763SOL     OW 3187   0.000   5.281   0.611
  763SOL    HW1 3188   0.067   5.351   0.637
  763SOL    HW2 3189   0.024   5.244   0.521
  764SOL     OW 3190   5.861   1.287   2.684
  764SOL    HW1 3191   5.764   1.273   2.702
  764SOL    HW2 3192   5.915   1.234   2.748
  765SOL     OW 3193   0.989   6.604   2.913
  765SOL    HW1 3194   1.028   6.553   2.990
  765SOL    HW2 3195   0.911   6.553   2.876
  766SOL     OW 3196   0.119   6.392   0.316
  766SOL    HW1 3197   0.173   6.313   0.342
  766SOL    HW2 3198   0.035   6.362   0.271
  767SOL     OW 3199   5.681   6.151   1.255
  767SOL    HW1 3200   5.593   6.110   1.278
  767SOL    HW2 3201   5.754   6.104   1.305
  768SOL     OW 3202   2.912   6.784   3.968
  768SOL    HW1 3203   2.992   6.828   3.928
  768SOL    HW2 3204   2.935   6.747   4.058
  769SOL     OW 3205   3.871   0.539   6.998
  769SOL    HW1 3206   3.816   0.584   0.042
  769SOL    HW2 3207   3.944   0.487   0.014
  770SOL     OW 3208   3.260   5.079   5.046
  770SOL    HW1 3209   3.294   5.124   5.128
  770SOL    HW2 3210   3.160   5.084   5.044
  771SOL     OW 3211   0.452   6.703   4.433
  771SOL    HW1 3212   0.451   6.721   4.531
  771SOL    HW2 3213   0.402   6.618   4.414
  772SOL     OW 3214   0.543   3.073   6.679
  772SOL    HW1 3215   0.466   3.132   6.654
  772SOL    HW2 3216   0.523   3.027   6.766
  773SOL     OW 3217   6.587   3.547   2.160
  773SOL    HW1 3218   6.599   3.636   2.115
  773SOL    HW2 3219   6.656   3.483   2.127
  774SOL     OW 3220   0.882   1.408   1.608
  774SOL    HW1 3221   0.931   1.341   1.664
  774SOL    HW2 3222   0.874   1.374   1.514
  775SOL     OW 3223   1.843   2.731   3.787
  775SOL    HW1 3224   1.914   2.752   3.853
  775SOL    HW2 3225   1.771   2.801   3.792
  776SOL     OW 3226   2.106   0.637   5.430
  776SOL    HW1 3227   2.136   0.567   5.495
  776SOL    HW2 3228   2.163   0.632   5.348
  777SOL     OW 3229   4.192   6.832   6.962
  777SOL    HW1 3230   4.189   6.924   6.922
  777SOL    HW2 3231   4.159   6.836   0.030
  778SOL     OW 3232   4.711   5.702   4.917
  778SOL    HW1 3233   4.631   5.743   4.960
  778SOL    HW2 3234   4.792   5.756   4.940
  779SOL     OW 3235   0.605   0.190   2.113
  779SOL    HW1 3236   0.697   0.164   2.082
  779SOL    HW2 3237   0.597   0.289   2.115
  780SOL     OW 3238   5.738   2.314   4.926
  780SOL    HW1 3239   5.764   2.245   4.995
  780SOL    HW2 3240   5.640   2.329   4.930
  781SOL     OW 3241   1.484   4.065   0.078
  781SOL    HW1 3242   1.397   4.063   0.029
  781SOL    HW2 3243   1.554   4.016   0.025
  782SOL     OW 3244   6.932   5.350   0.986
  782SOL    HW1 3245   6.920   5.253   0.965
  782SOL    HW2 3246   6.894   5.405   0.911
  783SOL     OW 3247   2.048   5.723   0.209
  783SOL    HW1 3248   1.953   5.691   0.203
  783SOL    HW2 3249   2.051   5.809   0.259
  784SOL     OW 3250   5.519   5.439   3.342
  784SOL    HW1 3251   5.500   5.535   3.322
  784SOL    HW2 3252   5.436   5.394   3.375
  785SOL     OW 3253   6.555   2.731   3.382
  785SOL    HW1 3254   6.512   2.741   3.472
  785SOL    HW2 3255   6.584   2.820   3.349
  786SOL     OW 3256   5.857   6.645   1.244
  786SOL    HW1 3257   5.785   6.620   1.309
  786SOL    HW2 3258   5.820   6.646   1.151
  787SOL     OW 3259   4.483   0.997   0.233
  787SOL    HW1 3260   4.526   1.087   0.231
  787SOL    HW2 3261   4.515   0.942   0.156
  788SOL     OW 3262   0.419   4.432   3.593
  788SOL    HW1 3263   0.428   4.336   3.617
  788SOL    HW2 3264   0.490   4.485   3.639
  789SOL     OW 3265   5.784   3.148   1.105
  789SOL    HW1 3266   5.788   3.081   1.030
  789SOL    HW2 3267   5.854   3.218   1.090
  790SOL     OW 3268   2.971   0.609   3.874
  790SOL    HW1 3269   2.981   0.707   3.859
  790SOL    HW2 3270   2.920   0.593   3.959
  791SOL     OW 3271   3.706   1.165   4.674
  791SOL    HW1 3272   3.713   1.223   4.755
  791SOL    HW2 3273   3.616   1.178   4.632
  792SOL     OW 3274   5.691   0.922   3.944
  792SOL    HW1 3275   5.684   0.855   4.018
  792SOL    HW2 3276   5.691   0.874   3.856
  793SOL     OW 3277   0.309   0.193   6.755
  793SOL    HW1 3278   0.236   0.162   6.693
  793SOL    HW2 3279   0.292   0.156   6.846
  794SOL     OW 3280   3.320   4.845   5.200
  794SOL    HW1 3281   3.226   4.814   5.213
  794SOL    HW2 3282   3.320   4.927   5.142
  795SOL     OW 3283   4.900   5.220   0.183
  795SOL    HW1 3284   4.988   5.190   0.147
  795SOL    HW2 3285   4.844   5.256   0.109
  796SOL     OW 3286   1.110   1.575   5.877
  796SOL    HW1 3287   1.027   1.601   5.828
  796SOL    HW2 3288   1.086   1.527   5.961
  797SOL     OW 3289   6.045   2.821   5.519
  797SOL    HW1 3290   6.109   2.860   5.453
  797SOL    HW2 3291   6.095   2.770   5.589
  798SOL     OW 3292   6.310   1.128   4.448
  798SOL    HW1 3293   6.348   1.040   4.477
  798SOL    HW2 3294   6.310   1.133   4.348
  799SOL     OW 3295   0.264   4.004   3.657
  799SOL    HW1 3296   0.274   3.910   3.690
  799SOL    HW2 3297   0.194   4.008   3.585
  800SOL     OW 3298   6.763   2.590   2.470
  800SOL    HW1 3299   6.711   2.670   2.498
  800SOL    HW2 3300   6.705   2.509   2.476
  801SOL     OW 3301   0.488   2.947   3.514
  801SOL    HW1 3302   0.419   2.945   3.441
  801SOL    HW2 3303   0.574   2.911   3.479
  802SOL     OW 3304   6.667   1.485   0.503
  802SOL    HW1 3305   6.750   1.534   0.532
  802SOL    HW2 3306   6.603   1.549   0.461
  803SOL     OW 3307   2.340   0.397   4.143
  803SOL    HW1 3308   2.325   0.373   4.047
  803SOL    HW2 3309   2.370   0.316   4.194
  804SOL     OW 3310   5.689   6.065   0.586
  804SOL    HW1 3311   5.743   6.015   0.517
  804SOL    HW2 3312   5.748   6.087   0.664
  805SOL     OW 3313   2.108   2.779   6.296
  805SOL    HW1 3314   2.010   2.796   6.287
  805SOL    HW2 3315   2.149   2.775   6.205
  806SOL     OW 3316   4.231   6.460   0.377
  806SOL    HW1 3317   4.250   6.453   0.279
  806SOL    HW2 3318   4.227   6.369   0.417
  807SOL     OW 3319   0.796   6.858   3.154
  807SOL    HW1 3320   0.879   6.886   3.202
  807SOL    HW2 3321   0.723   6.841   3.221
  808SOL     OW 3322   5.740   3.639   4.386
  808SOL    HW1 3323   5.691   3.704   4.328
  808SOL    HW2 3324   5.685   3.556   4.396
  809SOL     OW 3325   0.349   5.913   5.897
  809SOL    HW1 3326   0.401   5.969   5.962
  809SOL    HW2 3327   0.283   5.971   5.848
  810SOL     OW 3328   5.933   5.462   6.044
  810SOL    HW1 3329   5.926   5.362   6.048
  810SOL    HW2 3330   5.851   5.503   6.083
  811SOL     OW 3331   3.078   4.958   2.853
  811SOL    HW1 3332   3.100   5.001   2.765
  811SOL    HW2 3333   2.994   4.905   2.844
  812SOL     OW 3334   0.038   0.101   2.783
  812SOL    HW1 3335   6.973   0.099   2.744
  812SOL    HW2 3336   0.047   0.178   2.846
  813SOL     OW 3337   4.858   5.199   1.802
  813SOL    HW1 3338   4.794   5.203   1.879
  813SOL    HW2 3339   4.929   5.132   1.822
  814SOL     OW 3340   5.104   5.729   1.566
  814SOL    HW1 3341   5.148   5.810   1.605
  814SOL    HW2 3342   5.112   5.653   1.630
  815SOL     OW 3343   1.099   0.925   0.826
  815SOL    HW1 3344   1.007   0.890   0.838
  815SOL    HW2 3345   1.102   1.021   0.855
  816SOL     OW 3346   6.075   0.417   1.510
  816SOL    HW1 3347   6.008   0.349   1.537
  816SOL    HW2 3348   6.155   0.411   1.570
  817SOL     OW 3349   0.807   2.486   2.179
  817SOL    HW1 3350   0.714   2.455   2.157
  817SOL    HW2 3351   0.849   2.421   2.242
  818SOL     OW 3352   5.995   1.144   2.876
  818SOL    HW1 3353   6.027   1.117   2.966
  818SOL    HW2 3354   6.047   1.094   2.806
  819SOL     OW 3355   0.235   5.168   2.360
  819SOL    HW1 3356   0.150   5.203   2.322
  819SOL    HW2 3357   0.307   5.236   2.347
  820SOL     OW 3358   2.598   2.911   5.880
  820SOL    HW1 3359   2.625   2.951   5.792
  820SOL    HW2 3360   2.625   2.815   5.883
  821SOL     OW 3361   1.142   4.594   0.611
  821SOL    HW1 3362   1.220   4.537   0.637
  821SOL    HW2 3363   1.159   4.635   0.521
  822SOL     OW 3364   0.573   2.944   5.131
  822SOL    HW1 3365   0.629   3.016   5.090
  822SOL    HW2 3366   0.616   2.855   5.113
  823SOL     OW 3367   3.896   3.781   1.425
  823SOL    HW1 3368   3.910   3.877   1.399
  823SOL    HW2 3369   3.985   3.737   1.437
  824SOL     OW 3370   6.049   3.236   6.514
  824SOL    HW1 3371   6.040   3.163   6.446
  824SOL    HW2 3372   6.022   3.202   6.604
  825SOL     OW 3373   1.803   2.873   1.483
  825SOL    HW1 3374   1.704   2.871   1.475
  825SOL    HW2 3375   1.843   2.912   1.400
  826SOL     OW 3376   0.697   2.012   6.670
  826SOL    HW1 3377   0.753   2.075   6.723
  826SOL    HW2 3378   0.755   1.948   6.620
  827SOL     OW 3379   3.563   4.559   1.071
  827SOL    HW1 3380   3.593   4.489   1.006
  827SOL    HW2 3381   3.641   4.619   1.092
  828SOL     OW 3382   5.857   0.940   5.209
  828SOL    HW1 3383   5.921   1.013   5.236
  828SOL    HW2 3384   5.765   0.978   5.201
  829SOL     OW 3385   3.966   4.177   5.648
  829SOL    HW1 3386   3.870   4.202   5.636
  829SOL    HW2 3387   3.972   4.094   5.704
  830SOL     OW 3388   4.572   3.373   6.172
  830SOL    HW1 3389   4.624   3.292   6.200
  830SOL    HW2 3390   4.621   3.455   6.201
  831SOL     OW 3391   5.268   0.619   5.411
  831SOL    HW1 3392   5.180   0.607   5.457
  831SOL    HW2 3393   5.266   0.703   5.357
  832SOL     OW 3394   2.291   1.178   6.281
  832SOL    HW1 3395   2.378   1.137   6.256
  832SOL    HW2 3396   2.292   1.202   6.378
  833SOL     OW 3397   1.408   0.480   4.818
  833SOL    HW1 3398   1.408   0.563   4.762
  833SOL    HW2 3399   1.421   0.505   4.914
  834SOL     OW 3400   3.015   4.390   5.728
  834SOL    HW1 3401   3.029   4.465   5.793
  834SOL    HW2 3402   2.944   4.416   5.663
  835SOL     OW 3403   3.997   1.871   2.428
  835SOL    HW1 3404   4.023   1.914   2.515
  835SOL    HW2 3405   3.899   1.852   2.428
  836SOL     OW 3406   2.332   0.874   5.933
  836SOL    HW1 3407   2.235   0.899   5.929
  836SOL    HW2 3408   2.345   0.801   5.999
  837SOL     OW 3409   4.169   1.986   4.220
  837SOL    HW1 3410   4.094   1.940   4.173
  837SOL    HW2 3411   4.220   2.043   4.155
  838SOL     OW 3412   1.007   6.784   2.373
  838SOL    HW1 3413   1.089   6.745   2.413
  838SOL    HW2 3414   0.997   6.879   2.403
  839SOL     OW 3415   2.019   1.781   1.944
  839SOL    HW1 3416   2.002   1.693   1.900
  839SOL    HW2 3417   1.933   1.819   1.978
  840SOL     OW 3418   1.445   0.888   5.786
  840SOL    HW1 3419   1.487   0.907   5.875
  840SOL    HW2 3420   1.509   0.836   5.730
  841SOL     OW 3421   6.889   3.497   0.629
  841SOL    HW1 3422   6.796   3.532   0.626
  841SOL    HW2 3423   6.921   3.475   0.537
  842SOL     OW 3424   4.030   4.775   4.094
  842SOL    HW1 3425   3.946   4.819   4.126
  842SOL    HW2 3426   4.050   4.804   4.001
  843SOL     OW 3427   0.031   3.586   1.483
  843SOL    HW1 3428   6.969   3.608   1.525
  843SOL    HW2 3429   0.062   3.664   1.429
  844SOL     OW 3430   5.915   4.519   6.131
  844SOL    HW1 3431   5.957   4.448   6.075
  844SOL    HW2 3432   5.846   4.568   6.078
  845SOL     OW 3433   2.072   4.835   5.423
  845SOL    HW1 3434   2.017   4.755   5.448
  845SOL    HW2 3435   2.032   4.917   5.463
  846SOL     OW 3436   4.303   2.095   0.256
  846SOL    HW1 3437   4.244   2.172   0.233
  846SOL    HW2 3438   4.281   2.016   0.198
  847SOL     OW 3439   4.974   4.504   1.906
  847SOL    HW1 3440   4.997   4.416   1.862
  847SOL    HW2 3441   5.058   4.556   1.922
  848SOL     OW 3442   5.416   6.935   5.621
  848SOL    HW1 3443   5.461   6.994   5.554
  848SOL    HW2 3444   5.347   6.880   5.575
  849SOL     OW 3445   0.634   5.990   4.102
  849SOL    HW1 3446   0.555   5.989   4.163
  849SOL    HW2 3447   0.664   6.085   4.088
  850SOL     OW 3448   2.653   0.653   3.276
  850SOL    HW1 3449   2.691   0.685   3.363
  850SOL    HW2 3450   2.626   0.557   3.285
  851SOL     OW 3451   6.670   1.055   5.729
  851SOL    HW1 3452   6.696   1.029   5.821
  851SOL    HW2 3453   6.581   1.015   5.706
  852SOL     OW 3454   2.889   5.275   5.202
  852SOL    HW1 3455   2.944   5.240   5.126
  852SOL    HW2 3456   2.878   5.204   5.271
  853SOL     OW 3457   0.883   4.476   0.406
  853SOL    HW1 3458   0.815   4.402   0.399
  853SOL    HW2 3459   0.929   4.487   0.318
  854SOL     OW 3460   5.999   5.205   0.882
  854SOL    HW1 3461   5.944   5.125   0.858
  854SOL    HW2 3462   5.942   5.271   0.931
  855SOL     OW 3463   4.777   0.242   0.629
  855SOL    HW1 3464   4.744   0.306   0.698
  855SOL    HW2 3465   4.709   0.169   0.617
  856SOL     OW 3466   1.611   0.799   4.925
  856SOL    HW1 3467   1.616   0.743   4.842
  856SOL    HW2 3468   1.703   0.821   4.956
  857SOL     OW 3469   5.793   4.411   1.630
  857SOL    HW1 3470   5.863   4.437   1.696
  857SOL    HW2 3471   5.836   4.374   1.548
  858SOL     OW 3472   3.532   3.999   1.844
  858SOL    HW1 3473   3.512   3.935   1.918
  858SOL    HW2 3474   3.592   4.072   1.879
  859SOL     OW 3475   0.389   4.749   0.859
  859SOL    HW1 3476   0.436   4.759   0.947
  859SOL    HW2 3477   0.425   4.815   0.794
  860SOL     OW 3478   1.706   4.286   5.787
  860SOL    HW1 3479   1.800   4.255   5.795
  860SOL    HW2 3480   1.699   4.382   5.813
  861SOL     OW 3481   4.350   4.390   6.396
  861SOL    HW1 3482   4.315   4.301   6.425
  861SOL    HW2 3483   4.425   4.418   6.457
  862SOL     OW 3484   4.585   4.382   3.672
  862SOL    HW1 3485   4.612   4.326   3.594
  862SOL    HW2 3486   4.531   4.326   3.736
  863SOL     OW 3487   6.225   2.766   1.704
  863SOL    HW1 3488   6.138   2.735   1.666
  863SOL    HW2 3489   6.211   2.801   1.797
  864SOL     OW 3490   0.503   5.793   2.204
  864SOL    HW1 3491   0.468   5.886   2.193
  864SOL    HW2 3492   0.560   5.789   2.286
  865SOL     OW 3493   1.898   1.162   4.131
  865SOL    HW1 3494   1.979   1.219   4.145
  865SOL    HW2 3495   1.921   1.088   4.067
  866SOL     OW 3496   4.358   0.942   1.534
  866SOL    HW1 3497   4.425   1.014   1.522
  866SOL    HW2 3498   4.295   0.967   1.608
  867SOL     OW 3499   2.468   2.087   6.046
  867SOL    HW1 3500   2.499   2.046   6.132
  867SOL    HW2 3501   2.385   2.140   6.063
  868SOL     OW 3502   5.138   2.345   3.732
  868SOL    HW1 3503   5.099   2.422   3.682
  868SOL    HW2 3504   5.065   2.287   3.766
  869SOL     OW 3505   6.712   4.036   0.655
  869SOL    HW1 3506   6.789   4.022   0.716
  869SOL    HW2 3507   6.698   4.134   0.641
  870SOL     OW 3508   6.199   1.538   0.610
  870SOL    HW1 3509   6.254   1.612   0.572
  870SOL    HW2 3510   6.189   1.465   0.542
  871SOL     OW 3511   0.172   4.906   0.418
  871SOL    HW1 3512   0.097   4.843   0.399
  871SOL    HW2 3513   0.253   4.877   0.366
  872SOL     OW 3514   0.013   1.891   1.633
  872SOL    HW1 3515   0.082   1.888   1.561
  872SOL    HW2 3516   0.031   1.968   1.695
  873SOL     OW 3517   4.001   6.774   4.379
  873SOL    HW1 3518   3.994   6.675   4.389
  873SOL    HW2 3519   4.093   6.804   4.405
  874SOL     OW 3520   0.832   4.075   6.452
  874SOL    HW1 3521   0.766   4.055   6.380
  874SOL    HW2 3522   0.792   4.055   6.541
  875SOL     OW 3523   6.532   6.128   6.284
  875SOL    HW1 3524   6.566   6.219   6.311
  875SOL    HW2 3525   6.491   6.083   6.364
  876SOL     OW 3526   2.840   2.104   1.272
  876SOL    HW1 3527   2.934   2.071   1.278
  876SOL    HW2 3528   2.840   2.202   1.253
  877SOL     OW 3529   5.781   5.841   6.118
  877SOL    HW1 3530   5.788   5.744   6.140
  877SOL    HW2 3531   5.737   5.852   6.029
  878SOL     OW 3532   3.966   3.472   0.909
  878SOL    HW1 3533   4.026   3.400   0.942
  878SOL    HW2 3534   3.906   3.436   0.837
  879SOL     OW 3535   5.136   3.399   3.474
  879SOL    HW1 3536   5.057   3.353   3.433
  879SOL    HW2 3537   5.219   3.346   3.456
  880SOL     OW 3538   4.110   6.665   1.592
  880SOL    HW1 3539   4.162   6.613   1.659
  880SOL    HW2 3540   4.169   6.689   1.515
  881SOL     OW 3541   5.112   5.370   3.165
  881SOL    HW1 3542   5.089   5.274   3.180
  881SOL    HW2 3543   5.029   5.426   3.173
  882SOL     OW 3544   0.771   2.115   5.250
  882SOL    HW1 3545   0.674   2.131   5.269
  882SOL    HW2 3546   0.827   2.169   5.313
  883SOL     OW 3547   2.979   4.975   0.334
  883SOL    HW1 3548   2.912   4.977   0.260
  883SOL    HW2 3549   2.931   4.973   0.422
  884SOL     OW 3550   3.839   4.770   1.361
  884SOL    HW1 3551   3.786   4.783   1.276
  884SOL    HW2 3552   3.936   4.761   1.338
  885SOL     OW 3553   4.423   6.458   6.109
  885SOL    HW1 3554   4.382   6.372   6.138
  885SOL    HW2 3555   4.398   6.478   6.015
  886SOL     OW 3556   4.371   2.424   6.692
  886SOL    HW1 3557   4.276   2.429   6.662
  886SOL    HW2 3558   4.430   2.404   6.614
  887SOL     OW 3559   6.107   6.365   4.502
  887SOL    HW1 3560   6.043   6.350   4.426
  887SOL    HW2 3561   6.155   6.280   4.523
  888SOL     OW 3562   6.209   1.124   3.362
  888SOL    HW1 3563   6.271   1.199   3.338
  888SOL    HW2 3564   6.191   1.069   3.280
  889SOL     OW 3565   0.703   0.836   4.800
  889SOL    HW1 3566   0.677   0.740   4.812
  889SOL    HW2 3567   0.683   0.864   4.706
  890SOL     OW 3568   2.151   3.288   0.931
  890SOL    HW1 3569   2.202   3.351   0.990
  890SOL    HW2 3570   2.193   3.198   0.934
  891SOL     OW 3571   5.959   3.156   5.566
  891SOL    HW1 3572   5.969   3.065   5.526
  891SOL    HW2 3573   6.049   3.199   5.575
  892SOL     OW 3574   1.646   4.695   1.871
  892SOL    HW1 3575   1.627   4.708   1.774
  892SOL    HW2 3576   1.728   4.640   1.882
  893SOL     OW 3577   1.838   6.870   2.332
  893SOL    HW1 3578   1.869   6.904   2.244
  893SOL    HW2 3579   1.738   6.871   2.335
  894SOL     OW 3580   1.129   5.133   4.423
  894SOL    HW1 3581   1.108   5.120   4.326
  894SOL    HW2 3582   1.063   5.197   4.463
  895SOL     OW 3583   2.589   1.225   4.225
  895SOL    HW1 3584   2.533   1.265   4.297
  895SOL    HW2 3585   2.622   1.135   4.254
  896SOL     OW 3586   4.525   0.198   3.517
  896SOL    HW1 3587   4.595   0.269   3.509
  896SOL    HW2 3588   4.533   0.154   3.607
  897SOL     OW 3589   6.023   1.131   6.163
  897SOL    HW1 3590   6.085   1.084   6.226
  897SOL    HW2 3591   6.024   1.084   6.074
  898SOL     OW 3592   4.857   6.405   3.581
  898SOL    HW1 3593   4.898   6.377   3.668
  898SOL    HW2 3594   4.758   6.393   3.586
  899SOL     OW 3595   1.025   5.214   0.265
  899SOL    HW1 3596   0.974   5.180   0.186
  899SOL    HW2 3597   1.056   5.308   0.247
  900SOL     OW 3598   0.544   5.555   3.317
  900SOL    HW1 3599   0.501   5.559   3.408
  900SOL    HW2 3600   0.476   5.577   3.247
  901SOL     OW 3601   6.339   1.811   3.272
  901SOL    HW1 3602   6.412   1.766   3.221
  901SOL    HW2 3603   6.325   1.903   3.236
  902SOL     OW 3604   1.443   5.854   0.030
  902SOL    HW1 3605   1.365   5.893   7.007
  902SOL    HW2 3606   1.458   5.759   0.000
  903SOL     OW 3607   1.187   4.882   6.538
  903SOL    HW1 3608   1.178   4.813   6.610
  903SOL    HW2 3609   1.099   4.928   6.523
  904SOL     OW 3610   1.556   1.967   4.051
  904SOL    HW1 3611   1.563   1.992   4.147
  904SOL    HW2 3612   1.647   1.968   4.009
  905SOL     OW 3613   5.822   3.383   3.265
  905SOL    HW1 3614   5.858   3.368   3.173
  905SOL    HW2 3615   5.859   3.313   3.327
  906SOL     OW 3616   6.695   3.344   5.531
  906SOL    HW1 3617   6.706   3.245   5.542
  906SOL    HW2 3618   6.610   3.363   5.482
  907SOL     OW 3619   6.808   3.907   2.273
  907SOL    HW1 3620   6.884   3.863   2.321
  907SOL    HW2 3621   6.828   4.004   2.262
  908SOL     OW 3622   2.921   1.415   3.544
  908SOL    HW1 3623   2.907   1.365   3.630
  908SOL    HW2 3624   2.969   1.357   3.479
  909SOL     OW 3625   3.401   6.717   2.671
  909SOL    HW1 3626   3.383   6.815   2.660
  909SOL    HW2 3627   3.316   6.666   2.659
  910SOL     OW 3628   1.021   0.854   1.896
  910SOL    HW1 3629   1.044   0.926   1.831
  910SOL    HW2 3630   1.066   0.874   1.984
  911SOL     OW 3631   0.796   2.616   0.967
  911SOL    HW1 3632   0.800   2.714   0.985
  911SOL    HW2 3633   0.845   2.567   1.040
  912SOL     OW 3634   2.025   0.785   0.457
  912SOL    HW1 3635   2.114   0.757   0.493
  912SOL    HW2 3636   1.963   0.807   0.533
  913SOL     OW 3637   2.003   0.940   1.834
  913SOL    HW1 3638   2.098   0.909   1.831
  913SOL    HW2 3639   1.963   0.914   1.922
  914SOL     OW 3640   3.041   4.821   2.290
  914SOL    HW1 3641   3.036   4.729   2.250
  914SOL    HW2 3642   3.026   4.815   2.389
  915SOL     OW 3643   2.809   2.301   0.913
  915SOL    HW1 3644   2.867   2.325   0.835
  915SOL    HW2 3645   2.772   2.385   0.954
  916SOL     OW 3646   0.495   3.464   2.368
  916SOL    HW1 3647   0.468   3.479   2.463
  916SOL    HW2 3648   0.532   3.372   2.358
  917SOL     OW 3649   3.996   0.821   5.920
  917SOL    HW1 3650   4.094   0.803   5.911
  917SOL    HW2 3651   3.981   0.883   5.998
  918SOL     OW 3652   0.045   2.289   4.892
  918SOL    HW1 3653   0.010   2.279   4.985
  918SOL    HW2 3654   7.010   2.245   4.827
  919SOL     OW 3655   0.261   0.677   1.115
  919SOL    HW1 3656   0.253   0.741   1.192
  919SOL    HW2 3657   0.335   0.706   1.055
  920SOL     OW 3658   1.348   2.012   2.116
  920SOL    HW1 3659   1.341   2.010   2.016
  920SOL    HW2 3660   1.305   2.095   2.151
  921SOL     OW 3661   4.157   4.544   0.256
  921SOL    HW1 3662   4.131   4.492   0.337
  921SOL    HW2 3663   4.086   4.534   0.186
  922SOL     OW 3664   2.215   5.911   6.752
  922SOL    HW1 3665   2.136   5.944   6.700
  922SOL    HW2 3666   2.257   5.835   6.703
  923SOL     OW 3667   3.798   1.140   0.013
  923SOL    HW1 3668   3.817   1.215   6.977
  923SOL    HW2 3669   3.745   1.174   0.091
  924SOL     OW 3670   5.767   5.041   1.805
  924SOL    HW1 3671   5.798   4.954   1.844
  924SOL    HW2 3672   5.687   5.073   1.856
  925SOL     OW 3673   5.944   2.675   1.740
  925SOL    HW1 3674   5.973   2.579   1.741
  925SOL    HW2 3675   5.874   2.688   1.670
  926SOL     OW 3676   3.819   6.138   1.773
  926SOL    HW1 3677   3.885   6.064   1.776
  926SOL    HW2 3678   3.831   6.191   1.689
  927SOL     OW 3679   5.006   5.520   5.118
  927SOL    HW1 3680   4.933   5.514   5.050
  927SOL    HW2 3681   4.996   5.445   5.184
  928SOL     OW 3682   0.132   1.525   1.330
  928SOL    HW1 3683   0.190   1.463   1.277
  928SOL    HW2 3684   0.186   1.568   1.402
  929SOL     OW 3685   0.255   2.837   1.990
  929SOL    HW1 3686   0.184   2.773   2.020
  929SOL    HW2 3687   0.222   2.931   2.000
  930SOL     OW 3688   6.289   5.155   2.632
  930SOL    HW1 3689   6.378   5.165   2.677
  930SOL    HW2 3690   6.303   5.131   2.536
  931SOL     OW 3691   0.866   2.832   1.605
  931SOL    HW1 3692   0.857   2.821   1.506
  931SOL    HW2 3693   0.815   2.760   1.652
  932SOL     OW 3694   4.129   6.588   1.237
  932SOL    HW1 3695   4.146   6.491   1.219
  932SOL    HW2 3696   4.171   6.613   1.325
  933SOL     OW 3697   0.874   6.429   3.618
  933SOL    HW1 3698   0.856   6.428   3.716
  933SOL    HW2 3699   0.954   6.485   3.599
  934SOL     OW 3700   4.061   1.586   5.167
  934SOL    HW1 3701   4.087   1.507   5.222
  934SOL    HW2 3702   4.126   1.598   5.091
  935SOL     OW 3703   1.213   3.836   4.142
  935SOL    HW1 3704   1.115   3.849   4.126
  935SOL    HW2 3705   1.230   3.739   4.163
  936SOL     OW 3706   0.744   0.892   1.776
  936SOL    HW1 3707   0.822   0.946   1.808
  936SOL    HW2 3708   0.743   0.891   1.676
  937SOL     OW 3709   4.779   2.428   3.263
  937SOL    HW1 3710   4.816   2.484   3.189
  937SOL    HW2 3711   4.820   2.337   3.258
  938SOL     OW 3712   0.721   0.786   6.476
  938SOL    HW1 3713   0.808   0.834   6.489
  938SOL    HW2 3714   0.740   0.690   6.452
  939SOL     OW 3715   6.443   0.548   4.722
  939SOL    HW1 3716   6.481   0.485   4.654
  939SOL    HW2 3717   6.482   0.528   4.812
  940SOL     OW 3718   6.149   0.148   3.150
  940SOL    HW1 3719   6.230   0.206   3.143
  940SOL    HW2 3720   6.158   0.088   3.229
  941SOL     OW 3721   5.499   3.025   4.846
  941SOL    HW1 3722   5.506   2.933   4.884
  941SOL    HW2 3723   5.574   3.041   4.782
  942SOL     OW 3724   4.854   6.407   5.555
  942SOL    HW1 3725   4.858   6.505   5.574
  942SOL    HW2 3726   4.859   6.393   5.456
  943SOL     OW 3727   5.083   2.337   0.644
  943SOL    HW1 3728   5.157   2.276   0.616
  943SOL    HW2 3729   5.096   2.363   0.740
  944SOL     OW 3730   5.018   4.948   4.313
  944SOL    HW1 3731   5.071   4.985   4.389
  944SOL    HW2 3732   4.927   4.922   4.346
  945SOL     OW 3733   5.691   2.931   6.872
  945SOL    HW1 3734   5.771   2.924   6.813
  945SOL    HW2 3735   5.608   2.939   6.816
  946SOL     OW 3736   6.580   2.838   5.931
  946SOL    HW1 3737   6.614   2.762   5.986
  946SOL    HW2 3738   6.485   2.858   5.955
  947SOL     OW 3739   0.892   2.514   6.398
  947SOL    HW1 3740   0.984   2.551   6.382
  947SOL    HW2 3741   0.841   2.575   6.458
  948SOL     OW 3742   3.309   1.767   0.363
  948SOL    HW1 3743   3.258   1.702   0.420
  948SOL    HW2 3744   3.402   1.776   0.398
  949SOL     OW 3745   5.742   5.619   5.714
  949SOL    HW1 3746   5.825   5.585   5.759
  949SOL    HW2 3747   5.759   5.710   5.677
  950SOL     OW 3748   3.852   5.334   1.121
  950SOL    HW1 3749   3.874   5.258   1.182
  950SOL    HW2 3750   3.901   5.322   1.035
  951SOL     OW 3751   0.812   2.739   3.494
  951SOL    HW1 3752   0.818   2.644   3.524
  951SOL    HW2 3753   0.755   2.743   3.411
  952SOL     OW 3754   4.941   1.305   1.053
  952SOL    HW1 3755   4.933   1.208   1.030
  952SOL    HW2 3756   5.025   1.342   1.012
  953SOL     OW 3757   3.858   6.376   5.494
  953SOL    HW1 3758   3.910   6.391   5.578
  953SOL    HW2 3759   3.889   6.440   5.423
  954SOL     OW 3760   6.240   6.611   1.132
  954SOL    HW1 3761   6.173   6.540   1.110
  954SOL    HW2 3762   6.271   6.599   1.226
  955SOL     OW 3763   1.707   6.400   3.635
  955SOL    HW1 3764   1.702   6.433   3.730
  955SOL    HW2 3765   1.614   6.386   3.601
  956SOL     OW 3766   1.808   2.942   0.884
  956SOL    HW1 3767   1.717   2.903   0.868
  956SOL    HW2 3768   1.798   3.036   0.917
  957SOL     OW 3769   1.737   5.793   4.905
  957SOL    HW1 3770   1.736   5.700   4.941
  957SOL    HW2 3771   1.679   5.796   4.823
  958SOL     OW 3772   4.402   2.883   6.537
  958SOL    HW1 3773   4.469   2.865   6.609
  958SOL    HW2 3774   4.409   2.813   6.466
  959SOL     OW 3775   1.614   4.405   0.583
  959SOL    HW1 3776   1.672   4.451   0.650
  959SOL    HW2 3777   1.624   4.450   0.494
  960SOL     OW 3778   1.601   3.987   5.839
  960SOL    HW1 3779   1.686   4.024   5.875
  960SOL    HW2 3780   1.608   3.978   5.739
  961SOL     OW 3781   3.547   6.531   6.750
  961SOL    HW1 3782   3.455   6.523   6.710
  961SOL    HW2 3783   3.582   6.440   6.770
  962SOL     OW 3784   1.032   6.977   3.321
  962SOL    HW1 3785   1.060   0.025   3.260
  962SOL    HW2 3786   1.081   6.894   3.298
  963SOL     OW 3787   5.520   0.217   2.363
  963SOL    HW1 3788   5.424   0.193   2.348
  963SOL    HW2 3789   5.579   0.144   2.327
  964SOL     OW 3790   6.101   4.579   1.486
  964SOL    HW1 3791   6.059   4.599   1.574
  964SOL    HW2 3792   6.031   4.579   1.415
  965SOL     OW 3793   2.097   1.610   0.678
  965SOL    HW1 3794   2.086   1.548   0.601
  965SOL    HW2 3795   2.042   1.577   0.755
  966SOL     OW 3796   6.050   2.736   2.104
  966SOL    HW1 3797   5.970   2.677   2.121
  966SOL    HW2 3798   6.039   2.821   2.155
  967SOL     OW 3799   0.887   5.246   2.821
  967SOL    HW1 3800   0.827   5.213   2.894
  967SOL    HW2 3801   0.955   5.308   2.858
  968SOL     OW 3802   0.327   4.411   0.390
  968SOL    HW1 3803   0.272   4.412   0.307
  968SOL    HW2 3804   0.289   4.476   0.456
  969SOL     OW 3805   3.472   6.851   6.462
  969SOL    HW1 3806   3.483   6.923   6.531
  969SOL    HW2 3807   3.531   6.773   6.485
  970SOL     OW 3808   5.552   3.613   6.297
  970SOL    HW1 3809   5.540   3.675   6.374
  970SOL    HW2 3810   5.595   3.662   6.221
  971SOL     OW 3811   0.231   2.634   0.092
  971SOL    HW1 3812   0.198   2.550   0.134
  971SOL    HW2 3813   0.303   2.674   0.149
  972SOL     OW 3814   4.559   6.803   6.579
  972SOL    HW1 3815   4.483   6.845   6.628
  972SOL    HW2 3816   4.551   6.822   6.481
  973SOL     OW 3817   6.707   3.088   5.954
  973SOL    HW1 3818   6.645   3.156   5.993
  973SOL    HW2 3819   6.665   2.997   5.961
  974SOL     OW 3820   2.603   0.181   4.183
  974SOL    HW1 3821   2.587   0.083   4.195
  974SOL    HW2 3822   2.601   0.226   4.272
  975SOL     OW 3823   2.927   6.808   4.515
  975SOL    HW1 3824   2.992   6.798   4.439
  975SOL    HW2 3825   2.850   6.745   4.501
  976SOL     OW 3826   0.238   4.679   3.643
  976SOL    HW1 3827   0.331   4.703   3.615
  976SOL    HW2 3828   0.239   4.652   3.739
  977SOL     OW 3829   1.132   2.040   1.839
  977SOL    HW1 3830   1.232   2.028   1.835
  977SOL    HW2 3831   1.088   1.951   1.834
  978SOL     OW 3832   6.032   2.997   3.728
  978SOL    HW1 3833   5.954   2.987   3.789
  978SOL    HW2 3834   6.081   3.081   3.750
  979SOL     OW 3835   6.337   1.301   2.797
  979SOL    HW1 3836   6.320   1.351   2.712
  979SOL    HW2 3837   6.347   1.204   2.776
  980SOL     OW 3838   6.336   6.610   5.293
  980SOL    HW1 3839   6.238   6.617   5.313
  980SOL    HW2 3840   6.384   6.573   5.373
  981SOL     OW 3841   6.183   3.467   0.218
  981SOL    HW1 3842   6.137   3.455   0.129
  981SOL    HW2 3843   6.130   3.530   0.274
  982SOL     OW 3844   1.635   4.566   0.311
  982SOL    HW1 3845   1.612   4.482   0.261
  982SOL    HW2 3846   1.734   4.576   0.317
  983SOL     OW 3847   5.489   1.705   3.189
  983SOL    HW1 3848   5.560   1.773   3.168
  983SOL    HW2 3849   5.514   1.617   3.148
  984SOL     OW 3850   5.198   3.032   5.495
  984SOL    HW1 3851   5.153   2.980   5.422
  984SOL    HW2 3852   5.235   3.118   5.456
  985SOL     OW 3853   1.909   4.540   0.320
  985SOL    HW1 3854   1.971   4.488   0.379
  985SOL    HW2 3855   1.953   4.557   0.232
  986SOL     OW 3856   5.079   3.956   5.066
  986SOL    HW1 3857   5.122   3.903   4.993
  986SOL    HW2 3858   4.993   3.994   5.033
  987SOL     OW 3859   2.982   0.899   2.961
  987SOL    HW1 3860   2.935   0.987   2.957
  987SOL    HW2 3861   2.957   0.851   3.045
  988SOL     OW 3862   3.904   3.169   1.137
  988SOL    HW1 3863   3.820   3.118   1.116
  988SOL    HW2 3864   3.903   3.196   1.233
  989SOL     OW 3865   0.603   1.380   4.621
  989SOL    HW1 3866   0.680   1.425   4.667
  989SOL    HW2 3867   0.612   1.392   4.522
  990SOL     OW 3868   4.256   6.230   2.529
  990SOL    HW1 3869   4.270   6.327   2.546
  990SOL    HW2 3870   4.189   6.218   2.456
  991SOL     OW 3871   5.899   1.743   5.865
  991SOL    HW1 3872   5.966   1.739   5.791
  991SOL    HW2 3873   5.946   1.732   5.953
  992SOL     OW 3874   0.159   2.517   0.636
  992SOL    HW1 3875   0.097   2.508   0.714
  992SOL    HW2 3876   0.237   2.574   0.662
  993SOL     OW 3877   4.611   6.956   4.158
  993SOL    HW1 3878   4.595   6.931   4.253
  993SOL    HW2 3879   4.601   6.875   4.100
  994SOL     OW 3880   3.007   3.193   3.888
  994SOL    HW1 3881   2.999   3.210   3.789
  994SOL    HW2 3882   2.995   3.280   3.937
  995SOL     OW 3883   1.155   1.845   5.272
  995SOL    HW1 3884   1.140   1.889   5.361
  995SOL    HW2 3885   1.066   1.821   5.232
  996SOL     OW 3886   1.295   3.464   6.698
  996SOL    HW1 3887   1.393   3.467   6.717
  996SOL    HW2 3888   1.269   3.372   6.670
  997SOL     OW 3889   6.867   1.341   0.373
  997SOL    HW1 3890   6.903   1.265   0.426
  997SOL    HW2 3891   6.792   1.384   0.422
  998SOL     OW 3892   4.921   0.386   3.212
  998SOL    HW1 3893   5.012   0.377   3.251
  998SOL    HW2 3894   4.926   0.439   3.127
  999SOL     OW 3895   6.645   5.312   0.253
  999SOL    HW1 3896   6.659   5.300   0.352
  999SOL    HW2 3897   6.551   5.288   0.230
 1000SOL     OW 3898   3.933   1.794   4.811
 1000SOL    HW1 3899   3.949   1.795   4.910
 1000SOL    HW2 3900   3.975   1.875   4.770
 1001SOL     OW 3901   4.768   1.225   4.633
 1001SOL    HW1 3902   4.676   1.226   4.595
 1001SOL    HW2 3903   4.774   1.291   4.708
 1002SOL     OW 3904   0.329   1.137   0.269
 1002SOL    HW1 3905   0.274   1.184   0.200
 1002SOL    HW2 3906   0.278   1.132   0.355
 1003SOL     OW 3907   4.151   5.175   2.653
 1003SOL    HW1 3908   4.224   5.244   2.663
 1003SOL    HW2 3909   4.081   5.211   2.591
 1004SOL     OW 3910   5.944   5.931   0.032
 1004SOL    HW1 3911   5.908   5.853   0.083
 1004SOL    HW2 3912   6.036   5.953   0.067
 1005SOL     OW 3913   5.783   6.422   3.181
 1005SOL    HW1 3914   5.761   6.445   3.086
 1005SOL    HW2 3915   5.867   6.367   3.182
 1006SOL     OW 3916   1.577   5.544   0.224
 1006SOL    HW1 3917   1.547   5.510   0.134
 1006SOL    HW2 3918   1.526   5.497   0.296
 1007SOL     OW 3919   6.223   1.840   2.764
 1007SOL    HW1 3920   6.226   1.905   2.688
 1007SOL    HW2 3921   6.284   1.763   2.745
 1008SOL     OW 3922   3.408   1.842   5.388
 1008SOL    HW1 3923   3.313   1.841   5.416
 1008SOL    HW2 3924   3.421   1.909   5.314
 1009SOL     OW 3925   3.109   6.339   5.633
 1009SOL    HW1 3926   3.098   6.380   5.542
 1009SOL    HW2 3927   3.181   6.270   5.631
 1010SOL     OW 3928   5.247   6.494   5.674
 1010SOL    HW1 3929   5.155   6.491   5.713
 1010SOL    HW2 3930   5.263   6.411   5.620
 1011SOL     OW 3931   2.959   5.143   4.470
 1011SOL    HW1 3932   2.970   5.168   4.374
 1011SOL    HW2 3933   2.861   5.140   4.493
 1012SOL     OW 3934   3.627   6.447   1.415
 1012SOL    HW1 3935   3.659   6.495   1.497
 1012SOL    HW2 3936   3.633   6.509   1.336
 1013SOL     OW 3937   0.464   0.051   0.229
 1013SOL    HW1 3938   0.399   7.014   0.188
 1013SOL    HW2 3939   0.508   0.106   0.158
 1014SOL     OW 3940   6.101   7.001   6.455
 1014SOL    HW1 3941   6.180   6.948   6.424
 1014SOL    HW2 3942   6.072   6.968   6.545
 1015SOL     OW 3943   2.510   0.683   4.964
 1015SOL    HW1 3944   2.450   0.749   5.009
 1015SOL    HW2 3945   2.509   0.701   4.865
 1016SOL     OW 3946   4.119   3.257   0.988
 1016SOL    HW1 3947   4.172   3.194   0.932
 1016SOL    HW2 3948   4.047   3.207   1.036
 1017SOL     OW 3949   4.565   6.836   6.082
 1017SOL    HW1 3950   4.599   6.748   6.049
 1017SOL    HW2 3951   4.506   6.877   6.013
 1018SOL     OW 3952   1.287   1.736   1.596
 1018SOL    HW1 3953   1.336   1.704   1.677
 1018SOL    HW2 3954   1.337   1.812   1.554
 1019SOL     OW 3955   5.336   1.118   0.715
 1019SOL    HW1 3956   5.307   1.080   0.803
 1019SOL    HW2 3957   5.427   1.158   0.724
 1020SOL     OW 3958   3.793   1.932   1.745
 1020SOL    HW1 3959   3.848   1.906   1.825
 1020SOL    HW2 3960   3.795   2.031   1.733
 1021SOL     OW 3961   6.729   1.622   1.043
 1021SOL    HW1 3962   6.670   1.618   1.124
 1021SOL    HW2 3963   6.675   1.656   0.965
 1022SOL     OW 3964   3.495   3.095   0.325
 1022SOL    HW1 3965   3.490   3.018   0.261
 1022SOL    HW2 3966   3.501   3.061   0.419
 1023SOL     OW 3967   6.397   0.864   4.480
 1023SOL    HW1 3968   6.334   0.831   4.550
 1023SOL    HW2 3969   6.457   0.789   4.452
 1024SOL     OW 3970   6.527   2.514   3.263
 1024SOL    HW1 3971   6.523   2.600   3.312
 1024SOL    HW2 3972   6.594   2.521   3.188
 1025SOL     OW 3973   2.289   4.587   1.644
 1025SOL    HW1 3974   2.233   4.606   1.725
 1025SOL    HW2 3975   2.385   4.600   1.666
 1026SOL     OW 3976   0.717   2.681   6.514
 1026SOL    HW1 3977   0.637   2.664   6.457
 1026SOL    HW2 3978   0.689   2.689   6.610
 1027SOL     OW 3979   1.769   4.845   1.056
 1027SOL    HW1 3980   1.856   4.809   1.090
 1027SOL    HW2 3981   1.765   4.833   0.957
 1028SOL     OW 3982   0.260   5.455   7.025
 1028SOL    HW1 3983   0.286   5.452   0.095
 1028SOL    HW2 3984   0.314   5.389   6.973
 1029SOL     OW 3985   3.918   0.406   4.567
 1029SOL    HW1 3986   3.997   0.463   4.544
 1029SOL    HW2 3987   3.847   0.463   4.607
 1030SOL     OW 3988   4.493   5.084   4.866
 1030SOL    HW1 3989   4.507   5.048   4.958
 1030SOL    HW2 3990   4.449   5.015   4.809
 1031SOL     OW 3991   2.441   6.262   1.111
 1031SOL    HW1 3992   2.518   6.233   1.054
 1031SOL    HW2 3993   2.462   6.245   1.208
 1032SOL     OW 3994   1.057   1.969   5.516
 1032SOL    HW1 3995   1.055   2.058   5.470
 1032SOL    HW2 3996   1.148   1.954   5.555
 1033SOL     OW 3997   2.957   6.925   1.809
 1033SOL    HW1 3998   2.884   6.973   1.857
 1033SOL    HW2 3999   3.045   6.963   1.836
 1034SOL     OW 4000   6.880   5.827   2.535
 1034SOL    HW1 4001   6.914   5.893   2.468
 1034SOL    HW2 4002   6.782   5.841   2.548
 1035SOL     OW 4003   3.480   2.111   3.130
 1035SOL    HW1 4004   3.404   2.153   3.180
 1035SOL    HW2 4005   3.458   2.107   3.033
 1036SOL     OW 4006   4.828   0.092   6.568
 1036SOL    HW1 4007   4.765   0.084   6.490
 1036SOL    HW2 4008   4.920   0.113   6.534
 1037SOL     OW 4009   4.162   1.112   5.988
 1037SOL    HW1 4010   4.256   1.083   5.974
 1037SOL    HW2 4011   4.154   1.159   6.076
 1038SOL     OW 4012   2.774   1.944   5.193
 1038SOL    HW1 4013   2.858   1.993   5.171
 1038SOL    HW2 4014   2.780   1.850   5.158
 1039SOL     OW 4015   5.221   1.728   2.670
 1039SOL    HW1 4016   5.131   1.699   2.704
 1039SOL    HW2 4017   5.209   1.784   2.588
 1040SOL     OW 4018   6.112   4.570   4.623
 1040SOL    HW1 4019   6.146   4.507   4.553
 1040SOL    HW2 4020   6.144   4.662   4.602
 1041SOL     OW 4021   1.752   6.727   4.705
 1041SOL    HW1 4022   1.789   6.794   4.640
 1041SOL    HW2 4023   1.760   6.763   4.798
 1042SOL     OW 4024   4.537   4.113   0.737
 1042SOL    HW1 4025   4.517   4.105   0.835
 1042SOL    HW2 4026   4.488   4.041   0.687
 1043SOL     OW 4027   4.035   0.424   6.305
 1043SOL    HW1 4028   3.972   0.377   6.366
 1043SOL    HW2 4029   3.987   0.496   6.255
 1044SOL     OW 4030   3.400   4.141   3.875
 1044SOL    HW1 4031   3.349   4.139   3.961
 1044SOL    HW2 4032   3.336   4.143   3.798
 1045SOL     OW 4033   2.228   1.166   2.270
 1045SOL    HW1 4034   2.216   1.072   2.239
 1045SOL    HW2 4035   2.169   1.183   2.350
 1046SOL     OW 4036   2.895   0.857   1.947
 1046SOL    HW1 4037   2.797   0.873   1.959
 1046SOL    HW2 4038   2.938   0.941   1.913
 1047SOL     OW 4039   0.047   6.603   2.013
 1047SOL    HW1 4040   6.996   6.620   2.073
 1047SOL    HW2 4041   0.083   6.511   2.030
 1048SOL     OW 4042   6.693   3.823   4.861
 1048SOL    HW1 4043   6.784   3.849   4.830
 1048SOL    HW2 4044   6.624   3.867   4.802
 1049SOL     OW 4045   0.456   3.371   5.518
 1049SOL    HW1 4046   0.390   3.414   5.580
 1049SOL    HW2 4047   0.417   3.288   5.480
 1050SOL     OW 4048   3.100   0.474   1.546
 1050SOL    HW1 4049   3.087   0.570   1.523
 1050SOL    HW2 4050   3.129   0.466   1.641
 1051SOL     OW 4051   4.780   4.287   1.849
 1051SOL    HW1 4052   4.698   4.282   1.906
 1051SOL    HW2 4053   4.828   4.199   1.851
 1052SOL     OW 4054   2.803   0.122   3.930
 1052SOL    HW1 4055   2.760   0.201   3.974
 1052SOL    HW2 4056   2.888   0.099   3.978
 1053SOL     OW 4057   3.824   5.145   3.338
 1053SOL    HW1 4058   3.753   5.194   3.388
 1053SOL    HW2 4059   3.881   5.211   3.288
 1054SOL     OW 4060   4.027   6.054   5.285
 1054SOL    HW1 4061   4.016   6.006   5.372
 1054SOL    HW2 4062   4.081   5.998   5.222
 1055SOL     OW 4063   4.050   4.779   4.417
 1055SOL    HW1 4064   4.076   4.803   4.323
 1055SOL    HW2 4065   4.122   4.723   4.459
 1056SOL     OW 4066   2.994   5.491   0.468
 1056SOL    HW1 4067   2.987   5.549   0.549
 1056SOL    HW2 4068   2.924   5.518   0.402
 1057SOL     OW 4069   3.385   3.892   1.294
 1057SOL    HW1 4070   3.330   3.933   1.366
 1057SOL    HW2 4071   3.462   3.843   1.334
 1058SOL     OW 4072   2.793   0.385   2.168
 1058SOL    HW1 4073   2.883   0.414   2.201
 1058SOL    HW2 4074   2.781   0.287   2.187
 1059SOL     OW 4075   4.335   0.008   0.694
 1059SOL    HW1 4076   4.404   0.006   0.767
 1059SOL    HW2 4077   4.365   6.976   0.619
 1060SOL     OW 4078   3.743   1.710   4.020
 1060SOL    HW1 4079   3.697   1.666   3.944
 1060SOL    HW2 4080   3.699   1.798   4.039
 1061SOL     OW 4081   2.228   5.638   1.207
 1061SOL    HW1 4082   2.269   5.572   1.269
 1061SOL    HW2 4083   2.224   5.728   1.252
 1062SOL     OW 4084   5.334   4.110   4.940
 1062SOL    HW1 4085   5.245   4.082   4.906
 1062SOL    HW2 4086   5.327   4.141   5.034
 1063SOL     OW 4087   3.891   2.345   5.796
 1063SOL    HW1 4088   3.920   2.434   5.760
 1063SOL    HW2 4089   3.872   2.353   5.894
 1064SOL     OW 4090   0.504   3.493   3.015
 1064SOL    HW1 4091   0.443   3.572   3.018
 1064SOL    HW2 4092   0.464   3.422   2.957
 1065SOL     OW 4093   3.977   5.426   6.795
 1065SOL    HW1 4094   3.984   5.364   6.717
 1065SOL    HW2 4095   4.067   5.467   6.812
 1066SOL     OW 4096   5.301   0.315   3.535
 1066SOL    HW1 4097   5.377   0.257   3.506
 1066SOL    HW2 4098   5.326   0.364   3.618
 1067SOL     OW 4099   3.175   3.966   0.489
 1067SOL    HW1 4100   3.077   3.945   0.496
 1067SOL    HW2 4101   3.189   4.065   0.494
 1068SOL     OW 4102   1.185   5.344   1.855
 1068SOL    HW1 4103   1.256   5.365   1.923
 1068SOL    HW2 4104   1.228   5.314   1.770
 1069SOL     OW 4105   3.815   3.442   2.889
 1069SOL    HW1 4106   3.736   3.382   2.898
 1069SOL    HW2 4107   3.848   3.441   2.794
 1070SOL     OW 4108   1.699   6.512   0.287
 1070SOL    HW1 4109   1.730   6.537   0.195
 1070SOL    HW2 4110   1.742   6.427   0.314
 1071SOL     OW 4111   4.969   5.875   3.523
 1071SOL    HW1 4112   5.064   5.870   3.490
 1071SOL    HW2 4113   4.969   5.885   3.622
 1072SOL     OW 4114   4.086   5.577   3.707
 1072SOL    HW1 4115   4.008   5.639   3.705
 1072SOL    HW2 4116   4.163   5.617   3.658
 1073SOL     OW 4117   2.946   5.927   3.111
 1073SOL    HW1 4118   2.943   6.021   3.144
 1073SOL    HW2 4119   2.864   5.878   3.143
 1074SOL     OW 4120   2.056   4.946   3.814
 1074SOL    HW1 4121   2.155   4.943   3.805
 1074SOL    HW2 4122   2.032   5.002   3.894
 1075SOL     OW 4123   0.682   4.462   2.630
 1075SOL    HW1 4124   0.778   4.485   2.647
 1075SOL    HW2 4125   0.644   4.527   2.564
 1076SOL     OW 4126   5.673   3.852   3.072
 1076SOL    HW1 4127   5.608   3.840   2.997
 1076SOL    HW2 4128   5.710   3.763   3.098
 1077SOL     OW 4129   4.302   0.792   1.978
 1077SOL    HW1 4130   4.308   0.714   2.040
 1077SOL    HW2 4131   4.366   0.778   1.902
 1078SOL     OW 4132   6.670   2.831   1.895
 1078SOL    HW1 4133   6.762   2.792   1.896
 1078SOL    HW2 4134   6.619   2.795   1.974
 1079SOL     OW 4135   2.197   4.523   3.321
 1079SOL    HW1 4136   2.208   4.578   3.404
 1079SOL    HW2 4137   2.116   4.465   3.331
 1080SOL     OW 4138   2.326   5.408   4.151
 1080SOL    HW1 4139   2.231   5.382   4.166
 1080SOL    HW2 4140   2.343   5.498   4.191
 1081SOL     OW 4141   1.382   0.450   0.613
 1081SOL    HW1 4142   1.437   0.433   0.532
 1081SOL    HW2 4143   1.438   0.435   0.695
 1082SOL     OW 4144   2.052   0.192   1.083
 1082SOL    HW1 4145   1.980   0.225   1.023
 1082SOL    HW2 4146   2.065   0.093   1.069
 1083SOL     OW 4147   3.833   2.949   1.907
 1083SOL    HW1 4148   3.825   3.028   1.968
 1083SOL    HW2 4149   3.916   2.958   1.852
 1084SOL     OW 4150   5.998   3.906   1.294
 1084SOL    HW1 4151   6.070   3.936   1.231
 1084SOL    HW2 4152   5.957   3.986   1.337
 1085SOL     OW 4153   1.431   5.645   4.110
 1085SOL    HW1 4154   1.392   5.604   4.028
 1085SOL    HW2 4155   1.363   5.642   4.184
 1086SOL     OW 4156   2.781   5.623   2.623
 1086SOL    HW1 4157   2.780   5.675   2.709
 1086SOL    HW2 4158   2.692   5.630   2.579
 1087SOL     OW 4159   3.879   3.116   5.085
 1087SOL    HW1 4160   3.860   3.024   5.120
 1087SOL    HW2 4161   3.828   3.130   5.000
 1088SOL     OW 4162   0.193   4.785   2.365
 1088SOL    HW1 4163   0.260   4.807   2.294
 1088SOL    HW2 4164   0.107   4.832   2.345
 1089SOL     OW 4165   6.830   0.621   3.413
 1089SOL    HW1 4166   6.898   0.548   3.416
 1089SOL    HW2 4167   6.751   0.595   3.468
 1090SOL     OW 4168   2.884   2.475   6.633
 1090SOL    HW1 4169   2.957   2.467   6.700
 1090SOL    HW2 4170   2.841   2.386   6.619
 1091SOL     OW 4171   1.482   2.266   5.799
 1091SOL    HW1 4172   1.392   2.235   5.831
 1091SOL    HW2 4173   1.522   2.326   5.868
 1092SOL     OW 4174   3.182   4.660   1.391
 1092SOL    HW1 4175   3.175   4.637   1.488
 1092SOL    HW2 4176   3.098   4.704   1.361
 1093SOL     OW 4177   0.367   2.319   1.706
 1093SOL    HW1 4178   0.418   2.240   1.739
 1093SOL    HW2 4179   0.285   2.332   1.763
 1094SOL     OW 4180   1.156   6.136   2.577
 1094SOL    HW1 4181   1.132   6.163   2.670
 1094SOL    HW2 4182   1.075   6.100   2.531
 1095SOL     OW 4183   1.361   2.974   6.041
 1095SOL    HW1 4184   1.405   3.028   6.113
 1095SOL    HW2 4185   1.272   3.015   6.018
 1096SOL     OW 4186   3.765   2.997   2.669
 1096SOL    HW1 4187   3.747   2.935   2.592
 1096SOL    HW2 4188   3.711   3.080   2.657
 1097SOL     OW 4189   2.910   5.276   5.671
 1097SOL    HW1 4190   2.956   5.284   5.582
 1097SOL    HW2 4191   2.890   5.367   5.707
 1098SOL     OW 4192   2.761   0.784   2.835
 1098SOL    HW1 4193   2.842   0.790   2.893
 1098SOL    HW2 4194   2.789   0.758   2.742
 1099SOL     OW 4195   3.050   0.460   2.318
 1099SOL    HW1 4196   3.084   0.520   2.391
 1099SOL    HW2 4197   3.111   0.467   2.238
 1100SOL     OW 4198   6.535   0.944   0.398
 1100SOL    HW1 4199   6.437   0.942   0.419
 1100SOL    HW2 4200   6.583   0.875   0.452
 1101SOL     OW 4201   5.921   4.323   1.010
 1101SOL    HW1 4202   5.828   4.294   1.034
 1101SOL    HW2 4203   5.965   4.252   0.956
 1102SOL     OW 4204   6.750   4.046   4.207
 1102SOL    HW1 4205   6.785   4.124   4.260
 1102SOL    HW2 4206   6.803   3.964   4.229
 1103SOL     OW 4207   0.597   2.740   0.009
 1103SOL    HW1 4208   0.555   2.688   0.083
 1103SOL    HW2 4209   0.671   2.797   0.046
 1104SOL     OW 4210   2.744   5.478   5.765
 1104SOL    HW1 4211   2.795   5.562   5.745
 1104SOL    HW2 4212   2.669   5.469   5.699
 1105SOL     OW 4213   4.058   5.917   0.712
 1105SOL    HW1 4214   4.049   6.004   0.761
 1105SOL    HW2 4215   4.105   5.933   0.625
 1106SOL     OW 4216   0.665   1.703   6.856
 1106SOL    HW1 4217   0.673   1.775   6.788
 1106SOL    HW2 4218   0.586   1.645   6.834
 1107SOL     OW 4219   6.742   0.136   1.261
 1107SOL    HW1 4220   6.830   0.141   1.307
 1107SOL    HW2 4221   6.674   0.098   1.324
 1108SOL     OW 4222   1.379   1.173   0.329
 1108SOL    HW1 4223   1.319   1.242   0.289
 1108SOL    HW2 4224   1.329   1.087   0.339
 1109SOL     OW 4225   4.078   1.418   3.526
 1109SOL    HW1 4226   4.124   1.505   3.542
 1109SOL    HW2 4227   4.053   1.377   3.614
 1110SOL     OW 4228   3.831   3.448   3.196
 1110SOL    HW1 4229   3.816   3.435   3.294
 1110SOL    HW2 4230   3.743   3.465   3.151
 1111SOL     OW 4231   3.943   6.601   6.607
 1111SOL    HW1 4232   3.965   6.648   6.693
 1111SOL    HW2 4233   3.990   6.646   6.531
 1112SOL     OW 4234   0.711   1.283   2.532
 1112SOL    HW1 4235   0.756   1.333   2.606
 1112SOL    HW2 4236   0.684   1.192   2.564
 1113SOL     OW 4237   6.998   4.435   1.865
 1113SOL    HW1 4238   6.970   4.524   1.829
 1113SOL    HW2 4239   6.979   4.431   1.963
 1114SOL     OW 4240   6.067   1.071   5.889
 1114SOL    HW1 4241   6.031   1.011   5.818
 1114SOL    HW2 4242   6.165   1.055   5.900
 1115SOL     OW 4243   2.047   4.952   0.389
 1115SOL    HW1 4244   2.053   4.858   0.424
 1115SOL    HW2 4245   2.126   4.970   0.331
 1116SOL     OW 4246   3.273   6.405   6.359
 1116SOL    HW1 4247   3.358   6.353   6.367
 1116SOL    HW2 4248   3.200   6.345   6.327
 1117SOL     OW 4249   2.910   2.815   0.501
 1117SOL    HW1 4250   2.811   2.801   0.511
 1117SOL    HW2 4251   2.942   2.769   0.418
 1118SOL     OW 4252   1.544   2.378   1.035
 1118SOL    HW1 4253   1.556   2.280   1.051
 1118SOL    HW2 4254   1.632   2.425   1.045
 1119SOL     OW 4255   3.162   2.972   3.529
 1119SOL    HW1 4256   3.151   3.042   3.599
 1119SOL    HW2 4257   3.127   3.006   3.442
 1120SOL     OW 4258   3.342   1.004   3.469
 1120SOL    HW1 4259   3.268   0.971   3.410
 1120SOL    HW2 4260   3.307   1.019   3.561
 1121SOL     OW 4261   4.650   4.348   3.121
 1121SOL    HW1 4262   4.589   4.409   3.172
 1121SOL    HW2 4263   4.744   4.380   3.131
 1122SOL     OW 4264   4.529   5.044   6.622
 1122SOL    HW1 4265   4.537   4.948   6.650
 1122SOL    HW2 4266   4.599   5.098   6.668
 1123SOL     OW 4267   3.507   0.465   2.123
 1123SOL    HW1 4268   3.507   0.559   2.087
 1123SOL    HW2 4269   3.558   0.462   2.208
 1124SOL     OW 4270   2.441   4.839   3.450
 1124SOL    HW1 4271   2.419   4.755   3.500
 1124SOL    HW2 4272   2.465   4.816   3.355
 1125SOL     OW 4273   3.514   4.370   5.260
 1125SOL    HW1 4274   3.535   4.310   5.337
 1125SOL    HW2 4275   3.477   4.457   5.294
 1126SOL     OW 4276   6.270   0.435   1.838
 1126SOL    HW1 4277   6.343   0.460   1.901
 1126SOL    HW2 4278   6.182   0.467   1.874
 1127SOL     OW 4279   2.284   5.329   5.933
 1127SOL    HW1 4280   2.322   5.236   5.929
 1127SOL    HW2 4281   2.188   5.327   5.906
 1128SOL     OW 4282   2.039   2.609   4.890
 1128SOL    HW1 4283   2.010   2.701   4.919
 1128SOL    HW2 4284   2.058   2.553   4.971
 1129SOL     OW 4285   4.466   5.454   6.073
 1129SOL    HW1 4286   4.533   5.492   6.137
 1129SOL    HW2 4287   4.504   5.371   6.032
 1130SOL     OW 4288   1.409   5.255   5.532
 1130SOL    HW1 4289   1.311   5.252   5.517
 1130SOL    HW2 4290   1.434   5.344   5.572
 1131SOL     OW 4291   0.156   4.269   6.158
 1131SOL    HW1 4292   0.138   4.182   6.204
 1131SOL    HW2 4293   0.110   4.270   6.070
 1132SOL     OW 4294   5.394   6.752   5.259
 1132SOL    HW1 4295   5.325   6.819   5.285
 1132SOL    HW2 4296   5.391   6.737   5.160
 1133SOL     OW 4297   6.343   1.858   6.737
 1133SOL    HW1 4298   6.388   1.818   6.817
 1133SOL    HW2 4299   6.367   1.804   6.656
 1134SOL     OW 4300   0.223   3.312   5.240
 1134SOL    HW1 4301   0.239   3.404   5.275
 1134SOL    HW2 4302   0.244   3.246   5.312
 1135SOL     OW 4303   0.059   1.965   4.138
 1135SOL    HW1 4304   0.129   1.920   4.194
 1135SOL    HW2 4305   6.995   1.939   4.171
 1136SOL     OW 4306   3.871   5.522   4.049
 1136SOL    HW1 4307   3.932   5.575   4.108
 1136SOL    HW2 4308   3.783   5.569   4.042
 1137SOL     OW 4309   0.810   0.342   6.986
 1137SOL    HW1 4310   0.713   0.364   6.989
 1137SOL    HW2 4311   0.844   0.327   0.053
 1138SOL     OW 4312   0.949   2.674   5.844
 1138SOL    HW1 4313   1.002   2.674   5.759
 1138SOL    HW2 4314   0.894   2.591   5.849
 1139SOL     OW 4315   0.328   0.263   2.641
 1139SOL    HW1 4316   0.416   0.248   2.685
 1139SOL    HW2 4317   0.262   0.296   2.709
 1140SOL     OW 4318   4.222   2.095   3.245
 1140SOL    HW1 4319   4.220   2.126   3.340
 1140SOL    HW2 4320   4.210   1.996   3.242
 1141SOL     OW 4321   0.408   6.590   5.712
 1141SOL    HW1 4322   0.490   6.639   5.743
 1141SOL    HW2 4323   0.327   6.638   5.744
 1142SOL     OW 4324   6.078   6.869   5.391
 1142SOL    HW1 4325   6.073   6.826   5.301
 1142SOL    HW2 4326   6.174   6.872   5.421
 1143SOL     OW 4327   5.317   2.790   1.680
 1143SOL    HW1 4328   5.256   2.865   1.706
 1143SOL    HW2 4329   5.389   2.780   1.748
 1144SOL     OW 4330   1.162   6.542   4.632
 1144SOL    HW1 4331   1.146   6.488   4.715
 1144SOL    HW2 4332   1.112   6.629   4.638
 1145SOL     OW 4333   2.722   5.015   4.846
 1145SOL    HW1 4334   2.648   4.958   4.882
 1145SOL    HW2 4335   2.749   4.981   4.756
 1146SOL     OW 4336   5.761   2.139   2.124
 1146SOL    HW1 4337   5.731   2.058   2.174
 1146SOL    HW2 4338   5.829   2.113   2.055
 1147SOL     OW 4339   6.601   4.247   1.875
 1147SOL    HW1 4340   6.674   4.185   1.903
 1147SOL    HW2 4341   6.576   4.228   1.780
 1148SOL     OW 4342   6.328   6.823   6.375
 1148SOL    HW1 4343   6.369   6.789   6.460
 1148SOL    HW2 4344   6.394   6.879   6.326
 1149SOL     OW 4345   4.848   3.771   2.870
 1149SOL    HW1 4346   4.883   3.761   2.777
 1149SOL    HW2 4347   4.790   3.852   2.875
 1150SOL     OW 4348   2.082   6.127   5.424
 1150SOL    HW1 4349   2.019   6.145   5.348
 1150SOL    HW2 4350   2.120   6.036   5.414
 1151SOL     OW 4351   2.458   5.491   0.122
 1151SOL    HW1 4352   2.471   5.407   0.175
 1151SOL    HW2 4353   2.455   5.468   0.024
 1152SOL     OW 4354   6.536   0.930   3.461
 1152SOL    HW1 4355   6.448   0.897   3.497
 1152SOL    HW2 4356   6.537   1.030   3.461
 1153SOL     OW 4357   2.412   4.359   2.595
 1153SOL    HW1 4358   2.352   4.434   2.623
 1153SOL    HW2 4359   2.461   4.385   2.512
 1154SOL     OW 4360   1.576   4.163   2.224
 1154SOL    HW1 4361   1.662   4.174   2.273
 1154SOL    HW2 4362   1.526   4.250   2.224
 1155SOL     OW 4363   5.121   0.509   2.043
 1155SOL    HW1 4364   5.220   0.508   2.058
 1155SOL    HW2 4365   5.084   0.598   2.070
 1156SOL     OW 4366   2.645   0.725   4.506
 1156SOL    HW1 4367   2.717   0.678   4.558
 1156SOL    HW2 4368   2.636   0.683   4.416
 1157SOL     OW 4369   1.552   3.350   3.718
 1157SOL    HW1 4370   1.474   3.386   3.770
 1157SOL    HW2 4371   1.522   3.271   3.665
 1158SOL     OW 4372   4.844   5.528   5.684
 1158SOL    HW1 4373   4.841   5.559   5.589
 1158SOL    HW2 4374   4.756   5.487   5.708
 1159SOL     OW 4375   6.204   4.445   2.905
 1159SOL    HW1 4376   6.110   4.480   2.914
 1159SOL    HW2 4377   6.226   4.388   2.984
 1160SOL     OW 4378   2.835   2.377   1.537
 1160SOL    HW1 4379   2.856   2.439   1.612
 1160SOL    HW2 4380   2.737   2.358   1.534
 1161SOL     OW 4381   3.862   1.104   3.559
 1161SOL    HW1 4382   3.919   1.166   3.613
 1161SOL    HW2 4383   3.765   1.121   3.580
 1162SOL     OW 4384   3.475   5.390   1.752
 1162SOL    HW1 4385   3.494   5.309   1.807
 1162SOL    HW2 4386   3.545   5.459   1.769
 1163SOL     OW 4387   4.686   6.534   2.567
 1163SOL    HW1 4388   4.769   6.493   2.531
 1163SOL    HW2 4389   4.677   6.628   2.533
 1164SOL     OW 4390   6.649   4.436   4.416
 1164SOL    HW1 4391   6.653   4.486   4.329
 1164SOL    HW2 4392   6.566   4.381   4.418
 1165SOL     OW 4393   0.619   5.312   1.991
 1165SOL    HW1 4394   0.682   5.368   2.046
 1165SOL    HW2 4395   0.638   5.325   1.894
 1166SOL     OW 4396   3.796   0.554   6.224
 1166SOL    HW1 4397   3.706   0.534   6.262
 1166SOL    HW2 4398   3.797   0.530   6.127
 1167SOL     OW 4399   4.708   1.497   5.253
 1167SOL    HW1 4400   4.655   1.535   5.176
 1167SOL    HW2 4401   4.792   1.457   5.218
 1168SOL     OW 4402   5.705   1.215   3.970
 1168SOL    HW1 4403   5.661   1.127   3.951
 1168SOL    HW2 4404   5.661   1.287   3.915
 1169SOL     OW 4405   1.792   2.305   0.703
 1169SOL    HW1 4406   1.779   2.396   0.743
 1169SOL    HW2 4407   1.889   2.283   0.699
 1170SOL     OW 4408   2.304   1.047   1.636
 1170SOL    HW1 4409   2.304   0.975   1.706
 1170SOL    HW2 4410   2.398   1.078   1.620
 1171SOL     OW 4411   4.441   0.457   0.717
 1171SOL    HW1 4412   4.357   0.505   0.742
 1171SOL    HW2 4413   4.419   0.373   0.668
 1172SOL     OW 4414   3.495   3.301   5.802
 1172SOL    HW1 4415   3.514   3.375   5.738
 1172SOL    HW2 4416   3.576   3.243   5.811
 1173SOL     OW 4417   5.637   5.995   6.292
 1173SOL    HW1 4418   5.690   6.026   6.371
 1173SOL    HW2 4419   5.692   5.931   6.238
 1174SOL     OW 4420   3.865   6.046   6.736
 1174SOL    HW1 4421   3.854   5.981   6.660
 1174SOL    HW2 4422   3.841   6.137   6.704
 1175SOL     OW 4423   0.421   5.276   4.660
 1175SOL    HW1 4424   0.363   5.354   4.634
 1175SOL    HW2 4425   0.447   5.285   4.757
 1176SOL     OW 4426   6.411   3.677   1.926
 1176SOL    HW1 4427   6.346   3.608   1.896
 1176SOL    HW2 4428   6.362   3.755   1.965
 1177SOL     OW 4429   6.625   2.953   5.673
 1177SOL    HW1 4430   6.614   2.955   5.772
 1177SOL    HW2 4431   6.565   3.021   5.631
 1178SOL     OW 4432   4.419   5.277   2.595
 1178SOL    HW1 4433   4.431   5.371   2.628
 1178SOL    HW2 4434   4.507   5.230   2.599
 1179SOL     OW 4435   1.328   4.973   6.078
 1179SOL    HW1 4436   1.257   5.021   6.130
 1179SOL    HW2 4437   1.418   4.997   6.114
 1180SOL     OW 4438   2.178   1.000   4.205
 1180SOL    HW1 4439   2.172   1.100   4.208
 1180SOL    HW2 4440   2.220   0.973   4.118
 1181SOL     OW 4441   1.239   4.346   2.504
 1181SOL    HW1 4442   1.324   4.395   2.486
 1181SOL    HW2 4443   1.237   4.261   2.451
 1182SOL     OW 4444   0.280   3.734   4.439
 1182SOL    HW1 4445   0.336   3.706   4.362
 1182SOL    HW2 4446   0.265   3.833   4.435
 1183SOL     OW 4447   4.181   5.856   0.986
 1183SOL    HW1 4448   4.134   5.853   0.898
 1183SOL    HW2 4449   4.117   5.833   1.059
 1184SOL     OW 4450   3.605   2.956   6.646
 1184SOL    HW1 4451   3.582   2.970   6.550
 1184SOL    HW2 4452   3.542   3.009   6.703
 1185SOL     OW 4453   3.032   1.504   6.552
 1185SOL    HW1 4454   3.100   1.465   6.490
 1185SOL    HW2 4455   3.073   1.579   6.604
 1186SOL     OW 4456   4.078   0.148   4.861
 1186SOL    HW1 4457   3.988   0.164   4.903
 1186SOL    HW2 4458   4.142   0.219   4.890
 1187SOL     OW 4459   0.339   2.269   4.542
 1187SOL    HW1 4460   0.251   2.239   4.505
 1187SOL    HW2 4461   0.332   2.365   4.569
 1188SOL     OW 4462   1.804   1.216   5.570
 1188SOL    HW1 4463   1.792   1.117   5.580
 1188SOL    HW2 4464   1.864   1.249   5.643
 1189SOL     OW 4465   0.784   1.008   1.170
 1189SOL    HW1 4466   0.873   1.012   1.215
 1189SOL    HW2 4467   0.719   0.960   1.229
 1190SOL     OW 4468   3.808   6.393   2.176
 1190SOL    HW1 4469   3.884   6.354   2.229
 1190SOL    HW2 4470   3.767   6.321   2.120
 1191SOL     OW 4471   1.995   4.253   1.823
 1191SOL    HW1 4472   2.067   4.231   1.758
 1191SOL    HW2 4473   1.933   4.175   1.832
 1192SOL     OW 4474   3.690   5.731   2.691
 1192SOL    HW1 4475   3.619   5.679   2.739
 1192SOL    HW2 4476   3.724   5.804   2.751
 1193SOL     OW 4477   3.114   1.702   3.795
 1193SOL    HW1 4478   3.094   1.792   3.835
 1193SOL    HW2 4479   3.208   1.677   3.815
 1194SOL     OW 4480   6.542   1.974   2.885
 1194SOL    HW1 4481   6.600   1.953   2.806
 1194SOL    HW2 4482   6.465   2.030   2.857
 1195SOL     OW 4483   3.545   0.299   0.184
 1195SOL    HW1 4484   3.483   0.222   0.168
 1195SOL    HW2 4485   3.635   0.263   0.210
 1196SOL     OW 4486   1.576   5.477   3.308
 1196SOL    HW1 4487   1.583   5.399   3.245
 1196SOL    HW2 4488   1.661   5.529   3.305
 1197SOL     OW 4489   3.345   5.198   6.925
 1197SOL    HW1 4490   3.403   5.233   6.852
 1197SOL    HW2 4491   3.249   5.202   6.897
 1198SOL     OW 4492   3.159   1.076   3.150
 1198SOL    HW1 4493   3.105   1.123   3.080
 1198SOL    HW2 4494   3.247   1.048   3.112
 1199SOL     OW 4495   3.257   3.787   3.848
 1199SOL    HW1 4496   3.357   3.789   3.843
 1199SOL    HW2 4497   3.221   3.877   3.824
 1200SOL     OW 4498   4.835   4.066   1.415
 1200SOL    HW1 4499   4.797   4.120   1.490
 1200SOL    HW2 4500   4.805   3.971   1.424
 1201SOL     OW 4501   1.854   2.181   5.268
 1201SOL    HW1 4502   1.874   2.161   5.172
 1201SOL    HW2 4503   1.756   2.193   5.280
 1202SOL     OW 4504   5.877   6.420   4.316
 1202SOL    HW1 4505   5.831   6.508   4.324
 1202SOL    HW2 4506   5.915   6.410   4.224
 1203SOL     OW 4507   5.862   0.072   2.068
 1203SOL    HW1 4508   5.929   0.096   2.138
 1203SOL    HW2 4509   5.900   0.091   1.978
 1204SOL     OW 4510   2.494   6.861   0.271
 1204SOL    HW1 4511   2.562   6.825   0.207
 1204SOL    HW2 4512   2.539   6.925   0.334
 1205SOL     OW 4513   0.828   3.043   5.990
 1205SOL    HW1 4514   0.746   3.046   6.048
 1205SOL    HW2 4515   0.901   3.096   6.033
 1206SOL     OW 4516   6.502   1.290   5.505
 1206SOL    HW1 4517   6.473   1.275   5.600
 1206SOL    HW2 4518   6.601   1.303   5.502
 1207SOL     OW 4519   6.380   6.012   6.061
 1207SOL    HW1 4520   6.293   6.043   6.101
 1207SOL    HW2 4521   6.451   6.014   6.131
 1208SOL     OW 4522   3.707   3.730   2.536
 1208SOL    HW1 4523   3.642   3.780   2.593
 1208SOL    HW2 4524   3.706   3.633   2.561
 1209SOL     OW 4525   0.010   3.456   4.898
 1209SOL    HW1 4526   0.042   3.362   4.905
 1209SOL    HW2 4527   6.941   3.461   4.927
 1210SOL     OW 4528   2.521   0.061   3.515
 1210SOL    HW1 4529   2.472   0.148   3.525
 1210SOL    HW2 4530   2.558   0.034   3.604
 1211SOL     OW 4531   0.069   3.702   3.405
 1211SOL    HW1 4532   0.055   3.702   3.504
 1211SOL    HW2 4533   0.163   3.729   3.385
 1212SOL     OW 4534   1.057   4.613   3.105
 1212SOL    HW1 4535   1.079   4.703   3.142
 1212SOL    HW2 4536   0.958   4.600   3.101
 1213SOL     OW 4537   6.072   3.746   5.136
 1213SOL    HW1 4538   6.121   3.796   5.065
 1213SOL    HW2 4539   6.072   3.649   5.115
 1214SOL     OW 4540   0.640   1.789   1.249
 1214SOL    HW1 4541   0.563   1.742   1.293
 1214SOL    HW2 4542   0.704   1.721   1.213
 1215SOL     OW 4543   0.951   5.866   2.054
 1215SOL    HW1 4544   0.985   5.794   1.994
 1215SOL    HW2 4545   0.873   5.911   2.011
 1216SOL     OW 4546   2.211   6.645   1.380
 1216SOL    HW1 4547   2.120   6.614   1.404
 1216SOL    HW2 4548   2.256   6.576   1.323
 1217SOL     OW 4549   1.632   2.775   3.338
 1217SOL    HW1 4550   1.538   2.756   3.310
 1217SOL    HW2 4551   1.651   2.729   3.425
 1218SOL     OW 4552   0.159   4.087   3.134
 1218SOL    HW1 4553   0.111   4.130   3.211
 1218SOL    HW2 4554   0.246   4.049   3.166
 1219SOL     OW 4555   1.993   6.157   3.165
 1219SOL    HW1 4556   2.020   6.085   3.229
 1219SOL    HW2 4557   1.894   6.171   3.169
 1220SOL     OW 4558   6.813   4.862   2.742
 1220SOL    HW1 4559   6.803   4.835   2.646
 1220SOL    HW2 4560   6.728   4.841   2.791
 1221SOL     OW 4561   4.983   4.905   6.660
 1221SOL    HW1 4562   4.942   4.818   6.631
 1221SOL    HW2 4563   4.957   4.977   6.596
 1222SOL     OW 4564   6.756   4.792   1.320
 1222SOL    HW1 4565   6.670   4.743   1.333
 1222SOL    HW2 4566   6.801   4.760   1.237
 1223SOL     OW 4567   0.427   4.679   4.572
 1223SOL    HW1 4568   0.459   4.612   4.639
 1223SOL    HW2 4569   0.471   4.663   4.484
 1224SOL     OW 4570   4.175   4.356   1.269
 1224SOL    HW1 4571   4.128   4.294   1.331
 1224SOL    HW2 4572   4.238   4.414   1.321
 1225SOL     OW 4573   5.163   1.414   6.473
 1225SOL    HW1 4574   5.087   1.431   6.536
 1225SOL    HW2 4575   5.186   1.316   6.475
 1226SOL     OW 4576   5.936   5.641   0.600
 1226SOL    HW1 4577   5.972   5.563   0.550
 1226SOL    HW2 4578   5.956   5.725   0.551
 1227SOL     OW 4579   5.822   4.440   0.218
 1227SOL    HW1 4580   5.920   4.458   0.206
 1227SOL    HW2 4581   5.770   4.495   0.153
 1228SOL     OW 4582   3.809   4.009   4.769
 1228SOL    HW1 4583   3.892   3.989   4.717
 1228SOL    HW2 4584   3.777   3.926   4.814
 1229SOL     OW 4585   2.088   5.289   1.778
 1229SOL    HW1 4586   2.010   5.337   1.818
 1229SOL    HW2 4587   2.061   5.197   1.750
 1230SOL     OW 4588   5.077   4.884   0.090
 1230SOL    HW1 4589   5.094   4.967   0.143
 1230SOL    HW2 4590   5.157   4.824   0.094
 1231SOL     OW 4591   1.716   0.129   0.665
 1231SOL    HW1 4592   1.732   0.223   0.634
 1231SOL    HW2 4593   1.664   0.079   0.596
 1232SOL     OW 4594   2.503   1.700   5.625
 1232SOL    HW1 4595   2.572   1.739   5.565
 1232SOL    HW2 4596   2.488   1.760   5.704
 1233SOL     OW 4597   0.271   5.581   4.653
 1233SOL    HW1 4598   0.208   5.649   4.615
 1233SOL    HW2 4599   0.238   5.553   4.743
 1234SOL     OW 4600   6.985   4.461   5.316
 1234SOL    HW1 4601   7.026   4.528   5.379
 1234SOL    HW2 4602   6.926   4.399   5.367
 1235SOL     OW 4603   6.341   5.448   0.708
 1235SOL    HW1 4604   6.289   5.444   0.623
 1235SOL    HW2 4605   6.305   5.520   0.767
 1236SOL     OW 4606   0.249   0.681   2.746
 1236SOL    HW1 4607   0.219   0.689   2.841
 1236SOL    HW2 4608   0.330   0.623   2.742
 1237SOL     OW 4609   0.553   0.541   4.609
 1237SOL    HW1 4610   0.564   0.471   4.539
 1237SOL    HW2 4611   0.567   0.501   4.700
 1238SOL     OW 4612   0.487   0.963   4.288
 1238SOL    HW1 4613   0.473   0.974   4.190
 1238SOL    HW2 4614   0.585   0.957   4.307
 1239SOL     OW 4615   5.124   4.881   3.694
 1239SOL    HW1 4616   5.044   4.824   3.712
 1239SOL    HW2 4617   5.095   4.968   3.655
 1240SOL     OW 4618   0.788   4.411   1.504
 1240SOL    HW1 4619   0.747   4.486   1.452
 1240SOL    HW2 4620   0.744   4.325   1.479
 1241SOL     OW 4621   3.845   5.320   6.516
 1241SOL    HW1 4622   3.790   5.327   6.433
 1241SOL    HW2 4623   3.938   5.293   6.492
 1242SOL     OW 4624   2.036   5.683   1.037
 1242SOL    HW1 4625   2.071   5.759   0.982
 1242SOL    HW2 4626   2.108   5.651   1.098
 1243SOL     OW 4627   0.696   3.916   3.825
 1243SOL    HW1 4628   0.771   3.978   3.801
 1243SOL    HW2 4629   0.680   3.921   3.924
 1244SOL     OW 4630   6.977   6.906   4.839
 1244SOL    HW1 4631   6.913   6.928   4.913
 1244SOL    HW2 4632   0.022   6.975   4.836
 1245SOL     OW 4633   4.516   0.485   1.411
 1245SOL    HW1 4634   4.468   0.410   1.455
 1245SOL    HW2 4635   4.456   0.527   1.342
 1246SOL     OW 4636   4.998   2.510   2.431
 1246SOL    HW1 4637   5.022   2.440   2.497
 1246SOL    HW2 4638   4.972   2.467   2.344
 1247SOL     OW 4639   4.740   6.782   2.349
 1247SOL    HW1 4640   4.793   6.866   2.364
 1247SOL    HW2 4641   4.799   6.711   2.313
 1248SOL     OW 4642   0.067   0.513   4.880
 1248SOL    HW1 4643   0.099   0.458   4.957
 1248SOL    HW2 4644   0.054   0.607   4.909
 1249SOL     OW 4645   6.340   0.008   6.986
 1249SOL    HW1 4646   6.322   0.014   6.888
 1249SOL    HW2 4647   6.272   0.062   0.009
 1250SOL     OW 4648   0.577   4.201   5.289
 1250SOL    HW1 4649   0.495   4.181   5.235
 1250SOL    HW2 4650   0.613   4.290   5.262
 1251SOL     OW 4651   2.160   0.997   3.528
 1251SOL    HW1 4652   2.225   1.063   3.565
 1251SOL    HW2 4653   2.124   1.031   3.441
 1252SOL     OW 4654   2.372   4.950   6.476
 1252SOL    HW1 4655   2.388   4.960   6.574
 1252SOL    HW2 4656   2.378   5.040   6.432
 1253SOL     OW 4657   2.924   5.604   0.970
 1253SOL    HW1 4658   2.955   5.694   1.000
 1253SOL    HW2 4659   2.892   5.609   0.876
 1254SOL     OW 4660   6.697   0.902   3.674
 1254SOL    HW1 4661   6.745   0.990   3.678
 1254SOL    HW2 4662   6.643   0.897   3.590
 1255SOL     OW 4663   5.962   2.238   6.218
 1255SOL    HW1 4664   5.917   2.175   6.154
 1255SOL    HW2 4665   6.060   2.241   6.198
 1256SOL     OW 4666   0.117   6.016   6.360
 1256SOL    HW1 4667   0.191   6.055   6.305
 1256SOL    HW2 4668   0.115   6.061   6.450
 1257SOL     OW 4669   0.287   6.282   2.890
 1257SOL    HW1 4670   0.239   6.207   2.936
 1257SOL    HW2 4671   0.232   6.366   2.898
 1258SOL     OW 4672   5.291   5.699   6.088
 1258SOL    HW1 4673   5.339   5.731   6.170
 1258SOL    HW2 4674   5.267   5.603   6.099
 1259SOL     OW 4675   6.112   6.513   4.757
 1259SOL    HW1 4676   6.099   6.471   4.667
 1259SOL    HW2 4677   6.093   6.611   4.751
 1260SOL     OW 4678   3.361   1.124   0.682
 1260SOL    HW1 4679   3.403   1.129   0.772
 1260SOL    HW2 4680   3.313   1.037   0.671
 1261SOL     OW 4681   0.581   4.259   4.918
 1261SOL    HW1 4682   0.591   4.346   4.966
 1261SOL    HW2 4683   0.656   4.198   4.944
 1262SOL     OW 4684   4.007   0.011   1.268
 1262SOL    HW1 4685   3.965   6.952   1.299
 1262SOL    HW2 4686   4.046   0.060   1.347
 1263SOL     OW 4687   6.938   1.433   1.185
 1263SOL    HW1 4688   6.870   1.479   1.128
 1263SOL    HW2 4689   7.004   1.500   1.218
 1264SOL     OW 4690   5.884   2.788   4.843
 1264SOL    HW1 4691   5.836   2.786   4.755
 1264SOL    HW2 4692   5.834   2.733   4.910
 1265SOL     OW 4693   5.772   5.024   4.753
 1265SOL    HW1 4694   5.676   5.027   4.728
 1265SOL    HW2 4695   5.828   5.061   4.678
 1266SOL     OW 4696   2.606   0.639   3.927
 1266SOL    HW1 4697   2.603   0.719   3.988
 1266SOL    HW2 4698   2.519   0.632   3.877
 1267SOL     OW 4699   0.089   4.621   2.099
 1267SOL    HW1 4700   0.142   4.686   2.153
 1267SOL    HW2 4701   0.033   4.670   2.033
 1268SOL     OW 4702   6.392   4.583   6.952
 1268SOL    HW1 4703   6.463   4.642   6.990
 1268SOL    HW2 4704   6.310   4.590   7.008
 1269SOL     OW 4705   1.266   4.097   6.176
 1269SOL    HW1 4706   1.178   4.139   6.152
 1269SOL    HW2 4707   1.320   4.083   6.094
 1270SOL     OW 4708   1.645   2.487   3.733
 1270SOL    HW1 4709   1.708   2.511   3.807
 1270SOL    HW2 4710   1.569   2.434   3.770
 1271SOL     OW 4711   5.551   3.805   2.833
 1271SOL    HW1 4712   5.554   3.901   2.804
 1271SOL    HW2 4713   5.491   3.796   2.912
 1272SOL     OW 4714   5.765   6.740   0.263
 1272SOL    HW1 4715   5.775   6.837   0.240
 1272SOL    HW2 4716   5.829   6.686   0.209
 1273SOL     OW 4717   3.002   6.715   4.931
 1273SOL    HW1 4718   2.979   6.776   4.855
 1273SOL    HW2 4719   3.057   6.639   4.899
 1274SOL     OW 4720   5.192   2.680   2.312
 1274SOL    HW1 4721   5.116   2.637   2.361
 1274SOL    HW2 4722   5.212   2.628   2.229
 1275SOL     OW 4723   3.330   1.043   3.747
 1275SOL    HW1 4724   3.403   1.074   3.809
 1275SOL    HW2 4725   3.255   1.109   3.749
 1276SOL     OW 4726   5.318   6.816   2.860
 1276SOL    HW1 4727   5.298   6.723   2.829
 1276SOL    HW2 4728   5.252   6.842   2.931
 1277SOL     OW 4729   0.805   1.730   4.528
 1277SOL    HW1 4730   0.726   1.785   4.499
 1277SOL    HW2 4731   0.881   1.790   4.552
 1278SOL     OW 4732   2.993   1.611   4.686
 1278SOL    HW1 4733   2.992   1.706   4.717
 1278SOL    HW2 4734   2.933   1.601   4.607
 1279SOL     OW 4735   1.726   5.166   0.644
 1279SOL    HW1 4736   1.656   5.112   0.690
 1279SOL    HW2 4737   1.757   5.239   0.704
 1280SOL     OW 4738   1.380   6.073   3.325
 1280SOL    HW1 4739   1.402   6.019   3.244
 1280SOL    HW2 4740   1.457   6.070   3.389
 1281SOL     OW 4741   0.790   6.671   4.008
 1281SOL    HW1 4742   0.839   6.584   3.998
 1281SOL    HW2 4743   0.747   6.674   4.098
 1282SOL     OW 4744   1.685   6.761   2.737
 1282SOL    HW1 4745   1.622   6.725   2.668
 1282SOL    HW2 4746   1.759   6.811   2.691
 1283SOL     OW 4747   5.274   4.182   5.536
 1283SOL    HW1 4748   5.184   4.175   5.579
 1283SOL    HW2 4749   5.268   4.244   5.457
 1284SOL     OW 4750   2.833   1.969   3.064
 1284SOL    HW1 4751   2.795   1.975   3.157
 1284SOL    HW2 4752   2.933   1.976   3.069
 1285SOL     OW 4753   5.933   2.523   5.779
 1285SOL    HW1 4754   5.921   2.424   5.775
 1285SOL    HW2 4755   5.906   2.563   5.692
 1286SOL     OW 4756   5.219   5.846   0.963
 1286SOL    HW1 4757   5.294   5.823   0.902
 1286SOL    HW2 4758   5.165   5.763   0.981
 1287SOL     OW 4759   6.196   3.309   5.927
 1287SOL    HW1 4760   6.274   3.341   5.980
 1287SOL    HW2 4761   6.160   3.385   5.873
 1288SOL     OW 4762   0.166   3.416   3.586
 1288SOL    HW1 4763   0.176   3.418   3.487
 1288SOL    HW2 4764   0.147   3.508   3.619
 1289SOL     OW 4765   0.354   5.434   2.738
 1289SOL    HW1 4766   0.409   5.429   2.821
 1289SOL    HW2 4767   0.289   5.358   2.735
 1290SOL     OW 4768   6.534   6.708   1.857
 1290SOL    HW1 4769   6.475   6.631   1.835
 1290SOL    HW2 4770   6.490   6.765   1.927
 1291SOL     OW 4771   1.732   5.838   1.625
 1291SOL    HW1 4772   1.667   5.767   1.653
 1291SOL    HW2 4773   1.776   5.812   1.539
 1292SOL     OW 4774   1.790   6.489   0.798
 1292SOL    HW1 4775   1.797   6.561   0.867
 1292SOL    HW2 4776   1.815   6.526   0.709
 1293SOL     OW 4777   6.132   1.601   6.432
 1293SOL    HW1 4778   6.040   1.627   6.461
 1293SOL    HW2 4779   6.126   1.555   6.344
 1294SOL     OW 4780   0.484   1.587   3.920
 1294SOL    HW1 4781   0.419   1.658   3.890
 1294SOL    HW2 4782   0.543   1.624   3.992
 1295SOL     OW 4783   4.820   4.458   0.836
 1295SOL    HW1 4784   4.866   4.511   0.765
 1295SOL    HW2 4785   4.725   4.488   0.844
 1296SOL     OW 4786   3.569   1.484   0.567
 1296SOL    HW1 4787   3.529   1.507   0.656
 1296SOL    HW2 4788   3.562   1.563   0.507
 1297SOL     OW 4789   6.208   0.924   6.345
 1297SOL    HW1 4790   6.198   0.855   6.273
 1297SOL    HW2 4791   6.201   0.881   6.434
 1298SOL     OW 4792   6.251   2.753   3.250
 1298SOL    HW1 4793   6.315   2.739   3.173
 1298SOL    HW2 4794   6.185   2.678   3.252
 1299SOL     OW 4795   1.713   3.503   4.708
 1299SOL    HW1 4796   1.664   3.418   4.724
 1299SOL    HW2 4797   1.652   3.580   4.726
 1300SOL     OW 4798   3.733   2.892   3.340
 1300SOL    HW1 4799   3.774   2.809   3.378
 1300SOL    HW2 4800   3.670   2.932   3.407
 1301SOL     OW 4801   1.244   1.270   1.558
 1301SOL    HW1 4802   1.216   1.358   1.520
 1301SOL    HW2 4803   1.318   1.232   1.502
 1302SOL     OW 4804   2.698   6.122   5.585
 1302SOL    HW1 4805   2.645   6.147   5.504
 1302SOL    HW2 4806   2.796   6.130   5.565
 1303SOL     OW 4807   3.273   0.330   1.375
 1303SOL    HW1 4808   3.206   0.383   1.428
 1303SOL    HW2 4809   3.325   0.271   1.437
 1304SOL     OW 4810   3.471   0.865   5.958
 1304SOL    HW1 4811   3.569   0.880   5.946
 1304SOL    HW2 4812   3.454   0.826   6.049
 1305SOL     OW 4813   5.888   6.919   4.254
 1305SOL    HW1 4814   5.788   6.917   4.247
 1305SOL    HW2 4815   5.921   6.828   4.277
 1306SOL     OW 4816   1.539   5.358   3.768
 1306SOL    HW1 4817   1.566   5.408   3.851
 1306SOL    HW2 4818   1.516   5.264   3.792
 1307SOL     OW 4819   1.298   1.262   5.062
 1307SOL    HW1 4820   1.327   1.251   5.157
 1307SOL    HW2 4821   1.213   1.211   5.047
 1308SOL     OW 4822   4.642   6.392   2.990
 1308SOL    HW1 4823   4.730   6.360   2.956
 1308SOL    HW2 4824   4.656   6.456   3.065
 1309SOL     OW 4825   6.537   3.077   4.348
 1309SOL    HW1 4826   6.465   3.123   4.296
 1309SOL    HW2 4827   6.499   2.996   4.393
 1310SOL     OW 4828   5.469   3.683   5.674
 1310SOL    HW1 4829   5.422   3.730   5.599
 1310SOL    HW2 4830   5.403   3.658   5.745
 1311SOL     OW 4831   4.713   4.681   0.475
 1311SOL    HW1 4832   4.718   4.581   0.488
 1311SOL    HW2 4833   4.736   4.703   0.380
 1312SOL     OW 4834   6.812   0.863   1.930
 1312SOL    HW1 4835   6.723   0.907   1.926
 1312SOL    HW2 4836   6.842   0.855   2.025
 1313SOL     OW 4837   3.677   4.930   4.627
 1313SOL    HW1 4838   3.699   4.834   4.606
 1313SOL    HW2 4839   3.763   4.982   4.636
 1314SOL     OW 4840   0.260   1.178   5.940
 1314SOL    HW1 4841   0.311   1.252   5.984
 1314SOL    HW2 4842   0.162   1.194   5.951
 1315SOL     OW 4843   1.749   6.979   3.973
 1315SOL    HW1 4844   1.729   0.026   3.909
 1315SOL    HW2 4845   1.670   6.961   4.031
 1316SOL     OW 4846   3.165   6.193   3.728
 1316SOL    HW1 4847   3.079   6.210   3.776
 1316SOL    HW2 4848   3.146   6.146   3.642
 1317SOL     OW 4849   0.138   3.131   4.120
 1317SOL    HW1 4850   0.155   3.073   4.200
 1317SOL    HW2 4851   0.154   3.078   4.037
 1318SOL     OW 4852   0.879   6.763   1.817
 1318SOL    HW1 4853   0.898   6.759   1.915
 1318SOL    HW2 4854   0.837   6.676   1.788
 1319SOL     OW 4855   0.353   6.516   0.792
 1319SOL    HW1 4856   0.283   6.512   0.720
 1319SOL    HW2 4857   0.442   6.491   0.753
 1320SOL     OW 4858   5.148   5.188   4.974
 1320SOL    HW1 4859   5.071   5.168   5.035
 1320SOL    HW2 4860   5.212   5.248   5.021
 1321SOL     OW 4861   3.416   1.280   0.902
 1321SOL    HW1 4862   3.358   1.283   0.984
 1321SOL    HW2 4863   3.407   1.365   0.852
 1322SOL     OW 4864   4.915   1.121   6.397
 1322SOL    HW1 4865   4.880   1.209   6.429
 1322SOL    HW2 4866   4.848   1.080   6.334
 1323SOL     OW 4867   6.387   0.909   4.147
 1323SOL    HW1 4868   6.363   1.005   4.132
 1323SOL    HW2 4869   6.485   0.901   4.161
 1324SOL     OW 4870   1.168   2.529   0.237
 1324SOL    HW1 4871   1.230   2.532   0.159
 1324SOL    HW2 4872   1.141   2.434   0.255
 1325SOL     OW 4873   4.576   5.086   3.939
 1325SOL    HW1 4874   4.566   5.096   3.840
 1325SOL    HW2 4875   4.667   5.050   3.959
 1326SOL     OW 4876   5.614   4.054   4.434
 1326SOL    HW1 4877   5.707   4.076   4.465
 1326SOL    HW2 4878   5.615   3.964   4.390
 1327SOL     OW 4879   2.895   6.197   3.854
 1327SOL    HW1 4880   2.879   6.245   3.941
 1327SOL    HW2 4881   2.823   6.129   3.841
 1328SOL     OW 4882   2.853   1.761   1.254
 1328SOL    HW1 4883   2.787   1.696   1.216
 1328SOL    HW2 4884   2.805   1.840   1.290
 1329SOL     OW 4885   1.260   6.076   1.612
 1329SOL    HW1 4886   1.357   6.085   1.591
 1329SOL    HW2 4887   1.248   6.061   1.710
 1330SOL     OW 4888   5.424   6.656   1.604
 1330SOL    HW1 4889   5.393   6.727   1.540
 1330SOL    HW2 4890   5.450   6.698   1.691
 1331SOL     OW 4891   0.678   2.106   1.912
 1331SOL    HW1 4892   0.753   2.125   1.975
 1331SOL    HW2 4893   0.710   2.117   1.818
 1332SOL     OW 4894   4.869   2.176   0.672
 1332SOL    HW1 4895   4.930   2.244   0.630
 1332SOL    HW2 4896   4.781   2.176   0.625
 1333SOL     OW 4897   4.308   3.389   5.568
 1333SOL    HW1 4898   4.337   3.421   5.478
 1333SOL    HW2 4899   4.210   3.406   5.579
 1334SOL     OW 4900   1.731   3.366   4.437
 1334SOL    HW1 4901   1.805   3.433   4.427
 1334SOL    HW2 4902   1.689   3.376   4.528
 1335SOL     OW 4903   1.991   5.127   3.999
 1335SOL    HW1 4904   2.013   5.224   4.005
 1335SOL    HW2 4905   1.916   5.105   4.060
 1336SOL     OW 4906   0.245   6.364   5.078
 1336SOL    HW1 4907   0.263   6.328   5.170
 1336SOL    HW2 4908   0.278   6.298   5.010
 1337SOL     OW 4909   3.620   6.892   6.220
 1337SOL    HW1 4910   3.686   6.965   6.205
 1337SOL    HW2 4911   3.580   6.900   6.311
 1338SOL     OW 4912   4.219   4.902   0.590
 1338SOL    HW1 4913   4.199   4.852   0.674
 1338SOL    HW2 4914   4.161   4.984   0.585
 1339SOL     OW 4915   0.071   3.721   6.707
 1339SOL    HW1 4916   0.098   3.697   6.800
 1339SOL    HW2 4917   7.000   3.740   6.703
 1340SOL     OW 4918   2.856   1.675   6.074
 1340SOL    HW1 4919   2.932   1.660   6.011
 1340SOL    HW2 4920   2.823   1.769   6.065
 1341SOL     OW 4921   5.682   1.996   4.386
 1341SOL    HW1 4922   5.678   1.992   4.485
 1341SOL    HW2 4923   5.685   1.904   4.348
 1342SOL     OW 4924   0.412   6.925   0.879
 1342SOL    HW1 4925   0.374   6.837   0.908
 1342SOL    HW2 4926   0.486   6.952   0.942
 1343SOL     OW 4927   3.298   5.817   3.387
 1343SOL    HW1 4928   3.214   5.768   3.363
 1343SOL    HW2 4929   3.317   5.887   3.318
 1344SOL     OW 4930   4.889   1.725   2.193
 1344SOL    HW1 4931   4.985   1.749   2.183
 1344SOL    HW2 4932   4.833   1.790   2.141
 1345SOL     OW 4933   6.313   5.903   2.385
 1345SOL    HW1 4934   6.392   5.944   2.340
 1345SOL    HW2 4935   6.310   5.805   2.365
 1346SOL     OW 4936   6.701   1.904   3.101
 1346SOL    HW1 4937   6.637   1.947   3.038
 1346SOL    HW2 4938   6.779   1.867   3.050
 1347SOL     OW 4939   4.490   1.347   3.674
 1347SOL    HW1 4940   4.589   1.348   3.654
 1347SOL    HW2 4941   4.440   1.351   3.588
 1348SOL     OW 4942   4.923   6.118   4.891
 1348SOL    HW1 4943   5.008   6.130   4.840
 1348SOL    HW2 4944   4.906   6.021   4.905
 1349SOL     OW 4945   5.104   2.160   0.181
 1349SOL    HW1 4946   5.197   2.126   0.193
 1349SOL    HW2 4947   5.039   2.084   0.188
 1350SOL     OW 4948   3.270   1.150   4.401
 1350SOL    HW1 4949   3.227   1.233   4.437
 1350SOL    HW2 4950   3.291   1.163   4.304
 1351SOL     OW 4951   1.315   1.523   3.935
 1351SOL    HW1 4952   1.254   1.450   3.967
 1351SOL    HW2 4953   1.299   1.606   3.988
 1352SOL     OW 4954   1.356   5.979   4.617
 1352SOL    HW1 4955   1.298   5.983   4.698
 1352SOL    HW2 4956   1.397   6.069   4.602
 1353SOL     OW 4957   2.649   2.992   5.583
 1353SOL    HW1 4958   2.731   2.945   5.552
 1353SOL    HW2 4959   2.624   3.064   5.517
 1354SOL     OW 4960   0.081   6.623   6.662
 1354SOL    HW1 4961   7.017   6.599   6.697
 1354SOL    HW2 4962   0.142   6.643   6.739
 1355SOL     OW 4963   4.303   3.312   0.136
 1355SOL    HW1 4964   4.312   3.213   0.127
 1355SOL    HW2 4965   4.244   3.333   0.214
 1356SOL     OW 4966   3.546   2.831   2.197
 1356SOL    HW1 4967   3.447   2.838   2.183
 1356SOL    HW2 4968   3.588   2.788   2.118
 1357SOL     OW 4969   3.454   2.157   5.469
 1357SOL    HW1 4970   3.354   2.153   5.468
 1357SOL    HW2 4971   3.485   2.163   5.564
 1358SOL     OW 4972   1.881   3.089   5.735
 1358SOL    HW1 4973   1.926   3.023   5.794
 1358SOL    HW2 4974   1.782   3.084   5.748
 1359SOL     OW 4975   0.392   1.673   6.700
 1359SOL    HW1 4976   0.413   1.770   6.713
 1359SOL    HW2 4977   0.427   1.644   6.611
 1360SOL     OW 4978   3.389   3.256   4.351
 1360SOL    HW1 4979   3.320   3.305   4.298
 1360SOL    HW2 4980   3.364   3.259   4.448
 1361SOL     OW 4981   0.856   6.510   0.863
 1361SOL    HW1 4982   0.882   6.551   0.950
 1361SOL    HW2 4983   0.937   6.501   0.805
 1362SOL     OW 4984   3.698   1.146   6.724
 1362SOL    HW1 4985   3.697   1.184   6.632
 1362SOL    HW2 4986   3.732   1.216   6.788
 1363SOL     OW 4987   6.622   6.456   0.926
 1363SOL    HW1 4988   6.697   6.518   0.903
 1363SOL    HW2 4989   6.535   6.499   0.905
 1364SOL     OW 4990   1.113   2.944   1.189
 1364SOL    HW1 4991   1.072   2.993   1.112
 1364SOL    HW2 4992   1.204   2.911   1.164
 1365SOL     OW 4993   1.334   3.425   6.364
 1365SOL    HW1 4994   1.299   3.514   6.392
 1365SOL    HW2 4995   1.259   3.365   6.338
 1366SOL     OW 4996   3.811   0.821   1.374
 1366SOL    HW1 4997   3.733   0.792   1.318
 1366SOL    HW2 4998   3.796   0.794   1.469
 1367SOL     OW 4999   1.030   6.695   4.329
 1367SOL    HW1 5000   1.121   6.683   4.289
 1367SOL    HW2 5001   0.985   6.773   4.285
 1368SOL     OW 5002   1.375   6.344   4.861
 1368SOL    HW1 5003   1.417   6.433   4.844
 1368SOL    HW2 5004   1.337   6.343   4.953
 1369SOL     OW 5005   2.402   5.707   3.514
 1369SOL    HW1 5006   2.372   5.795   3.477
 1369SOL    HW2 5007   2.322   5.650   3.533
 1370SOL     OW 5008   0.182   2.949   2.882
 1370SOL    HW1 5009   0.243   2.906   2.816
 1370SOL    HW2 5010   0.150   2.881   2.948
 1371SOL     OW 5011   5.901   1.719   6.502
 1371SOL    HW1 5012   5.918   1.818   6.500
 1371SOL    HW2 5013   5.857   1.695   6.588
 1372SOL     OW 5014   5.250   2.527   2.060
 1372SOL    HW1 5015   5.269   2.457   1.991
 1372SOL    HW2 5016   5.183   2.592   2.024
 1373SOL     OW 5017   4.978   2.618   1.387
 1373SOL    HW1 5018   4.915   2.606   1.311
 1373SOL    HW2 5019   4.970   2.711   1.423
 1374SOL     OW 5020   3.913   3.893   2.808
 1374SOL    HW1 5021   3.952   3.890   2.900
 1374SOL    HW2 5022   3.972   3.842   2.745
 1375SOL     OW 5023   5.238   4.192   5.192
 1375SOL    HW1 5024   5.175   4.146   5.254
 1375SOL    HW2 5025   5.188   4.259   5.137
 1376SOL     OW 5026   3.050   4.611   5.896
 1376SOL    HW1 5027   3.119   4.671   5.936
 1376SOL    HW2 5028   2.969   4.610   5.954
 1377SOL     OW 5029   1.181   1.691   3.637
 1377SOL    HW1 5030   1.089   1.703   3.600
 1377SOL    HW2 5031   1.195   1.595   3.661
 1378SOL     OW 5032   4.409   2.280   4.274
 1378SOL    HW1 5033   4.497   2.236   4.292
 1378SOL    HW2 5034   4.387   2.273   4.176
 1379SOL     OW 5035   5.034   5.661   6.723
 1379SOL    HW1 5036   4.979   5.662   6.640
 1379SOL    HW2 5037   4.978   5.629   6.800
 1380SOL     OW 5038   0.098   6.377   3.952
 1380SOL    HW1 5039   0.120   6.346   4.044
 1380SOL    HW2 5040   0.138   6.314   3.885
 1381SOL     OW 5041   6.928   2.807   6.097
 1381SOL    HW1 5042   7.003   2.756   6.138
 1381SOL    HW2 5043   6.958   2.900   6.077
 1382SOL     OW 5044   4.179   2.018   5.940
 1382SOL    HW1 5045   4.136   2.098   5.981
 1382SOL    HW2 5046   4.196   1.950   6.011
 1383SOL     OW 5047   5.873   0.355   0.774
 1383SOL    HW1 5048   5.894   0.312   0.686
 1383SOL    HW2 5049   5.900   0.451   0.772
 1384SOL     OW 5050   5.708   2.379   2.554
 1384SOL    HW1 5051   5.693   2.477   2.563
 1384SOL    HW2 5052   5.762   2.362   2.471
 1385SOL     OW 5053   6.676   6.279   1.839
 1385SOL    HW1 5054   6.770   6.311   1.834
 1385SOL    HW2 5055   6.628   6.303   1.754
 1386SOL     OW 5056   2.024   0.381   4.085
 1386SOL    HW1 5057   1.946   0.374   4.147
 1386SOL    HW2 5058   2.054   0.290   4.058
 1387SOL     OW 5059   1.005   5.655   1.907
 1387SOL    HW1 5060   1.100   5.658   1.940
 1387SOL    HW2 5061   0.998   5.593   1.830
 1388SOL     OW 5062   6.542   0.952   1.940
 1388SOL    HW1 5063   6.547   0.979   1.844
 1388SOL    HW2 5064   6.474   0.879   1.951
 1389SOL     OW 5065   6.242   1.218   1.683
 1389SOL    HW1 5066   6.180   1.213   1.762
 1389SOL    HW2 5067   6.329   1.258   1.712
 1390SOL     OW 5068   1.074   1.578   4.290
 1390SOL    HW1 5069   1.052   1.490   4.330
 1390SOL    HW2 5070   1.093   1.645   4.362
 1391SOL     OW 5071   0.581   2.735   3.321
 1391SOL    HW1 5072   0.526   2.654   3.299
 1391SOL    HW2 5073   0.560   2.807   3.255
 1392SOL     OW 5074   5.408   4.966   4.293
 1392SOL    HW1 5075   5.416   4.927   4.384
 1392SOL    HW2 5076   5.368   4.899   4.231
 1393SOL     OW 5077   3.724   4.984   0.008
 1393SOL    HW1 5078   3.714   4.910   0.074
 1393SOL    HW2 5079   3.633   5.014   7.005
 1394SOL     OW 5080   1.116   6.544   0.082
 1394SOL    HW1 5081   1.088   6.598   0.002
 1394SOL    HW2 5082   1.099   6.596   0.165
 1395SOL     OW 5083   4.049   5.006   6.435
 1395SOL    HW1 5084   4.075   5.102   6.444
 1395SOL    HW2 5085   4.103   4.951   6.499
 1396SOL     OW 5086   5.224   5.864   3.440
 1396SOL    HW1 5087   5.223   5.927   3.362
 1396SOL    HW2 5088   5.297   5.890   3.503
 1397SOL     OW 5089   5.610   6.239   5.099
 1397SOL    HW1 5090   5.697   6.209   5.137
 1397SOL    HW2 5091   5.540   6.235   5.171
 1398SOL     OW 5092   1.576   0.377   5.111
 1398SOL    HW1 5093   1.543   0.472   5.113
 1398SOL    HW2 5094   1.675   0.376   5.103
 1399SOL     OW 5095   3.675   5.338   2.420
 1399SOL    HW1 5096   3.705   5.248   2.391
 1399SOL    HW2 5097   3.584   5.332   2.462
 1400SOL     OW 5098   1.096   0.136   3.139
 1400SOL    HW1 5099   1.187   0.153   3.176
 1400SOL    HW2 5100   1.104   0.100   3.046
 1401SOL     OW 5101   6.405   2.490   4.152
 1401SOL    HW1 5102   6.430   2.419   4.085
 1401SOL    HW2 5103   6.307   2.481   4.173
 1402SOL     OW 5104   5.693   2.327   0.164
 1402SOL    HW1 5105   5.758   2.398   0.192
 1402SOL    HW2 5106   5.635   2.362   0.091
 1403SOL     OW 5107   3.590   0.715   2.068
 1403SOL    HW1 5108   3.685   0.703   2.098
 1403SOL    HW2 5109   3.547   0.788   2.121
 1404SOL     OW 5110   4.791   1.593   0.090
 1404SOL    HW1 5111   4.721   1.663   0.102
 1404SOL    HW2 5112   4.810   1.582   7.019
 1405SOL     OW 5113   3.876   2.877   1.275
 1405SOL    HW1 5114   3.846   2.864   1.180
 1405SOL    HW2 5115   3.970   2.912   1.276
 1406SOL     OW 5116   0.878   3.753   2.365
 1406SOL    HW1 5117   0.910   3.845   2.386
 1406SOL    HW2 5118   0.947   3.686   2.393
 1407SOL     OW 5119   6.849   2.948   2.387
 1407SOL    HW1 5120   6.871   3.030   2.440
 1407SOL    HW2 5121   6.805   2.881   2.446
 1408SOL     OW 5122   6.559   5.643   6.261
 1408SOL    HW1 5123   6.508   5.671   6.342
 1408SOL    HW2 5124   6.628   5.712   6.240
 1409SOL     OW 5125   0.220   1.549   4.370
 1409SOL    HW1 5126   0.253   1.575   4.461
 1409SOL    HW2 5127   0.126   1.515   4.377
 1410SOL     OW 5128   6.453   1.696   6.927
 1410SOL    HW1 5129   6.520   1.659   6.992
 1410SOL    HW2 5130   6.371   1.640   6.928
 1411SOL     OW 5131   1.785   0.912   1.372
 1411SOL    HW1 5132   1.863   0.863   1.334
 1411SOL    HW2 5133   1.711   0.848   1.391
 1412SOL     OW 5134   1.594   2.591   0.160
 1412SOL    HW1 5135   1.608   2.535   0.241
 1412SOL    HW2 5136   1.548   2.537   0.089
 1413SOL     OW 5137   3.182   0.140   3.539
 1413SOL    HW1 5138   3.156   0.109   3.630
 1413SOL    HW2 5139   3.254   0.208   3.547
 1414SOL     OW 5140   1.406   1.175   2.503
 1414SOL    HW1 5141   1.348   1.173   2.422
 1414SOL    HW2 5142   1.445   1.267   2.515
 1415SOL     OW 5143   5.755   6.727   5.086
 1415SOL    HW1 5144   5.734   6.650   5.146
 1415SOL    HW2 5145   5.713   6.713   4.997
 1416SOL     OW 5146   4.879   5.622   3.543
 1416SOL    HW1 5147   4.905   5.718   3.529
 1416SOL    HW2 5148   4.793   5.618   3.594
 1417SOL     OW 5149   3.621   2.988   6.010
 1417SOL    HW1 5150   3.681   2.942   6.076
 1417SOL    HW2 5151   3.674   3.054   5.957
 1418SOL     OW 5152   3.197   3.946   3.418
 1418SOL    HW1 5153   3.150   3.901   3.342
 1418SOL    HW2 5154   3.282   3.988   3.384
 1419SOL     OW 5155   3.375   6.512   3.859
 1419SOL    HW1 5156   3.447   6.582   3.864
 1419SOL    HW2 5157   3.286   6.556   3.869
 1420SOL     OW 5158   0.859   6.252   2.936
 1420SOL    HW1 5159   0.774   6.303   2.922
 1420SOL    HW2 5160   0.850   6.195   3.018
 1421SOL     OW 5161   3.973   0.891   2.988
 1421SOL    HW1 5162   4.064   0.910   2.954
 1421SOL    HW2 5163   3.955   0.793   2.983
 1422SOL     OW 5164   2.587   6.324   0.728
 1422SOL    HW1 5165   2.591   6.300   0.631
 1422SOL    HW2 5166   2.519   6.397   0.742
 1423SOL     OW 5167   5.382   0.891   2.367
 1423SOL    HW1 5168   5.403   0.961   2.436
 1423SOL    HW2 5169   5.352   0.936   2.282
 1424SOL     OW 5170   6.577   5.356   2.492
 1424SOL    HW1 5171   6.575   5.387   2.587
 1424SOL    HW2 5172   6.487   5.368   2.451
 1425SOL     OW 5173   2.209   0.630   4.585
 1425SOL    HW1 5174   2.282   0.695   4.606
 1425SOL    HW2 5175   2.217   0.601   4.489
 1426SOL     OW 5176   1.605   1.267   5.891
 1426SOL    HW1 5177   1.519   1.296   5.848
 1426SOL    HW2 5178   1.677   1.332   5.869
 1427SOL     OW 5179   5.267   2.097   5.970
 1427SOL    HW1 5180   5.215   2.105   5.885
 1427SOL    HW2 5181   5.299   2.003   5.980
 1428SOL     OW 5182   5.424   0.788   0.539
 1428SOL    HW1 5183   5.490   0.747   0.603
 1428SOL    HW2 5184   5.465   0.869   0.498
 1429SOL     OW 5185   5.551   6.213   0.164
 1429SOL    HW1 5186   5.503   6.206   0.251
 1429SOL    HW2 5187   5.591   6.123   0.142
 1430SOL     OW 5188   2.901   4.783   2.521
 1430SOL    HW1 5189   2.893   4.711   2.590
 1430SOL    HW2 5190   2.815   4.791   2.470
 1431SOL     OW 5191   1.866   7.024   0.904
 1431SOL    HW1 5192   1.807   0.077   0.906
 1431SOL    HW2 5193   1.844   6.964   0.981
 1432SOL     OW 5194   3.184   0.052   1.787
 1432SOL    HW1 5195   3.266   0.025   1.837
 1432SOL    HW2 5196   3.138   0.126   1.835
 1433SOL     OW 5197   5.443   0.090   3.673
 1433SOL    HW1 5198   5.349   0.056   3.669
 1433SOL    HW2 5199   5.450   0.162   3.742
 1434SOL     OW 5200   1.313   1.190   5.328
 1434SOL    HW1 5201   1.370   1.142   5.394
 1434SOL    HW2 5202   1.217   1.165   5.342
 1435SOL     OW 5203   0.013   2.407   3.513
 1435SOL    HW1 5204   0.013   2.411   3.414
 1435SOL    HW2 5205   6.954   2.445   3.548
 1436SOL     OW 5206   5.052   3.660   1.050
 1436SOL    HW1 5207   4.976   3.598   1.029
 1436SOL    HW2 5208   5.126   3.645   0.984
 1437SOL     OW 5209   4.453   0.933   2.480
 1437SOL    HW1 5210   4.387   1.000   2.513
 1437SOL    HW2 5211   4.405   0.854   2.441
 1438SOL     OW 5212   2.358   0.336   2.193
 1438SOL    HW1 5213   2.346   0.407   2.263
 1438SOL    HW2 5214   2.285   0.268   2.201
 1439SOL     OW 5215   0.407   5.606   1.734
 1439SOL    HW1 5216   0.466   5.599   1.814
 1439SOL    HW2 5217   0.419   5.697   1.692
 1440SOL     OW 5218   2.497   2.894   1.595
 1440SOL    HW1 5219   2.473   2.965   1.528
 1440SOL    HW2 5220   2.484   2.804   1.554
 1441SOL     OW 5221   5.239   5.835   6.708
 1441SOL    HW1 5222   5.166   5.783   6.753
 1441SOL    HW2 5223   5.289   5.888   6.776
 1442SOL     OW 5224   5.146   5.615   1.311
 1442SOL    HW1 5225   5.057   5.572   1.320
 1442SOL    HW2 5226   5.157   5.685   1.382
 1443SOL     OW 5227   6.885   3.090   2.064
 1443SOL    HW1 5228   6.841   3.179   2.062
 1443SOL    HW2 5229   6.817   3.018   2.051
 1444SOL     OW 5230   0.729   6.223   5.696
 1444SOL    HW1 5231   0.804   6.229   5.762
 1444SOL    HW2 5232   0.653   6.281   5.727
 1445SOL     OW 5233   0.612   2.471   1.239
 1445SOL    HW1 5234   0.577   2.442   1.327
 1445SOL    HW2 5235   0.585   2.566   1.221
 1446SOL     OW 5236   6.613   5.477   1.386
 1446SOL    HW1 5237   6.577   5.511   1.299
 1446SOL    HW2 5238   6.669   5.548   1.430
 1447SOL     OW 5239   0.039   6.639   4.114
 1447SOL    HW1 5240   0.087   6.582   4.047
 1447SOL    HW2 5241   6.984   6.679   4.072
 1448SOL     OW 5242   1.227   1.074   5.858
 1448SOL    HW1 5243   1.244   1.156   5.804
 1448SOL    HW2 5244   1.309   1.016   5.858
 1449SOL     OW 5245   1.500   2.891   2.825
 1449SOL    HW1 5246   1.580   2.846   2.864
 1449SOL    HW2 5247   1.417   2.859   2.871
 1450SOL     OW 5248   3.433   1.769   3.206
 1450SOL    HW1 5249   3.461   1.703   3.136
 1450SOL    HW2 5250   3.493   1.849   3.202
 1451SOL     OW 5251   3.882   1.286   2.431
 1451SOL    HW1 5252   3.950   1.328   2.491
 1451SOL    HW2 5253   3.927   1.246   2.352
 1452SOL     OW 5254   4.338   2.588   6.106
 1452SOL    HW1 5255   4.270   2.531   6.060
 1452SOL    HW2 5256   4.426   2.580   6.058
 1453SOL     OW 5257   1.281   3.769   5.258
 1453SOL    HW1 5258   1.338   3.687   5.248
 1453SOL    HW2 5259   1.216   3.756   5.333
 1454SOL     OW 5260   3.081   2.223   2.836
 1454SOL    HW1 5261   3.046   2.251   2.747
 1454SOL    HW2 5262   3.173   2.186   2.825
 1455SOL     OW 5263   0.196   5.317   2.001
 1455SOL    HW1 5264   0.265   5.389   2.010
 1455SOL    HW2 5265   0.162   5.292   2.091
 1456SOL     OW 5266   6.871   5.569   4.257
 1456SOL    HW1 5267   6.845   5.663   4.236
 1456SOL    HW2 5268   6.952   5.569   4.317
 1457SOL     OW 5269   1.464   5.538   5.634
 1457SOL    HW1 5270   1.465   5.637   5.652
 1457SOL    HW2 5271   1.481   5.488   5.718
 1458SOL     OW 5272   6.656   5.019   4.931
 1458SOL    HW1 5273   6.604   5.070   4.863
 1458SOL    HW2 5274   6.620   4.926   4.938
 1459SOL     OW 5275   6.449   6.190   5.039
 1459SOL    HW1 5276   6.513   6.244   5.093
 1459SOL    HW2 5277   6.445   6.096   5.075
 1460SOL     OW 5278   1.746   5.840   5.171
 1460SOL    HW1 5279   1.663   5.890   5.196
 1460SOL    HW2 5280   1.763   5.851   5.073
 1461SOL     OW 5281   6.044   3.584   3.450
 1461SOL    HW1 5282   6.039   3.498   3.400
 1461SOL    HW2 5283   6.138   3.599   3.481
 1462SOL     OW 5284   0.262   1.643   2.163
 1462SOL    HW1 5285   0.228   1.710   2.230
 1462SOL    HW2 5286   0.240   1.551   2.195
 1463SOL     OW 5287   1.451   4.847   6.894
 1463SOL    HW1 5288   1.531   4.876   6.946
 1463SOL    HW2 5289   1.392   4.926   6.878
 1464SOL     OW 5290   1.317   4.750   4.932
 1464SOL    HW1 5291   1.332   4.659   4.893
 1464SOL    HW2 5292   1.363   4.756   5.020
 1465SOL     OW 5293   1.377   2.548   5.823
 1465SOL    HW1 5294   1.337   2.500   5.745
 1465SOL    HW2 5295   1.305   2.573   5.887
 1466SOL     OW 5296   5.789   0.918   2.713
 1466SOL    HW1 5297   5.743   0.940   2.799
 1466SOL    HW2 5298   5.788   0.819   2.699
 1467SOL     OW 5299   0.193   6.919   3.561
 1467SOL    HW1 5300   0.252   6.991   3.599
 1467SOL    HW2 5301   0.113   6.907   3.620
 1468SOL     OW 5302   3.367   6.492   3.470
 1468SOL    HW1 5303   3.331   6.480   3.562
 1468SOL    HW2 5304   3.314   6.563   3.423
 1469SOL     OW 5305   5.731   4.164   3.471
 1469SOL    HW1 5306   5.662   4.223   3.512
 1469SOL    HW2 5307   5.687   4.086   3.426
 1470SOL     OW 5308   6.418   2.257   2.322
 1470SOL    HW1 5309   6.330   2.269   2.368
 1470SOL    HW2 5310   6.403   2.227   2.228
 1471SOL     OW 5311   4.829   0.447   6.598
 1471SOL    HW1 5312   4.767   0.479   6.526
 1471SOL    HW2 5313   4.783   0.376   6.652
 1472SOL     OW 5314   2.324   0.488   6.535
 1472SOL    HW1 5315   2.286   0.571   6.495
 1472SOL    HW2 5316   2.317   0.412   6.470
 1473SOL     OW 5317   1.929   5.767   3.446
 1473SOL    HW1 5318   1.938   5.865   3.463
 1473SOL    HW2 5319   1.999   5.718   3.497
 1474SOL     OW 5320   1.715   3.933   1.966
 1474SOL    HW1 5321   1.754   3.892   1.884
 1474SOL    HW2 5322   1.689   4.028   1.947
 1475SOL     OW 5323   6.248   0.067   6.742
 1475SOL    HW1 5324   6.317   0.015   6.692
 1475SOL    HW2 5325   6.257   0.164   6.720
 1476SOL     OW 5326   5.627   0.339   6.783
 1476SOL    HW1 5327   5.545   0.327   6.839
 1476SOL    HW2 5328   5.608   0.405   6.710
 1477SOL     OW 5329   3.276   4.152   1.794
 1477SOL    HW1 5330   3.297   4.247   1.769
 1477SOL    HW2 5331   3.356   4.095   1.776
 1478SOL     OW 5332   5.125   4.238   6.240
 1478SOL    HW1 5333   5.181   4.303   6.188
 1478SOL    HW2 5334   5.069   4.185   6.176
 1479SOL     OW 5335   4.597   4.694   1.267
 1479SOL    HW1 5336   4.629   4.695   1.362
 1479SOL    HW2 5337   4.674   4.675   1.206
 1480SOL     OW 5338   2.898   1.513   3.888
 1480SOL    HW1 5339   2.995   1.497   3.907
 1480SOL    HW2 5340   2.868   1.596   3.935
 1481SOL     OW 5341   4.373   1.416   5.798
 1481SOL    HW1 5342   4.342   1.432   5.704
 1481SOL    HW2 5343   4.416   1.500   5.833
 1482SOL     OW 5344   6.745   1.339   1.868
 1482SOL    HW1 5345   6.795   1.421   1.841
 1482SOL    HW2 5346   6.809   1.263   1.880
 1483SOL     OW 5347   6.523   0.086   0.188
 1483SOL    HW1 5348   6.506   0.177   0.150
 1483SOL    HW2 5349   6.459   0.020   0.148
 1484SOL     OW 5350   2.914   6.013   4.776
 1484SOL    HW1 5351   2.871   5.958   4.847
 1484SOL    HW2 5352   2.930   5.957   4.694
 1485SOL     OW 5353   5.151   3.933   3.184
 1485SOL    HW1 5354   5.100   3.877   3.249
 1485SOL    HW2 5355   5.115   4.027   3.185
 1486SOL     OW 5356   5.617   6.136   4.224
 1486SOL    HW1 5357   5.683   6.067   4.193
 1486SOL    HW2 5358   5.606   6.129   4.324
 1487SOL     OW 5359   6.045   0.914   0.018
 1487SOL    HW1 5360   6.014   0.878   6.956
 1487SOL    HW2 5361   6.071   1.010   0.007
 1488SOL     OW 5362   6.954   2.878   2.769
 1488SOL    HW1 5363   6.993   2.793   2.735
 1488SOL    HW2 5364   0.001   2.940   2.797
 1489SOL     OW 5365   3.154   5.429   6.758
 1489SOL    HW1 5366   3.146   5.509   6.699
 1489SOL    HW2 5367   3.065   5.408   6.798
 1490SOL     OW 5368   5.997   2.973   2.225
 1490SOL    HW1 5369   5.926   3.014   2.167
 1490SOL    HW2 5370   6.046   3.045   2.274
 1491SOL     OW 5371   5.539   3.139   4.342
 1491SOL    HW1 5372   5.499   3.160   4.432
 1491SOL    HW2 5373   5.547   3.040   4.332
 1492SOL     OW 5374   0.978   2.415   1.981
 1492SOL    HW1 5375   0.956   2.318   1.992
 1492SOL    HW2 5376   0.913   2.470   2.034
 1493SOL     OW 5377   5.853   2.361   6.773
 1493SOL    HW1 5378   5.793   2.318   6.705
 1493SOL    HW2 5379   5.874   2.296   6.845
 1494SOL     OW 5380   1.070   4.060   6.574
 1494SOL    HW1 5381   0.990   4.085   6.520
 1494SOL    HW2 5382   1.150   4.107   6.537
 1495SOL     OW 5383   6.582   4.126   3.789
 1495SOL    HW1 5384   6.627   4.067   3.855
 1495SOL    HW2 5385   6.573   4.218   3.826
 1496SOL     OW 5386   6.431   6.213   5.340
 1496SOL    HW1 5387   6.486   6.288   5.304
 1496SOL    HW2 5388   6.457   6.195   5.435
 1497SOL     OW 5389   4.747   2.255   2.702
 1497SOL    HW1 5390   4.681   2.325   2.674
 1497SOL    HW2 5391   4.697   2.171   2.727
 1498SOL     OW 5392   3.383   4.329   0.758
 1498SOL    HW1 5393   3.388   4.398   0.685
 1498SOL    HW2 5394   3.288   4.300   0.771
 1499SOL     OW 5395   0.730   4.286   4.299
 1499SOL    HW1 5396   0.732   4.339   4.383
 1499SOL    HW2 5397   0.794   4.326   4.233
 1500SOL     OW 5398   2.627   5.378   1.718
 1500SOL    HW1 5399   2.535   5.365   1.754
 1500SOL    HW2 5400   2.628   5.458   1.658
 1501SOL     OW 5401   5.715   1.145   0.925
 1501SOL    HW1 5402   5.712   1.191   0.836
 1501SOL    HW2 5403   5.800   1.168   0.972
 1502SOL     OW 5404   0.536   6.191   6.409
 1502SOL    HW1 5405   0.481   6.120   6.366
 1502SOL    HW2 5406   0.480   6.274   6.421
 1503SOL     OW 5407   6.679   5.576   1.749
 1503SOL    HW1 5408   6.606   5.514   1.777
 1503SOL    HW2 5409   6.768   5.534   1.767
 1504SOL     OW 5410   1.882   0.141   3.374
 1504SOL    HW1 5411   1.943   0.062   3.370
 1504SOL    HW2 5412   1.900   0.192   3.458
 1505SOL     OW 5413   0.016   4.864   5.013
 1505SOL    HW1 5414   0.099   4.877   5.067
 1505SOL    HW2 5415   6.962   4.882   5.070
 1506SOL     OW 5416   1.267   0.843   1.079
 1506SOL    HW1 5417   1.330   0.907   1.036
 1506SOL    HW2 5418   1.196   0.817   1.014
 1507SOL     OW 5419   2.528   2.246   3.262
 1507SOL    HW1 5420   2.562   2.339   3.272
 1507SOL    HW2 5421   2.434   2.248   3.226
 1508SOL     OW 5422   1.577   0.611   2.241
 1508SOL    HW1 5423   1.542   0.633   2.150
 1508SOL    HW2 5424   1.644   0.680   2.268
 1509SOL     OW 5425   4.446   1.616   4.309
 1509SOL    HW1 5426   4.530   1.570   4.281
 1509SOL    HW2 5427   4.369   1.554   4.297
 1510SOL     OW 5428   2.911   6.533   5.126
 1510SOL    HW1 5429   2.932   6.595   5.050
 1510SOL    HW2 5430   2.824   6.559   5.167
 1511SOL     OW 5431   3.709   4.226   5.533
 1511SOL    HW1 5432   3.614   4.237   5.561
 1511SOL    HW2 5433   3.717   4.148   5.472
 1512SOL     OW 5434   5.117   6.403   0.833
 1512SOL    HW1 5435   5.188   6.340   0.865
 1512SOL    HW2 5436   5.145   6.497   0.850
 1513SOL     OW 5437   3.103   0.315   5.615
 1513SOL    HW1 5438   3.154   0.334   5.531
 1513SOL    HW2 5439   3.148   0.359   5.693
 1514SOL     OW 5440   2.945   1.740   6.858
 1514SOL    HW1 5441   2.924   1.837   6.872
 1514SOL    HW2 5442   2.979   1.701   6.944
 1515SOL     OW 5443   3.477   1.006   2.604
 1515SOL    HW1 5444   3.433   0.949   2.673
 1515SOL    HW2 5445   3.408   1.046   2.545
 1516SOL     OW 5446   6.441   6.935   6.657
 1516SOL    HW1 5447   6.487   6.888   6.732
 1516SOL    HW2 5448   6.494   7.016   6.631
 1517SOL     OW 5449   2.390   6.360   2.944
 1517SOL    HW1 5450   2.347   6.273   2.969
 1517SOL    HW2 5451   2.400   6.417   3.025
 1518SOL     OW 5452   1.249   2.898   6.891
 1518SOL    HW1 5453   1.343   2.884   6.922
 1518SOL    HW2 5454   1.227   2.995   6.891
 1519SOL     OW 5455   0.530   4.230   6.834
 1519SOL    HW1 5456   0.473   4.295   6.885
 1519SOL    HW2 5457   0.609   4.277   6.796
 1520SOL     OW 5458   6.902   6.522   3.385
 1520SOL    HW1 5459   6.989   6.504   3.341
 1520SOL    HW2 5460   6.853   6.436   3.399
 1521SOL     OW 5461   1.800   4.866   6.856
 1521SOL    HW1 5462   1.762   4.891   6.945
 1521SOL    HW2 5463   1.855   4.941   6.820
 1522SOL     OW 5464   5.783   6.442   3.917
 1522SOL    HW1 5465   5.706   6.381   3.937
 1522SOL    HW2 5466   5.749   6.531   3.889
 1523SOL     OW 5467   2.527   6.065   0.486
 1523SOL    HW1 5468   2.589   6.103   0.417
 1523SOL    HW2 5469   2.511   5.968   0.466
 1524SOL     OW 5470   1.883   2.682   4.447
 1524SOL    HW1 5471   1.866   2.752   4.516
 1524SOL    HW2 5472   1.916   2.599   4.490
 1525SOL     OW 5473   5.965   4.249   6.569
 1525SOL    HW1 5474   5.960   4.292   6.479
 1525SOL    HW2 5475   5.996   4.154   6.558
 1526SOL     OW 5476   0.720   1.393   1.076
 1526SOL    HW1 5477   0.678   1.360   1.160
 1526SOL    HW2 5478   0.662   1.463   1.035
 1527SOL     OW 5479   5.070   1.265   4.372
 1527SOL    HW1 5480   5.131   1.308   4.306
 1527SOL    HW2 5481   4.976   1.265   4.336
 1528SOL     OW 5482   3.997   3.145   2.674
 1528SOL    HW1 5483   4.028   3.130   2.580
 1528SOL    HW2 5484   3.922   3.083   2.695
 1529SOL     OW 5485   4.124   1.023   5.269
 1529SOL    HW1 5486   4.069   1.001   5.189
 1529SOL    HW2 5487   4.063   1.041   5.347
 1530SOL     OW 5488   2.764   0.179   1.817
 1530SOL    HW1 5489   2.666   0.189   1.802
 1530SOL    HW2 5490   2.814   0.230   1.747
 1531SOL     OW 5491   5.333   6.210   4.582
 1531SOL    HW1 5492   5.324   6.244   4.489
 1531SOL    HW2 5493   5.418   6.245   4.623
 1532SOL     OW 5494   2.707   5.323   2.041
 1532SOL    HW1 5495   2.692   5.373   1.955
 1532SOL    HW2 5496   2.805   5.312   2.056
 1533SOL     OW 5497   5.591   6.411   1.256
 1533SOL    HW1 5498   5.492   6.402   1.248
 1533SOL    HW2 5499   5.632   6.321   1.268
 1534SOL     OW 5500   2.128   4.700   6.736
 1534SOL    HW1 5501   2.036   4.680   6.703
 1534SOL    HW2 5502   2.191   4.701   6.659
 1535SOL     OW 5503   4.967   4.506   3.502
 1535SOL    HW1 5504   4.905   4.491   3.425
 1535SOL    HW2 5505   4.915   4.523   3.585
 1536SOL     OW 5506   4.328   3.859   6.539
 1536SOL    HW1 5507   4.320   3.883   6.443
 1536SOL    HW2 5508   4.281   3.772   6.557
 1537SOL     OW 5509   3.335   5.500   2.656
 1537SOL    HW1 5510   3.240   5.513   2.627
 1537SOL    HW2 5511   3.379   5.590   2.666
 1538SOL     OW 5512   2.270   1.065   0.237
 1538SOL    HW1 5513   2.172   1.082   0.241
 1538SOL    HW2 5514   2.309   1.113   0.159
 1539SOL     OW 5515   0.013   3.038   0.677
 1539SOL    HW1 5516   0.084   2.987   0.725
 1539SOL    HW2 5517   7.001   3.108   0.738
 1540SOL     OW 5518   3.510   5.974   3.762
 1540SOL    HW1 5519   3.564   5.955   3.844
 1540SOL    HW2 5520   3.487   6.071   3.758
 1541SOL     OW 5521   4.622   2.528   5.437
 1541SOL    HW1 5522   4.540   2.575   5.406
 1541SOL    HW2 5523   4.639   2.449   5.378
 1542SOL     OW 5524   0.339   4.737   2.579
 1542SOL    HW1 5525   0.284   4.783   2.509
 1542SOL    HW2 5526   0.316   4.640   2.580
 1543SOL     OW 5527   3.308   5.152   0.713
 1543SOL    HW1 5528   3.228   5.202   0.680
 1543SOL    HW2 5529   3.297   5.055   0.692
 1544SOL     OW 5530   4.081   3.522   3.972
 1544SOL    HW1 5531   4.035   3.477   4.049
 1544SOL    HW2 5532   4.093   3.456   3.897
 1545SOL     OW 5533   5.954   5.436   1.044
 1545SOL    HW1 5534   6.040   5.423   1.093
 1545SOL    HW2 5535   5.892   5.492   1.099
 1546SOL     OW 5536   6.536   6.494   5.474
 1546SOL    HW1 5537   6.531   6.437   5.556
 1546SOL    HW2 5538   6.602   6.455   5.410
 1547SOL     OW 5539   1.471   3.136   6.229
 1547SOL    HW1 5540   1.554   3.165   6.277
 1547SOL    HW2 5541   1.455   3.196   6.151
 1548SOL     OW 5542   6.361   2.012   0.117
 1548SOL    HW1 5543   6.411   2.097   0.104
 1548SOL    HW2 5544   6.326   2.008   0.211
 1549SOL     OW 5545   4.882   0.804   4.581
 1549SOL    HW1 5546   4.866   0.755   4.495
 1549SOL    HW2 5547   4.899   0.900   4.562
 1550SOL     OW 5548   2.961   3.707   4.230
 1550SOL    HW1 5549   2.954   3.745   4.323
 1550SOL    HW2 5550   3.057   3.701   4.204
 1551SOL     OW 5551   6.895   5.393   6.005
 1551SOL    HW1 5552   6.928   5.374   6.098
 1551SOL    HW2 5553   6.801   5.427   6.010
 1552SOL     OW 5554   2.000   4.046   1.543
 1552SOL    HW1 5555   2.039   4.135   1.524
 1552SOL    HW2 5556   1.900   4.051   1.538
 1553SOL     OW 5557   1.627   1.882   5.542
 1553SOL    HW1 5558   1.576   1.796   5.538
 1553SOL    HW2 5559   1.722   1.867   5.516
 1554SOL     OW 5560   4.543   1.876   3.230
 1554SOL    HW1 5561   4.452   1.845   3.201
 1554SOL    HW2 5562   4.613   1.827   3.179
 1555SOL     OW 5563   6.252   5.075   5.384
 1555SOL    HW1 5564   6.318   5.120   5.324
 1555SOL    HW2 5565   6.160   5.103   5.359
 1556SOL     OW 5566   1.725   1.036   5.985
 1556SOL    HW1 5567   1.691   1.124   5.952
 1556SOL    HW2 5568   1.812   1.050   6.032
 1557SOL     OW 5569   1.100   1.956   5.891
 1557SOL    HW1 5570   1.095   1.909   5.979
 1557SOL    HW2 5571   1.108   1.888   5.818
 1558SOL     OW 5572   6.676   6.749   4.631
 1558SOL    HW1 5573   6.688   6.840   4.591
 1558SOL    HW2 5574   6.637   6.758   4.723
 1559SOL     OW 5575   1.587   1.096   6.487
 1559SOL    HW1 5576   1.524   1.158   6.534
 1559SOL    HW2 5577   1.608   1.133   6.397
 1560SOL     OW 5578   0.026   0.614   0.436
 1560SOL    HW1 5579   6.971   0.581   0.483
 1560SOL    HW2 5580   0.105   0.612   0.498
 1561SOL     OW 5581   5.757   6.066   1.728
 1561SOL    HW1 5582   5.696   5.998   1.689
 1561SOL    HW2 5583   5.814   6.023   1.798
 1562SOL     OW 5584   5.504   0.298   4.258
 1562SOL    HW1 5585   5.522   0.330   4.351
 1562SOL    HW2 5586   5.571   0.228   4.234
 1563SOL     OW 5587   3.095   0.101   6.165
 1563SOL    HW1 5588   3.165   0.031   6.177
 1563SOL    HW2 5589   3.028   0.069   6.097
 1564SOL     OW 5590   1.552   2.570   2.700
 1564SOL    HW1 5591   1.639   2.615   2.718
 1564SOL    HW2 5592   1.513   2.538   2.786
 1565SOL     OW 5593   6.171   5.178   1.093
 1565SOL    HW1 5594   6.105   5.194   1.021
 1565SOL    HW2 5595   6.205   5.266   1.128
 1566SOL     OW 5596   6.125   4.783   2.551
 1566SOL    HW1 5597   6.064   4.770   2.630
 1566SOL    HW2 5598   6.076   4.832   2.479
 1567SOL     OW 5599   7.003   5.901   5.585
 1567SOL    HW1 5600   6.903   5.909   5.579
 1567SOL    HW2 5601   0.011   5.962   5.656
 1568SOL     OW 5602   0.022   6.837   0.798
 1568SOL    HW1 5603   6.980   6.886   0.853
 1568SOL    HW2 5604   0.107   6.829   0.851
 1569SOL     OW 5605   3.100   5.916   5.356
 1569SOL    HW1 5606   3.170   5.909   5.286
 1569SOL    HW2 5607   3.073   5.825   5.386
 1570SOL     OW 5608   3.100   2.087   2.112
 1570SOL    HW1 5609   3.024   2.152   2.104
 1570SOL    HW2 5610   3.074   2.000   2.071
 1571SOL     OW 5611   0.037   3.133   0.408
 1571SOL    HW1 5612   0.027   3.094   0.500
 1571SOL    HW2 5613   6.997   3.090   0.347
 1572SOL     OW 5614   0.451   5.445   3.843
 1572SOL    HW1 5615   0.548   5.465   3.825
 1572SOL    HW2 5616   0.442   5.353   3.881
 1573SOL     OW 5617   4.481   6.996   0.062
 1573SOL    HW1 5618   4.447   6.908   0.095
 1573SOL    HW2 5619   4.511   0.025   0.140
 1574SOL     OW 5620   5.481   3.842   1.843
 1574SOL    HW1 5621   5.485   3.766   1.779
 1574SOL    HW2 5622   5.432   3.919   1.801
 1575SOL     OW 5623   3.822   2.444   0.393
 1575SOL    HW1 5624   3.813   2.432   0.492
 1575SOL    HW2 5625   3.803   2.358   0.347
 1576SOL     OW 5626   6.433   5.149   3.080
 1576SOL    HW1 5627   6.362   5.092   3.037
 1576SOL    HW2 5628   6.395   5.239   3.101
 1577SOL     OW 5629   1.547   0.427   0.830
 1577SOL    HW1 5630   1.638   0.409   0.866
 1577SOL    HW2 5631   1.531   0.525   0.825
 1578SOL     OW 5632   5.951   6.053   4.521
 1578SOL    HW1 5633   5.950   5.953   4.529
 1578SOL    HW2 5634   5.997   6.079   4.436
 1579SOL     OW 5635   0.037   0.913   3.400
 1579SOL    HW1 5636   0.060   0.948   3.309
 1579SOL    HW2 5637   0.056   0.815   3.403
 1580SOL     OW 5638   3.447   4.253   5.548
 1580SOL    HW1 5639   3.414   4.180   5.488
 1580SOL    HW2 5640   3.384   4.330   5.545
 1581SOL     OW 5641   6.148   3.340   4.482
 1581SOL    HW1 5642   6.116   3.344   4.388
 1581SOL    HW2 5643   6.183   3.429   4.510
 1582SOL     OW 5644   6.119   6.704   3.972
 1582SOL    HW1 5645   6.205   6.725   3.926
 1582SOL    HW2 5646   6.043   6.718   3.908
 1583SOL     OW 5647   2.038   2.916   1.692
 1583SOL    HW1 5648   2.000   2.832   1.729
 1583SOL    HW2 5649   2.023   2.920   1.593
 1584SOL     OW 5650   2.463   0.010   6.477
 1584SOL    HW1 5651   2.540   6.981   6.509
 1584SOL    HW2 5652   2.409   6.984   6.411
 1585SOL     OW 5653   5.634   0.977   6.308
 1585SOL    HW1 5654   5.660   1.016   6.220
 1585SOL    HW2 5655   5.632   0.877   6.301
 1586SOL     OW 5656   4.098   3.248   3.161
 1586SOL    HW1 5657   4.165   3.186   3.120
 1586SOL    HW2 5658   4.007   3.206   3.158
 1587SOL     OW 5659   1.765   6.808   5.894
 1587SOL    HW1 5660   1.676   6.819   5.937
 1587SOL    HW2 5661   1.753   6.775   5.800
 1588SOL     OW 5662   6.091   4.416   0.281
 1588SOL    HW1 5663   6.097   4.379   0.374
 1588SOL    HW2 5664   6.136   4.353   0.217
 1589SOL     OW 5665   5.106   4.739   3.141
 1589SOL    HW1 5666   5.143   4.652   3.173
 1589SOL    HW2 5667   5.126   4.810   3.208
 1590SOL     OW 5668   2.341   5.873   4.728
 1590SOL    HW1 5669   2.378   5.784   4.702
 1590SOL    HW2 5670   2.405   5.919   4.789
 1591SOL     OW 5671   2.332   3.214   0.280
 1591SOL    HW1 5672   2.255   3.257   0.326
 1591SOL    HW2 5673   2.301   3.171   0.195
 1592SOL     OW 5674   3.654   3.595   4.004
 1592SOL    HW1 5675   3.576   3.539   4.031
 1592SOL    HW2 5676   3.693   3.639   4.085
 1593SOL     OW 5677   1.539   4.235   4.197
 1593SOL    HW1 5678   1.637   4.223   4.183
 1593SOL    HW2 5679   1.500   4.286   4.120
 1594SOL     OW 5680   0.313   5.595   2.487
 1594SOL    HW1 5681   0.353   5.686   2.496
 1594SOL    HW2 5682   0.321   5.546   2.574
 1595SOL     OW 5683   6.665   3.720   4.565
 1595SOL    HW1 5684   6.599   3.735   4.492
 1595SOL    HW2 5685   6.679   3.622   4.578
 1596SOL     OW 5686   3.070   5.004   6.713
 1596SOL    HW1 5687   3.042   5.058   6.792
 1596SOL    HW2 5688   3.034   4.911   6.720
 1597SOL     OW 5689   2.707   6.736   0.979
 1597SOL    HW1 5690   2.742   6.687   0.899
 1597SOL    HW2 5691   2.609   6.751   0.969
 1598SOL     OW 5692   6.824   5.832   1.694
 1598SOL    HW1 5693   6.776   5.914   1.726
 1598SOL    HW2 5694   6.847   5.774   1.773
 1599SOL     OW 5695   2.717   5.342   0.387
 1599SOL    HW1 5696   2.802   5.392   0.375
 1599SOL    HW2 5697   2.694   5.336   0.484
 1600SOL     OW 5698   3.481   1.888   4.953
 1600SOL    HW1 5699   3.383   1.879   4.934
 1600SOL    HW2 5700   3.532   1.822   4.897
 1601SOL     OW 5701   1.890   5.201   4.868
 1601SOL    HW1 5702   1.978   5.206   4.822
 1601SOL    HW2 5703   1.843   5.289   4.861
 1602SOL     OW 5704   0.113   3.265   1.863
 1602SOL    HW1 5705   0.062   3.223   1.787
 1602SOL    HW2 5706   0.120   3.199   1.938
 1603SOL     OW 5707   6.049   6.830   0.497
 1603SOL    HW1 5708   6.091   6.739   0.500
 1603SOL    HW2 5709   5.961   6.828   0.543
 1604SOL     OW 5710   0.936   5.299   4.513
 1604SOL    HW1 5711   0.946   5.339   4.422
 1604SOL    HW2 5712   0.845   5.319   4.548
 1605SOL     OW 5713   4.769   5.024   2.275
 1605SOL    HW1 5714   4.799   5.022   2.371
 1605SOL    HW2 5715   4.785   4.935   2.234
 1606SOL     OW 5716   5.952   5.551   4.566
 1606SOL    HW1 5717   5.913   5.510   4.649
 1606SOL    HW2 5718   5.886   5.615   4.527
 1607SOL     OW 5719   5.437   3.698   1.617
 1607SOL    HW1 5720   5.398   3.780   1.575
 1607SOL    HW2 5721   5.411   3.617   1.564
 1608SOL     OW 5722   2.838   6.982   1.044
 1608SOL    HW1 5723   2.792   6.895   1.027
 1608SOL    HW2 5724   2.776   0.016   1.094
 1609SOL     OW 5725   5.442   1.432   4.937
 1609SOL    HW1 5726   5.433   1.441   5.036
 1609SOL    HW2 5727   5.534   1.400   4.915
 1610SOL     OW 5728   4.644   6.577   3.174
 1610SOL    HW1 5729   4.546   6.582   3.156
 1610SOL    HW2 5730   4.694   6.627   3.103
 1611SOL     OW 5731   4.051   4.098   1.622
 1611SOL    HW1 5732   4.061   4.071   1.527
 1611SOL    HW2 5733   3.983   4.171   1.629
 1612SOL     OW 5734   3.231   0.551   4.482
 1612SOL    HW1 5735   3.167   0.616   4.523
 1612SOL    HW2 5736   3.212   0.543   4.384
 1613SOL     OW 5737   2.376   0.394   1.487
 1613SOL    HW1 5738   2.459   0.362   1.532
 1613SOL    HW2 5739   2.379   0.367   1.391
 1614SOL     OW 5740   6.920   2.008   5.279
 1614SOL    HW1 5741   6.843   1.944   5.283
 1614SOL    HW2 5742   7.005   1.956   5.272
 1615SOL     OW 5743   6.713   5.817   5.388
 1615SOL    HW1 5744   6.690   5.780   5.298
 1615SOL    HW2 5745   6.700   5.745   5.457
 1616SOL     OW 5746   2.247   2.062   6.289
 1616SOL    HW1 5747   2.334   2.033   6.329
 1616SOL    HW2 5748   2.243   2.162   6.285
 1617SOL     OW 5749   3.150   1.210   3.406
 1617SOL    HW1 5750   3.244   1.185   3.431
 1617SOL    HW2 5751   3.137   1.193   3.308
 1618SOL     OW 5752   5.084   2.939   2.285
 1618SOL    HW1 5753   5.085   2.959   2.187
 1618SOL    HW2 5754   5.118   2.846   2.300
 1619SOL     OW 5755   1.473   2.901   4.860
 1619SOL    HW1 5756   1.517   2.942   4.780
 1619SOL    HW2 5757   1.483   2.961   4.939
 1620SOL     OW 5758   3.521   5.969   1.831
 1620SOL    HW1 5759   3.566   5.890   1.789
 1620SOL    HW2 5760   3.508   6.041   1.763
 1621SOL     OW 5761   2.182   2.582   1.815
 1621SOL    HW1 5762   2.270   2.630   1.819
 1621SOL    HW2 5763   2.110   2.642   1.850
 1622SOL     OW 5764   2.149   2.450   5.283
 1622SOL    HW1 5765   2.211   2.373   5.297
 1622SOL    HW2 5766   2.069   2.421   5.232
 1623SOL     OW 5767   2.353   2.129   4.404
 1623SOL    HW1 5768   2.442   2.106   4.367
 1623SOL    HW2 5769   2.289   2.054   4.386
 1624SOL     OW 5770   1.897   0.555   0.420
 1624SOL    HW1 5771   1.931   0.649   0.415
 1624SOL    HW2 5772   1.971   0.491   0.398
 1625SOL     OW 5773   1.254   6.899   1.234
 1625SOL    HW1 5774   1.162   6.931   1.216
 1625SOL    HW2 5775   1.271   6.899   1.333
 1626SOL     OW 5776   2.546   3.293   6.246
 1626SOL    HW1 5777   2.463   3.265   6.198
 1626SOL    HW2 5778   2.606   3.344   6.183
 1627SOL     OW 5779   4.708   4.245   3.431
 1627SOL    HW1 5780   4.673   4.306   3.359
 1627SOL    HW2 5781   4.718   4.153   3.394
 1628SOL     OW 5782   3.545   3.659   0.381
 1628SOL    HW1 5783   3.529   3.642   0.284
 1628SOL    HW2 5784   3.523   3.576   0.433
 1629SOL     OW 5785   2.801   2.293   2.874
 1629SOL    HW1 5786   2.728   2.235   2.911
 1629SOL    HW2 5787   2.890   2.253   2.897
 1630SOL     OW 5788   5.896   4.893   4.065
 1630SOL    HW1 5789   5.965   4.857   4.002
 1630SOL    HW2 5790   5.859   4.978   4.028
 1631SOL     OW 5791   1.111   0.248   6.162
 1631SOL    HW1 5792   1.157   0.335   6.180
 1631SOL    HW2 5793   1.162   0.196   6.094
 1632SOL     OW 5794   4.008   6.649   6.872
 1632SOL    HW1 5795   4.068   6.729   6.879
 1632SOL    HW2 5796   4.064   6.566   6.864
 1633SOL     OW 5797   6.598   4.017   3.024
 1633SOL    HW1 5798   6.516   4.023   2.966
 1633SOL    HW2 5799   6.570   4.004   3.119
 1634SOL     OW 5800   3.597   1.015   1.121
 1634SOL    HW1 5801   3.543   1.047   1.044
 1634SOL    HW2 5802   3.619   1.093   1.180
 1635SOL     OW 5803   1.726   4.206   3.290
 1635SOL    HW1 5804   1.661   4.130   3.299
 1635SOL    HW2 5805   1.733   4.253   3.378
 1636SOL     OW 5806   2.882   6.309   0.684
 1636SOL    HW1 5807   2.972   6.321   0.643
 1636SOL    HW2 5808   2.811   6.339   0.619
 1637SOL     OW 5809   0.914   2.945   2.691
 1637SOL    HW1 5810   1.008   2.918   2.714
 1637SOL    HW2 5811   0.898   3.038   2.724
 1638SOL     OW 5812   1.131   2.382   6.063
 1638SOL    HW1 5813   1.037   2.349   6.063
 1638SOL    HW2 5814   1.133   2.481   6.048
 1639SOL     OW 5815   4.049   4.899   2.662
 1639SOL    HW1 5816   4.109   4.977   2.683
 1639SOL    HW2 5817   3.954   4.928   2.666
 1640SOL     OW 5818   5.765   6.875   0.918
 1640SOL    HW1 5819   5.825   6.946   0.955
 1640SOL    HW2 5820   5.775   6.872   0.818
 1641SOL     OW 5821   6.634   2.677   4.739
 1641SOL    HW1 5822   6.685   2.675   4.825
 1641SOL    HW2 5823   6.634   2.586   4.698
 1642SOL     OW 5824   0.981   2.359   1.639
 1642SOL    HW1 5825   1.002   2.269   1.602
 1642SOL    HW2 5826   1.038   2.376   1.719
 1643SOL     OW 5827   3.818   0.349   5.775
 1643SOL    HW1 5828   3.788   0.368   5.682
 1643SOL    HW2 5829   3.867   0.261   5.777
 1644SOL     OW 5830   3.926   1.275   1.117
 1644SOL    HW1 5831   3.940   1.360   1.066
 1644SOL    HW2 5832   3.979   1.201   1.074
 1645SOL     OW 5833   2.430   5.962   5.932
 1645SOL    HW1 5834   2.469   5.983   6.022
 1645SOL    HW2 5835   2.364   5.888   5.941
 1646SOL     OW 5836   2.466   3.381   0.483
 1646SOL    HW1 5837   2.453   3.468   0.435
 1646SOL    HW2 5838   2.442   3.306   0.421
 1647SOL     OW 5839   5.730   3.806   2.311
 1647SOL    HW1 5840   5.691   3.716   2.328
 1647SOL    HW2 5841   5.704   3.837   2.219
 1648SOL     OW 5842   2.887   0.727   3.147
 1648SOL    HW1 5843   2.793   0.711   3.176
 1648SOL    HW2 5844   2.949   0.668   3.199
 1649SOL     OW 5845   2.693   0.395   4.006
 1649SOL    HW1 5846   2.649   0.329   4.068
 1649SOL    HW2 5847   2.635   0.476   3.996
 1650SOL     OW 5848   2.928   0.262   4.387
 1650SOL    HW1 5849   2.923   0.344   4.330
 1650SOL    HW2 5850   3.013   0.265   4.441
 1651SOL     OW 5851   1.454   6.720   2.533
 1651SOL    HW1 5852   1.368   6.726   2.583
 1651SOL    HW2 5853   1.466   6.626   2.499
 1652SOL     OW 5854   3.705   3.438   1.555
 1652SOL    HW1 5855   3.729   3.522   1.603
 1652SOL    HW2 5856   3.656   3.460   1.471
 1653SOL     OW 5857   0.952   4.607   1.170
 1653SOL    HW1 5858   0.952   4.660   1.086
 1653SOL    HW2 5859   0.860   4.604   1.209
 1654SOL     OW 5860   0.683   2.018   4.001
 1654SOL    HW1 5861   0.711   1.961   3.924
 1654SOL    HW2 5862   0.589   1.994   4.028
 1655SOL     OW 5863   4.393   4.256   5.383
 1655SOL    HW1 5864   4.336   4.274   5.463
 1655SOL    HW2 5865   4.348   4.292   5.301
 1656SOL     OW 5866   0.339   3.154   2.515
 1656SOL    HW1 5867   0.262   3.197   2.469
 1656SOL    HW2 5868   0.308   3.109   2.599
 1657SOL     OW 5869   1.073   1.074   5.514
 1657SOL    HW1 5870   1.055   1.171   5.531
 1657SOL    HW2 5871   0.994   1.020   5.545
 1658SOL     OW 5872   5.881   6.888   2.477
 1658SOL    HW1 5873   5.974   6.925   2.478
 1658SOL    HW2 5874   5.868   6.833   2.394
 1659SOL     OW 5875   5.241   2.731   6.623
 1659SOL    HW1 5876   5.169   2.801   6.620
 1659SOL    HW2 5877   5.217   2.662   6.691
 1660SOL     OW 5878   2.425   5.603   3.883
 1660SOL    HW1 5879   2.426   5.539   3.959
 1660SOL    HW2 5880   2.418   5.553   3.797
 1661SOL     OW 5881   2.332   0.777   3.285
 1661SOL    HW1 5882   2.319   0.698   3.225
 1661SOL    HW2 5883   2.276   0.853   3.252
 1662SOL     OW 5884   6.793   0.752   3.160
 1662SOL    HW1 5885   6.818   0.708   3.246
 1662SOL    HW2 5886   6.694   0.769   3.159
 1663SOL     OW 5887   1.619   0.351   3.440
 1663SOL    HW1 5888   1.553   0.425   3.427
 1663SOL    HW2 5889   1.615   0.320   3.535
 1664SOL     OW 5890   1.935   5.443   4.577
 1664SOL    HW1 5891   1.869   5.414   4.508
 1664SOL    HW2 5892   2.002   5.370   4.591
 1665SOL     OW 5893   6.931   1.245   4.071
 1665SOL    HW1 5894   6.841   1.202   4.084
 1665SOL    HW2 5895   7.002   1.187   4.110
 1666SOL     OW 5896   5.431   2.598   6.479
 1666SOL    HW1 5897   5.363   2.667   6.504
 1666SOL    HW2 5898   5.517   2.617   6.526
 1667SOL     OW 5899   0.084   0.443   1.346
 1667SOL    HW1 5900   0.061   0.349   1.371
 1667SOL    HW2 5901   0.001   0.492   1.318
 1668SOL     OW 5902   2.306   0.411   4.709
 1668SOL    HW1 5903   2.269   0.485   4.653
 1668SOL    HW2 5904   2.406   0.414   4.706
 1669SOL     OW 5905   5.216   6.023   6.199
 1669SOL    HW1 5906   5.287   5.979   6.254
 1669SOL    HW2 5907   5.182   5.960   6.130
 1670SOL     OW 5908   6.806   2.960   6.321
 1670SOL    HW1 5909   6.801   2.876   6.268
 1670SOL    HW2 5910   6.901   2.993   6.323
 1671SOL     OW 5911   5.591   5.428   0.508
 1671SOL    HW1 5912   5.642   5.393   0.587
 1671SOL    HW2 5913   5.550   5.517   0.532
 1672SOL     OW 5914   2.075   4.330   2.664
 1672SOL    HW1 5915   2.151   4.293   2.717
 1672SOL    HW2 5916   2.108   4.357   2.573
 1673SOL     OW 5917   6.382   3.213   3.316
 1673SOL    HW1 5918   6.364   3.196   3.220
 1673SOL    HW2 5919   6.431   3.300   3.326
 1674SOL     OW 5920   2.350   5.581   0.586
 1674SOL    HW1 5921   2.385   5.488   0.575
 1674SOL    HW2 5922   2.272   5.581   0.647
 1675SOL     OW 5923   4.870   1.769   6.408
 1675SOL    HW1 5924   4.917   1.706   6.470
 1675SOL    HW2 5925   4.911   1.859   6.414
 1676SOL     OW 5926   2.878   1.797   3.617
 1676SOL    HW1 5927   2.851   1.889   3.647
 1676SOL    HW2 5928   2.966   1.773   3.657
 1677SOL     OW 5929   5.447   0.021   5.884
 1677SOL    HW1 5930   5.441   6.993   5.801
 1677SOL    HW2 5931   5.544   0.033   5.910
 1678SOL     OW 5932   4.778   6.419   2.164
 1678SOL    HW1 5933   4.811   6.373   2.081
 1678SOL    HW2 5934   4.686   6.456   2.147
 1679SOL     OW 5935   6.609   4.782   0.180
 1679SOL    HW1 5936   6.667   4.703   0.163
 1679SOL    HW2 5937   6.543   4.761   0.252
 1680SOL     OW 5938   0.461   2.288   5.510
 1680SOL    HW1 5939   0.456   2.303   5.609
 1680SOL    HW2 5940   0.381   2.326   5.466
 1681SOL     OW 5941   4.239   5.726   6.882
 1681SOL    HW1 5942   4.184   5.698   6.961
 1681SOL    HW2 5943   4.178   5.747   6.806
 1682SOL     OW 5944   0.297   2.742   6.026
 1682SOL    HW1 5945   0.391   2.726   5.996
 1682SOL    HW2 5946   0.246   2.785   5.952
 1683SOL     OW 5947   5.717   5.207   5.726
 1683SOL    HW1 5948   5.618   5.194   5.727
 1683SOL    HW2 5949   5.753   5.193   5.818
 1684SOL     OW 5950   0.441   6.890   4.232
 1684SOL    HW1 5951   0.454   6.851   4.141
 1684SOL    HW2 5952   0.458   6.820   4.301
 1685SOL     OW 5953   1.024   1.982   0.184
 1685SOL    HW1 5954   1.072   2.069   0.190
 1685SOL    HW2 5955   0.988   1.958   0.274
 1686SOL     OW 5956   1.517   6.790   5.996
 1686SOL    HW1 5957   1.462   6.752   6.071
 1686SOL    HW2 5958   1.479   6.759   5.908
 1687SOL     OW 5959   3.133   6.531   2.132
 1687SOL    HW1 5960   3.165   6.528   2.226
 1687SOL    HW2 5961   3.191   6.473   2.075
 1688SOL     OW 5962   0.229   1.453   3.930
 1688SOL    HW1 5963   0.202   1.524   3.865
 1688SOL    HW2 5964   0.329   1.453   3.939
 1689SOL     OW 5965   2.471   1.678   1.543
 1689SOL    HW1 5966   2.405   1.740   1.500
 1689SOL    HW2 5967   2.501   1.610   1.476
 1690SOL     OW 5968   0.908   2.429   0.547
 1690SOL    HW1 5969   0.832   2.412   0.610
 1690SOL    HW2 5970   0.961   2.508   0.578
 1691SOL     OW 5971   4.804   4.102   4.010
 1691SOL    HW1 5972   4.866   4.127   4.084
 1691SOL    HW2 5973   4.746   4.026   4.040
 1692SOL     OW 5974   1.193   0.167   3.917
 1692SOL    HW1 5975   1.268   0.158   3.851
 1692SOL    HW2 5976   1.106   0.156   3.870
 1693SOL     OW 5977   3.900   2.153   4.198
 1693SOL    HW1 5978   3.931   2.173   4.291
 1693SOL    HW2 5979   3.977   2.159   4.135
 1694SOL     OW 5980   6.215   5.978   4.956
 1694SOL    HW1 5981   6.246   5.961   4.863
 1694SOL    HW2 5982   6.292   6.008   5.013
 1695SOL     OW 5983   3.976   1.530   6.390
 1695SOL    HW1 5984   4.052   1.485   6.437
 1695SOL    HW2 5985   3.894   1.525   6.447
 1696SOL     OW 5986   3.568   5.635   1.919
 1696SOL    HW1 5987   3.638   5.652   1.988
 1696SOL    HW2 5988   3.478   5.654   1.959
 1697SOL     OW 5989   1.545   1.790   2.117
 1697SOL    HW1 5990   1.511   1.729   2.188
 1697SOL    HW2 5991   1.483   1.869   2.109
 1698SOL     OW 5992   4.811   1.890   7.000
 1698SOL    HW1 5993   4.880   1.859   0.039
 1698SOL    HW2 5994   4.764   1.970   0.010
 1699SOL     OW 5995   2.239   4.707   1.205
 1699SOL    HW1 5996   2.318   4.646   1.199
 1699SOL    HW2 5997   2.260   4.784   1.264
 1700SOL     OW 5998   6.335   2.899   4.521
 1700SOL    HW1 5999   6.328   2.862   4.614
 1700SOL    HW2 6000   6.281   2.983   4.514
 1701SOL     OW 6001   6.170   3.140   4.839
 1701SOL    HW1 6002   6.153   3.104   4.747
 1701SOL    HW2 6003   6.091   3.120   4.897
 1702SOL     OW 6004   5.477   2.607   1.564
 1702SOL    HW1 6005   5.409   2.669   1.602
 1702SOL    HW2 6006   5.470   2.608   1.464
 1703SOL     OW 6007   2.003   3.547   1.051
 1703SOL    HW1 6008   1.947   3.472   1.084
 1703SOL    HW2 6009   1.998   3.551   0.951
 1704SOL     OW 6010   0.051   1.851   2.349
 1704SOL    HW1 6011   0.032   1.790   2.426
 1704SOL    HW2 6012   6.992   1.896   2.321
 1705SOL     OW 6013   4.084   3.317   2.860
 1705SOL    HW1 6014   4.129   3.382   2.799
 1705SOL    HW2 6015   4.046   3.242   2.806
 1706SOL     OW 6016   2.505   1.049   6.034
 1706SOL    HW1 6017   2.549   0.992   6.103
 1706SOL    HW2 6018   2.437   0.995   5.985
 1707SOL     OW 6019   4.953   1.512   2.048
 1707SOL    HW1 6020   4.894   1.583   2.086
 1707SOL    HW2 6021   5.034   1.555   2.006
 1708SOL     OW 6022   0.630   4.181   1.428
 1708SOL    HW1 6023   0.628   4.086   1.459
 1708SOL    HW2 6024   0.538   4.219   1.431
 1709SOL     OW 6025   3.628   5.297   3.424
 1709SOL    HW1 6026   3.557   5.251   3.476
 1709SOL    HW2 6027   3.641   5.390   3.459
 1710SOL     OW 6028   6.601   4.736   4.499
 1710SOL    HW1 6029   6.628   4.641   4.514
 1710SOL    HW2 6030   6.660   4.777   4.429
 1711SOL     OW 6031   1.093   4.578   5.521
 1711SOL    HW1 6032   1.006   4.603   5.564
 1711SOL    HW2 6033   1.094   4.610   5.426
 1712SOL     OW 6034   1.740   4.436   2.412
 1712SOL    HW1 6035   1.763   4.340   2.395
 1712SOL    HW2 6036   1.802   4.495   2.361
 1713SOL     OW 6037   2.873   3.287   0.792
 1713SOL    HW1 6038   2.843   3.282   0.887
 1713SOL    HW2 6039   2.796   3.313   0.734
 1714SOL     OW 6040   4.615   1.253   1.684
 1714SOL    HW1 6041   4.552   1.271   1.760
 1714SOL    HW2 6042   4.683   1.326   1.678
 1715SOL     OW 6043   0.924   3.398   3.441
 1715SOL    HW1 6044   0.956   3.364   3.529
 1715SOL    HW2 6045   0.842   3.347   3.414
 1716SOL     OW 6046   0.146   0.136   6.553
 1716SOL    HW1 6047   0.064   0.098   6.510
 1716SOL    HW2 6048   0.165   0.226   6.514
 1717SOL     OW 6049   2.959   0.481   6.558
 1717SOL    HW1 6050   2.904   0.403   6.527
 1717SOL    HW2 6051   3.048   0.479   6.513
 1718SOL     OW 6052   2.052   4.043   5.549
 1718SOL    HW1 6053   2.132   4.054   5.490
 1718SOL    HW2 6054   2.067   3.965   5.611
 1719SOL     OW 6055   1.842   3.406   1.199
 1719SOL    HW1 6056   1.746   3.379   1.198
 1719SOL    HW2 6057   1.887   3.364   1.278
 1720SOL     OW 6058   7.017   2.539   2.369
 1720SOL    HW1 6059   6.931   2.566   2.412
 1720SOL    HW2 6060   0.065   2.593   2.407
 1721SOL     OW 6061   1.225   6.433   4.188
 1721SOL    HW1 6062   1.233   6.406   4.284
 1721SOL    HW2 6063   1.286   6.511   4.170
 1722SOL     OW 6064   5.647   7.026   1.617
 1722SOL    HW1 6065   5.625   0.094   1.642
 1722SOL    HW2 6066   5.573   6.988   1.561
 1723SOL     OW 6067   5.756   1.454   3.283
 1723SOL    HW1 6068   5.726   1.366   3.246
 1723SOL    HW2 6069   5.855   1.463   3.275
 1724SOL     OW 6070   4.920   0.802   0.336
 1724SOL    HW1 6071   5.008   0.819   0.378
 1724SOL    HW2 6072   4.847   0.819   0.402
 1725SOL     OW 6073   3.779   5.724   2.053
 1725SOL    HW1 6074   3.818   5.816   2.048
 1725SOL    HW2 6075   3.807   5.680   2.138
 1726SOL     OW 6076   6.430   3.983   4.399
 1726SOL    HW1 6077   6.482   3.899   4.384
 1726SOL    HW2 6078   6.333   3.965   4.382
 1727SOL     OW 6079   2.791   4.000   5.808
 1727SOL    HW1 6080   2.769   3.906   5.782
 1727SOL    HW2 6081   2.747   4.022   5.895
 1728SOL     OW 6082   4.900   5.756   4.010
 1728SOL    HW1 6083   4.812   5.788   3.976
 1728SOL    HW2 6084   4.960   5.835   4.026
 1729SOL     OW 6085   0.567   3.209   2.327
 1729SOL    HW1 6086   0.493   3.161   2.375
 1729SOL    HW2 6087   0.646   3.148   2.320
 1730SOL     OW 6088   4.845   2.281   4.630
 1730SOL    HW1 6089   4.902   2.245   4.704
 1730SOL    HW2 6090   4.884   2.254   4.542
 1731SOL     OW 6091   0.575   6.879   6.935
 1731SOL    HW1 6092   0.546   6.845   6.846
 1731SOL    HW2 6093   0.669   6.850   6.953
 1732SOL     OW 6094   0.997   4.469   0.156
 1732SOL    HW1 6095   1.078   4.509   0.113
 1732SOL    HW2 6096   0.983   4.376   0.120
 1733SOL     OW 6097   1.291   4.446   6.645
 1733SOL    HW1 6098   1.350   4.429   6.567
 1733SOL    HW2 6099   1.319   4.389   6.722
 1734SOL     OW 6100   5.391   4.518   0.537
 1734SOL    HW1 6101   5.295   4.497   0.554
 1734SOL    HW2 6102   5.441   4.517   0.624
 1735SOL     OW 6103   4.743   5.355   6.990
 1735SOL    HW1 6104   4.762   5.408   6.907
 1735SOL    HW2 6105   4.666   5.395   0.013
 1736SOL     OW 6106   3.459   3.013   0.582
 1736SOL    HW1 6107   3.503   2.926   0.604
 1736SOL    HW2 6108   3.394   3.036   0.655
 1737SOL     OW 6109   1.008   5.765   2.942
 1737SOL    HW1 6110   0.989   5.718   3.028
 1737SOL    HW2 6111   1.060   5.849   2.961
 1738SOL     OW 6112   0.639   1.456   2.009
 1738SOL    HW1 6113   0.574   1.531   1.992
 1738SOL    HW2 6114   0.696   1.479   2.088
 1739SOL     OW 6115   4.194   1.868   6.578
 1739SOL    HW1 6116   4.208   1.812   6.660
 1739SOL    HW2 6117   4.096   1.878   6.560
 1740SOL     OW 6118   0.498   2.040   6.998
 1740SOL    HW1 6119   0.594   2.067   6.997
 1740SOL    HW2 6120   0.473   2.013   0.065
 1741SOL     OW 6121   0.873   0.553   2.648
 1741SOL    HW1 6122   0.898   0.509   2.735
 1741SOL    HW2 6123   0.951   0.604   2.613
 1742SOL     OW 6124   5.984   6.054   3.981
 1742SOL    HW1 6125   5.951   6.002   3.902
 1742SOL    HW2 6126   5.997   6.149   3.955
 1743SOL     OW 6127   4.383   0.955   0.501
 1743SOL    HW1 6128   4.343   1.001   0.422
 1743SOL    HW2 6129   4.475   0.990   0.517
 1744SOL     OW 6130   4.010   6.044   1.390
 1744SOL    HW1 6131   4.082   5.998   1.441
 1744SOL    HW2 6132   4.046   6.075   1.301
 1745SOL     OW 6133   7.016   2.492   5.253
 1745SOL    HW1 6134   6.964   2.558   5.198
 1745SOL    HW2 6135   6.970   2.404   5.251
 1746SOL     OW 6136   2.645   0.900   6.227
 1746SOL    HW1 6137   2.564   0.907   6.286
 1746SOL    HW2 6138   2.726   0.931   6.278
 1747SOL     OW 6139   4.272   0.048   5.124
 1747SOL    HW1 6140   4.342   0.100   5.076
 1747SOL    HW2 6141   4.270   6.981   5.089
 1748SOL     OW 6142   6.046   0.985   2.010
 1748SOL    HW1 6143   5.993   0.909   2.049
 1748SOL    HW2 6144   6.143   0.973   2.033
 1749SOL     OW 6145   4.967   0.450   6.241
 1749SOL    HW1 6146   4.995   0.377   6.303
 1749SOL    HW2 6147   4.892   0.501   6.281
 1750SOL     OW 6148   3.366   0.653   3.171
 1750SOL    HW1 6149   3.361   0.749   3.200
 1750SOL    HW2 6150   3.459   0.632   3.142
 1751SOL     OW 6151   1.841   5.705   4.537
 1751SOL    HW1 6152   1.763   5.753   4.577
 1751SOL    HW2 6153   1.866   5.627   4.595
 1752SOL     OW 6154   6.797   1.850   6.414
 1752SOL    HW1 6155   6.869   1.848   6.345
 1752SOL    HW2 6156   6.796   1.764   6.464
 1753SOL     OW 6157   2.024   6.360   2.386
 1753SOL    HW1 6158   1.935   6.403   2.404
 1753SOL    HW2 6159   2.097   6.426   2.407
 1754SOL     OW 6160   3.121   3.163   3.032
 1754SOL    HW1 6161   3.080   3.183   2.943
 1754SOL    HW2 6162   3.169   3.075   3.028
 1755SOL     OW 6163   6.728   4.152   0.037
 1755SOL    HW1 6164   6.753   4.161   0.134
 1755SOL    HW2 6165   6.768   4.069   7.026
 1756SOL     OW 6166   6.158   4.377   5.318
 1756SOL    HW1 6167   6.060   4.368   5.297
 1756SOL    HW2 6168   6.204   4.426   5.244
 1757SOL     OW 6169   3.698   0.661   4.918
 1757SOL    HW1 6170   3.620   0.650   4.980
 1757SOL    HW2 6171   3.714   0.758   4.902
 1758SOL     OW 6172   2.799   1.562   3.221
 1758SOL    HW1 6173   2.868   1.628   3.252
 1758SOL    HW2 6174   2.719   1.567   3.280
 1759SOL     OW 6175   6.937   6.174   6.206
 1759SOL    HW1 6176   6.904   6.264   6.234
 1759SOL    HW2 6177   6.977   6.127   6.285
 1760SOL     OW 6178   4.514   6.431   2.756
 1760SOL    HW1 6179   4.562   6.430   2.844
 1760SOL    HW2 6180   4.576   6.466   2.686
 1761SOL     OW 6181   5.512   3.299   1.527
 1761SOL    HW1 6182   5.526   3.244   1.445
 1761SOL    HW2 6183   5.493   3.239   1.605
 1762SOL     OW 6184   5.660   3.071   0.332
 1762SOL    HW1 6185   5.745   3.124   0.329
 1762SOL    HW2 6186   5.619   3.068   0.240
 1763SOL     OW 6187   2.463   2.562   4.515
 1763SOL    HW1 6188   2.434   2.469   4.536
 1763SOL    HW2 6189   2.399   2.627   4.555
 1764SOL     OW 6190   6.698   3.749   3.164
 1764SOL    HW1 6191   6.693   3.821   3.094
 1764SOL    HW2 6192   6.788   3.705   3.159
 1765SOL     OW 6193   1.577   3.304   5.847
 1765SOL    HW1 6194   1.570   3.213   5.807
 1765SOL    HW2 6195   1.512   3.314   5.922
 1766SOL     OW 6196   6.067   3.875   5.395
 1766SOL    HW1 6197   6.051   3.803   5.328
 1766SOL    HW2 6198   6.125   3.946   5.356
 1767SOL     OW 6199   6.659   5.216   1.371
 1767SOL    HW1 6200   6.753   5.199   1.340
 1767SOL    HW2 6201   6.628   5.305   1.339
 1768SOL     OW 6202   5.841   6.705   2.722
 1768SOL    HW1 6203   5.932   6.706   2.763
 1768SOL    HW2 6204   5.837   6.773   2.648
 1769SOL     OW 6205   4.485   0.999   3.771
 1769SOL    HW1 6206   4.420   1.043   3.709
 1769SOL    HW2 6207   4.578   1.011   3.736
 1770SOL     OW 6208   3.364   5.907   5.307
 1770SOL    HW1 6209   3.352   5.907   5.407
 1770SOL    HW2 6210   3.365   6.002   5.274
 1771SOL     OW 6211   4.886   5.923   7.019
 1771SOL    HW1 6212   4.981   5.913   6.989
 1771SOL    HW2 6213   4.879   5.898   0.089
 1772SOL     OW 6214   2.261   5.756   2.635
 1772SOL    HW1 6215   2.210   5.788   2.555
 1772SOL    HW2 6216   2.246   5.819   2.711
 1773SOL     OW 6217   1.340   7.021   0.130
 1773SOL    HW1 6218   1.349   6.979   0.220
 1773SOL    HW2 6219   1.319   6.951   0.062
 1774SOL     OW 6220   2.643   5.124   1.602
 1774SOL    HW1 6221   2.740   5.106   1.615
 1774SOL    HW2 6222   2.615   5.201   1.659
 1775SOL     OW 6223   0.875   5.357   0.640
 1775SOL    HW1 6224   0.939   5.362   0.563
 1775SOL    HW2 6225   0.911   5.295   0.710
 1776SOL     OW 6226   3.257   5.390   5.044
 1776SOL    HW1 6227   3.209   5.456   5.102
 1776SOL    HW2 6228   3.259   5.301   5.088
 1777SOL     OW 6229   4.196   6.019   0.209
 1777SOL    HW1 6230   4.263   5.965   0.159
 1777SOL    HW2 6231   4.105   6.004   0.171
 1778SOL     OW 6232   0.261   3.526   5.721
 1778SOL    HW1 6233   0.263   3.439   5.770
 1778SOL    HW2 6234   0.172   3.570   5.734
 1779SOL     OW 6235   3.778   6.791   5.456
 1779SOL    HW1 6236   3.870   6.756   5.445
 1779SOL    HW2 6237   3.777   6.890   5.437
 1780SOL     OW 6238   4.261   2.386   0.309
 1780SOL    HW1 6239   4.349   2.430   0.323
 1780SOL    HW2 6240   4.200   2.408   0.385
 1781SOL     OW 6241   2.121   5.641   3.606
 1781SOL    HW1 6242   2.088   5.553   3.639
 1781SOL    HW2 6243   2.156   5.695   3.683
 1782SOL     OW 6244   3.180   1.404   4.469
 1782SOL    HW1 6245   3.082   1.422   4.458
 1782SOL    HW2 6246   3.199   1.378   4.564
 1783SOL     OW 6247   1.839   5.803   0.550
 1783SOL    HW1 6248   1.806   5.814   0.456
 1783SOL    HW2 6249   1.939   5.805   0.551
 1784SOL     OW 6250   1.728   6.875   6.292
 1784SOL    HW1 6251   1.767   6.784   6.308
 1784SOL    HW2 6252   1.655   6.892   6.358
 1785SOL     OW 6253   6.821   5.481   2.418
 1785SOL    HW1 6254   6.731   5.488   2.461
 1785SOL    HW2 6255   6.871   5.404   2.458
 1786SOL     OW 6256   3.815   2.626   1.442
 1786SOL    HW1 6257   3.812   2.587   1.535
 1786SOL    HW2 6258   3.897   2.594   1.395
 1787SOL     OW 6259   3.347   0.351   5.370
 1787SOL    HW1 6260   3.393   0.322   5.454
 1787SOL    HW2 6261   3.385   0.301   5.292
 1788SOL     OW 6262   1.428   5.010   5.172
 1788SOL    HW1 6263   1.495   5.042   5.106
 1788SOL    HW2 6264   1.441   4.912   5.187
 1789SOL     OW 6265   5.543   6.359   6.967
 1789SOL    HW1 6266   5.576   6.322   0.027
 1789SOL    HW2 6267   5.530   6.458   6.976
 1790SOL     OW 6268   2.175   6.787   2.622
 1790SOL    HW1 6269   2.091   6.765   2.671
 1790SOL    HW2 6270   2.162   6.872   2.570
 1791SOL     OW 6271   0.742   6.718   3.485
 1791SOL    HW1 6272   0.694   6.774   3.553
 1791SOL    HW2 6273   0.677   6.652   3.445
 1792SOL     OW 6274   0.696   3.334   4.726
 1792SOL    HW1 6275   0.679   3.430   4.750
 1792SOL    HW2 6276   0.643   3.311   4.645
 1793SOL     OW 6277   0.366   0.549   3.934
 1793SOL    HW1 6278   0.307   0.500   3.999
 1793SOL    HW2 6279   0.313   0.573   3.853
 1794SOL     OW 6280   4.872   5.854   6.134
 1794SOL    HW1 6281   4.851   5.932   6.074
 1794SOL    HW2 6282   4.857   5.880   6.229
 1795SOL     OW 6283   1.234   3.433   6.984
 1795SOL    HW1 6284   1.313   3.378   7.011
 1795SOL    HW2 6285   1.216   3.420   6.886
 1796SOL     OW 6286   4.220   0.239   5.305
 1796SOL    HW1 6287   4.152   0.205   5.370
 1796SOL    HW2 6288   4.240   0.168   5.237
 1797SOL     OW 6289   0.190   1.381   1.680
 1797SOL    HW1 6290   0.220   1.476   1.674
 1797SOL    HW2 6291   0.183   1.354   1.776
 1798SOL     OW 6292   6.210   1.387   3.069
 1798SOL    HW1 6293   6.219   1.352   2.976
 1798SOL    HW2 6294   6.282   1.348   3.126
 1799SOL     OW 6295   2.559   0.489   0.174
 1799SOL    HW1 6296   2.566   0.476   0.075
 1799SOL    HW2 6297   2.464   0.512   0.197
 1800SOL     OW 6298   2.825   5.094   2.258
 1800SOL    HW1 6299   2.892   5.043   2.313
 1800SOL    HW2 6300   2.853   5.190   2.252
 1801SOL     OW 6301   5.561   6.807   0.438
 1801SOL    HW1 6302   5.620   6.750   0.380
 1801SOL    HW2 6303   5.618   6.865   0.497
 1802SOL     OW 6304   6.179   5.071   4.127
 1802SOL    HW1 6305   6.186   5.051   4.224
 1802SOL    HW2 6306   6.213   5.163   4.109
 1803SOL     OW 6307   6.379   4.700   0.351
 1803SOL    HW1 6308   6.417   4.607   0.341
 1803SOL    HW2 6309   6.369   4.721   0.448
 1804SOL     OW 6310   2.930   3.557   6.096
 1804SOL    HW1 6311   2.978   3.533   6.181
 1804SOL    HW2 6312   2.980   3.519   6.018
 1805SOL     OW 6313   6.400   3.052   0.028
 1805SOL    HW1 6314   6.397   2.984   6.981
 1805SOL    HW2 6315   6.495   3.072   0.052
 1806SOL     OW 6316   6.738   6.801   0.090
 1806SOL    HW1 6317   6.837   6.803   0.099
 1806SOL    HW2 6318   6.696   6.809   0.180
 1807SOL     OW 6319   6.882   1.870   5.559
 1807SOL    HW1 6320   6.910   1.782   5.521
 1807SOL    HW2 6321   6.959   1.911   5.608
 1808SOL     OW 6322   2.284   4.813   3.949
 1808SOL    HW1 6323   2.276   4.714   3.965
 1808SOL    HW2 6324   2.264   4.862   4.033
 1809SOL     OW 6325   3.836   0.308   6.529
 1809SOL    HW1 6326   3.802   0.341   6.440
 1809SOL    HW2 6327   3.805   0.371   6.601
 1810SOL     OW 6328   2.704   6.680   2.857
 1810SOL    HW1 6329   2.605   6.686   2.868
 1810SOL    HW2 6330   2.749   6.700   2.944
 1811SOL     OW 6331   5.808   5.737   2.981
 1811SOL    HW1 6332   5.888   5.789   2.951
 1811SOL    HW2 6333   5.810   5.727   3.080
 1812SOL     OW 6334   4.286   4.983   5.339
 1812SOL    HW1 6335   4.301   5.001   5.436
 1812SOL    HW2 6336   4.188   4.966   5.323
 1813SOL     OW 6337   6.824   6.201   5.568
 1813SOL    HW1 6338   6.843   6.244   5.480
 1813SOL    HW2 6339   6.859   6.258   5.642
 1814SOL     OW 6340   5.126   0.422   2.871
 1814SOL    HW1 6341   5.204   0.473   2.906
 1814SOL    HW2 6342   5.068   0.482   2.815
 1815SOL     OW 6343   0.193   1.288   2.941
 1815SOL    HW1 6344   0.132   1.361   2.973
 1815SOL    HW2 6345   0.146   1.200   2.951
 1816SOL     OW 6346   1.207   5.445   0.635
 1816SOL    HW1 6347   1.188   5.538   0.604
 1816SOL    HW2 6348   1.221   5.444   0.734
 1817SOL     OW 6349   1.600   4.672   2.161
 1817SOL    HW1 6350   1.668   4.608   2.198
 1817SOL    HW2 6351   1.607   4.675   2.061
 1818SOL     OW 6352   0.743   1.329   3.023
 1818SOL    HW1 6353   0.790   1.298   3.106
 1818SOL    HW2 6354   0.800   1.397   2.976
 1819SOL     OW 6355   1.230   4.185   2.764
 1819SOL    HW1 6356   1.171   4.212   2.840
 1819SOL    HW2 6357   1.212   4.244   2.685
 1820SOL     OW 6358   5.706   6.480   2.932
 1820SOL    HW1 6359   5.762   6.539   2.874
 1820SOL    HW2 6360   5.619   6.524   2.952
 1821SOL     OW 6361   1.396   1.961   3.210
 1821SOL    HW1 6362   1.385   2.060   3.210
 1821SOL    HW2 6363   1.442   1.931   3.127
 1822SOL     OW 6364   3.312   3.517   2.152
 1822SOL    HW1 6365   3.323   3.491   2.056
 1822SOL    HW2 6366   3.250   3.452   2.196
 1823SOL     OW 6367   4.201   0.052   2.260
 1823SOL    HW1 6368   4.106   0.022   2.249
 1823SOL    HW2 6369   4.231   0.036   2.354
 1824SOL     OW 6370   5.177   1.801   1.680
 1824SOL    HW1 6371   5.203   1.882   1.734
 1824SOL    HW2 6372   5.260   1.752   1.652
 1825SOL     OW 6373   0.852   6.960   1.591
 1825SOL    HW1 6374   0.938   6.959   1.541
 1825SOL    HW2 6375   0.855   6.893   1.665
 1826SOL     OW 6376   2.692   5.562   6.032
 1826SOL    HW1 6377   2.716   5.530   5.940
 1826SOL    HW2 6378   2.773   5.603   6.075
 1827SOL     OW 6379   5.599   0.312   0.547
 1827SOL    HW1 6380   5.649   0.374   0.487
 1827SOL    HW2 6381   5.531   0.363   0.599
 1828SOL     OW 6382   2.635   2.836   0.453
 1828SOL    HW1 6383   2.582   2.810   0.373
 1828SOL    HW2 6384   2.581   2.898   0.510
 1829SOL     OW 6385   5.647   5.145   2.390
 1829SOL    HW1 6386   5.707   5.224   2.407
 1829SOL    HW2 6387   5.564   5.155   2.444
 1830SOL     OW 6388   5.011   6.570   4.496
 1830SOL    HW1 6389   4.975   6.558   4.588
 1830SOL    HW2 6390   4.977   6.656   4.458
 1831SOL     OW 6391   5.170   1.388   3.180
 1831SOL    HW1 6392   5.132   1.463   3.125
 1831SOL    HW2 6393   5.217   1.427   3.259
 1832SOL     OW 6394   5.208   2.966   6.925
 1832SOL    HW1 6395   5.291   2.961   6.869
 1832SOL    HW2 6396   5.220   2.910   7.007
 1833SOL     OW 6397   5.713   1.939   5.957
 1833SOL    HW1 6398   5.772   1.988   6.021
 1833SOL    HW2 6399   5.767   1.871   5.907
 1834SOL     OW 6400   2.563   4.223   0.251
 1834SOL    HW1 6401   2.541   4.132   0.287
 1834SOL    HW2 6402   2.493   4.250   0.184
 1835SOL     OW 6403   1.787   5.168   0.170
 1835SOL    HW1 6404   1.813   5.177   0.266
 1835SOL    HW2 6405   1.866   5.186   0.112
 1836SOL     OW 6406   0.750   6.738   0.494
 1836SOL    HW1 6407   0.699   6.782   0.568
 1836SOL    HW2 6408   0.707   6.760   0.406
 1837SOL     OW 6409   0.573   2.730   4.362
 1837SOL    HW1 6410   0.535   2.642   4.391
 1837SOL    HW2 6411   0.540   2.752   4.270
 1838SOL     OW 6412   0.688   2.776   4.670
 1838SOL    HW1 6413   0.630   2.783   4.589
 1838SOL    HW2 6414   0.636   2.739   4.746
 1839SOL     OW 6415   1.210   1.311   6.875
 1839SOL    HW1 6416   1.222   1.289   6.778
 1839SOL    HW2 6417   1.122   1.355   6.889
 1840SOL     OW 6418   0.989   5.138   1.326
 1840SOL    HW1 6419   0.901   5.138   1.279
 1840SOL    HW2 6420   0.974   5.149   1.425
 1841SOL     OW 6421   1.664   2.970   3.624
 1841SOL    HW1 6422   1.629   2.882   3.594
 1841SOL    HW2 6423   1.596   3.041   3.607
 1842SOL     OW 6424   1.584   6.318   6.212
 1842SOL    HW1 6425   1.523   6.247   6.247
 1842SOL    HW2 6426   1.622   6.289   6.124
 1843SOL     OW 6427   4.371   2.041   5.346
 1843SOL    HW1 6428   4.354   2.124   5.292
 1843SOL    HW2 6429   4.466   2.040   5.375
 1844SOL     OW 6430   5.546   4.692   3.847
 1844SOL    HW1 6431   5.494   4.607   3.832
 1844SOL    HW2 6432   5.510   4.764   3.788
 1845SOL     OW 6433   4.746   6.409   0.876
 1845SOL    HW1 6434   4.679   6.401   0.950
 1845SOL    HW2 6435   4.838   6.395   0.912
 1846SOL     OW 6436   3.761   1.403   5.552
 1846SOL    HW1 6437   3.850   1.417   5.510
 1846SOL    HW2 6438   3.772   1.394   5.651
 1847SOL     OW 6439   1.516   5.967   6.432
 1847SOL    HW1 6440   1.607   5.944   6.398
 1847SOL    HW2 6441   1.524   6.033   6.507
 1848SOL     OW 6442   1.980   0.992   3.958
 1848SOL    HW1 6443   1.952   0.909   3.910
 1848SOL    HW2 6444   1.990   1.067   3.892
 1849SOL     OW 6445   2.195   0.705   6.410
 1849SOL    HW1 6446   2.171   0.790   6.457
 1849SOL    HW2 6447   2.114   0.649   6.398
 1850SOL     OW 6448   5.567   1.962   1.875
 1850SOL    HW1 6449   5.567   2.060   1.894
 1850SOL    HW2 6450   5.569   1.947   1.776
 1851SOL     OW 6451   6.634   4.388   2.510
 1851SOL    HW1 6452   6.714   4.439   2.478
 1851SOL    HW2 6453   6.559   4.400   2.446
 1852SOL     OW 6454   5.410   1.415   5.687
 1852SOL    HW1 6455   5.383   1.486   5.752
 1852SOL    HW2 6456   5.484   1.450   5.629
 1853SOL     OW 6457   1.107   4.969   0.840
 1853SOL    HW1 6458   1.143   4.889   0.793
 1853SOL    HW2 6459   1.169   4.996   0.914
 1854SOL     OW 6460   2.643   4.984   4.185
 1854SOL    HW1 6461   2.593   5.030   4.259
 1854SOL    HW2 6462   2.694   4.907   4.223
 1855SOL     OW 6463   6.220   4.817   1.430
 1855SOL    HW1 6464   6.302   4.833   1.484
 1855SOL    HW2 6465   6.177   4.731   1.459
 1856SOL     OW 6466   5.480   3.012   0.106
 1856SOL    HW1 6467   5.417   2.937   0.124
 1856SOL    HW2 6468   5.541   2.986   0.031
 1857SOL     OW 6469   5.571   1.484   3.040
 1857SOL    HW1 6470   5.652   1.479   3.099
 1857SOL    HW2 6471   5.568   1.402   2.982
 1858SOL     OW 6472   5.111   4.598   2.386
 1858SOL    HW1 6473   5.194   4.575   2.435
 1858SOL    HW2 6474   5.130   4.605   2.288
 1859SOL     OW 6475   6.111   1.701   3.345
 1859SOL    HW1 6476   6.090   1.729   3.439
 1859SOL    HW2 6477   6.191   1.752   3.313
 1860SOL     OW 6478   4.076   2.020   4.729
 1860SOL    HW1 6479   4.122   1.981   4.649
 1860SOL    HW2 6480   4.144   2.041   4.799
 1861SOL     OW 6481   5.017   6.005   2.393
 1861SOL    HW1 6482   4.956   5.965   2.325
 1861SOL    HW2 6483   5.098   6.041   2.347
 1862SOL     OW 6484   2.430   1.872   0.535
 1862SOL    HW1 6485   2.519   1.888   0.491
 1862SOL    HW2 6486   2.432   1.785   0.584
 1863SOL     OW 6487   2.149   1.925   1.447
 1863SOL    HW1 6488   2.133   1.835   1.486
 1863SOL    HW2 6489   2.134   1.922   1.348
 1864SOL     OW 6490   0.533   6.579   3.397
 1864SOL    HW1 6491   0.450   6.634   3.402
 1864SOL    HW2 6492   0.527   6.517   3.318
 1865SOL     OW 6493   5.233   3.545   6.452
 1865SOL    HW1 6494   5.314   3.488   6.438
 1865SOL    HW2 6495   5.201   3.581   6.364
 1866SOL     OW 6496   5.655   5.474   1.696
 1866SOL    HW1 6497   5.724   5.423   1.747
 1866SOL    HW2 6498   5.688   5.567   1.678
 1867SOL     OW 6499   1.271   4.462   6.160
 1867SOL    HW1 6500   1.200   4.405   6.118
 1867SOL    HW2 6501   1.230   4.526   6.224
 1868SOL     OW 6502   0.334   4.370   5.403
 1868SOL    HW1 6503   0.298   4.341   5.314
 1868SOL    HW2 6504   0.264   4.356   5.473
 1869SOL     OW 6505   5.754   1.313   4.476
 1869SOL    HW1 6506   5.776   1.265   4.391
 1869SOL    HW2 6507   5.821   1.289   4.546
 1870SOL     OW 6508   2.158   4.060   4.766
 1870SOL    HW1 6509   2.223   4.068   4.841
 1870SOL    HW2 6510   2.204   4.023   4.686
 1871SOL     OW 6511   1.801   0.633   0.819
 1871SOL    HW1 6512   1.732   0.691   0.775
 1871SOL    HW2 6513   1.804   0.544   0.773
 1872SOL     OW 6514   1.814   5.741   6.361
 1872SOL    HW1 6515   1.774   5.711   6.447
 1872SOL    HW2 6516   1.825   5.841   6.362
 1873SOL     OW 6517   5.150   6.860   6.671
 1873SOL    HW1 6518   5.198   6.772   6.667
 1873SOL    HW2 6519   5.212   6.929   6.710
 1874SOL     OW 6520   0.634   3.711   2.637
 1874SOL    HW1 6521   0.723   3.741   2.670
 1874SOL    HW2 6522   0.563   3.772   2.672
 1875SOL     OW 6523   0.470   6.935   2.295
 1875SOL    HW1 6524   0.543   6.995   2.261
 1875SOL    HW2 6525   0.391   6.943   2.234
 1876SOL     OW 6526   1.959   6.412   4.376
 1876SOL    HW1 6527   1.887   6.455   4.431
 1876SOL    HW2 6528   1.940   6.315   4.368
 1877SOL     OW 6529   0.391   0.010   3.773
 1877SOL    HW1 6530   0.404   6.958   3.835
 1877SOL    HW2 6531   0.366   0.090   3.827
 1878SOL     OW 6532   6.316   2.844   6.065
 1878SOL    HW1 6533   6.360   2.872   6.151
 1878SOL    HW2 6534   6.285   2.749   6.074
 1879SOL     OW 6535   1.993   5.182   6.192
 1879SOL    HW1 6536   1.952   5.129   6.266
 1879SOL    HW2 6537   2.033   5.120   6.124
 1880SOL     OW 6538   6.760   0.437   4.475
 1880SOL    HW1 6539   6.852   0.411   4.505
 1880SOL    HW2 6540   6.729   0.373   4.405
 1881SOL     OW 6541   0.025   2.290   6.814
 1881SOL    HW1 6542   0.002   2.309   6.719
 1881SOL    HW2 6543   0.121   2.262   6.820
 1882SOL     OW 6544   1.024   6.722   0.520
 1882SOL    HW1 6545   1.016   6.641   0.578
 1882SOL    HW2 6546   0.933   6.756   0.497
 1883SOL     OW 6547   0.352   1.891   3.844
 1883SOL    HW1 6548   0.386   1.874   3.936
 1883SOL    HW2 6549   0.278   1.958   3.847
 1884SOL     OW 6550   5.764   2.237   1.677
 1884SOL    HW1 6551   5.750   2.208   1.583
 1884SOL    HW2 6552   5.678   2.272   1.715
 1885SOL     OW 6553   3.218   1.299   4.733
 1885SOL    HW1 6554   3.217   1.347   4.820
 1885SOL    HW2 6555   3.284   1.224   4.737
 1886SOL     OW 6556   0.545   6.148   3.399
 1886SOL    HW1 6557   0.587   6.221   3.454
 1886SOL    HW2 6558   0.522   6.185   3.308
 1887SOL     OW 6559   2.537   5.456   6.482
 1887SOL    HW1 6560   2.469   5.526   6.462
 1887SOL    HW2 6561   2.604   5.452   6.408
 1888SOL     OW 6562   1.997   0.068   2.862
 1888SOL    HW1 6563   2.060   0.046   2.936
 1888SOL    HW2 6564   1.967   0.162   2.871
 1889SOL     OW 6565   0.265   3.665   2.718
 1889SOL    HW1 6566   0.293   3.572   2.693
 1889SOL    HW2 6567   0.171   3.680   2.688
 1890SOL     OW 6568   1.536   6.099   4.965
 1890SOL    HW1 6569   1.482   6.172   4.923
 1890SOL    HW2 6570   1.492   6.011   4.948
 1891SOL     OW 6571   4.083   3.222   3.510
 1891SOL    HW1 6572   4.008   3.156   3.512
 1891SOL    HW2 6573   4.107   3.241   3.414
 1892SOL     OW 6574   0.201   0.361   2.844
 1892SOL    HW1 6575   0.255   0.387   2.924
 1892SOL    HW2 6576   0.112   0.407   2.848
 1893SOL     OW 6577   4.025   3.272   4.242
 1893SOL    HW1 6578   3.929   3.298   4.237
 1893SOL    HW2 6579   4.047   3.241   4.334
 1894SOL     OW 6580   3.391   2.965   4.279
 1894SOL    HW1 6581   3.374   3.044   4.338
 1894SOL    HW2 6582   3.354   2.983   4.187
 1895SOL     OW 6583   0.993   6.261   1.190
 1895SOL    HW1 6584   1.054   6.261   1.269
 1895SOL    HW2 6585   0.968   6.166   1.168
 1896SOL     OW 6586   5.948   2.951   1.263
 1896SOL    HW1 6587   5.852   2.940   1.289
 1896SOL    HW2 6588   6.004   2.886   1.314
 1897SOL     OW 6589   1.947   4.430   3.369
 1897SOL    HW1 6590   1.929   4.338   3.402
 1897SOL    HW2 6591   1.863   4.470   3.332
 1898SOL     OW 6592   1.628   5.968   2.505
 1898SOL    HW1 6593   1.620   5.974   2.604
 1898SOL    HW2 6594   1.725   5.972   2.479
 1899SOL     OW 6595   0.072   0.742   2.020
 1899SOL    HW1 6596   0.087   0.657   1.971
 1899SOL    HW2 6597   7.021   0.731   2.083
 1900SOL     OW 6598   2.935   6.402   6.611
 1900SOL    HW1 6599   2.978   6.313   6.629
 1900SOL    HW2 6600   2.841   6.387   6.579
 1901SOL     OW 6601   3.291   2.905   2.737
 1901SOL    HW1 6602   3.197   2.940   2.729
 1901SOL    HW2 6603   3.315   2.856   2.654
 1902SOL     OW 6604   1.374   6.761   5.353
 1902SOL    HW1 6605   1.301   6.725   5.411
 1902SOL    HW2 6606   1.382   6.705   5.270
 1903SOL     OW 6607   1.231   1.709   4.111
 1903SOL    HW1 6608   1.166   1.661   4.170
 1903SOL    HW2 6609   1.246   1.801   4.145
 1904SOL     OW 6610   6.012   5.597   1.772
 1904SOL    HW1 6611   5.972   5.512   1.806
 1904SOL    HW2 6612   6.041   5.653   1.849
 1905SOL     OW 6613   0.402   3.016   4.052
 1905SOL    HW1 6614   0.368   3.037   3.960
 1905SOL    HW2 6615   0.428   3.101   4.098
 1906SOL     OW 6616   0.318   5.928   4.059
 1906SOL    HW1 6617   0.349   5.935   3.964
 1906SOL    HW2 6618   0.288   5.834   4.078
 1907SOL     OW 6619   6.009   3.221   0.959
 1907SOL    HW1 6620   6.041   3.129   0.981
 1907SOL    HW2 6621   5.992   3.228   0.861
 1908SOL     OW 6622   3.819   0.749   1.651
 1908SOL    HW1 6623   3.764   0.687   1.707
 1908SOL    HW2 6624   3.809   0.843   1.685
 1909SOL     OW 6625   6.209   5.480   5.197
 1909SOL    HW1 6626   6.115   5.492   5.227
 1909SOL    HW2 6627   6.271   5.522   5.262
 1910SOL     OW 6628   0.309   6.313   5.328
 1910SOL    HW1 6629   0.330   6.240   5.393
 1910SOL    HW2 6630   0.319   6.402   5.373
 1911SOL     OW 6631   5.585   6.254   3.981
 1911SOL    HW1 6632   5.590   6.241   4.080
 1911SOL    HW2 6633   5.572   6.166   3.936
 1912SOL     OW 6634   3.314   4.840   2.059
 1912SOL    HW1 6635   3.303   4.895   2.142
 1912SOL    HW2 6636   3.407   4.804   2.054
 1913SOL     OW 6637   3.227   4.135   6.391
 1913SOL    HW1 6638   3.314   4.105   6.430
 1913SOL    HW2 6639   3.243   4.212   6.329
 1914SOL     OW 6640   3.864   4.313   0.321
 1914SOL    HW1 6641   3.914   4.289   0.237
 1914SOL    HW2 6642   3.787   4.251   0.333
 1915SOL     OW 6643   3.761   2.390   0.049
 1915SOL    HW1 6644   3.779   2.339   6.992
 1915SOL    HW2 6645   3.748   2.327   0.125
 1916SOL     OW 6646   3.921   1.093   2.645
 1916SOL    HW1 6647   3.881   1.175   2.604
 1916SOL    HW2 6648   4.006   1.117   2.692
 1917SOL     OW 6649   2.291   3.718   1.479
 1917SOL    HW1 6650   2.259   3.783   1.548
 1917SOL    HW2 6651   2.363   3.660   1.519
 1918SOL     OW 6652   5.167   2.975   4.116
 1918SOL    HW1 6653   5.188   2.937   4.026
 1918SOL    HW2 6654   5.141   3.071   4.106
 1919SOL     OW 6655   6.560   1.602   6.200
 1919SOL    HW1 6656   6.631   1.571   6.137
 1919SOL    HW2 6657   6.543   1.530   6.268
 1920SOL     OW 6658   4.514   3.670   0.563
 1920SOL    HW1 6659   4.550   3.692   0.654
 1920SOL    HW2 6660   4.587   3.631   0.507
 1921SOL     OW 6661   3.063   2.410   6.814
 1921SOL    HW1 6662   3.146   2.459   6.839
 1921SOL    HW2 6663   3.077   2.311   6.826
 1922SOL     OW 6664   3.451   3.570   4.537
 1922SOL    HW1 6665   3.463   3.537   4.630
 1922SOL    HW2 6666   3.353   3.569   4.514
 1923SOL     OW 6667   3.333   0.728   3.778
 1923SOL    HW1 6668   3.421   0.712   3.733
 1923SOL    HW2 6669   3.266   0.757   3.710
 1924SOL     OW 6670   5.380   0.760   0.942
 1924SOL    HW1 6671   5.288   0.744   0.906
 1924SOL    HW2 6672   5.446   0.760   0.867
 1925SOL     OW 6673   1.044   4.248   0.948
 1925SOL    HW1 6674   1.138   4.246   0.982
 1925SOL    HW2 6675   0.982   4.226   1.023
 1926SOL     OW 6676   3.237   6.603   1.643
 1926SOL    HW1 6677   3.155   6.628   1.694
 1926SOL    HW2 6678   3.212   6.578   1.550
 1927SOL     OW 6679   2.141   5.528   0.764
 1927SOL    HW1 6680   2.063   5.525   0.701
 1927SOL    HW2 6681   2.131   5.456   0.832
 1928SOL     OW 6682   0.321   4.472   2.598
 1928SOL    HW1 6683   0.295   4.443   2.690
 1928SOL    HW2 6684   0.364   4.395   2.550
 1929SOL     OW 6685   3.826   0.570   3.340
 1929SOL    HW1 6686   3.891   0.577   3.265
 1929SOL    HW2 6687   3.760   0.497   3.321
 1930SOL     OW 6688   3.828   3.707   0.344
 1930SOL    HW1 6689   3.877   3.700   0.431
 1930SOL    HW2 6690   3.734   3.678   0.356
 1931SOL     OW 6691   6.583   3.709   3.409
 1931SOL    HW1 6692   6.609   3.623   3.453
 1931SOL    HW2 6693   6.614   3.708   3.314
 1932SOL     OW 6694   4.843   0.448   2.043
 1932SOL    HW1 6695   4.937   0.481   2.042
 1932SOL    HW2 6696   4.832   0.374   1.976
 1933SOL     OW 6697   1.899   1.296   1.178
 1933SOL    HW1 6698   1.848   1.361   1.122
 1933SOL    HW2 6699   1.990   1.333   1.198
 1934SOL     OW 6700   6.251   0.620   6.905
 1934SOL    HW1 6701   6.279   0.697   6.962
 1934SOL    HW2 6702   6.278   0.535   6.949
 1935SOL     OW 6703   6.167   5.135   3.726
 1935SOL    HW1 6704   6.069   5.156   3.735
 1935SOL    HW2 6705   6.193   5.068   3.795
 1936SOL     OW 6706   5.451   3.381   6.380
 1936SOL    HW1 6707   5.412   3.325   6.306
 1936SOL    HW2 6708   5.491   3.464   6.341
 1937SOL     OW 6709   0.711   4.941   6.685
 1937SOL    HW1 6710   0.751   4.950   6.776
 1937SOL    HW2 6711   0.699   5.031   6.644
 1938SOL     OW 6712   6.548   2.225   6.576
 1938SOL    HW1 6713   6.454   2.217   6.608
 1938SOL    HW2 6714   6.579   2.136   6.541
 1939SOL     OW 6715   0.017   0.288   4.212
 1939SOL    HW1 6716   6.960   0.237   4.232
 1939SOL    HW2 6717   7.022   0.386   4.208
 1940SOL     OW 6718   0.778   5.531   1.593
 1940SOL    HW1 6719   0.712   5.465   1.627
 1940SOL    HW2 6720   0.869   5.510   1.629
 1941SOL     OW 6721   6.110   0.513   4.238
 1941SOL    HW1 6722   6.157   0.459   4.308
 1941SOL    HW2 6723   6.021   0.543   4.273
 1942SOL     OW 6724   0.643   5.656   1.966
 1942SOL    HW1 6725   0.732   5.613   1.982
 1942SOL    HW2 6726   0.617   5.711   2.045
 1943SOL     OW 6727   1.244   3.588   4.199
 1943SOL    HW1 6728   1.168   3.546   4.249
 1943SOL    HW2 6729   1.330   3.563   4.242
 1944SOL     OW 6730   0.248   3.597   4.169
 1944SOL    HW1 6731   0.318   3.666   4.153
 1944SOL    HW2 6732   0.158   3.634   4.145
 1945SOL     OW 6733   5.169   1.749   2.142
 1945SOL    HW1 6734   5.237   1.768   2.212
 1945SOL    HW2 6735   5.213   1.704   2.064
 1946SOL     OW 6736   5.967   5.449   6.889
 1946SOL    HW1 6737   5.943   5.407   6.801
 1946SOL    HW2 6738   6.034   5.391   6.936
 1947SOL     OW 6739   5.695   5.545   2.655
 1947SOL    HW1 6740   5.610   5.558   2.705
 1947SOL    HW2 6741   5.679   5.487   2.575
 1948SOL     OW 6742   5.465   3.568   3.329
 1948SOL    HW1 6743   5.373   3.564   3.290
 1948SOL    HW2 6744   5.499   3.476   3.345
 1949SOL     OW 6745   3.458   4.045   6.499
 1949SOL    HW1 6746   3.421   4.024   6.590
 1949SOL    HW2 6747   3.552   4.077   6.508
 1950SOL     OW 6748   3.731   3.879   3.648
 1950SOL    HW1 6749   3.703   3.952   3.587
 1950SOL    HW2 6750   3.712   3.790   3.606
 1951SOL     OW 6751   0.189   5.571   6.210
 1951SOL    HW1 6752   0.112   5.629   6.235
 1951SOL    HW2 6753   0.268   5.629   6.187
 1952SOL     OW 6754   5.854   4.162   6.892
 1952SOL    HW1 6755   5.930   4.105   6.925
 1952SOL    HW2 6756   5.887   4.255   6.877
 1953SOL     OW 6757   0.368   0.862   6.848
 1953SOL    HW1 6758   0.308   0.923   6.796
 1953SOL    HW2 6759   0.426   0.811   6.784
 1954SOL     OW 6760   3.630   6.611   2.782
 1954SOL    HW1 6761   3.617   6.584   2.877
 1954SOL    HW2 6762   3.541   6.625   2.738
 1955SOL     OW 6763   6.738   3.325   4.082
 1955SOL    HW1 6764   6.707   3.293   4.171
 1955SOL    HW2 6765   6.783   3.250   4.033
 1956SOL     OW 6766   4.333   1.754   1.383
 1956SOL    HW1 6767   4.304   1.675   1.436
 1956SOL    HW2 6768   4.432   1.757   1.377
 1957SOL     OW 6769   6.733   2.851   4.540
 1957SOL    HW1 6770   6.701   2.789   4.612
 1957SOL    HW2 6771   6.760   2.938   4.581
 1958SOL     OW 6772   5.184   2.534   0.113
 1958SOL    HW1 6773   5.173   2.466   0.185
 1958SOL    HW2 6774   5.095   2.556   0.073
 1959SOL     OW 6775   1.612   1.425   6.122
 1959SOL    HW1 6776   1.582   1.464   6.035
 1959SOL    HW2 6777   1.603   1.326   6.119
 1960SOL     OW 6778   4.876   4.784   2.154
 1960SOL    HW1 6779   4.974   4.765   2.158
 1960SOL    HW2 6780   4.829   4.730   2.223
 1961SOL     OW 6781   0.588   3.910   4.278
 1961SOL    HW1 6782   0.671   3.931   4.329
 1961SOL    HW2 6783   0.520   3.983   4.293
 1962SOL     OW 6784   0.701   0.113   2.374
 1962SOL    HW1 6785   0.674   0.110   2.278
 1962SOL    HW2 6786   0.725   0.207   2.399
 1963SOL     OW 6787   0.975   1.487   6.913
 1963SOL    HW1 6788   1.002   1.584   6.918
 1963SOL    HW2 6789   0.933   1.460   6.999
 1964SOL     OW 6790   5.277   3.283   0.402
 1964SOL    HW1 6791   5.239   3.241   0.320
 1964SOL    HW2 6792   5.213   3.273   0.478
 1965SOL     OW 6793   5.504   4.539   5.025
 1965SOL    HW1 6794   5.408   4.561   5.009
 1965SOL    HW2 6795   5.523   4.448   4.990
 1966SOL     OW 6796   1.466   5.149   6.366
 1966SOL    HW1 6797   1.445   5.055   6.395
 1966SOL    HW2 6798   1.395   5.181   6.305
 1967SOL     OW 6799   6.644   2.428   4.590
 1967SOL    HW1 6800   6.741   2.423   4.615
 1967SOL    HW2 6801   6.636   2.437   4.490
 1968SOL     OW 6802   2.704   1.230   6.055
 1968SOL    HW1 6803   2.632   1.161   6.049
 1968SOL    HW2 6804   2.732   1.258   5.964
 1969SOL     OW 6805   6.948   6.346   1.810
 1969SOL    HW1 6806   7.018   6.417   1.803
 1969SOL    HW2 6807   6.980   6.272   1.869
 1970SOL     OW 6808   5.205   4.341   2.926
 1970SOL    HW1 6809   5.116   4.297   2.918
 1970SOL    HW2 6810   5.277   4.272   2.936
 1971SOL     OW 6811   1.542   5.312   4.172
 1971SOL    HW1 6812   1.521   5.225   4.127
 1971SOL    HW2 6813   1.486   5.321   4.254
 1972SOL     OW 6814   5.153   1.950   2.936
 1972SOL    HW1 6815   5.118   1.898   3.015
 1972SOL    HW2 6816   5.132   1.900   2.852
 1973SOL     OW 6817   4.670   2.394   0.237
 1973SOL    HW1 6818   4.611   2.424   0.312
 1973SOL    HW2 6819   4.765   2.396   0.266
 1974SOL     OW 6820   2.250   6.052   4.540
 1974SOL    HW1 6821   2.154   6.023   4.534
 1974SOL    HW2 6822   2.296   5.998   4.610
 1975SOL     OW 6823   2.339   2.524   2.526
 1975SOL    HW1 6824   2.336   2.621   2.551
 1975SOL    HW2 6825   2.434   2.494   2.519
 1976SOL     OW 6826   2.461   0.729   4.677
 1976SOL    HW1 6827   2.527   0.749   4.604
 1976SOL    HW2 6828   2.431   0.815   4.720
 1977SOL     OW 6829   1.201   4.566   0.038
 1977SOL    HW1 6830   1.296   4.537   0.024
 1977SOL    HW2 6831   1.192   4.662   0.015
 1978SOL     OW 6832   2.563   0.596   2.702
 1978SOL    HW1 6833   2.586   0.585   2.799
 1978SOL    HW2 6834   2.645   0.622   2.651
 1979SOL     OW 6835   5.549   3.512   6.852
 1979SOL    HW1 6836   5.573   3.472   6.940
 1979SOL    HW2 6837   5.454   3.543   6.854
 1980SOL     OW 6838   4.150   0.512   1.691
 1980SOL    HW1 6839   4.084   0.487   1.620
 1980SOL    HW2 6840   4.225   0.564   1.650
 1981SOL     OW 6841   4.522   2.554   1.881
 1981SOL    HW1 6842   4.466   2.503   1.816
 1981SOL    HW2 6843   4.539   2.646   1.845
 1982SOL     OW 6844   2.029   2.577   6.887
 1982SOL    HW1 6845   2.049   2.622   6.800
 1982SOL    HW2 6846   2.115   2.554   6.932
 1983SOL     OW 6847   6.935   2.299   1.457
 1983SOL    HW1 6848   6.945   2.220   1.397
 1983SOL    HW2 6849   6.897   2.269   1.545
 1984SOL     OW 6850   4.747   3.294   5.865
 1984SOL    HW1 6851   4.709   3.228   5.801
 1984SOL    HW2 6852   4.723   3.387   5.835
 1985SOL     OW 6853   5.670   5.320   4.545
 1985SOL    HW1 6854   5.747   5.274   4.589
 1985SOL    HW2 6855   5.623   5.378   4.611
 1986SOL     OW 6856   3.009   3.212   2.803
 1986SOL    HW1 6857   3.052   3.302   2.795
 1986SOL    HW2 6858   2.997   3.173   2.712
 1987SOL     OW 6859   1.932   1.341   2.273
 1987SOL    HW1 6860   1.954   1.298   2.361
 1987SOL    HW2 6861   2.016   1.379   2.233
 1988SOL     OW 6862   0.874   1.660   3.159
 1988SOL    HW1 6863   0.808   1.675   3.086
 1988SOL    HW2 6864   0.927   1.743   3.174
 1989SOL     OW 6865   3.318   5.530   3.559
 1989SOL    HW1 6866   3.363   5.619   3.565
 1989SOL    HW2 6867   3.384   5.458   3.581
 1990SOL     OW 6868   4.172   6.817   0.554
 1990SOL    HW1 6869   4.269   6.816   0.530
 1990SOL    HW2 6870   4.159   6.768   0.640
 1991SOL     OW 6871   2.920   5.335   2.228
 1991SOL    HW1 6872   2.945   5.392   2.306
 1991SOL    HW2 6873   3.002   5.302   2.182
 1992SOL     OW 6874   1.346   6.994   3.665
 1992SOL    HW1 6875   1.321   0.060   3.636
 1992SOL    HW2 6876   1.405   6.952   3.596
 1993SOL     OW 6877   1.416   1.032   1.916
 1993SOL    HW1 6878   1.478   0.987   1.852
 1993SOL    HW2 6879   1.439   1.130   1.921
 1994SOL     OW 6880   2.938   3.270   1.967
 1994SOL    HW1 6881   2.947   3.209   1.888
 1994SOL    HW2 6882   2.903   3.359   1.937
 1995SOL     OW 6883   6.382   0.650   4.254
 1995SOL    HW1 6884   6.373   0.728   4.192
 1995SOL    HW2 6885   6.297   0.638   4.306
 1996SOL     OW 6886   5.007   0.239   1.335
 1996SOL    HW1 6887   4.959   0.176   1.274
 1996SOL    HW2 6888   4.941   0.286   1.394
 1997SOL     OW 6889   3.384   1.717   2.862
 1997SOL    HW1 6890   3.466   1.668   2.894
 1997SOL    HW2 6891   3.303   1.681   2.908
 1998SOL     OW 6892   2.346   3.374   1.417
 1998SOL    HW1 6893   2.338   3.362   1.516
 1998SOL    HW2 6894   2.366   3.470   1.397
 1999SOL     OW 6895   0.845   6.991   5.852
 1999SOL    HW1 6896   0.780   6.960   5.783
 1999SOL    HW2 6897   0.832   6.939   5.936
 2000SOL     OW 6898   4.649   4.119   6.714
 2000SOL    HW1 6899   4.643   4.068   6.800
 2000SOL    HW2 6900   4.731   4.178   6.716
 2001SOL     OW 6901   1.465   1.975   0.634
 2001SOL    HW1 6902   1.563   1.989   0.625
 2001SOL    HW2 6903   1.434   2.012   0.722
 2002SOL     OW 6904   6.360   4.943   6.852
 2002SOL    HW1 6905   6.350   4.959   6.754
 2002SOL    HW2 6906   6.433   4.877   6.868
 2003SOL     OW 6907   6.430   5.865   0.971
 2003SOL    HW1 6908   6.468   5.834   0.884
 2003SOL    HW2 6909   6.495   5.847   1.044
 2004SOL     OW 6910   3.525   0.649   2.535
 2004SOL    HW1 6911   3.446   0.601   2.574
 2004SOL    HW2 6912   3.497   0.739   2.504
 2005SOL     OW 6913   1.786   6.281   0.041
 2005SOL    HW1 6914   1.780   6.258   0.139
 2005SOL    HW2 6915   1.714   6.233   7.018
 2006SOL     OW 6916   6.084   0.093   1.908
 2006SOL    HW1 6917   6.100   7.022   1.920
 2006SOL    HW2 6918   6.169   0.138   1.880
 2007SOL     OW 6919   5.905   5.366   5.590
 2007SOL    HW1 6920   5.962   5.399   5.665
 2007SOL    HW2 6921   5.843   5.295   5.624
 2008SOL     OW 6922   1.711   3.069   2.736
 2008SOL    HW1 6923   1.741   3.038   2.645
 2008SOL    HW2 6924   1.637   3.011   2.769
 2009SOL     OW 6925   6.055   0.496   3.564
 2009SOL    HW1 6926   6.109   0.535   3.639
 2009SOL    HW2 6927   6.065   0.397   3.564
 2010SOL     OW 6928   6.998   1.213   1.621
 2010SOL    HW1 6929   7.016   1.169   1.533
 2010SOL    HW2 6930   0.048   1.274   1.643
 2011SOL     OW 6931   0.935   0.380   5.047
 2011SOL    HW1 6932   0.960   0.287   5.074
 2011SOL    HW2 6933   0.935   0.386   4.947
 2012SOL     OW 6934   6.816   2.229   0.446
 2012SOL    HW1 6935   6.755   2.179   0.508
 2012SOL    HW2 6936   6.808   2.191   0.354
 2013SOL     OW 6937   0.727   2.779   2.151
 2013SOL    HW1 6938   0.820   2.742   2.152
 2013SOL    HW2 6939   0.731   2.878   2.164
 2014SOL     OW 6940   3.955   1.744   3.682
 2014SOL    HW1 6941   4.019   1.717   3.754
 2014SOL    HW2 6942   3.931   1.840   3.695
 2015SOL     OW 6943   3.943   6.239   1.549
 2015SOL    HW1 6944   3.915   6.326   1.508
 2015SOL    HW2 6945   3.955   6.171   1.476
 2016SOL     OW 6946   2.266   0.929   4.718
 2016SOL    HW1 6947   2.272   1.013   4.771
 2016SOL    HW2 6948   2.170   0.903   4.707
 2017SOL     OW 6949   1.790   6.959   4.538
 2017SOL    HW1 6950   1.691   6.947   4.534
 2017SOL    HW2 6951   1.811   0.025   4.569
 2018SOL     OW 6952   0.236   0.956   4.441
 2018SOL    HW1 6953   0.236   0.865   4.483
 2018SOL    HW2 6954   0.327   0.973   4.401
 2019SOL     OW 6955   0.595   5.170   6.929
 2019SOL    HW1 6956   0.633   5.093   6.980
 2019SOL    HW2 6957   0.497   5.178   6.948
 2020SOL     OW 6958   1.602   6.935   1.619
 2020SOL    HW1 6959   1.583   7.002   1.547
 2020SOL    HW2 6960   1.610   6.844   1.578
 2021SOL     OW 6961   0.152   5.118   3.563
 2021SOL    HW1 6962   0.132   5.024   3.536
 2021SOL    HW2 6963   0.242   5.122   3.607
 2022SOL     OW 6964   2.035   2.798   3.949
 2022SOL    HW1 6965   1.993   2.765   4.033
 2022SOL    HW2 6966   2.123   2.841   3.971
 2023SOL     OW 6967   0.656   5.637   6.747
 2023SOL    HW1 6968   0.663   5.652   6.648
 2023SOL    HW2 6969   0.624   5.544   6.765
 2024SOL     OW 6970   6.369   6.034   3.472
 2024SOL    HW1 6971   6.358   6.008   3.568
 2024SOL    HW2 6972   6.467   6.043   3.450
 2025SOL     OW 6973   1.969   0.492   4.409
 2025SOL    HW1 6974   1.930   0.409   4.368
 2025SOL    HW2 6975   2.050   0.520   4.356
 2026SOL     OW 6976   1.488   6.962   5.596
 2026SOL    HW1 6977   1.409   6.974   5.535
 2026SOL    HW2 6978   1.572   6.982   5.545
 2027SOL     OW 6979   6.338   6.563   2.642
 2027SOL    HW1 6980   6.260   6.567   2.579
 2027SOL    HW2 6981   6.307   6.533   2.732
 2028SOL     OW 6982   1.908   6.068   4.856
 2028SOL    HW1 6983   1.860   6.130   4.918
 2028SOL    HW2 6984   1.846   5.994   4.829
 2029SOL     OW 6985   6.778   2.108   0.183
 2029SOL    HW1 6986   6.846   2.106   0.110
 2029SOL    HW2 6987   6.718   2.028   0.175
 2030SOL     OW 6988   1.569   6.014   2.774
 2030SOL    HW1 6989   1.540   6.102   2.812
 2030SOL    HW2 6990   1.607   5.957   2.846
 2031SOL     OW 6991   6.994   0.096   5.072
 2031SOL    HW1 6992   6.991   0.037   5.153
 2031SOL    HW2 6993   6.937   0.176   5.088
 2032SOL     OW 6994   2.629   2.908   6.436
 2032SOL    HW1 6995   2.629   2.891   6.337
 2032SOL    HW2 6996   2.704   2.859   6.479
 2033SOL     OW 6997   2.808   6.780   1.494
 2033SOL    HW1 6998   2.900   6.788   1.533
 2033SOL    HW2 6999   2.740   6.801   1.564
 2034SOL     OW 7000   0.850   3.657   4.772
 2034SOL    HW1 7001   0.757   3.630   4.797
 2034SOL    HW2 7002   0.916   3.607   4.828
 2035SOL     OW 7003   5.224   6.059   3.244
 2035SOL    HW1 7004   5.271   6.139   3.281
 2035SOL    HW2 7005   5.125   6.073   3.250
 2036SOL     OW 7006   0.035   3.104   6.223
 2036SOL    HW1 7007   0.117   3.056   6.192
 2036SOL    HW2 7008   0.054   3.202   6.226
 2037SOL     OW 7009   1.292   2.594   0.011
 2037SOL    HW1 7010   1.198   2.608   7.006
 2037SOL    HW2 7011   1.355   2.636   6.972
 2038SOL     OW 7012   1.680   0.759   5.950
 2038SOL    HW1 7013   1.683   0.748   5.850
 2038SOL    HW2 7014   1.711   0.851   5.974
 2039SOL     OW 7015   5.380   6.022   4.115
 2039SOL    HW1 7016   5.384   5.931   4.075
 2039SOL    HW2 7017   5.473   6.057   4.127
 2040SOL     OW 7018   2.916   1.568   0.968
 2040SOL    HW1 7019   2.862   1.640   0.924
 2040SOL    HW2 7020   2.862   1.485   0.976
 2041SOL     OW 7021   3.169   0.031   6.986
 2041SOL    HW1 7022   3.098   6.995   7.016
 2041SOL    HW2 7023   3.197   0.090   0.036
 2042SOL     OW 7024   0.055   0.191   4.816
 2042SOL    HW1 7025   0.122   0.262   4.838
 2042SOL    HW2 7026   0.007   0.164   4.899
 2043SOL     OW 7027   1.281   3.457   0.326
 2043SOL    HW1 7028   1.303   3.462   0.229
 2043SOL    HW2 7029   1.364   3.467   0.381
 2044SOL     OW 7030   3.874   0.566   2.445
 2044SOL    HW1 7031   3.875   0.658   2.482
 2044SOL    HW2 7032   3.950   0.513   2.483
 2045SOL     OW 7033   1.866   5.638   3.166
 2045SOL    HW1 7034   1.930   5.692   3.111
 2045SOL    HW2 7035   1.879   5.659   3.263
 2046SOL     OW 7036   0.493   2.473   6.046
 2046SOL    HW1 7037   0.561   2.505   6.112
 2046SOL    HW2 7038   0.404   2.464   6.090
 2047SOL     OW 7039   6.919   0.175   2.105
 2047SOL    HW1 7040   7.004   0.163   2.156
 2047SOL    HW2 7041   6.908   0.271   2.081
 2048SOL     OW 7042   1.708   1.292   3.635
 2048SOL    HW1 7043   1.715   1.196   3.606
 2048SOL    HW2 7044   1.689   1.295   3.733
 2049SOL     OW 7045   4.170   1.917   5.515
 2049SOL    HW1 7046   4.093   1.896   5.456
 2049SOL    HW2 7047   4.252   1.932   5.460
 2050SOL     OW 7048   0.362   0.994   2.257
 2050SOL    HW1 7049   0.445   1.043   2.231
 2050SOL    HW2 7050   0.387   0.917   2.317
 2051SOL     OW 7051   3.425   0.103   6.364
 2051SOL    HW1 7052   3.456   0.114   6.459
 2051SOL    HW2 7053   3.393   0.009   6.351
 2052SOL     OW 7054   0.230   4.639   0.529
 2052SOL    HW1 7055   0.222   4.608   0.624
 2052SOL    HW2 7056   0.139   4.638   0.486
 2053SOL     OW 7057   4.257   5.088   1.633
 2053SOL    HW1 7058   4.228   5.165   1.689
 2053SOL    HW2 7059   4.232   5.002   1.678
 2054SOL     OW 7060   2.892   3.652   3.421
 2054SOL    HW1 7061   2.853   3.624   3.509
 2054SOL    HW2 7062   2.866   3.747   3.402
 2055SOL     OW 7063   3.674   3.211   5.542
 2055SOL    HW1 7064   3.599   3.149   5.563
 2055SOL    HW2 7065   3.653   3.302   5.578
 2056SOL     OW 7066   2.639   5.503   2.248
 2056SOL    HW1 7067   2.666   5.433   2.183
 2056SOL    HW2 7068   2.710   5.574   2.251
 2057SOL     OW 7069   6.493   3.340   3.740
 2057SOL    HW1 7070   6.515   3.389   3.656
 2057SOL    HW2 7071   6.540   3.251   3.740
 2058SOL     OW 7072   5.765   0.295   3.764
 2058SOL    HW1 7073   5.775   0.350   3.847
 2058SOL    HW2 7074   5.724   0.350   3.692
 2059SOL     OW 7075   2.414   1.192   5.762
 2059SOL    HW1 7076   2.482   1.237   5.705
 2059SOL    HW2 7077   2.449   1.183   5.855
 2060SOL     OW 7078   1.365   2.394   6.448
 2060SOL    HW1 7079   1.390   2.347   6.533
 2060SOL    HW2 7080   1.430   2.371   6.377
 2061SOL     OW 7081   2.417   2.747   3.733
 2061SOL    HW1 7082   2.358   2.826   3.749
 2061SOL    HW2 7083   2.426   2.694   3.817
 2062SOL     OW 7084   4.998   5.351   3.805
 2062SOL    HW1 7085   4.898   5.353   3.808
 2062SOL    HW2 7086   5.034   5.401   3.884
 2063SOL     OW 7087   1.225   1.795   4.541
 2063SOL    HW1 7088   1.144   1.851   4.522
 2063SOL    HW2 7089   1.297   1.853   4.580
 2064SOL     OW 7090   0.615   3.869   4.633
 2064SOL    HW1 7091   0.520   3.865   4.665
 2064SOL    HW2 7092   0.642   3.779   4.599
 2065SOL     OW 7093   3.428   3.938   5.999
 2065SOL    HW1 7094   3.445   3.916   6.095
 2065SOL    HW2 7095   3.345   3.994   5.991
 2066SOL     OW 7096   2.357   2.336   4.209
 2066SOL    HW1 7097   2.311   2.421   4.237
 2066SOL    HW2 7098   2.342   2.266   4.279
 2067SOL     OW 7099   6.704   4.848   2.453
 2067SOL    HW1 7100   6.700   4.946   2.432
 2067SOL    HW2 7101   6.653   4.797   2.384
 2068SOL     OW 7102   3.283   7.018   4.234
 2068SOL    HW1 7103   3.356   6.957   4.266
 2068SOL    HW2 7104   3.277   0.071   4.294
 2069SOL     OW 7105   5.807   2.331   3.025
 2069SOL    HW1 7106   5.880   2.377   2.973
 2069SOL    HW2 7107   5.780   2.247   2.976
 2070SOL     OW 7108   0.129   5.367   1.589
 2070SOL    HW1 7109   0.192   5.440   1.618
 2070SOL    HW2 7110   0.080   5.332   1.668
 2071SOL     OW 7111   6.673   2.199   3.777
 2071SOL    HW1 7112   6.759   2.235   3.814
 2071SOL    HW2 7113   6.597   2.236   3.830
 2072SOL     OW 7114   5.116   3.022   5.821
 2072SOL    HW1 7115   5.029   2.975   5.837
 2072SOL    HW2 7116   5.102   3.121   5.827
 2073SOL     OW 7117   3.283   5.271   6.582
 2073SOL    HW1 7118   3.218   5.332   6.628
 2073SOL    HW2 7119   3.374   5.285   6.621
 2074SOL     OW 7120   3.620   4.633   5.589
 2074SOL    HW1 7121   3.704   4.579   5.592
 2074SOL    HW2 7122   3.586   4.637   5.495
 2075SOL     OW 7123   5.141   0.662   0.856
 2075SOL    HW1 7124   5.120   0.638   0.951
 2075SOL    HW2 7125   5.057   0.660   0.802
 2076SOL     OW 7126   0.040   0.123   3.989
 2076SOL    HW1 7127   0.094   0.050   4.031
 2076SOL    HW2 7128   0.027   0.198   4.054
 2077SOL     OW 7129   1.052   4.324   0.670
 2077SOL    HW1 7130   1.057   4.302   0.767
 2077SOL    HW2 7131   1.068   4.422   0.658
 2078SOL     OW 7132   0.935   2.639   0.337
 2078SOL    HW1 7133   1.023   2.613   0.296
 2078SOL    HW2 7134   0.898   2.561   0.388
 2079SOL     OW 7135   5.219   2.252   3.473
 2079SOL    HW1 7136   5.174   2.291   3.554
 2079SOL    HW2 7137   5.233   2.324   3.405
 2080SOL     OW 7138   2.220   2.973   5.274
 2080SOL    HW1 7139   2.170   2.888   5.258
 2080SOL    HW2 7140   2.261   3.003   5.188
 2081SOL     OW 7141   0.073   5.889   3.254
 2081SOL    HW1 7142   0.120   5.834   3.184
 2081SOL    HW2 7143   0.118   5.876   3.342
 2082SOL     OW 7144   6.617   6.483   3.757
 2082SOL    HW1 7145   6.558   6.404   3.776
 2082SOL    HW2 7146   6.712   6.460   3.780
 2083SOL     OW 7147   0.968   5.684   3.224
 2083SOL    HW1 7148   0.883   5.737   3.234
 2083SOL    HW2 7149   1.013   5.676   3.313
 2084SOL     OW 7150   5.756   2.682   1.502
 2084SOL    HW1 7151   5.663   2.651   1.519
 2084SOL    HW2 7152   5.757   2.749   1.427
 2085SOL     OW 7153   6.381   5.367   0.038
 2085SOL    HW1 7154   6.408   5.390   6.971
 2085SOL    HW2 7155   6.373   5.267   0.046
 2086SOL     OW 7156   5.303   0.265   5.894
 2086SOL    HW1 7157   5.307   0.169   5.868
 2086SOL    HW2 7158   5.211   0.300   5.881
 2087SOL     OW 7159   5.085   1.331   6.192
 2087SOL    HW1 7160   5.099   1.324   6.291
 2087SOL    HW2 7161   5.172   1.316   6.145
 2088SOL     OW 7162   0.270   3.143   5.444
 2088SOL    HW1 7163   0.339   3.072   5.454
 2088SOL    HW2 7164   0.184   3.113   5.485
 2089SOL     OW 7165   3.023   4.899   4.448
 2089SOL    HW1 7166   3.045   4.873   4.542
 2089SOL    HW2 7167   3.003   4.997   4.444
 2090SOL     OW 7168   4.943   2.462   5.972
 2090SOL    HW1 7169   4.911   2.367   5.977
 2090SOL    HW2 7170   5.000   2.474   5.891
 2091SOL     OW 7171   5.691   6.542   1.017
 2091SOL    HW1 7172   5.635   6.512   1.094
 2091SOL    HW2 7173   5.632   6.564   0.939
 2092SOL     OW 7174   3.558   2.982   2.851
 2092SOL    HW1 7175   3.638   2.959   2.795
 2092SOL    HW2 7176   3.475   2.965   2.798
 2093SOL     OW 7177   4.573   0.269   0.178
 2093SOL    HW1 7178   4.668   0.281   0.149
 2093SOL    HW2 7179   4.516   0.339   0.136
 2094SOL     OW 7180   4.417   2.850   1.517
 2094SOL    HW1 7181   4.333   2.891   1.482
 2094SOL    HW2 7182   4.427   2.757   1.481
 2095SOL     OW 7183   4.648   5.614   3.687
 2095SOL    HW1 7184   4.659   5.630   3.785
 2095SOL    HW2 7185   4.604   5.693   3.645
 2096SOL     OW 7186   3.728   0.313   2.685
 2096SOL    HW1 7187   3.822   0.309   2.653
 2096SOL    HW2 7188   3.666   0.285   2.611
 2097SOL     OW 7189   2.369   5.535   5.523
 2097SOL    HW1 7190   2.318   5.470   5.466
 2097SOL    HW2 7191   2.390   5.492   5.611
 2098SOL     OW 7192   2.027   0.061   4.029
 2098SOL    HW1 7193   2.066   7.021   4.093
 2098SOL    HW2 7194   1.928   0.047   4.023
 2099SOL     OW 7195   4.466   1.694   0.045
 2099SOL    HW1 7196   4.488   1.679   6.975
 2099SOL    HW2 7197   4.514   1.775   0.078
 2100SOL     OW 7198   4.333   0.219   0.928
 2100SOL    HW1 7199   4.280   0.162   0.865
 2100SOL    HW2 7200   4.430   0.199   0.917
 2101SOL     OW 7201   1.206   0.258   2.460
 2101SOL    HW1 7202   1.289   0.313   2.449
 2101SOL    HW2 7203   1.152   0.263   2.375
 2102SOL     OW 7204   3.710   2.896   2.412
 2102SOL    HW1 7205   3.777   2.954   2.366
 2102SOL    HW2 7206   3.643   2.862   2.345
 2103SOL     OW 7207   1.818   0.176   1.624
 2103SOL    HW1 7208   1.728   0.189   1.584
 2103SOL    HW2 7209   1.888   0.198   1.556
 2104SOL     OW 7210   0.927   4.080   2.363
 2104SOL    HW1 7211   0.916   4.074   2.462
 2104SOL    HW2 7212   1.018   4.113   2.341
 2105SOL     OW 7213   5.258   6.345   4.946
 2105SOL    HW1 7214   5.274   6.275   5.016
 2105SOL    HW2 7215   5.244   6.301   4.857
 2106SOL     OW 7216   3.552   2.896   0.922
 2106SOL    HW1 7217   3.490   2.951   0.867
 2106SOL    HW2 7218   3.503   2.816   0.958
 2107SOL     OW 7219   6.347   4.617   4.876
 2107SOL    HW1 7220   6.302   4.557   4.942
 2107SOL    HW2 7221   6.319   4.712   4.893
 2108SOL     OW 7222   4.438   6.456   5.782
 2108SOL    HW1 7223   4.414   6.514   5.704
 2108SOL    HW2 7224   4.399   6.365   5.769
 2109SOL     OW 7225   2.559   5.621   1.965
 2109SOL    HW1 7226   2.610   5.565   2.031
 2109SOL    HW2 7227   2.465   5.588   1.959
 2110SOL     OW 7228   3.765   5.524   6.970
 2110SOL    HW1 7229   3.833   5.491   6.904
 2110SOL    HW2 7230   3.762   5.462   0.022
 2111SOL     OW 7231   0.629   2.641   0.471
 2111SOL    HW1 7232   0.648   2.550   0.436
 2111SOL    HW2 7233   0.708   2.674   0.523
 2112SOL     OW 7234   0.532   0.741   6.649
 2112SOL    HW1 7235   0.456   0.694   6.605
 2112SOL    HW2 7236   0.595   0.775   6.579
 2113SOL     OW 7237   6.524   2.000   4.269
 2113SOL    HW1 7238   6.465   1.939   4.322
 2113SOL    HW2 7239   6.505   1.989   4.171
 2114SOL     OW 7240   3.182   0.838   5.431
 2114SOL    HW1 7241   3.099   0.848   5.486
 2114SOL    HW2 7242   3.173   0.889   5.346
 2115SOL     OW 7243   6.748   6.729   3.776
 2115SOL    HW1 7244   6.691   6.647   3.778
 2115SOL    HW2 7245   6.799   6.732   3.690
 2116SOL     OW 7246   2.114   0.324   5.963
 2116SOL    HW1 7247   2.153   0.238   5.994
 2116SOL    HW2 7248   2.051   0.359   6.031
 2117SOL     OW 7249   5.539   3.221   1.233
 2117SOL    HW1 7250   5.635   3.225   1.205
 2117SOL    HW2 7251   5.481   3.211   1.152
 2118SOL     OW 7252   0.151   3.348   2.454
 2118SOL    HW1 7253   0.192   3.353   2.545
 2118SOL    HW2 7254   0.104   3.433   2.433
 2119SOL     OW 7255   2.302   2.557   6.918
 2119SOL    HW1 7256   2.369   2.566   6.992
 2119SOL    HW2 7257   2.322   2.475   6.865
 2120SOL     OW 7258   5.890   1.430   0.705
 2120SOL    HW1 7259   5.854   1.498   0.770
 2120SOL    HW2 7260   5.975   1.465   0.665
 2121SOL     OW 7261   2.872   5.433   1.562
 2121SOL    HW1 7262   2.893   5.404   1.469
 2121SOL    HW2 7263   2.801   5.374   1.600
 2122SOL     OW 7264   0.418   0.913   5.166
 2122SOL    HW1 7265   0.339   0.967   5.195
 2122SOL    HW2 7266   0.488   0.916   5.238
 2123SOL     OW 7267   1.191   4.477   3.426
 2123SOL    HW1 7268   1.191   4.555   3.488
 2123SOL    HW2 7269   1.119   4.490   3.357
 2124SOL     OW 7270   5.283   3.623   6.140
 2124SOL    HW1 7271   5.359   3.560   6.125
 2124SOL    HW2 7272   5.212   3.606   6.072
 2125SOL     OW 7273   2.395   5.461   6.134
 2125SOL    HW1 7274   2.455   5.531   6.097
 2125SOL    HW2 7275   2.351   5.411   6.059
 2126SOL     OW 7276   2.826   5.601   1.844
 2126SOL    HW1 7277   2.729   5.606   1.824
 2126SOL    HW2 7278   2.871   5.541   1.777
 2127SOL     OW 7279   1.184   4.054   4.302
 2127SOL    HW1 7280   1.284   4.051   4.308
 2127SOL    HW2 7281   1.152   3.992   4.231
 2128SOL     OW 7282   5.341   3.147   1.061
 2128SOL    HW1 7283   5.355   3.167   0.964
 2128SOL    HW2 7284   5.351   3.049   1.077
 2129SOL     OW 7285   5.902   4.393   4.341
 2129SOL    HW1 7286   5.963   4.438   4.277
 2129SOL    HW2 7287   5.954   4.326   4.394
 2130SOL     OW 7288   1.921   0.268   3.133
 2130SOL    HW1 7289   1.868   0.352   3.124
 2130SOL    HW2 7290   1.901   0.226   3.222
 2131SOL     OW 7291   6.024   0.223   6.553
 2131SOL    HW1 7292   5.947   0.279   6.524
 2131SOL    HW2 7293   6.009   0.128   6.525
 2132SOL     OW 7294   3.290   1.593   0.148
 2132SOL    HW1 7295   3.304   1.506   0.196
 2132SOL    HW2 7296   3.318   1.668   0.207
 2133SOL     OW 7297   4.169   3.166   1.925
 2133SOL    HW1 7298   4.106   3.089   1.931
 2133SOL    HW2 7299   4.241   3.146   1.858
 2134SOL     OW 7300   2.522   0.336   5.138
 2134SOL    HW1 7301   2.558   0.243   5.138
 2134SOL    HW2 7302   2.434   0.338   5.089
 2135SOL     OW 7303   0.387   5.934   4.614
 2135SOL    HW1 7304   0.417   5.892   4.700
 2135SOL    HW2 7305   0.353   6.026   4.632
 2136SOL     OW 7306   0.501   4.802   3.618
 2136SOL    HW1 7307   0.475   4.852   3.535
 2136SOL    HW2 7308   0.598   4.779   3.613
 2137SOL     OW 7309   0.206   0.384   4.559
 2137SOL    HW1 7310   0.222   0.477   4.525
 2137SOL    HW2 7311   0.114   0.379   4.599
 2138SOL     OW 7312   1.197   2.240   0.177
 2138SOL    HW1 7313   1.252   2.253   0.094
 2138SOL    HW2 7314   1.257   2.237   0.257
 2139SOL     OW 7315   3.535   6.322   4.178
 2139SOL    HW1 7316   3.459   6.324   4.244
 2139SOL    HW2 7317   3.620   6.346   4.224
 2140SOL     OW 7318   1.531   5.563   3.563
 2140SOL    HW1 7319   1.568   5.518   3.482
 2140SOL    HW2 7320   1.534   5.499   3.640
 2141SOL     OW 7321   6.466   0.612   6.720
 2141SOL    HW1 7322   6.390   0.627   6.784
 2141SOL    HW2 7323   6.451   0.665   6.637
 2142SOL     OW 7324   4.233   0.921   3.322
 2142SOL    HW1 7325   4.325   0.891   3.295
 2142SOL    HW2 7326   4.165   0.875   3.265
 2143SOL     OW 7327   3.694   5.911   0.110
 2143SOL    HW1 7328   3.599   5.917   0.078
 2143SOL    HW2 7329   3.705   5.828   0.166
 2144SOL     OW 7330   0.731   1.230   1.898
 2144SOL    HW1 7331   0.700   1.321   1.924
 2144SOL    HW2 7332   0.831   1.228   1.896
 2145SOL     OW 7333   2.647   5.817   3.625
 2145SOL    HW1 7334   2.696   5.787   3.707
 2145SOL    HW2 7335   2.576   5.750   3.603
 2146SOL     OW 7336   3.196   2.138   1.230
 2146SOL    HW1 7337   3.195   2.171   1.324
 2146SOL    HW2 7338   3.240   2.048   1.227
 2147SOL     OW 7339   6.861   0.119   4.327
 2147SOL    HW1 7340   6.897   0.026   4.323
 2147SOL    HW2 7341   6.775   0.124   4.275
 2148SOL     OW 7342   6.529   3.973   3.264
 2148SOL    HW1 7343   6.529   4.038   3.340
 2148SOL    HW2 7344   6.551   3.882   3.298
 2149SOL     OW 7345   2.460   0.882   2.470
 2149SOL    HW1 7346   2.525   0.854   2.541
 2149SOL    HW2 7347   2.457   0.982   2.465
 2150SOL     OW 7348   5.405   0.738   3.026
 2150SOL    HW1 7349   5.396   0.732   3.126
 2150SOL    HW2 7350   5.437   0.829   3.000
 2151SOL     OW 7351   4.256   4.400   5.745
 2151SOL    HW1 7352   4.345   4.354   5.744
 2151SOL    HW2 7353   4.213   4.392   5.655
 2152SOL     OW 7354   6.925   6.186   3.158
 2152SOL    HW1 7355   7.006   6.176   3.100
 2152SOL    HW2 7356   6.842   6.173   3.103
 2153SOL     OW 7357   4.540   1.559   3.912
 2153SOL    HW1 7358   4.442   1.539   3.917
 2153SOL    HW2 7359   4.591   1.475   3.927
 2154SOL     OW 7360   4.628   6.743   4.003
 2154SOL    HW1 7361   4.606   6.787   3.916
 2154SOL    HW2 7362   4.667   6.652   3.985
 2155SOL     OW 7363   5.637   4.267   0.576
 2155SOL    HW1 7364   5.704   4.196   0.556
 2155SOL    HW2 7365   5.566   4.231   0.637
 2156SOL     OW 7366   5.864   5.968   2.409
 2156SOL    HW1 7367   5.930   5.994   2.339
 2156SOL    HW2 7368   5.784   5.927   2.366
 2157SOL     OW 7369   5.384   1.594   3.864
 2157SOL    HW1 7370   5.383   1.497   3.838
 2157SOL    HW2 7371   5.461   1.640   3.821
 2158SOL     OW 7372   4.016   0.912   3.483
 2158SOL    HW1 7373   3.971   0.991   3.526
 2158SOL    HW2 7374   4.092   0.944   3.427
 2159SOL     OW 7375   2.414   1.821   4.936
 2159SOL    HW1 7376   2.430   1.824   4.837
 2159SOL    HW2 7377   2.396   1.727   4.964
 2160SOL     OW 7378   2.419   3.616   0.799
 2160SOL    HW1 7379   2.417   3.517   0.784
 2160SOL    HW2 7380   2.370   3.662   0.726
 2161SOL     OW 7381   4.656   2.517   2.636
 2161SOL    HW1 7382   4.619   2.606   2.661
 2161SOL    HW2 7383   4.754   2.526   2.616
 2162SOL     OW 7384   2.644   1.680   2.386
 2162SOL    HW1 7385   2.635   1.590   2.342
 2162SOL    HW2 7386   2.651   1.750   2.316
 2163SOL     OW 7387   4.451   1.454   1.143
 2163SOL    HW1 7388   4.434   1.403   1.227
 2163SOL    HW2 7389   4.533   1.419   1.098
 2164SOL     OW 7390   6.481   0.728   1.395
 2164SOL    HW1 7391   6.526   0.816   1.409
 2164SOL    HW2 7392   6.467   0.683   1.483
 2165SOL     OW 7393   2.015   0.655   2.233
 2165SOL    HW1 7394   2.002   0.577   2.172
 2165SOL    HW2 7395   1.938   0.717   2.224
 2166SOL     OW 7396   5.701   2.766   4.632
 2166SOL    HW1 7397   5.724   2.671   4.613
 2166SOL    HW2 7398   5.606   2.771   4.662
 2167SOL     OW 7399   3.416   1.917   1.313
 2167SOL    HW1 7400   3.486   1.977   1.352
 2167SOL    HW2 7401   3.456   1.826   1.297
 2168SOL     OW 7402   5.568   6.984   4.514
 2168SOL    HW1 7403   5.591   0.032   4.576
 2168SOL    HW2 7404   5.479   6.947   4.538
 2169SOL     OW 7405   5.168   1.870   5.761
 2169SOL    HW1 7406   5.094   1.933   5.784
 2169SOL    HW2 7407   5.135   1.802   5.696
 2170SOL     OW 7408   4.593   5.530   4.650
 2170SOL    HW1 7409   4.551   5.450   4.606
 2170SOL    HW2 7410   4.566   5.533   4.747
 2171SOL     OW 7411   0.728   3.353   0.256
 2171SOL    HW1 7412   0.634   3.320   0.247
 2171SOL    HW2 7413   0.729   3.437   0.310
 2172SOL     OW 7414   2.252   0.570   3.100
 2172SOL    HW1 7415   2.271   0.632   3.024
 2172SOL    HW2 7416   2.274   0.476   3.073
 2173SOL     OW 7417   4.456   2.049   4.586
 2173SOL    HW1 7418   4.470   2.125   4.650
 2173SOL    HW2 7419   4.530   1.983   4.596
 2174SOL     OW 7420   0.948   5.676   5.296
 2174SOL    HW1 7421   0.939   5.753   5.233
 2174SOL    HW2 7422   0.911   5.593   5.253
 2175SOL     OW 7423   1.118   0.330   7.013
 2175SOL    HW1 7424   1.024   0.363   7.001
 2175SOL    HW2 7425   1.170   0.347   6.929
 2176SOL     OW 7426   2.297   2.785   2.251
 2176SOL    HW1 7427   2.325   2.699   2.207
 2176SOL    HW2 7428   2.361   2.857   2.225
 2177SOL     OW 7429   0.925   1.503   2.034
 2177SOL    HW1 7430   0.876   1.530   1.951
 2177SOL    HW2 7431   0.982   1.424   2.014
 2178SOL     OW 7432   6.673   6.324   0.307
 2178SOL    HW1 7433   6.763   6.280   0.310
 2178SOL    HW2 7434   6.602   6.254   0.313
 2179SOL     OW 7435   2.195   3.971   4.047
 2179SOL    HW1 7436   2.185   3.905   4.122
 2179SOL    HW2 7437   2.191   3.923   3.960
 2180SOL     OW 7438   2.984   3.129   2.532
 2180SOL    HW1 7439   2.942   3.196   2.470
 2180SOL    HW2 7440   3.039   3.065   2.478
 2181SOL     OW 7441   3.294   0.106   0.897
 2181SOL    HW1 7442   3.248   0.193   0.882
 2181SOL    HW2 7443   3.309   0.061   0.809
 2182SOL     OW 7444   4.133   3.576   0.350
 2182SOL    HW1 7445   4.218   3.629   0.353
 2182SOL    HW2 7446   4.058   3.631   0.386
 2183SOL     OW 7447   4.863   2.921   1.767
 2183SOL    HW1 7448   4.919   2.995   1.802
 2183SOL    HW2 7449   4.768   2.934   1.796
 2184SOL     OW 7450   4.699   2.723   6.237
 2184SOL    HW1 7451   4.618   2.774   6.209
 2184SOL    HW2 7452   4.689   2.627   6.212
 2185SOL     OW 7453   6.971   6.671   2.284
 2185SOL    HW1 7454   0.023   6.723   2.317
 2185SOL    HW2 7455   6.889   6.729   2.286
 2186SOL     OW 7456   6.938   4.394   3.094
 2186SOL    HW1 7457   6.903   4.350   3.011
 2186SOL    HW2 7458   6.994   4.329   3.145
 2187SOL     OW 7459   6.236   0.538   6.496
 2187SOL    HW1 7460   6.249   0.445   6.464
 2187SOL    HW2 7461   6.309   0.597   6.462
 2188SOL     OW 7462   4.588   2.635   3.642
 2188SOL    HW1 7463   4.568   2.597   3.551
 2188SOL    HW2 7464   4.686   2.650   3.650
 2189SOL     OW 7465   4.121   6.287   6.551
 2189SOL    HW1 7466   4.038   6.304   6.605
 2189SOL    HW2 7467   4.180   6.368   6.555
 2190SOL     OW 7468   5.879   3.484   1.275
 2190SOL    HW1 7469   5.890   3.548   1.351
 2190SOL    HW2 7470   5.814   3.521   1.209
 2191SOL     OW 7471   3.472   0.523   0.022
 2191SOL    HW1 7472   3.481   0.436   0.070
 2191SOL    HW2 7473   3.387   0.523   6.995
 2192SOL     OW 7474   4.158   6.486   1.787
 2192SOL    HW1 7475   4.059   6.492   1.780
 2192SOL    HW2 7476   4.189   6.395   1.756
 2193SOL     OW 7477   0.229   6.163   4.622
 2193SOL    HW1 7478   0.186   6.092   4.678
 2193SOL    HW2 7479   0.165   6.192   4.551
 2194SOL     OW 7480   2.140   0.154   2.256
 2194SOL    HW1 7481   2.048   0.192   2.247
 2194SOL    HW2 7482   2.148   0.107   2.344
 2195SOL     OW 7483   0.184   5.200   2.617
 2195SOL    HW1 7484   0.247   5.145   2.672
 2195SOL    HW2 7485   0.201   5.183   2.520
 2196SOL     OW 7486   4.401   3.900   0.606
 2196SOL    HW1 7487   4.305   3.896   0.635
 2196SOL    HW2 7488   4.433   3.807   0.584
 2197SOL     OW 7489   4.926   3.758   0.170
 2197SOL    HW1 7490   5.020   3.760   0.136
 2197SOL    HW2 7491   4.868   3.710   0.105
 2198SOL     OW 7492   0.746   4.523   6.485
 2198SOL    HW1 7493   0.740   4.618   6.454
 2198SOL    HW2 7494   0.842   4.496   6.494
 2199SOL     OW 7495   4.043   1.724   3.197
 2199SOL    HW1 7496   4.033   1.771   3.285
 2199SOL    HW2 7497   4.024   1.626   3.209
 2200SOL     OW 7498   4.025   0.277   4.042
 2200SOL    HW1 7499   4.045   0.206   3.974
 2200SOL    HW2 7500   3.999   0.235   4.128
 2201SOL     OW 7501   5.204   4.749   4.360
 2201SOL    HW1 7502   5.128   4.814   4.359
 2201SOL    HW2 7503   5.280   4.787   4.411
 2202SOL     OW 7504   4.740   5.808   4.290
 2202SOL    HW1 7505   4.733   5.873   4.215
 2202SOL    HW2 7506   4.831   5.813   4.331
 2203SOL     OW 7507   2.167   1.359   2.671
 2203SOL    HW1 7508   2.221   1.436   2.638
 2203SOL    HW2 7509   2.110   1.389   2.748
 2204SOL     OW 7510   3.538   2.403   1.118
 2204SOL    HW1 7511   3.587   2.489   1.132
 2204SOL    HW2 7512   3.474   2.389   1.193
 2205SOL     OW 7513   3.346   0.735   2.312
 2205SOL    HW1 7514   3.277   0.706   2.379
 2205SOL    HW2 7515   3.350   0.668   2.238
 2206SOL     OW 7516   1.628   4.057   0.519
 2206SOL    HW1 7517   1.693   4.127   0.490
 2206SOL    HW2 7518   1.536   4.082   0.488
 2207SOL     OW 7519   6.416   4.643   5.261
 2207SOL    HW1 7520   6.509   4.656   5.225
 2207SOL    HW2 7521   6.409   4.688   5.350
 2208SOL     OW 7522   6.341   5.192   2.025
 2208SOL    HW1 7523   6.419   5.247   1.994
 2208SOL    HW2 7524   6.355   5.166   2.121
 2209SOL     OW 7525   6.567   0.098   1.796
 2209SOL    HW1 7526   6.577   0.080   1.894
 2209SOL    HW2 7527   6.561   0.012   1.746
 2210SOL     OW 7528   2.464   4.540   3.800
 2210SOL    HW1 7529   2.554   4.569   3.769
 2210SOL    HW2 7530   2.453   4.565   3.897
 2211SOL     OW 7531   5.851   0.406   5.785
 2211SOL    HW1 7532   5.917   0.467   5.829
 2211SOL    HW2 7533   5.762   0.451   5.780
 2212SOL     OW 7534   2.453   6.439   6.194
 2212SOL    HW1 7535   2.390   6.431   6.117
 2212SOL    HW2 7536   2.438   6.526   6.240
 2213SOL     OW 7537   4.787   1.292   3.558
 2213SOL    HW1 7538   4.815   1.318   3.650
 2213SOL    HW2 7539   4.846   1.218   3.525
 2214SOL     OW 7540   3.864   0.512   4.222
 2214SOL    HW1 7541   3.950   0.563   4.231
 2214SOL    HW2 7542   3.883   0.415   4.213
 2215SOL     OW 7543   5.845   2.395   6.398
 2215SOL    HW1 7544   5.917   2.462   6.416
 2215SOL    HW2 7545   5.879   2.325   6.335
 2216SOL     OW 7546   3.137   1.533   2.313
 2216SOL    HW1 7547   3.159   1.438   2.335
 2216SOL    HW2 7548   3.039   1.541   2.294
 2217SOL     OW 7549   3.065   6.891   1.168
 2217SOL    HW1 7550   3.098   6.958   1.234
 2217SOL    HW2 7551   2.985   6.928   1.119
 2218SOL     OW 7552   6.558   0.845   2.221
 2218SOL    HW1 7553   6.524   0.866   2.129
 2218SOL    HW2 7554   6.657   0.862   2.224
 2219SOL     OW 7555   2.503   1.869   3.017
 2219SOL    HW1 7556   2.565   1.836   2.945
 2219SOL    HW2 7557   2.467   1.958   2.992
 2220SOL     OW 7558   1.817   6.391   2.948
 2220SOL    HW1 7559   1.767   6.318   2.994
 2220SOL    HW2 7560   1.910   6.397   2.985
 2221SOL     OW 7561   0.177   6.511   4.847
 2221SOL    HW1 7562   0.240   6.441   4.882
 2221SOL    HW2 7563   0.084   6.476   4.850
 2222SOL     OW 7564   5.746   5.148   3.972
 2222SOL    HW1 7565   5.785   5.149   4.064
 2222SOL    HW2 7566   5.663   5.205   3.971
 2223SOL     OW 7567   6.860   6.607   2.553
 2223SOL    HW1 7568   6.895   6.636   2.465
 2223SOL    HW2 7569   6.914   6.649   2.626
 2224SOL     OW 7570   1.204   5.730   1.382
 2224SOL    HW1 7571   1.285   5.672   1.376
 2224SOL    HW2 7572   1.207   5.782   1.467
 2225SOL     OW 7573   0.389   4.157   0.086
 2225SOL    HW1 7574   0.380   4.250   0.049
 2225SOL    HW2 7575   0.301   4.110   0.080
 2226SOL     OW 7576   3.396   3.823   3.213
 2226SOL    HW1 7577   3.481   3.838   3.264
 2226SOL    HW2 7578   3.364   3.910   3.175
 2227SOL     OW 7579   1.575   2.175   4.892
 2227SOL    HW1 7580   1.513   2.240   4.935
 2227SOL    HW2 7581   1.527   2.087   4.879
 2228SOL     OW 7582   1.690   4.448   4.682
 2228SOL    HW1 7583   1.772   4.395   4.659
 2228SOL    HW2 7584   1.713   4.546   4.683
 2229SOL     OW 7585   5.494   5.535   2.846
 2229SOL    HW1 7586   5.408   5.541   2.895
 2229SOL    HW2 7587   5.559   5.479   2.898
 2230SOL     OW 7588   1.852   5.521   2.727
 2230SOL    HW1 7589   1.801   5.497   2.644
 2230SOL    HW2 7590   1.847   5.445   2.792
 2231SOL     OW 7591   1.722   5.704   0.999
 2231SOL    HW1 7592   1.690   5.705   0.904
 2231SOL    HW2 7593   1.812   5.748   1.004
 2232SOL     OW 7594   6.070   2.107   3.416
 2232SOL    HW1 7595   6.098   2.203   3.409
 2232SOL    HW2 7596   5.974   2.102   3.441
 2233SOL     OW 7597   3.546   1.110   0.478
 2233SOL    HW1 7598   3.470   1.115   0.544
 2233SOL    HW2 7599   3.618   1.173   0.506
 2234SOL     OW 7600   4.438   2.200   1.177
 2234SOL    HW1 7601   4.527   2.219   1.217
 2234SOL    HW2 7602   4.416   2.103   1.190
 2235SOL     OW 7603   1.804   2.383   2.441
 2235SOL    HW1 7604   1.827   2.480   2.449
 2235SOL    HW2 7605   1.882   2.327   2.468
 2236SOL     OW 7606   0.572   3.833   5.489
 2236SOL    HW1 7607   0.476   3.818   5.463
 2236SOL    HW2 7608   0.614   3.897   5.425
 2237SOL     OW 7609   5.999   2.924   3.215
 2237SOL    HW1 7610   5.925   2.857   3.228
 2237SOL    HW2 7611   6.087   2.879   3.231
 2238SOL     OW 7612   5.410   5.990   6.840
 2238SOL    HW1 7613   5.400   6.088   6.824
 2238SOL    HW2 7614   5.482   5.953   6.782
 2239SOL     OW 7615   0.160   5.716   1.543
 2239SOL    HW1 7616   0.150   5.816   1.547
 2239SOL    HW2 7617   0.239   5.693   1.487
 2240SOL     OW 7618   6.760   3.567   1.204
 2240SOL    HW1 7619   6.771   3.639   1.135
 2240SOL    HW2 7620   6.744   3.610   1.293
 2241SOL     OW 7621   0.593   0.237   3.915
 2241SOL    HW1 7622   0.623   0.162   3.975
 2241SOL    HW2 7623   0.495   0.251   3.927
 2242SOL     OW 7624   1.733   1.884   3.105
 2242SOL    HW1 7625   1.717   1.967   3.159
 2242SOL    HW2 7626   1.831   1.868   3.096
 2243SOL     OW 7627   1.759   0.446   4.601
 2243SOL    HW1 7628   1.820   0.469   4.526
 2243SOL    HW2 7629   1.770   0.350   4.626
 2244SOL     OW 7630   3.511   0.269   4.717
 2244SOL    HW1 7631   3.429   0.286   4.662
 2244SOL    HW2 7632   3.582   0.231   4.658
 2245SOL     OW 7633   1.012   2.715   2.051
 2245SOL    HW1 7634   1.043   2.779   2.121
 2245SOL    HW2 7635   1.029   2.621   2.083
 2246SOL     OW 7636   0.743   3.858   4.979
 2246SOL    HW1 7637   0.658   3.826   5.020
 2246SOL    HW2 7638   0.746   3.832   4.883
 2247SOL     OW 7639   1.971   2.291   3.881
 2247SOL    HW1 7640   2.046   2.346   3.846
 2247SOL    HW2 7641   1.928   2.241   3.806
 2248SOL     OW 7642   5.669   3.735   6.075
 2248SOL    HW1 7643   5.611   3.805   6.034
 2248SOL    HW2 7644   5.761   3.740   6.035
 2249SOL     OW 7645   5.449   5.593   4.908
 2249SOL    HW1 7646   5.457   5.685   4.947
 2249SOL    HW2 7647   5.378   5.543   4.957
 2250SOL     OW 7648   4.448   4.517   2.042
 2250SOL    HW1 7649   4.501   4.438   2.013
 2250SOL    HW2 7650   4.368   4.528   1.982
 2251SOL     OW 7651   0.581   0.954   5.389
 2251SOL    HW1 7652   0.667   0.947   5.337
 2251SOL    HW2 7653   0.602   0.969   5.486
 2252SOL     OW 7654   3.342   1.473   6.840
 2252SOL    HW1 7655   3.282   1.543   6.801
 2252SOL    HW2 7656   3.316   1.383   6.804
 2253SOL     OW 7657   0.689   4.043   0.606
 2253SOL    HW1 7658   0.606   4.052   0.661
 2253SOL    HW2 7659   0.770   4.054   0.664
 2254SOL     OW 7660   1.655   4.828   6.298
 2254SOL    HW1 7661   1.702   4.869   6.219
 2254SOL    HW2 7662   1.646   4.896   6.371
 2255SOL     OW 7663   6.835   3.786   6.694
 2255SOL    HW1 7664   6.737   3.786   6.717
 2255SOL    HW2 7665   6.850   3.725   6.616
 2256SOL     OW 7666   3.365   5.646   2.342
 2256SOL    HW1 7667   3.332   5.611   2.429
 2256SOL    HW2 7668   3.372   5.746   2.346
 2257SOL     OW 7669   1.512   4.436   5.474
 2257SOL    HW1 7670   1.530   4.384   5.390
 2257SOL    HW2 7671   1.460   4.379   5.538
 2258SOL     OW 7672   2.146   6.894   5.723
 2258SOL    HW1 7673   2.175   6.986   5.696
 2258SOL    HW2 7674   2.205   6.826   5.679
 2259SOL     OW 7675   5.952   1.943   6.138
 2259SOL    HW1 7676   5.859   1.953   6.173
 2259SOL    HW2 7677   5.991   1.857   6.172
 2260SOL     OW 7678   4.426   3.053   0.647
 2260SOL    HW1 7679   4.420   3.001   0.562
 2260SOL    HW2 7680   4.459   3.146   0.627
 2261SOL     OW 7681   2.419   0.096   4.841
 2261SOL    HW1 7682   2.469   0.072   4.924
 2261SOL    HW2 7683   2.393   0.193   4.844
 2262SOL     OW 7684   2.640   1.923   3.827
 2262SOL    HW1 7685   2.675   1.986   3.757
 2262SOL    HW2 7686   2.566   1.868   3.787
 2263SOL     OW 7687   0.849   4.657   5.581
 2263SOL    HW1 7688   0.780   4.588   5.560
 2263SOL    HW2 7689   0.808   4.748   5.577
 2264SOL     OW 7690   3.346   3.389   3.364
 2264SOL    HW1 7691   3.360   3.394   3.463
 2264SOL    HW2 7692   3.265   3.442   3.339
 2265SOL     OW 7693   0.934   5.914   4.332
 2265SOL    HW1 7694   0.958   5.995   4.278
 2265SOL    HW2 7695   0.891   5.846   4.273
 2266SOL     OW 7696   6.984   0.658   5.511
 2266SOL    HW1 7697   6.890   0.668   5.543
 2266SOL    HW2 7698   0.012   0.615   5.583
 2267SOL     OW 7699   6.139   1.834   5.329
 2267SOL    HW1 7700   6.159   1.752   5.383
 2267SOL    HW2 7701   6.082   1.809   5.251
 2268SOL     OW 7702   0.289   6.882   0.264
 2268SOL    HW1 7703   0.304   6.814   0.192
 2268SOL    HW2 7704   0.306   6.841   0.353
 2269SOL     OW 7705   6.470   6.266   2.702
 2269SOL    HW1 7706   6.520   6.179   2.708
 2269SOL    HW2 7707   6.525   6.332   2.651
 2270SOL     OW 7708   3.554   2.937   3.624
 2270SOL    HW1 7709   3.489   2.902   3.556
 2270SOL    HW2 7710   3.532   3.032   3.646
 2271SOL     OW 7711   1.618   3.785   2.750
 2271SOL    HW1 7712   1.606   3.823   2.842
 2271SOL    HW2 7713   1.622   3.686   2.755
 2272SOL     OW 7714   5.303   0.843   5.734
 2272SOL    HW1 7715   5.346   0.911   5.793
 2272SOL    HW2 7716   5.335   0.855   5.640
 2273SOL     OW 7717   0.219   1.255   2.039
 2273SOL    HW1 7718   0.198   1.158   2.056
 2273SOL    HW2 7719   0.311   1.275   2.071
 2274SOL     OW 7720   0.125   5.064   2.935
 2274SOL    HW1 7721   0.040   5.015   2.951
 2274SOL    HW2 7722   0.188   5.007   2.882
 2275SOL     OW 7723   4.591   6.438   3.682
 2275SOL    HW1 7724   4.592   6.466   3.586
 2275SOL    HW2 7725   4.510   6.383   3.700
 2276SOL     OW 7726   3.560   6.265   2.950
 2276SOL    HW1 7727   3.633   6.237   3.011
 2276SOL    HW2 7728   3.594   6.270   2.856
 2277SOL     OW 7729   3.474   2.950   2.529
 2277SOL    HW1 7730   3.476   3.049   2.516
 2277SOL    HW2 7731   3.563   2.912   2.503
 2278SOL     OW 7732   4.373   4.858   1.218
 2278SOL    HW1 7733   4.445   4.792   1.241
 2278SOL    HW2 7734   4.387   4.891   1.125
 2279SOL     OW 7735   5.643   3.935   5.425
 2279SOL    HW1 7736   5.716   3.874   5.393
 2279SOL    HW2 7737   5.631   3.922   5.524
 2280SOL     OW 7738   5.645   0.828   5.937
 2280SOL    HW1 7739   5.704   0.792   6.009
 2280SOL    HW2 7740   5.679   0.917   5.908
 2281SOL     OW 7741   2.517   0.397   0.584
 2281SOL    HW1 7742   2.559   0.452   0.655
 2281SOL    HW2 7743   2.579   0.324   0.557
 2282SOL     OW 7744   3.558   0.230   2.490
 2282SOL    HW1 7745   3.471   0.241   2.539
 2282SOL    HW2 7746   3.558   0.289   2.410
 2283SOL     OW 7747   0.920   3.269   1.156
 2283SOL    HW1 7748   0.904   3.367   1.146
 2283SOL    HW2 7749   1.000   3.254   1.214
 2284SOL     OW 7750   2.105   3.203   0.631
 2284SOL    HW1 7751   2.139   3.188   0.724
 2284SOL    HW2 7752   2.029   3.140   0.614
 2285SOL     OW 7753   2.487   2.709   0.133
 2285SOL    HW1 7754   2.455   2.788   0.081
 2285SOL    HW2 7755   2.584   2.695   0.115
 2286SOL     OW 7756   6.431   6.261   3.768
 2286SOL    HW1 7757   6.516   6.215   3.794
 2286SOL    HW2 7758   6.359   6.192   3.756
 2287SOL     OW 7759   2.353   1.531   0.402
 2287SOL    HW1 7760   2.390   1.602   0.342
 2287SOL    HW2 7761   2.428   1.483   0.447
 2288SOL     OW 7762   2.786   5.710   4.337
 2288SOL    HW1 7763   2.774   5.613   4.318
 2288SOL    HW2 7764   2.830   5.754   4.259
 2289SOL     OW 7765   3.905   0.047   6.136
 2289SOL    HW1 7766   3.983   0.110   6.136
 2289SOL    HW2 7767   3.822   0.097   6.160
 2290SOL     OW 7768   2.283   3.381   5.762
 2290SOL    HW1 7769   2.380   3.361   5.745
 2290SOL    HW2 7770   2.226   3.322   5.705
 2291SOL     OW 7771   3.055   1.973   0.390
 2291SOL    HW1 7772   3.069   1.874   0.386
 2291SOL    HW2 7773   3.140   2.017   0.420
 2292SOL     OW 7774   5.027   2.152   2.843
 2292SOL    HW1 7775   5.018   2.238   2.893
 2292SOL    HW2 7776   5.091   2.093   2.892
 2293SOL     OW 7777   0.607   0.802   0.236
 2293SOL    HW1 7778   0.695   0.772   0.199
 2293SOL    HW2 7779   0.623   0.865   0.313
 2294SOL     OW 7780   6.686   2.510   5.740
 2294SOL    HW1 7781   6.737   2.479   5.660
 2294SOL    HW2 7782   6.749   2.548   5.808
 2295SOL     OW 7783   5.615   5.709   0.003
 2295SOL    HW1 7784   5.570   5.626   0.035
 2295SOL    HW2 7785   5.639   5.699   6.933
 2296SOL     OW 7786   3.637   5.976   4.434
 2296SOL    HW1 7787   3.645   6.015   4.525
 2296SOL    HW2 7788   3.718   6.000   4.380
 2297SOL     OW 7789   6.365   2.516   0.009
 2297SOL    HW1 7790   6.301   2.590   7.011
 2297SOL    HW2 7791   6.443   2.518   6.973
 2298SOL     OW 7792   2.284   3.557   5.480
 2298SOL    HW1 7793   2.241   3.608   5.406
 2298SOL    HW2 7794   2.299   3.618   5.559
 2299SOL     OW 7795   6.026   3.471   4.830
 2299SOL    HW1 7796   5.986   3.522   4.753
 2299SOL    HW2 7797   6.120   3.447   4.808
 2300SOL     OW 7798   4.313   0.276   3.365
 2300SOL    HW1 7799   4.310   0.375   3.372
 2300SOL    HW2 7800   4.391   0.241   3.418
 2301SOL     OW 7801   4.441   3.198   5.712
 2301SOL    HW1 7802   4.396   3.280   5.678
 2301SOL    HW2 7803   4.396   3.117   5.675
 2302SOL     OW 7804   0.234   2.975   4.853
 2302SOL    HW1 7805   0.320   2.997   4.806
 2302SOL    HW2 7806   0.255   2.936   4.943
 2303SOL     OW 7807   2.698   2.247   6.635
 2303SOL    HW1 7808   2.608   2.290   6.629
 2303SOL    HW2 7809   2.687   2.147   6.638
 2304SOL     OW 7810   4.097   6.485   3.295
 2304SOL    HW1 7811   4.175   6.422   3.305
 2304SOL    HW2 7812   4.037   6.475   3.374
 2305SOL     OW 7813   2.702   5.838   5.007
 2305SOL    HW1 7814   2.760   5.786   5.070
 2305SOL    HW2 7815   2.672   5.778   4.933
 2306SOL     OW 7816   0.747   4.974   5.555
 2306SOL    HW1 7817   0.745   4.948   5.459
 2306SOL    HW2 7818   0.820   5.041   5.571
 2307SOL     OW 7819   6.177   4.132   4.860
 2307SOL    HW1 7820   6.079   4.146   4.847
 2307SOL    HW2 7821   6.194   4.036   4.882
 2308SOL     OW 7822   1.485   6.432   2.759
 2308SOL    HW1 7823   1.502   6.509   2.822
 2308SOL    HW2 7824   1.387   6.423   2.743
 2309SOL     OW 7825   2.240   1.147   4.917
 2309SOL    HW1 7826   2.205   1.229   4.873
 2309SOL    HW2 7827   2.226   1.153   5.016
 2310SOL     OW 7828   5.145   6.081   0.258
 2310SOL    HW1 7829   5.195   6.095   0.343
 2310SOL    HW2 7830   5.181   6.142   0.187
 2311SOL     OW 7831   2.114   5.802   0.801
 2311SOL    HW1 7832   2.137   5.706   0.788
 2311SOL    HW2 7833   2.188   5.848   0.849
 2312SOL     OW 7834   2.643   4.750   2.423
 2312SOL    HW1 7835   2.622   4.715   2.331
 2312SOL    HW2 7836   2.578   4.823   2.446
 2313SOL     OW 7837   5.008   5.251   1.551
 2313SOL    HW1 7838   4.962   5.245   1.463
 2313SOL    HW2 7839   4.941   5.240   1.625
 2314SOL     OW 7840   2.296   4.190   2.769
 2314SOL    HW1 7841   2.298   4.090   2.767
 2314SOL    HW2 7842   2.350   4.226   2.692
 2315SOL     OW 7843   3.747   1.692   6.555
 2315SOL    HW1 7844   3.837   1.735   6.548
 2315SOL    HW2 7845   3.693   1.714   6.473
 2316SOL     OW 7846   5.686   4.396   1.286
 2316SOL    HW1 7847   5.624   4.359   1.355
 2316SOL    HW2 7848   5.648   4.380   1.195
 2317SOL     OW 7849   0.209   6.547   3.648
 2317SOL    HW1 7850   0.118   6.588   3.653
 2317SOL    HW2 7851   0.265   6.579   3.724
 2318SOL     OW 7852   6.957   1.823   3.413
 2318SOL    HW1 7853   0.018   1.849   3.455
 2318SOL    HW2 7854   6.907   1.763   3.476
 2319SOL     OW 7855   1.090   5.439   2.861
 2319SOL    HW1 7856   1.077   5.464   2.765
 2319SOL    HW2 7857   1.187   5.448   2.884
 2320SOL     OW 7858   6.739   4.780   3.391
 2320SOL    HW1 7859   6.749   4.738   3.301
 2320SOL    HW2 7860   6.809   4.850   3.404
 2321SOL     OW 7861   3.359   4.992   3.891
 2321SOL    HW1 7862   3.271   4.947   3.907
 2321SOL    HW2 7863   3.371   5.010   3.794
 2322SOL     OW 7864   2.083   1.974   4.452
 2322SOL    HW1 7865   2.054   1.904   4.518
 2322SOL    HW2 7866   2.052   1.948   4.361
 2323SOL     OW 7867   5.471   3.978   1.400
 2323SOL    HW1 7868   5.445   4.041   1.327
 2323SOL    HW2 7869   5.473   3.885   1.365
 2324SOL     OW 7870   0.558   5.612   4.194
 2324SOL    HW1 7871   0.480   5.644   4.139
 2324SOL    HW2 7872   0.541   5.631   4.291
 2325SOL     OW 7873   6.206   2.046   1.029
 2325SOL    HW1 7874   6.240   1.953   1.045
 2325SOL    HW2 7875   6.252   2.109   1.091
 2326SOL     OW 7876   0.560   5.529   0.453
 2326SOL    HW1 7877   0.575   5.570   0.543
 2326SOL    HW2 7878   0.490   5.458   0.460
 2327SOL     OW 7879   4.716   1.698   3.137
 2327SOL    HW1 7880   4.763   1.645   3.208
 2327SOL    HW2 7881   4.668   1.635   3.076
 2328SOL     OW 7882   6.263   4.903   3.853
 2328SOL    HW1 7883   6.360   4.885   3.842
 2328SOL    HW2 7884   6.242   4.912   3.950
 2329SOL     OW 7885   1.463   6.588   3.395
 2329SOL    HW1 7886   1.461   6.626   3.302
 2329SOL    HW2 7887   1.522   6.643   3.453
 2330SOL     OW 7888   1.768   4.225   0.356
 2330SOL    HW1 7889   1.721   4.277   0.285
 2330SOL    HW2 7890   1.812   4.289   0.420
 2331SOL     OW 7891   1.923   4.927   4.760
 2331SOL    HW1 7892   1.877   5.006   4.719
 2331SOL    HW2 7893   1.973   4.957   4.841
 2332SOL     OW 7894   6.953   3.473   6.155
 2332SOL    HW1 7895   6.874   3.428   6.195
 2332SOL    HW2 7896   0.011   3.430   6.188
 2333SOL     OW 7897   2.441   4.568   4.075
 2333SOL    HW1 7898   2.399   4.523   4.154
 2333SOL    HW2 7899   2.515   4.627   4.106
 2334SOL     OW 7900   2.766   0.332   5.686
 2334SOL    HW1 7901   2.669   0.357   5.687
 2334SOL    HW2 7902   2.776   0.237   5.657
 2335SOL     OW 7903   4.939   4.471   4.204
 2335SOL    HW1 7904   4.899   4.429   4.285
 2335SOL    HW2 7905   4.880   4.546   4.173
 2336SOL     OW 7906   4.712   1.215   5.273
 2336SOL    HW1 7907   4.678   1.148   5.208
 2336SOL    HW2 7908   4.676   1.306   5.251
 2337SOL     OW 7909   5.584   0.567   5.182
 2337SOL    HW1 7910   5.624   0.629   5.251
 2337SOL    HW2 7911   5.546   0.487   5.228
 2338SOL     OW 7912   1.542   0.077   6.725
 2338SOL    HW1 7913   1.557   0.044   6.818
 2338SOL    HW2 7914   1.449   0.112   6.717
 2339SOL     OW 7915   3.812   4.689   6.652
 2339SOL    HW1 7916   3.886   4.625   6.675
 2339SOL    HW2 7917   3.730   4.664   6.703
 2340SOL     OW 7918   4.283   4.726   4.207
 2340SOL    HW1 7919   4.195   4.732   4.160
 2340SOL    HW2 7920   4.309   4.817   4.241
 2341SOL     OW 7921   0.307   3.958   6.134
 2341SOL    HW1 7922   0.299   3.886   6.065
 2341SOL    HW2 7923   0.282   3.922   6.224
 2342SOL     OW 7924   5.719   0.669   5.709
 2342SOL    HW1 7925   5.807   0.709   5.681
 2342SOL    HW2 7926   5.679   0.724   5.782
 2343SOL     OW 7927   1.591   5.625   1.681
 2343SOL    HW1 7928   1.670   5.571   1.652
 2343SOL    HW2 7929   1.574   5.610   1.778
 2344SOL     OW 7930   1.982   0.905   2.884
 2344SOL    HW1 7931   2.035   0.971   2.831
 2344SOL    HW2 7932   1.974   0.937   2.978
 2345SOL     OW 7933   0.954   2.304   2.333
 2345SOL    HW1 7934   0.936   2.302   2.431
 2345SOL    HW2 7935   1.038   2.254   2.313
 2346SOL     OW 7936   5.136   3.013   5.041
 2346SOL    HW1 7937   5.147   3.086   5.108
 2346SOL    HW2 7938   5.099   3.051   4.956
 2347SOL     OW 7939   1.326   4.394   0.674
 2347SOL    HW1 7940   1.382   4.376   0.594
 2347SOL    HW2 7941   1.243   4.339   0.670
 2348SOL     OW 7942   3.130   6.834   1.503
 2348SOL    HW1 7943   3.174   6.818   1.591
 2348SOL    HW2 7944   3.130   6.749   1.450
 2349SOL     OW 7945   5.800   3.123   0.074
 2349SOL    HW1 7946   5.779   3.188   0.002
 2349SOL    HW2 7947   5.824   3.034   0.034
 2350SOL     OW 7948   2.340   5.940   5.662
 2350SOL    HW1 7949   2.252   5.906   5.628
 2350SOL    HW2 7950   2.337   5.945   5.761
 2351SOL     OW 7951   1.933   5.036   3.577
 2351SOL    HW1 7952   1.967   4.995   3.661
 2351SOL    HW2 7953   2.000   5.102   3.542
 2352SOL     OW 7954   6.251   5.905   6.359
 2352SOL    HW1 7955   6.207   5.874   6.275
 2352SOL    HW2 7956   6.244   6.004   6.366
 2353SOL     OW 7957   3.315   2.776   6.246
 2353SOL    HW1 7958   3.255   2.856   6.240
 2353SOL    HW2 7959   3.310   2.723   6.161
 2354SOL     OW 7960   3.527   1.787   2.239
 2354SOL    HW1 7961   3.457   1.799   2.168
 2354SOL    HW2 7962   3.572   1.699   2.228
 2355SOL     OW 7963   0.099   1.448   2.291
 2355SOL    HW1 7964   0.121   1.355   2.262
 2355SOL    HW2 7965   0.041   1.445   2.373
 2356SOL     OW 7966   3.790   4.890   4.181
 2356SOL    HW1 7967   3.785   4.875   4.280
 2356SOL    HW2 7968   3.707   4.937   4.151
 2357SOL     OW 7969   0.961   5.664   1.257
 2357SOL    HW1 7970   0.887   5.731   1.271
 2357SOL    HW2 7971   1.040   5.690   1.312
 2358SOL     OW 7972   2.023   0.806   5.663
 2358SOL    HW1 7973   2.008   0.763   5.752
 2358SOL    HW2 7974   2.056   0.738   5.598
 2359SOL     OW 7975   2.948   2.438   6.081
 2359SOL    HW1 7976   3.019   2.368   6.068
 2359SOL    HW2 7977   2.991   2.527   6.094
 2360SOL     OW 7978   3.182   4.956   0.894
 2360SOL    HW1 7979   3.103   4.905   0.860
 2360SOL    HW2 7980   3.264   4.899   0.887
 2361SOL     OW 7981   3.538   4.898   1.280
 2361SOL    HW1 7982   3.444   4.927   1.300
 2361SOL    HW2 7983   3.599   4.977   1.288
 2362SOL     OW 7984   2.767   4.763   4.301
 2362SOL    HW1 7985   2.822   4.794   4.379
 2362SOL    HW2 7986   2.676   4.737   4.333
 2363SOL     OW 7987   2.355   4.104   1.512
 2363SOL    HW1 7988   2.290   4.168   1.553
 2363SOL    HW2 7989   2.352   4.111   1.413
 2364SOL     OW 7990   5.099   0.912   2.728
 2364SOL    HW1 7991   5.105   0.911   2.629
 2364SOL    HW2 7992   5.092   1.007   2.760
 2365SOL     OW 7993   5.895   4.452   2.892
 2365SOL    HW1 7994   5.813   4.452   2.949
 2365SOL    HW2 7995   5.937   4.361   2.894
 2366SOL     OW 7996   3.632   5.167   5.147
 2366SOL    HW1 7997   3.628   5.232   5.223
 2366SOL    HW2 7998   3.618   5.215   5.061
 2367SOL     OW 7999   6.038   4.524   5.540
 2367SOL    HW1 8000   6.035   4.478   5.451
 2367SOL    HW2 8001   6.132   4.531   5.571
 2368SOL     OW 8002   5.000   0.697   5.510
 2368SOL    HW1 8003   4.906   0.670   5.491
 2368SOL    HW2 8004   5.011   0.711   5.608
 2369SOL     OW 8005   4.011   1.805   4.084
 2369SOL    HW1 8006   3.918   1.776   4.059
 2369SOL    HW2 8007   4.070   1.799   4.003
 2370SOL     OW 8008   3.963   2.276   0.886
 2370SOL    HW1 8009   3.975   2.203   0.818
 2370SOL    HW2 8010   4.036   2.270   0.954
 2371SOL     OW 8011   2.425   6.730   2.907
 2371SOL    HW1 8012   2.415   6.662   2.980
 2371SOL    HW2 8013   2.368   6.810   2.928
 2372SOL     OW 8014   6.426   6.846   6.052
 2372SOL    HW1 8015   6.343   6.903   6.052
 2372SOL    HW2 8016   6.428   6.791   5.969
 2373SOL     OW 8017   6.634   4.016   5.811
 2373SOL    HW1 8018   6.588   4.104   5.796
 2373SOL    HW2 8019   6.586   3.945   5.760
 2374SOL     OW 8020   6.919   5.919   2.901
 2374SOL    HW1 8021   6.851   5.850   2.878
 2374SOL    HW2 8022   6.877   6.009   2.901
 2375SOL     OW 8023   2.323   0.221   4.462
 2375SOL    HW1 8024   2.248   0.181   4.515
 2375SOL    HW2 8025   2.354   0.305   4.507
 2376SOL     OW 8026   5.621   3.278   3.694
 2376SOL    HW1 8027   5.656   3.216   3.624
 2376SOL    HW2 8028   5.623   3.372   3.659
 2377SOL     OW 8029   3.919   4.580   5.982
 2377SOL    HW1 8030   3.826   4.586   5.947
 2377SOL    HW2 8031   3.952   4.486   5.972
 2378SOL     OW 8032   0.867   0.959   0.637
 2378SOL    HW1 8033   0.833   0.873   0.598
 2378SOL    HW2 8034   0.938   0.997   0.578
 2379SOL     OW 8035   0.628   4.736   2.522
 2379SOL    HW1 8036   0.580   4.755   2.607
 2379SOL    HW2 8037   0.561   4.724   2.448
 2380SOL     OW 8038   4.763   5.397   6.639
 2380SOL    HW1 8039   4.678   5.411   6.587
 2380SOL    HW2 8040   4.785   5.479   6.690
 2381SOL     OW 8041   2.152   3.875   3.772
 2381SOL    HW1 8042   2.193   3.943   3.711
 2381SOL    HW2 8043   2.152   3.785   3.728
 2382SOL     OW 8044   6.193   6.177   2.601
 2382SOL    HW1 8045   6.274   6.234   2.613
 2382SOL    HW2 8046   6.169   6.171   2.504
 2383SOL     OW 8047   5.374   4.229   6.050
 2383SOL    HW1 8048   5.426   4.244   5.966
 2383SOL    HW2 8049   5.437   4.203   6.123
 2384SOL     OW 8050   0.775   2.178   3.126
 2384SOL    HW1 8051   0.737   2.271   3.127
 2384SOL    HW2 8052   0.827   2.163   3.211
 2385SOL     OW 8053   0.431   1.022   0.864
 2385SOL    HW1 8054   0.339   1.062   0.863
 2385SOL    HW2 8055   0.488   1.068   0.797
 2386SOL     OW 8056   6.692   4.827   5.858
 2386SOL    HW1 8057   6.632   4.907   5.861
 2386SOL    HW2 8058   6.762   4.836   5.929
 2387SOL     OW 8059   0.039   0.479   3.422
 2387SOL    HW1 8060   0.114   0.544   3.409
 2387SOL    HW2 8061   0.046   0.405   3.355
 2388SOL     OW 8062   1.998   3.669   4.048
 2388SOL    HW1 8063   2.010   3.644   3.952
 2388SOL    HW2 8064   1.901   3.682   4.068
 2389SOL     OW 8065   3.493   0.238   2.827
 2389SOL    HW1 8066   3.431   0.291   2.769
 2389SOL    HW2 8067   3.587   0.252   2.796
 2390SOL     OW 8068   5.132   2.879   5.275
 2390SOL    HW1 8069   5.124   2.926   5.187
 2390SOL    HW2 8070   5.042   2.874   5.319
 2391SOL     OW 8071   2.718   4.018   6.132
 2391SOL    HW1 8072   2.639   3.960   6.150
 2391SOL    HW2 8073   2.798   3.961   6.117
 2392SOL     OW 8074   4.120   5.361   5.825
 2392SOL    HW1 8075   4.076   5.429   5.766
 2392SOL    HW2 8076   4.106   5.386   5.921
 2393SOL     OW 8077   4.447   4.568   0.219
 2393SOL    HW1 8078   4.368   4.509   0.202
 2393SOL    HW2 8079   4.427   4.629   0.295
 2394SOL     OW 8080   0.168   2.769   3.178
 2394SOL    HW1 8081   0.085   2.723   3.210
 2394SOL    HW2 8082   0.210   2.715   3.105
 2395SOL     OW 8083   1.357   2.348   3.894
 2395SOL    HW1 8084   1.330   2.432   3.847
 2395SOL    HW2 8085   1.277   2.306   3.937
 2396SOL     OW 8086   0.231   0.479   6.130
 2396SOL    HW1 8087   0.306   0.529   6.175
 2396SOL    HW2 8088   0.152   0.539   6.120
 2397SOL     OW 8089   2.213   4.415   6.026
 2397SOL    HW1 8090   2.114   4.397   6.027
 2397SOL    HW2 8091   2.253   4.377   5.943
 2398SOL     OW 8092   3.883   6.200   4.585
 2398SOL    HW1 8093   3.863   6.190   4.488
 2398SOL    HW2 8094   3.805   6.168   4.639
 2399SOL     OW 8095   3.336   1.683   2.416
 2399SOL    HW1 8096   3.272   1.622   2.368
 2399SOL    HW2 8097   3.391   1.733   2.350
 2400SOL     OW 8098   0.750   2.256   6.819
 2400SOL    HW1 8099   0.826   2.273   6.881
 2400SOL    HW2 8100   0.664   2.283   6.862
 2401SOL     OW 8101   1.224   6.712   1.041
 2401SOL    HW1 8102   1.190   6.633   1.092
 2401SOL    HW2 8103   1.247   6.786   1.104
 2402SOL     OW 8104   0.524   3.034   1.876
 2402SOL    HW1 8105   0.588   3.006   1.804
 2402SOL    HW2 8106   0.499   2.954   1.930
 2403SOL     OW 8107   3.075   4.449   5.338
 2403SOL    HW1 8108   3.002   4.416   5.399
 2403SOL    HW2 8109   3.034   4.506   5.266
 2404SOL     OW 8110   6.374   2.163   2.066
 2404SOL    HW1 8111   6.391   2.171   1.968
 2404SOL    HW2 8112   6.313   2.086   2.084
 2405SOL     OW 8113   2.338   2.954   0.413
 2405SOL    HW1 8114   2.345   3.035   0.356
 2405SOL    HW2 8115   2.379   2.973   0.503
 2406SOL     OW 8116   4.092   5.851   5.096
 2406SOL    HW1 8117   4.145   5.906   5.032
 2406SOL    HW2 8118   4.120   5.756   5.089
 2407SOL     OW 8119   2.088   1.669   3.382
 2407SOL    HW1 8120   2.115   1.632   3.293
 2407SOL    HW2 8121   2.138   1.755   3.398
 2408SOL     OW 8122   4.690   6.625   4.713
 2408SOL    HW1 8123   4.635   6.619   4.796
 2408SOL    HW2 8124   4.738   6.538   4.698
 2409SOL     OW 8125   1.246   3.185   6.631
 2409SOL    HW1 8126   1.151   3.160   6.644
 2409SOL    HW2 8127   1.274   3.162   6.538
 2410SOL     OW 8128   6.540   3.736   4.291
 2410SOL    HW1 8129   6.614   3.794   4.255
 2410SOL    HW2 8130   6.535   3.652   4.238
 2411SOL     OW 8131   3.173   1.581   1.063
 2411SOL    HW1 8132   3.074   1.577   1.049
 2411SOL    HW2 8133   3.217   1.623   0.984
 2412SOL     OW 8134   3.477   2.242   0.020
 2412SOL    HW1 8135   3.492   2.301   0.099
 2412SOL    HW2 8136   3.395   2.187   0.035
 2413SOL     OW 8137   6.811   3.918   6.306
 2413SOL    HW1 8138   6.809   3.837   6.364
 2413SOL    HW2 8139   6.863   3.898   6.223
 2414SOL     OW 8140   6.426   1.709   4.731
 2414SOL    HW1 8141   6.460   1.689   4.823
 2414SOL    HW2 8142   6.495   1.759   4.680
 2415SOL     OW 8143   3.334   4.045   5.422
 2415SOL    HW1 8144   3.397   3.996   5.363
 2415SOL    HW2 8145   3.251   4.068   5.370
 2416SOL     OW 8146   0.100   3.685   3.684
 2416SOL    HW1 8147   0.024   3.729   3.731
 2416SOL    HW2 8148   0.186   3.715   3.725
 2417SOL     OW 8149   3.562   2.628   1.730
 2417SOL    HW1 8150   3.555   2.608   1.633
 2417SOL    HW2 8151   3.570   2.543   1.782
 2418SOL     OW 8152   6.194   3.443   6.599
 2418SOL    HW1 8153   6.111   3.496   6.616
 2418SOL    HW2 8154   6.169   3.350   6.573
 2419SOL     OW 8155   3.730   0.986   2.833
 2419SOL    HW1 8156   3.775   1.017   2.749
 2419SOL    HW2 8157   3.783   1.017   2.912
 2420SOL     OW 8158   0.943   3.100   1.462
 2420SOL    HW1 8159   0.946   3.003   1.437
 2420SOL    HW2 8160   1.016   3.149   1.413
 2421SOL     OW 8161   2.431   0.339   3.021
 2421SOL    HW1 8162   2.507   0.395   3.053
 2421SOL    HW2 8163   2.437   0.328   2.922
 2422SOL     OW 8164   3.403   6.734   0.573
 2422SOL    HW1 8165   3.430   6.778   0.488
 2422SOL    HW2 8166   3.471   6.753   0.644
 2423SOL     OW 8167   4.254   5.235   4.825
 2423SOL    HW1 8168   4.337   5.180   4.817
 2423SOL    HW2 8169   4.196   5.198   4.897
 2424SOL     OW 8170   5.380   0.300   6.159
 2424SOL    HW1 8171   5.337   0.273   6.072
 2424SOL    HW2 8172   5.413   0.218   6.206
 2425SOL     OW 8173   4.689   5.201   5.143
 2425SOL    HW1 8174   4.786   5.180   5.150
 2425SOL    HW2 8175   4.677   5.293   5.105
 2426SOL     OW 8176   3.006   2.273   5.609
 2426SOL    HW1 8177   2.912   2.287   5.579
 2426SOL    HW2 8178   3.068   2.284   5.531
 2427SOL     OW 8179   4.365   2.034   6.934
 2427SOL    HW1 8180   4.439   2.077   6.986
 2427SOL    HW2 8181   4.302   1.988   6.997
 2428SOL     OW 8182   1.800   1.759   2.377
 2428SOL    HW1 8183   1.867   1.787   2.309
 2428SOL    HW2 8184   1.733   1.833   2.390
 2429SOL     OW 8185   5.246   5.910   1.742
 2429SOL    HW1 8186   5.158   5.930   1.786
 2429SOL    HW2 8187   5.293   5.996   1.721
 2430SOL     OW 8188   6.610   0.189   6.905
 2430SOL    HW1 8189   6.527   0.133   6.914
 2430SOL    HW2 8190   6.586   0.275   6.860
 2431SOL     OW 8191   1.844   2.427   1.334
 2431SOL    HW1 8192   1.836   2.439   1.235
 2431SOL    HW2 8193   1.930   2.380   1.355
 2432SOL     OW 8194   3.144   6.105   2.488
 2432SOL    HW1 8195   3.123   6.167   2.413
 2432SOL    HW2 8196   3.207   6.151   2.551
 2433SOL     OW 8197   0.593   4.602   4.373
 2433SOL    HW1 8198   0.651   4.676   4.340
 2433SOL    HW2 8199   0.639   4.554   4.447
 2434SOL     OW 8200   3.948   1.867   2.968
 2434SOL    HW1 8201   3.997   1.955   2.967
 2434SOL    HW2 8202   3.963   1.822   3.056
 2435SOL     OW 8203   5.485   6.892   6.454
 2435SOL    HW1 8204   5.583   6.871   6.451
 2435SOL    HW2 8205   5.450   6.872   6.546
 2436SOL     OW 8206   0.142   2.730   0.432
 2436SOL    HW1 8207   0.210   2.799   0.407
 2436SOL    HW2 8208   0.188   2.653   0.476
 2437SOL     OW 8209   1.050   4.645   1.459
 2437SOL    HW1 8210   0.975   4.660   1.524
 2437SOL    HW2 8211   1.012   4.618   1.370
 2438SOL     OW 8212   3.723   1.821   4.398
 2438SOL    HW1 8213   3.817   1.852   4.387
 2438SOL    HW2 8214   3.663   1.900   4.412
 2439SOL     OW 8215   0.467   5.928   0.041
 2439SOL    HW1 8216   0.560   5.917   0.076
 2439SOL    HW2 8217   0.459   5.884   6.978
 2440SOL     OW 8218   6.453   2.415   5.240
 2440SOL    HW1 8219   6.376   2.476   5.260
 2440SOL    HW2 8220   6.464   2.408   5.141
 2441SOL     OW 8221   6.602   0.380   0.119
 2441SOL    HW1 8222   6.679   0.380   0.055
 2441SOL    HW2 8223   6.600   0.467   0.168
 2442SOL     OW 8224   5.410   2.926   2.673
 2442SOL    HW1 8225   5.462   2.957   2.753
 2442SOL    HW2 8226   5.336   2.866   2.704
 2443SOL     OW 8227   0.373   3.206   1.136
 2443SOL    HW1 8228   0.365   3.249   1.046
 2443SOL    HW2 8229   0.293   3.150   1.155
 2444SOL     OW 8230   3.474   5.055   2.656
 2444SOL    HW1 8231   3.450   5.142   2.612
 2444SOL    HW2 8232   3.486   4.984   2.586
 2445SOL     OW 8233   0.634   2.024   1.363
 2445SOL    HW1 8234   0.561   2.000   1.427
 2445SOL    HW2 8235   0.648   1.949   1.299
 2446SOL     OW 8236   6.557   5.754   0.736
 2446SOL    HW1 8237   6.606   5.834   0.699
 2446SOL    HW2 8238   6.585   5.672   0.686
 2447SOL     OW 8239   2.213   6.774   0.215
 2447SOL    HW1 8240   2.170   6.855   0.175
 2447SOL    HW2 8241   2.310   6.790   0.229
 2448SOL     OW 8242   5.791   0.835   4.316
 2448SOL    HW1 8243   5.716   0.899   4.302
 2448SOL    HW2 8244   5.805   0.781   4.233
 2449SOL     OW 8245   2.129   4.177   1.185
 2449SOL    HW1 8246   2.133   4.241   1.108
 2449SOL    HW2 8247   2.114   4.084   1.149
 2450SOL     OW 8248   6.774   6.648   5.174
 2450SOL    HW1 8249   6.865   6.666   5.134
 2450SOL    HW2 8250   6.783   6.637   5.273
 2451SOL     OW 8251   1.282   6.809   6.995
 2451SOL    HW1 8252   1.205   6.758   6.956
 2451SOL    HW2 8253   1.361   6.750   7.004
 2452SOL     OW 8254   1.880   2.246   3.420
 2452SOL    HW1 8255   1.958   2.298   3.385
 2452SOL    HW2 8256   1.797   2.303   3.416
 2453SOL     OW 8257   1.262   2.193   6.228
 2453SOL    HW1 8258   1.354   2.229   6.240
 2453SOL    HW2 8259   1.216   2.243   6.154
 2454SOL     OW 8260   2.534   6.558   7.003
 2454SOL    HW1 8261   2.440   6.533   7.025
 2454SOL    HW2 8262   2.593   6.539   0.055
 2455SOL     OW 8263   4.948   2.288   0.365
 2455SOL    HW1 8264   5.004   2.251   0.291
 2455SOL    HW2 8265   5.007   2.321   0.438
 2456SOL     OW 8266   0.594   3.069   6.135
 2456SOL    HW1 8267   0.597   3.164   6.105
 2456SOL    HW2 8268   0.576   3.066   6.234
 2457SOL     OW 8269   5.137   1.591   6.108
 2457SOL    HW1 8270   5.073   1.642   6.051
 2457SOL    HW2 8271   5.096   1.504   6.136
 2458SOL     OW 8272   1.028   0.184   2.227
 2458SOL    HW1 8273   1.040   0.113   2.157
 2458SOL    HW2 8274   0.970   0.257   2.190
 2459SOL     OW 8275   1.525   6.124   1.639
 2459SOL    HW1 8276   1.565   6.035   1.662
 2459SOL    HW2 8277   1.530   6.184   1.719
 2460SOL     OW 8278   0.255   0.391   4.155
 2460SOL    HW1 8279   0.167   0.350   4.176
 2460SOL    HW2 8280   0.276   0.462   4.223
 2461SOL     OW 8281   2.448   1.146   3.298
 2461SOL    HW1 8282   2.416   1.144   3.393
 2461SOL    HW2 8283   2.450   1.240   3.265
 2462SOL     OW 8284   0.231   6.222   1.002
 2462SOL    HW1 8285   0.241   6.169   0.918
 2462SOL    HW2 8286   0.167   6.297   0.987
 2463SOL     OW 8287   6.828   6.941   0.921
 2463SOL    HW1 8288   6.774   7.021   0.895
 2463SOL    HW2 8289   6.808   6.918   1.017
 2464SOL     OW 8290   0.938   2.345   4.974
 2464SOL    HW1 8291   0.868   2.380   4.912
 2464SOL    HW2 8292   1.008   2.415   4.988
 2465SOL     OW 8293   6.317   1.484   0.165
 2465SOL    HW1 8294   6.412   1.510   0.181
 2465SOL    HW2 8295   6.287   1.521   0.077
 2466SOL     OW 8296   0.835   2.216   1.404
 2466SOL    HW1 8297   0.886   2.260   1.329
 2466SOL    HW2 8298   0.763   2.157   1.366
 2467SOL     OW 8299   5.307   2.278   5.259
 2467SOL    HW1 8300   5.218   2.322   5.274
 2467SOL    HW2 8301   5.318   2.202   5.323
 2468SOL     OW 8302   2.825   0.106   4.931
 2468SOL    HW1 8303   2.798   0.055   4.850
 2468SOL    HW2 8304   2.925   0.110   4.936
 2469SOL     OW 8305   2.790   2.021   6.285
 2469SOL    HW1 8306   2.819   2.040   6.191
 2469SOL    HW2 8307   2.811   1.927   6.308
 2470SOL     OW 8308   1.993   5.455   6.495
 2470SOL    HW1 8309   1.963   5.522   6.562
 2470SOL    HW2 8310   1.951   5.476   6.406
 2471SOL     OW 8311   3.263   5.473   3.023
 2471SOL    HW1 8312   3.328   5.398   3.032
 2471SOL    HW2 8313   3.259   5.525   3.108
 2472SOL     OW 8314   5.057   1.161   3.071
 2472SOL    HW1 8315   5.003   1.110   3.139
 2472SOL    HW2 8316   5.100   1.240   3.116
 2473SOL     OW 8317   0.877   4.109   4.635
 2473SOL    HW1 8318   0.847   4.075   4.546
 2473SOL    HW2 8319   0.970   4.076   4.653
 2474SOL     OW 8320   1.759   6.726   0.934
 2474SOL    HW1 8321   1.729   6.765   0.846
 2474SOL    HW2 8322   1.683   6.725   0.998
 2475SOL     OW 8323   5.404   1.872   0.856
 2475SOL    HW1 8324   5.421   1.798   0.922
 2475SOL    HW2 8325   5.389   1.832   0.766
 2476SOL     OW 8326   4.610   0.164   6.721
 2476SOL    HW1 8327   4.654   0.213   6.796
 2476SOL    HW2 8328   4.680   0.137   6.654
 2477SOL     OW 8329   3.577   1.380   3.625
 2477SOL    HW1 8330   3.638   1.451   3.658
 2477SOL    HW2 8331   3.500   1.369   3.689
 2478SOL     OW 8332   3.497   0.718   4.345
 2478SOL    HW1 8333   3.563   0.657   4.388
 2478SOL    HW2 8334   3.410   0.670   4.334
 2479SOL     OW 8335   5.905   4.304   1.413
 2479SOL    HW1 8336   5.841   4.329   1.340
 2479SOL    HW2 8337   5.999   4.308   1.377
 2480SOL     OW 8338   3.213   2.245   1.489
 2480SOL    HW1 8339   3.256   2.180   1.552
 2480SOL    HW2 8340   3.156   2.309   1.540
 2481SOL     OW 8341   3.122   6.793   2.057
 2481SOL    HW1 8342   3.164   6.783   1.967
 2481SOL    HW2 8343   3.134   6.708   2.109
 2482SOL     OW 8344   6.882   2.867   7.009
 2482SOL    HW1 8345   6.941   2.831   0.055
 2482SOL    HW2 8346   6.787   2.841   7.026
 2483SOL     OW 8347   2.553   2.323   1.504
 2483SOL    HW1 8348   2.514   2.373   1.581
 2483SOL    HW2 8349   2.490   2.251   1.476
 2484SOL     OW 8350   4.253   0.464   6.483
 2484SOL    HW1 8351   4.193   0.454   6.404
 2484SOL    HW2 8352   4.198   0.466   6.567
 2485SOL     OW 8353   0.331   1.395   6.462
 2485SOL    HW1 8354   0.332   1.329   6.537
 2485SOL    HW2 8355   0.392   1.471   6.484
 2486SOL     OW 8356   6.644   6.023   3.438
 2486SOL    HW1 8357   6.701   6.105   3.441
 2486SOL    HW2 8358   6.690   5.952   3.385
 2487SOL     OW 8359   4.302   6.321   0.124
 2487SOL    HW1 8360   4.371   6.391   0.104
 2487SOL    HW2 8361   4.345   6.231   0.124
 2488SOL     OW 8362   6.958   3.925   0.733
 2488SOL    HW1 8363   6.984   3.833   0.762
 2488SOL    HW2 8364   6.947   3.984   0.813
 2489SOL     OW 8365   6.320   5.476   4.702
 2489SOL    HW1 8366   6.300   5.490   4.799
 2489SOL    HW2 8367   6.277   5.391   4.670
 2490SOL     OW 8368   2.607   5.882   1.945
 2490SOL    HW1 8369   2.595   5.783   1.959
 2490SOL    HW2 8370   2.520   5.922   1.915
 2491SOL     OW 8371   3.927   4.626   1.767
 2491SOL    HW1 8372   3.954   4.714   1.727
 2491SOL    HW2 8373   3.856   4.584   1.711
 2492SOL     OW 8374   6.666   5.772   1.460
 2492SOL    HW1 8375   6.739   5.775   1.528
 2492SOL    HW2 8376   6.578   5.771   1.506
 2493SOL     OW 8377   5.891   6.512   0.792
 2493SOL    HW1 8378   5.892   6.452   0.711
 2493SOL    HW2 8379   5.984   6.543   0.812
 2494SOL     OW 8380   6.842   4.027   0.942
 2494SOL    HW1 8381   6.882   4.067   1.025
 2494SOL    HW2 8382   6.746   4.052   0.937
 2495SOL     OW 8383   6.798   3.356   2.061
 2495SOL    HW1 8384   6.882   3.409   2.067
 2495SOL    HW2 8385   6.773   3.345   1.965
 2496SOL     OW 8386   6.018   3.833   5.992
 2496SOL    HW1 8387   6.025   3.767   6.067
 2496SOL    HW2 8388   6.090   3.815   5.925
 2497SOL     OW 8389   0.642   6.947   3.625
 2497SOL    HW1 8390   0.548   6.974   3.646
 2497SOL    HW2 8391   0.688   6.920   3.709
 2498SOL     OW 8392   2.113   3.249   4.588
 2498SOL    HW1 8393   2.132   3.255   4.490
 2498SOL    HW2 8394   2.089   3.340   4.623
 2499SOL     OW 8395   6.242   3.817   2.236
 2499SOL    HW1 8396   6.242   3.728   2.281
 2499SOL    HW2 8397   6.147   3.849   2.226
 2500SOL     OW 8398   3.572   3.435   2.222
 2500SOL    HW1 8399   3.488   3.489   2.216
 2500SOL    HW2 8400   3.550   3.338   2.222
 2501SOL     OW 8401   6.359   5.469   4.977
 2501SOL    HW1 8402   6.458   5.457   4.987
 2501SOL    HW2 8403   6.317   5.468   5.068
 2502SOL     OW 8404   2.837   5.449   3.822
 2502SOL    HW1 8405   2.889   5.451   3.737
 2502SOL    HW2 8406   2.777   5.529   3.827
 2503SOL     OW 8407   2.519   0.328   5.455
 2503SOL    HW1 8408   2.588   0.258   5.438
 2503SOL    HW2 8409   2.441   0.315   5.394
 2504SOL     OW 8410   4.049   0.229   3.468
 2504SOL    HW1 8411   4.139   0.251   3.430
 2504SOL    HW2 8412   4.005   0.313   3.500
 2505SOL     OW 8413   5.694   4.788   4.200
 2505SOL    HW1 8414   5.617   4.852   4.202
 2505SOL    HW2 8415   5.772   4.831   4.154
 2506SOL     OW 8416   6.431   5.268   6.327
 2506SOL    HW1 8417   6.380   5.327   6.265
 2506SOL    HW2 8418   6.521   5.249   6.289
 2507SOL     OW 8419   6.510   3.451   3.273
 2507SOL    HW1 8420   6.455   3.534   3.262
 2507SOL    HW2 8421   6.546   3.422   3.184
 2508SOL     OW 8422   6.295   0.818   3.894
 2508SOL    HW1 8423   6.321   0.870   3.975
 2508SOL    HW2 8424   6.196   0.800   3.896
 2509SOL     OW 8425   0.111   2.675   6.214
 2509SOL    HW1 8426   0.135   2.661   6.310
 2509SOL    HW2 8427   0.195   2.674   6.159
 2510SOL     OW 8428   3.794   4.043   2.267
 2510SOL    HW1 8429   3.814   3.985   2.346
 2510SOL    HW2 8430   3.832   4.001   2.184
 2511SOL     OW 8431   2.387   0.947   4.454
 2511SOL    HW1 8432   2.333   0.912   4.378
 2511SOL    HW2 8433   2.334   0.943   4.539
 2512SOL     OW 8434   3.731   4.860   3.856
 2512SOL    HW1 8435   3.713   4.884   3.951
 2512SOL    HW2 8436   3.826   4.831   3.847
 2513SOL     OW 8437   1.987   5.681   6.669
 2513SOL    HW1 8438   1.946   5.750   6.609
 2513SOL    HW2 8439   2.086   5.695   6.672
 2514SOL     OW 8440   1.680   2.184   2.873
 2514SOL    HW1 8441   1.772   2.203   2.907
 2514SOL    HW2 8442   1.684   2.172   2.774
 2515SOL     OW 8443   6.998   1.892   1.114
 2515SOL    HW1 8444   6.904   1.864   1.133
 2515SOL    HW2 8445   7.001   1.991   1.099
 2516SOL     OW 8446   6.484   2.452   4.971
 2516SOL    HW1 8447   6.409   2.411   4.919
 2516SOL    HW2 8448   6.502   2.544   4.938
 2517SOL     OW 8449   0.069   1.191   4.502
 2517SOL    HW1 8450   0.154   1.147   4.474
 2517SOL    HW2 8451   0.046   1.165   4.595
 2518SOL     OW 8452   2.729   4.108   1.317
 2518SOL    HW1 8453   2.760   4.014   1.299
 2518SOL    HW2 8454   2.772   4.142   1.400
 2519SOL     OW 8455   0.845   0.933   0.905
 2519SOL    HW1 8456   0.821   0.984   0.988
 2519SOL    HW2 8457   0.812   0.983   0.825
 2520SOL     OW 8458   2.526   2.775   0.907
 2520SOL    HW1 8459   2.625   2.788   0.911
 2520SOL    HW2 8460   2.500   2.733   0.820
 2521SOL     OW 8461   4.850   0.330   5.358
 2521SOL    HW1 8462   4.906   0.381   5.293
 2521SOL    HW2 8463   4.756   0.362   5.352
 2522SOL     OW 8464   1.488   1.957   7.025
 2522SOL    HW1 8465   1.547   1.942   6.945
 2522SOL    HW2 8466   1.468   2.054   0.008
 2523SOL     OW 8467   0.923   5.570   5.761
 2523SOL    HW1 8468   1.021   5.549   5.755
 2523SOL    HW2 8469   0.896   5.627   5.684
 2524SOL     OW 8470   1.091   2.036   4.870
 2524SOL    HW1 8471   1.050   2.096   4.939
 2524SOL    HW2 8472   1.018   1.997   4.813
 2525SOL     OW 8473   6.495   2.457   6.105
 2525SOL    HW1 8474   6.589   2.488   6.117
 2525SOL    HW2 8475   6.444   2.470   6.191
 2526SOL     OW 8476   1.476   0.687   0.789
 2526SOL    HW1 8477   1.414   0.727   0.721
 2526SOL    HW2 8478   1.500   0.755   0.858
 2527SOL     OW 8479   3.927   4.955   6.823
 2527SOL    HW1 8480   3.861   4.946   6.898
 2527SOL    HW2 8481   3.953   4.864   6.791
 2528SOL     OW 8482   4.681   5.454   6.291
 2528SOL    HW1 8483   4.764   5.501   6.262
 2528SOL    HW2 8484   4.699   5.356   6.300
 2529SOL     OW 8485   0.815   6.364   5.491
 2529SOL    HW1 8486   0.782   6.299   5.560
 2529SOL    HW2 8487   0.775   6.341   5.402
 2530SOL     OW 8488   2.485   6.120   6.878
 2530SOL    HW1 8489   2.395   6.105   6.921
 2530SOL    HW2 8490   2.538   6.036   6.883
 2531SOL     OW 8491   0.420   4.675   6.179
 2531SOL    HW1 8492   0.495   4.621   6.216
 2531SOL    HW2 8493   0.333   4.642   6.216
 2532SOL     OW 8494   5.775   5.495   2.000
 2532SOL    HW1 8495   5.703   5.550   1.959
 2532SOL    HW2 8496   5.752   5.398   1.991
 2533SOL     OW 8497   4.397   0.871   3.984
 2533SOL    HW1 8498   4.434   0.920   3.905
 2533SOL    HW2 8499   4.297   0.876   3.983
 2534SOL     OW 8500   4.470   1.451   2.491
 2534SOL    HW1 8501   4.404   1.509   2.540
 2534SOL    HW2 8502   4.457   1.462   2.393
 2535SOL     OW 8503   4.035   2.958   6.174
 2535SOL    HW1 8504   4.109   3.017   6.143
 2535SOL    HW2 8505   4.070   2.894   6.242
 2536SOL     OW 8506   1.267   0.262   0.853
 2536SOL    HW1 8507   1.246   0.349   0.897
 2536SOL    HW2 8508   1.331   0.277   0.777
 2537SOL     OW 8509   3.809   6.521   5.211
 2537SOL    HW1 8510   3.729   6.558   5.259
 2537SOL    HW2 8511   3.804   6.422   5.208
 2538SOL     OW 8512   5.869   3.778   3.596
 2538SOL    HW1 8513   5.901   3.863   3.554
 2538SOL    HW2 8514   5.930   3.703   3.568
 2539SOL     OW 8515   4.719   2.287   5.335
 2539SOL    HW1 8516   4.669   2.229   5.269
 2539SOL    HW2 8517   4.792   2.336   5.287
 2540SOL     OW 8518   2.952   2.152   1.625
 2540SOL    HW1 8519   2.907   2.238   1.599
 2540SOL    HW2 8520   2.970   2.097   1.544
 2541SOL     OW 8521   3.419   6.803   3.501
 2541SOL    HW1 8522   3.321   6.800   3.482
 2541SOL    HW2 8523   3.434   6.845   3.591
 2542SOL     OW 8524   1.984   5.967   5.839
 2542SOL    HW1 8525   1.908   5.907   5.814
 2542SOL    HW2 8526   1.998   6.034   5.766
 2543SOL     OW 8527   0.408   1.004   4.021
 2543SOL    HW1 8528   0.337   0.935   4.012
 2543SOL    HW2 8529   0.425   1.047   3.933
 2544SOL     OW 8530   0.579   5.321   5.846
 2544SOL    HW1 8531   0.562   5.400   5.905
 2544SOL    HW2 8532   0.638   5.348   5.770
 2545SOL     OW 8533   2.501   5.643   3.234
 2545SOL    HW1 8534   2.468   5.668   3.325
 2545SOL    HW2 8535   2.507   5.544   3.226
 2546SOL     OW 8536   6.890   0.745   1.682
 2546SOL    HW1 8537   6.885   0.649   1.708
 2546SOL    HW2 8538   6.845   0.801   1.752
 2547SOL     OW 8539   0.668   3.478   5.316
 2547SOL    HW1 8540   0.645   3.425   5.234
 2547SOL    HW2 8541   0.622   3.438   5.395
 2548SOL     OW 8542   0.372   0.709   6.201
 2548SOL    HW1 8543   0.452   0.761   6.230
 2548SOL    HW2 8544   0.303   0.772   6.163
 2549SOL     OW 8545   5.736   2.870   2.448
 2549SOL    HW1 8546   5.694   2.961   2.446
 2549SOL    HW2 8547   5.683   2.808   2.389
 2550SOL     OW 8548   5.677   5.340   6.792
 2550SOL    HW1 8549   5.582   5.328   6.763
 2550SOL    HW2 8550   5.679   5.364   6.889
 2551SOL     OW 8551   1.103   5.191   6.611
 2551SOL    HW1 8552   1.183   5.229   6.565
 2551SOL    HW2 8553   1.052   5.134   6.546
 2552SOL     OW 8554   1.682   5.797   3.536
 2552SOL    HW1 8555   1.638   5.709   3.554
 2552SOL    HW2 8556   1.773   5.782   3.497
 2553SOL     OW 8557   4.138   3.534   0.068
 2553SOL    HW1 8558   4.122   3.547   0.165
 2553SOL    HW2 8559   4.194   3.452   0.054
 2554SOL     OW 8560   1.069   1.855   0.864
 2554SOL    HW1 8561   0.972   1.842   0.841
 2554SOL    HW2 8562   1.095   1.949   0.845
 2555SOL     OW 8563   0.237   0.213   6.218
 2555SOL    HW1 8564   0.204   0.143   6.155
 2555SOL    HW2 8565   0.242   0.301   6.170
 2556SOL     OW 8566   3.966   4.880   0.201
 2556SOL    HW1 8567   3.967   4.902   0.298
 2556SOL    HW2 8568   3.876   4.844   0.175
 2557SOL     OW 8569   1.892   4.675   0.012
 2557SOL    HW1 8570   1.888   4.726   6.953
 2557SOL    HW2 8571   1.879   4.737   0.089
 2558SOL     OW 8572   4.085   0.701   5.232
 2558SOL    HW1 8573   4.184   0.688   5.236
 2558SOL    HW2 8574   4.062   0.796   5.251
 2559SOL     OW 8575   0.713   5.008   5.129
 2559SOL    HW1 8576   0.758   5.092   5.097
 2559SOL    HW2 8577   0.682   4.955   5.050
 2560SOL     OW 8578   5.910   0.890   0.779
 2560SOL    HW1 8579   5.947   0.982   0.787
 2560SOL    HW2 8580   5.865   0.880   0.690
 2561SOL     OW 8581   3.093   5.659   3.945
 2561SOL    HW1 8582   3.131   5.698   3.861
 2561SOL    HW2 8583   3.107   5.560   3.945
 2562SOL     OW 8584   2.270   3.516   0.250
 2562SOL    HW1 8585   2.203   3.453   0.291
 2562SOL    HW2 8586   2.222   3.594   0.210
 2563SOL     OW 8587   1.579   0.475   1.689
 2563SOL    HW1 8588   1.596   0.487   1.591
 2563SOL    HW2 8589   1.517   0.547   1.721
 2564SOL     OW 8590   1.449   6.444   2.457
 2564SOL    HW1 8591   1.493   6.430   2.369
 2564SOL    HW2 8592   1.486   6.380   2.525
 2565SOL     OW 8593   0.845   0.613   1.543
 2565SOL    HW1 8594   0.869   0.516   1.542
 2565SOL    HW2 8595   0.755   0.625   1.585
 2566SOL     OW 8596   2.283   6.788   5.188
 2566SOL    HW1 8597   2.188   6.758   5.187
 2566SOL    HW2 8598   2.324   6.769   5.099
 2567SOL     OW 8599   0.913   0.465   0.946
 2567SOL    HW1 8600   0.883   0.525   1.020
 2567SOL    HW2 8601   1.013   0.470   0.937
 2568SOL     OW 8602   5.431   3.690   0.385
 2568SOL    HW1 8603   5.492   3.628   0.335
 2568SOL    HW2 8604   5.433   3.667   0.483
 2569SOL     OW 8605   2.323   0.663   2.596
 2569SOL    HW1 8606   2.347   0.749   2.550
 2569SOL    HW2 8607   2.406   0.614   2.620
 2570SOL     OW 8608   5.494   2.409   5.959
 2570SOL    HW1 8609   5.480   2.490   5.903
 2570SOL    HW2 8610   5.407   2.381   6.000
 2571SOL     OW 8611   1.142   4.034   4.701
 2571SOL    HW1 8612   1.132   4.025   4.800
 2571SOL    HW2 8613   1.179   4.124   4.679
 2572SOL     OW 8614   1.493   4.531   3.662
 2572SOL    HW1 8615   1.460   4.458   3.603
 2572SOL    HW2 8616   1.539   4.601   3.607
 2573SOL     OW 8617   1.560   0.038   6.998
 2573SOL    HW1 8618   1.627   6.991   7.012
 2573SOL    HW2 8619   1.487   0.030   0.039
 2574SOL     OW 8620   6.476   3.787   0.469
 2574SOL    HW1 8621   6.528   3.725   0.410
 2574SOL    HW2 8622   6.516   3.786   0.561
 2575SOL     OW 8623   0.386   6.628   6.209
 2575SOL    HW1 8624   0.330   6.707   6.188
 2575SOL    HW2 8625   0.463   6.623   6.145
 2576SOL     OW 8626   4.430   6.607   5.245
 2576SOL    HW1 8627   4.353   6.644   5.194
 2576SOL    HW2 8628   4.419   6.508   5.255
 2577SOL     OW 8629   1.421   3.626   2.596
 2577SOL    HW1 8630   1.490   3.693   2.624
 2577SOL    HW2 8631   1.439   3.598   2.501
 2578SOL     OW 8632   4.207   1.765   1.935
 2578SOL    HW1 8633   4.223   1.753   2.033
 2578SOL    HW2 8634   4.248   1.851   1.904
 2579SOL     OW 8635   0.147   6.082   3.019
 2579SOL    HW1 8636   0.079   6.011   3.004
 2579SOL    HW2 8637   0.183   6.074   3.112
 2580SOL     OW 8638   2.773   1.802   5.704
 2580SOL    HW1 8639   2.768   1.867   5.780
 2580SOL    HW2 8640   2.739   1.845   5.621
 2581SOL     OW 8641   3.215   0.490   5.808
 2581SOL    HW1 8642   3.173   0.438   5.882
 2581SOL    HW2 8643   3.266   0.567   5.846
 2582SOL     OW 8644   0.011   3.647   0.795
 2582SOL    HW1 8645   6.995   3.592   0.722
 2582SOL    HW2 8646   0.012   3.594   0.879
 2583SOL     OW 8647   5.178   0.327   0.794
 2583SOL    HW1 8648   5.252   0.308   0.858
 2583SOL    HW2 8649   5.216   0.366   0.710
 2584SOL     OW 8650   3.632   4.514   6.338
 2584SOL    HW1 8651   3.709   4.554   6.386
 2584SOL    HW2 8652   3.559   4.494   6.403
 2585SOL     OW 8653   2.494   5.262   0.271
 2585SOL    HW1 8654   2.589   5.274   0.297
 2585SOL    HW2 8655   2.434   5.293   0.345
 2586SOL     OW 8656   2.408   1.166   3.573
 2586SOL    HW1 8657   2.416   1.139   3.669
 2586SOL    HW2 8658   2.415   1.265   3.565
 2587SOL     OW 8659   5.879   1.148   4.676
 2587SOL    HW1 8660   5.975   1.134   4.700
 2587SOL    HW2 8661   5.835   1.060   4.656
 2588SOL     OW 8662   4.386   1.097   6.900
 2588SOL    HW1 8663   4.288   1.088   6.881
 2588SOL    HW2 8664   4.413   1.193   6.892
 2589SOL     OW 8665   2.216   6.082   6.973
 2589SOL    HW1 8666   2.203   6.122   6.882
 2589SOL    HW2 8667   2.133   6.035   7.001
 2590SOL     OW 8668   2.319   5.315   0.468
 2590SOL    HW1 8669   2.259   5.393   0.455
 2590SOL    HW2 8670   2.279   5.254   0.538
 2591SOL     OW 8671   5.048   6.416   3.120
 2591SOL    HW1 8672   5.066   6.358   3.199
 2591SOL    HW2 8673   5.082   6.509   3.139
 2592SOL     OW 8674   3.242   3.594   0.707
 2592SOL    HW1 8675   3.237   3.627   0.802
 2592SOL    HW2 8676   3.236   3.494   0.707
 2593SOL     OW 8677   3.255   4.701   6.901
 2593SOL    HW1 8678   3.225   4.746   6.985
 2593SOL    HW2 8679   3.237   4.603   6.908
 2594SOL     OW 8680   2.204   2.972   3.326
 2594SOL    HW1 8681   2.262   2.925   3.393
 2594SOL    HW2 8682   2.218   2.931   3.236
 2595SOL     OW 8683   1.949   1.225   2.973
 2595SOL    HW1 8684   1.900   1.285   2.909
 2595SOL    HW2 8685   2.013   1.168   2.922
 2596SOL     OW 8686   0.104   1.486   0.451
 2596SOL    HW1 8687   0.041   1.433   0.394
 2596SOL    HW2 8688   0.112   1.442   0.541
 2597SOL     OW 8689   6.373   6.302   0.463
 2597SOL    HW1 8690   6.308   6.333   0.533
 2597SOL    HW2 8691   6.459   6.277   0.508
 2598SOL     OW 8692   4.934   2.844   2.073
 2598SOL    HW1 8693   4.971   2.788   1.999
 2598SOL    HW2 8694   4.857   2.897   2.039
 2599SOL     OW 8695   2.529   5.640   2.521
 2599SOL    HW1 8696   2.493   5.670   2.433
 2599SOL    HW2 8697   2.458   5.589   2.570
 2600SOL     OW 8698   5.780   4.745   4.756
 2600SOL    HW1 8699   5.791   4.841   4.783
 2600SOL    HW2 8700   5.739   4.740   4.665
 2601SOL     OW 8701   6.648   1.234   4.152
 2601SOL    HW1 8702   6.613   1.182   4.230
 2601SOL    HW2 8703   6.571   1.273   4.100
 2602SOL     OW 8704   0.791   4.793   2.826
 2602SOL    HW1 8705   0.863   4.735   2.789
 2602SOL    HW2 8706   0.702   4.755   2.801
 2603SOL     OW 8707   1.558   5.757   1.982
 2603SOL    HW1 8708   1.586   5.841   1.936
 2603SOL    HW2 8709   1.533   5.778   2.077
 2604SOL     OW 8710   4.943   3.319   3.057
 2604SOL    HW1 8711   4.898   3.246   3.109
 2604SOL    HW2 8712   5.023   3.281   3.010
 2605SOL     OW 8713   1.318   2.451   0.896
 2605SOL    HW1 8714   1.363   2.451   0.807
 2605SOL    HW2 8715   1.385   2.435   0.968
 2606SOL     OW 8716   5.091   3.964   0.989
 2606SOL    HW1 8717   5.041   4.039   1.033
 2606SOL    HW2 8718   5.040   3.879   1.003
 2607SOL     OW 8719   2.418   2.709   1.824
 2607SOL    HW1 8720   2.475   2.629   1.807
 2607SOL    HW2 8721   2.451   2.786   1.769
 2608SOL     OW 8722   3.293   5.094   4.539
 2608SOL    HW1 8723   3.325   5.060   4.627
 2608SOL    HW2 8724   3.193   5.091   4.537
 2609SOL     OW 8725   0.166   1.901   1.368
 2609SOL    HW1 8726   0.251   1.947   1.391
 2609SOL    HW2 8727   0.180   1.841   1.289
 2610SOL     OW 8728   1.250   4.469   4.814
 2610SOL    HW1 8729   1.267   4.415   4.732
 2610SOL    HW2 8730   1.200   4.413   4.880
 2611SOL     OW 8731   5.701   0.945   5.533
 2611SOL    HW1 8732   5.645   0.864   5.513
 2611SOL    HW2 8733   5.722   0.992   5.447
 2612SOL     OW 8734   6.705   6.747   0.381
 2612SOL    HW1 8735   6.790   6.696   0.400
 2612SOL    HW2 8736   6.648   6.694   0.318
 2613SOL     OW 8737   1.557   6.499   0.627
 2613SOL    HW1 8738   1.494   6.464   0.696
 2613SOL    HW2 8739   1.650   6.469   0.648
 2614SOL     OW 8740   5.406   2.248   0.981
 2614SOL    HW1 8741   5.424   2.191   0.900
 2614SOL    HW2 8742   5.408   2.191   1.063
 2615SOL     OW 8743   1.068   3.377   6.225
 2615SOL    HW1 8744   1.015   3.460   6.243
 2615SOL    HW2 8745   1.028   3.301   6.276
 2616SOL     OW 8746   1.251   1.129   4.693
 2616SOL    HW1 8747   1.298   1.110   4.607
 2616SOL    HW2 8748   1.288   1.069   4.765
 2617SOL     OW 8749   5.438   0.186   0.339
 2617SOL    HW1 8750   5.504   0.236   0.396
 2617SOL    HW2 8751   5.362   0.156   0.396
 2618SOL     OW 8752   1.472   0.663   0.161
 2618SOL    HW1 8753   1.470   0.585   0.099
 2618SOL    HW2 8754   1.560   0.666   0.209
 2619SOL     OW 8755   4.732   1.183   2.720
 2619SOL    HW1 8756   4.714   1.227   2.632
 2619SOL    HW2 8757   4.646   1.173   2.770
 2620SOL     OW 8758   5.963   2.382   2.353
 2620SOL    HW1 8759   5.975   2.423   2.263
 2620SOL    HW2 8760   5.914   2.295   2.343
 2621SOL     OW 8761   2.733   6.511   1.531
 2621SOL    HW1 8762   2.801   6.466   1.473
 2621SOL    HW2 8763   2.744   6.610   1.525
 2622SOL     OW 8764   2.512   3.951   6.686
 2622SOL    HW1 8765   2.443   3.983   6.621
 2622SOL    HW2 8766   2.500   3.853   6.702
 2623SOL     OW 8767   0.121   1.373   3.570
 2623SOL    HW1 8768   0.068   1.432   3.629
 2623SOL    HW2 8769   0.093   1.278   3.583
 2624SOL     OW 8770   1.339   1.990   5.617
 2624SOL    HW1 8771   1.422   1.964   5.569
 2624SOL    HW2 8772   1.321   2.088   5.602
 2625SOL     OW 8773   3.310   5.318   6.109
 2625SOL    HW1 8774   3.349   5.242   6.160
 2625SOL    HW2 8775   3.212   5.325   6.128
 2626SOL     OW 8776   0.115   6.824   0.448
 2626SOL    HW1 8777   0.104   6.906   0.505
 2626SOL    HW2 8778   0.128   6.850   0.353
 2627SOL     OW 8779   1.996   0.343   5.706
 2627SOL    HW1 8780   2.063   0.383   5.644
 2627SOL    HW2 8781   2.035   0.336   5.798
 2628SOL     OW 8782   6.982   5.549   1.477
 2628SOL    HW1 8783   0.014   5.469   1.483
 2628SOL    HW2 8784   0.011   5.630   1.462
 2629SOL     OW 8785   3.270   3.953   2.925
 2629SOL    HW1 8786   3.342   4.022   2.930
 2629SOL    HW2 8787   3.242   3.942   2.829
 2630SOL     OW 8788   3.321   0.586   4.918
 2630SOL    HW1 8789   3.354   0.567   4.826
 2630SOL    HW2 8790   3.223   0.567   4.922
 2631SOL     OW 8791   4.440   6.199   0.525
 2631SOL    HW1 8792   4.386   6.250   0.592
 2631SOL    HW2 8793   4.490   6.125   0.570
 2632SOL     OW 8794   4.803   4.872   1.905
 2632SOL    HW1 8795   4.858   4.831   1.978
 2632SOL    HW2 8796   4.783   4.803   1.836
 2633SOL     OW 8797   0.164   2.888   5.851
 2633SOL    HW1 8798   0.087   2.952   5.849
 2633SOL    HW2 8799   0.228   2.910   5.777
 2634SOL     OW 8800   1.909   2.237   6.078
 2634SOL    HW1 8801   1.940   2.331   6.084
 2634SOL    HW2 8802   1.868   2.209   6.165
 2635SOL     OW 8803   4.006   5.331   3.159
 2635SOL    HW1 8804   4.098   5.308   3.129
 2635SOL    HW2 8805   3.943   5.325   3.081
 2636SOL     OW 8806   3.204   6.629   6.206
 2636SOL    HW1 8807   3.231   6.552   6.265
 2636SOL    HW2 8808   3.105   6.643   6.214
 2637SOL     OW 8809   0.386   1.769   2.949
 2637SOL    HW1 8810   0.439   1.685   2.939
 2637SOL    HW2 8811   0.307   1.766   2.888
 2638SOL     OW 8812   0.752   6.502   4.599
 2638SOL    HW1 8813   0.655   6.509   4.621
 2638SOL    HW2 8814   0.771   6.414   4.557
 2639SOL     OW 8815   4.771   5.442   4.925
 2639SOL    HW1 8816   4.790   5.405   4.834
 2639SOL    HW2 8817   4.756   5.540   4.919
 2640SOL     OW 8818   2.129   0.948   3.163
 2640SOL    HW1 8819   2.196   0.984   3.098
 2640SOL    HW2 8820   2.074   1.023   3.199
 2641SOL     OW 8821   5.296   2.187   0.532
 2641SOL    HW1 8822   5.348   2.162   0.614
 2641SOL    HW2 8823   5.356   2.233   0.467
 2642SOL     OW 8824   0.478   0.416   2.445
 2642SOL    HW1 8825   0.426   0.480   2.390
 2642SOL    HW2 8826   0.416   0.359   2.498
 2643SOL     OW 8827   1.844   4.415   4.298
 2643SOL    HW1 8828   1.930   4.462   4.277
 2643SOL    HW2 8829   1.833   4.338   4.235
 2644SOL     OW 8830   5.525   5.463   3.651
 2644SOL    HW1 8831   5.599   5.476   3.585
 2644SOL    HW2 8832   5.448   5.522   3.627
 2645SOL     OW 8833   4.521   5.993   2.771
 2645SOL    HW1 8834   4.423   5.990   2.786
 2645SOL    HW2 8835   4.568   6.012   2.858
 2646SOL     OW 8836   1.101   1.989   6.379
 2646SOL    HW1 8837   1.119   1.981   6.477
 2646SOL    HW2 8838   1.140   2.074   6.345
 2647SOL     OW 8839   4.298   0.384   3.056
 2647SOL    HW1 8840   4.293   0.399   3.155
 2647SOL    HW2 8841   4.243   0.304   3.031
 2648SOL     OW 8842   1.775   0.509   5.727
 2648SOL    HW1 8843   1.758   0.494   5.825
 2648SOL    HW2 8844   1.855   0.456   5.699
 2649SOL     OW 8845   6.067   1.975   3.783
 2649SOL    HW1 8846   6.095   1.947   3.875
 2649SOL    HW2 8847   6.121   2.053   3.753
 2650SOL     OW 8848   2.110   6.719   4.608
 2650SOL    HW1 8849   2.097   6.637   4.663
 2650SOL    HW2 8850   2.126   6.798   4.667
 2651SOL     OW 8851   3.715   1.575   3.253
 2651SOL    HW1 8852   3.706   1.674   3.267
 2651SOL    HW2 8853   3.725   1.529   3.341
 2652SOL     OW 8854   4.572   3.885   5.597
 2652SOL    HW1 8855   4.494   3.840   5.641
 2652SOL    HW2 8856   4.540   3.965   5.546
 2653SOL     OW 8857   2.043   6.332   6.967
 2653SOL    HW1 8858   1.959   6.292   7.005
 2653SOL    HW2 8859   2.032   6.343   6.868
 2654SOL     OW 8860   6.936   0.620   1.134
 2654SOL    HW1 8861   6.892   0.534   1.108
 2654SOL    HW2 8862   6.985   0.656   1.054
 2655SOL     OW 8863   5.158   6.912   3.045
 2655SOL    HW1 8864   5.090   6.965   2.994
 2655SOL    HW2 8865   5.160   6.944   3.140
 2656SOL     OW 8866   4.713   6.881   4.586
 2656SOL    HW1 8867   4.685   6.818   4.658
 2656SOL    HW2 8868   4.632   6.927   4.549
 2657SOL     OW 8869   1.611   3.442   6.425
 2657SOL    HW1 8870   1.514   3.429   6.401
 2657SOL    HW2 8871   1.625   3.535   6.457
 2658SOL     OW 8872   3.819   4.583   0.365
 2658SOL    HW1 8873   3.850   4.496   0.325
 2658SOL    HW2 8874   3.741   4.566   0.425
 2659SOL     OW 8875   0.509   2.150   5.288
 2659SOL    HW1 8876   0.431   2.135   5.228
 2659SOL    HW2 8877   0.479   2.193   5.373
 2660SOL     OW 8878   1.054   1.381   0.471
 2660SOL    HW1 8879   0.972   1.420   0.428
 2660SOL    HW2 8880   1.117   1.350   0.400
 2661SOL     OW 8881   2.300   0.724   0.976
 2661SOL    HW1 8882   2.211   0.741   0.934
 2661SOL    HW2 8883   2.298   0.637   1.025
 2662SOL     OW 8884   2.687   1.868   1.671
 2662SOL    HW1 8885   2.741   1.922   1.737
 2662SOL    HW2 8886   2.673   1.776   1.708
 2663SOL     OW 8887   3.730   0.659   0.883
 2663SOL    HW1 8888   3.633   0.638   0.873
 2663SOL    HW2 8889   3.784   0.579   0.857
 2664SOL     OW 8890   5.129   3.302   5.870
 2664SOL    HW1 8891   5.211   3.350   5.837
 2664SOL    HW2 8892   5.153   3.247   5.949
 2665SOL     OW 8893   1.346   3.230   4.792
 2665SOL    HW1 8894   1.412   3.170   4.837
 2665SOL    HW2 8895   1.254   3.192   4.804
 2666SOL     OW 8896   1.951   3.670   1.882
 2666SOL    HW1 8897   1.890   3.677   1.962
 2666SOL    HW2 8898   2.022   3.740   1.888
 2667SOL     OW 8899   6.176   2.496   4.640
 2667SOL    HW1 8900   6.248   2.537   4.585
 2667SOL    HW2 8901   6.200   2.501   4.737
 2668SOL     OW 8902   5.639   0.639   4.533
 2668SOL    HW1 8903   5.607   0.657   4.626
 2668SOL    HW2 8904   5.569   0.669   4.468
 2669SOL     OW 8905   2.351   1.297   1.879
 2669SOL    HW1 8906   2.415   1.291   1.803
 2669SOL    HW2 8907   2.362   1.385   1.925
 2670SOL     OW 8908   0.977   0.316   1.327
 2670SOL    HW1 8909   0.912   0.300   1.401
 2670SOL    HW2 8910   0.945   0.392   1.271
 2671SOL     OW 8911   5.894   4.054   6.115
 2671SOL    HW1 8912   5.942   3.976   6.074
 2671SOL    HW2 8913   5.919   4.138   6.067
 2672SOL     OW 8914   2.260   1.686   2.458
 2672SOL    HW1 8915   2.249   1.636   2.372
 2672SOL    HW2 8916   2.286   1.780   2.439
 2673SOL     OW 8917   3.379   0.282   3.072
 2673SOL    HW1 8918   3.461   0.307   3.123
 2673SOL    HW2 8919   3.404   0.253   2.980
 2674SOL     OW 8920   6.118   5.829   3.489
 2674SOL    HW1 8921   6.135   5.827   3.391
 2674SOL    HW2 8922   6.092   5.922   3.516
 2675SOL     OW 8923   4.805   1.233   4.310
 2675SOL    HW1 8924   4.821   1.139   4.279
 2675SOL    HW2 8925   4.746   1.232   4.390
 2676SOL     OW 8926   4.021   3.486   5.355
 2676SOL    HW1 8927   4.062   3.576   5.341
 2676SOL    HW2 8928   4.032   3.432   5.271
 2677SOL     OW 8929   1.384   5.670   0.883
 2677SOL    HW1 8930   1.412   5.749   0.937
 2677SOL    HW2 8931   1.429   5.588   0.918
 2678SOL     OW 8932   3.541   2.034   1.908
 2678SOL    HW1 8933   3.612   2.104   1.898
 2678SOL    HW2 8934   3.548   1.968   1.833
 2679SOL     OW 8935   2.057   3.390   2.359
 2679SOL    HW1 8936   1.957   3.389   2.357
 2679SOL    HW2 8937   2.090   3.465   2.301
 2680SOL     OW 8938   5.629   2.756   6.511
 2680SOL    HW1 8939   5.601   2.844   6.548
 2680SOL    HW2 8940   5.713   2.767   6.457
 2681SOL     OW 8941   2.620   2.520   3.300
 2681SOL    HW1 8942   2.628   2.538   3.398
 2681SOL    HW2 8943   2.697   2.464   3.270
 2682SOL     OW 8944   3.608   4.156   2.429
 2682SOL    HW1 8945   3.617   4.117   2.520
 2682SOL    HW2 8946   3.679   4.119   2.369
 2683SOL     OW 8947   1.625   3.203   1.401
 2683SOL    HW1 8948   1.601   3.283   1.457
 2683SOL    HW2 8949   1.607   3.224   1.305
 2684SOL     OW 8950   4.957   0.799   4.055
 2684SOL    HW1 8951   4.916   0.801   3.963
 2684SOL    HW2 8952   5.023   0.874   4.063
 2685SOL     OW 8953   1.685   6.744   5.638
 2685SOL    HW1 8954   1.643   6.657   5.612
 2685SOL    HW2 8955   1.615   6.815   5.639
 2686SOL     OW 8956   1.837   2.243   5.822
 2686SOL    HW1 8957   1.783   2.163   5.796
 2686SOL    HW2 8958   1.882   2.226   5.910
 2687SOL     OW 8959   3.833   2.523   1.721
 2687SOL    HW1 8960   3.786   2.609   1.739
 2687SOL    HW2 8961   3.787   2.449   1.771
 2688SOL     OW 8962   3.980   2.555   7.017
 2688SOL    HW1 8963   3.901   2.493   7.014
 2688SOL    HW2 8964   3.978   2.617   6.939
 2689SOL     OW 8965   6.800   4.172   2.227
 2689SOL    HW1 8966   6.823   4.257   2.180
 2689SOL    HW2 8967   6.804   4.186   2.326
 2690SOL     OW 8968   5.278   1.295   4.678
 2690SOL    HW1 8969   5.226   1.229   4.733
 2690SOL    HW2 8970   5.216   1.339   4.613
 2691SOL     OW 8971   6.341   3.381   3.949
 2691SOL    HW1 8972   6.371   3.385   3.854
 2691SOL    HW2 8973   6.306   3.471   3.977
 2692SOL     OW 8974   1.516   5.217   1.451
 2692SOL    HW1 8975   1.464   5.151   1.398
 2692SOL    HW2 8976   1.500   5.309   1.415
 2693SOL     OW 8977   0.569   5.627   2.694
 2693SOL    HW1 8978   0.640   5.668   2.751
 2693SOL    HW2 8979   0.479   5.653   2.729
 2694SOL     OW 8980   2.162   0.412   2.442
 2694SOL    HW1 8981   2.101   0.352   2.493
 2694SOL    HW2 8982   2.257   0.394   2.469
 2695SOL     OW 8983   6.647   5.787   3.716
 2695SOL    HW1 8984   6.600   5.824   3.795
 2695SOL    HW2 8985   6.686   5.863   3.662
 2696SOL     OW 8986   4.022   4.446   6.554
 2696SOL    HW1 8987   3.936   4.411   6.591
 2696SOL    HW2 8988   4.084   4.466   6.630
 2697SOL     OW 8989   4.083   2.231   0.082
 2697SOL    HW1 8990   4.092   2.192   7.016
 2697SOL    HW2 8991   4.076   2.330   0.075
 2698SOL     OW 8992   1.784   5.764   6.873
 2698SOL    HW1 8993   1.866   5.706   6.880
 2698SOL    HW2 8994   1.801   5.851   6.918
 2699SOL     OW 8995   2.779   6.482   2.312
 2699SOL    HW1 8996   2.695   6.491   2.259
 2699SOL    HW2 8997   2.791   6.386   2.338
 2700SOL     OW 8998   4.436   2.040   1.547
 2700SOL    HW1 8999   4.409   1.953   1.507
 2700SOL    HW2 9000   4.420   2.038   1.646
 2701SOL     OW 9001   5.389   3.533   5.361
 2701SOL    HW1 9002   5.306   3.492   5.398
 2701SOL    HW2 9003   5.376   3.552   5.263
 2702SOL     OW 9004   1.829   1.893   4.821
 2702SOL    HW1 9005   1.750   1.836   4.844
 2702SOL    HW2 9006   1.848   1.955   4.897
 2703SOL     OW 9007   2.223   6.135   1.743
 2703SOL    HW1 9008   2.130   6.139   1.780
 2703SOL    HW2 9009   2.258   6.228   1.732
 2704SOL     OW 9010   4.291   1.071   3.558
 2704SOL    HW1 9011   4.294   1.000   3.487
 2704SOL    HW2 9012   4.314   1.159   3.518
 2705SOL     OW 9013   1.063   6.970   5.441
 2705SOL    HW1 9014   1.150   7.017   5.430
 2705SOL    HW2 9015   1.014   6.971   5.354
 2706SOL     OW 9016   0.023   4.449   4.375
 2706SOL    HW1 9017   0.052   4.540   4.345
 2706SOL    HW2 9018   0.095   4.408   4.431
 2707SOL     OW 9019   4.387   1.221   3.109
 2707SOL    HW1 9020   4.437   1.290   3.161
 2707SOL    HW2 9021   4.291   1.221   3.135
 2708SOL     OW 9022   5.707   3.220   5.500
 2708SOL    HW1 9023   5.800   3.197   5.528
 2708SOL    HW2 9024   5.690   3.318   5.515
 2709SOL     OW 9025   5.444   0.998   5.892
 2709SOL    HW1 9026   5.484   1.060   5.824
 2709SOL    HW2 9027   5.512   0.932   5.921
 2710SOL     OW 9028   0.962   2.912   4.147
 2710SOL    HW1 9029   0.945   2.970   4.227
 2710SOL    HW2 9030   0.880   2.859   4.126
 2711SOL     OW 9031   4.914   1.223   1.813
 2711SOL    HW1 9032   4.826   1.178   1.801
 2711SOL    HW2 9033   4.915   1.308   1.760
 2712SOL     OW 9034   4.886   6.308   1.929
 2712SOL    HW1 9035   4.816   6.341   1.866
 2712SOL    HW2 9036   4.975   6.344   1.902
 2713SOL     OW 9037   3.596   4.896   5.272
 2713SOL    HW1 9038   3.624   4.986   5.238
 2713SOL    HW2 9039   3.502   4.878   5.244
 2714SOL     OW 9040   3.006   4.214   6.056
 2714SOL    HW1 9041   3.037   4.171   5.972
 2714SOL    HW2 9042   3.085   4.248   6.107
 2715SOL     OW 9043   4.699   6.537   0.214
 2715SOL    HW1 9044   4.660   6.450   0.243
 2715SOL    HW2 9045   4.768   6.566   0.281
 2716SOL     OW 9046   4.859   1.160   2.329
 2716SOL    HW1 9047   4.958   1.175   2.324
 2716SOL    HW2 9048   4.837   1.067   2.299
 2717SOL     OW 9049   0.794   1.839   2.469
 2717SOL    HW1 9050   0.795   1.905   2.544
 2717SOL    HW2 9051   0.703   1.798   2.462
 2718SOL     OW 9052   0.018   1.302   5.923
 2718SOL    HW1 9053   7.010   1.315   5.830
 2718SOL    HW2 9054   0.042   1.390   5.963
 2719SOL     OW 9055   1.145   4.855   3.509
 2719SOL    HW1 9056   1.160   4.923   3.438
 2719SOL    HW2 9057   1.056   4.871   3.552
 2720SOL     OW 9058   1.886   5.080   6.473
 2720SOL    HW1 9059   1.941   5.000   6.451
 2720SOL    HW2 9060   1.927   5.127   6.552
 2721SOL     OW 9061   2.326   5.835   3.999
 2721SOL    HW1 9062   2.390   5.911   4.005
 2721SOL    HW2 9063   2.375   5.752   3.974
 2722SOL     OW 9064   3.332   3.979   6.729
 2722SOL    HW1 9065   3.332   4.036   6.811
 2722SOL    HW2 9066   3.276   3.898   6.746
 2723SOL     OW 9067   3.739   5.387   0.203
 2723SOL    HW1 9068   3.771   5.304   0.156
 2723SOL    HW2 9069   3.639   5.390   0.200
 2724SOL     OW 9070   6.654   6.046   0.699
 2724SOL    HW1 9071   6.615   6.138   0.698
 2724SOL    HW2 9072   6.714   6.037   0.779
 2725SOL     OW 9073   6.309   4.858   2.716
 2725SOL    HW1 9074   6.262   4.836   2.630
 2725SOL    HW2 9075   6.346   4.950   2.711
 2726SOL     OW 9076   6.551   2.345   2.814
 2726SOL    HW1 9077   6.518   2.438   2.830
 2726SOL    HW2 9078   6.473   2.282   2.813
 2727SOL     OW 9079   1.701   4.788   3.885
 2727SOL    HW1 9080   1.768   4.713   3.892
 2727SOL    HW2 9081   1.626   4.771   3.949
 2728SOL     OW 9082   5.125   5.013   5.995
 2728SOL    HW1 9083   5.067   5.087   6.029
 2728SOL    HW2 9084   5.221   5.039   6.004
 2729SOL     OW 9085   6.792   0.555   0.280
 2729SOL    HW1 9086   6.823   0.467   0.315
 2729SOL    HW2 9087   6.870   0.617   0.270
 2730SOL     OW 9088   1.329   5.490   2.938
 2730SOL    HW1 9089   1.330   5.511   3.036
 2730SOL    HW2 9090   1.318   5.575   2.886
 2731SOL     OW 9091   4.133   3.707   5.259
 2731SOL    HW1 9092   4.219   3.670   5.224
 2731SOL    HW2 9093   4.150   3.794   5.305
 2732SOL     OW 9094   4.604   0.747   2.339
 2732SOL    HW1 9095   4.548   0.820   2.300
 2732SOL    HW2 9096   4.619   0.676   2.270
 2733SOL     OW 9097   0.679   0.287   0.898
 2733SOL    HW1 9098   0.753   0.353   0.914
 2733SOL    HW2 9099   0.664   0.233   0.980
 2734SOL     OW 9100   3.054   0.209   1.977
 2734SOL    HW1 9101   2.954   0.212   1.987
 2734SOL    HW2 9102   3.094   0.159   2.054
 2735SOL     OW 9103   0.886   2.313   2.726
 2735SOL    HW1 9104   0.873   2.391   2.664
 2735SOL    HW2 9105   0.865   2.341   2.820
 2736SOL     OW 9106   5.502   4.975   2.891
 2736SOL    HW1 9107   5.471   5.070   2.894
 2736SOL    HW2 9108   5.466   4.932   2.808
 2737SOL     OW 9109   2.512   0.345   6.107
 2737SOL    HW1 9110   2.600   0.368   6.064
 2737SOL    HW2 9111   2.523   0.345   6.207
 2738SOL     OW 9112   5.083   6.264   1.153
 2738SOL    HW1 9113   5.053   6.170   1.167
 2738SOL    HW2 9114   5.016   6.313   1.097
 2739SOL     OW 9115   0.573   5.362   1.688
 2739SOL    HW1 9116   0.561   5.275   1.640
 2739SOL    HW2 9117   0.488   5.415   1.683
 2740SOL     OW 9118   6.454   5.931   5.127
 2740SOL    HW1 9119   6.541   5.882   5.122
 2740SOL    HW2 9120   6.427   5.942   5.222
 2741SOL     OW 9121   0.592   0.148   0.016
 2741SOL    HW1 9122   0.525   0.193   6.983
 2741SOL    HW2 9123   0.624   0.064   6.998
 2742SOL     OW 9124   2.538   5.082   2.181
 2742SOL    HW1 9125   2.560   5.022   2.104
 2742SOL    HW2 9126   2.605   5.156   2.185
 2743SOL     OW 9127   5.875   1.818   2.634
 2743SOL    HW1 9128   5.933   1.779   2.705
 2743SOL    HW2 9129   5.848   1.746   2.569
 2744SOL     OW 9130   3.146   4.028   2.410
 2744SOL    HW1 9131   3.066   4.085   2.390
 2744SOL    HW2 9132   3.228   4.071   2.371
 2745SOL     OW 9133   0.365   6.302   6.885
 2745SOL    HW1 9134   0.296   6.241   6.923
 2745SOL    HW2 9135   0.452   6.253   6.878
 2746SOL     OW 9136   1.688   0.680   4.686
 2746SOL    HW1 9137   1.759   0.741   4.651
 2746SOL    HW2 9138   1.707   0.587   4.656
 2747SOL     OW 9139   4.645   4.804   7.013
 2747SOL    HW1 9140   4.737   4.837   6.991
 2747SOL    HW2 9141   4.646   4.704   7.017
 2748SOL     OW 9142   4.258   0.287   0.528
 2748SOL    HW1 9143   4.350   0.281   0.489
 2748SOL    HW2 9144   4.213   0.198   0.519
 2749SOL     OW 9145   3.682   0.665   0.153
 2749SOL    HW1 9146   3.598   0.635   0.107
 2749SOL    HW2 9147   3.672   0.651   0.252
 2750SOL     OW 9148   2.025   6.186   2.188
 2750SOL    HW1 9149   2.036   6.264   2.249
 2750SOL    HW2 9150   2.101   6.122   2.199
 2751SOL     OW 9151   6.264   5.174   1.358
 2751SOL    HW1 9152   6.185   5.178   1.419
 2751SOL    HW2 9153   6.334   5.114   1.397
 2752SOL     OW 9154   4.327   5.282   6.312
 2752SOL    HW1 9155   4.366   5.191   6.323
 2752SOL    HW2 9156   4.400   5.348   6.294
 2753SOL     OW 9157   4.916   4.624   6.017
 2753SOL    HW1 9158   4.956   4.608   5.927
 2753SOL    HW2 9159   4.873   4.539   6.050
 2754SOL     OW 9160   1.409   0.705   4.655
 2754SOL    HW1 9161   1.507   0.685   4.642
 2754SOL    HW2 9162   1.373   0.750   4.574
 2755SOL     OW 9163   3.213   0.258   2.488
 2755SOL    HW1 9164   3.237   0.170   2.447
 2755SOL    HW2 9165   3.132   0.295   2.443
 2756SOL     OW 9166   4.952   5.284   6.513
 2756SOL    HW1 9167   4.874   5.330   6.556
 2756SOL    HW2 9168   5.025   5.271   6.579
 2757SOL     OW 9169   0.643   4.797   0.668
 2757SOL    HW1 9170   0.722   4.737   0.653
 2757SOL    HW2 9171   0.650   4.839   0.758
 2758SOL     OW 9172   4.856   0.153   5.890
 2758SOL    HW1 9173   4.859   0.195   5.799
 2758SOL    HW2 9174   4.763   0.161   5.928
 2759SOL     OW 9175   4.831   4.946   3.970
 2759SOL    HW1 9176   4.857   4.892   3.890
 2759SOL    HW2 9177   4.897   5.020   3.983
 2760SOL     OW 9178   0.707   5.962   3.467
 2760SOL    HW1 9179   0.645   6.025   3.420
 2760SOL    HW2 9180   0.753   6.010   3.542
 2761SOL     OW 9181   2.373   5.034   4.770
 2761SOL    HW1 9182   2.426   5.118   4.783
 2761SOL    HW2 9183   2.276   5.056   4.764
 2762SOL     OW 9184   1.670   2.029   5.753
 2762SOL    HW1 9185   1.595   2.094   5.759
 2762SOL    HW2 9186   1.666   1.979   5.667
 2763SOL     OW 9187   5.243   6.945   1.892
 2763SOL    HW1 9188   5.188   7.005   1.951
 2763SOL    HW2 9189   5.192   6.861   1.874
 2764SOL     OW 9190   6.393   0.701   2.020
 2764SOL    HW1 9191   6.297   0.696   2.049
 2764SOL    HW2 9192   6.427   0.609   2.005
 2765SOL     OW 9193   5.672   1.973   3.251
 2765SOL    HW1 9194   5.749   1.914   3.225
 2765SOL    HW2 9195   5.611   1.984   3.172
 2766SOL     OW 9196   5.567   6.776   2.554
 2766SOL    HW1 9197   5.542   6.701   2.616
 2766SOL    HW2 9198   5.591   6.857   2.607
 2767SOL     OW 9199   6.736   4.317   5.438
 2767SOL    HW1 9200   6.669   4.264   5.490
 2767SOL    HW2 9201   6.696   4.341   5.349
 2768SOL     OW 9202   5.905   0.860   6.508
 2768SOL    HW1 9203   5.988   0.886   6.556
 2768SOL    HW2 9204   5.829   0.917   6.539
 2769SOL     OW 9205   0.873   4.038   0.785
 2769SOL    HW1 9206   0.846   4.053   0.880
 2769SOL    HW2 9207   0.973   4.026   0.780
 2770SOL     OW 9208   4.866   6.067   2.623
 2770SOL    HW1 9209   4.926   6.068   2.543
 2770SOL    HW2 9210   4.771   6.080   2.593
 2771SOL     OW 9211   4.797   0.380   1.460
 2771SOL    HW1 9212   4.763   0.422   1.376
 2771SOL    HW2 9213   4.727   0.318   1.497
 2772SOL     OW 9214   3.468   1.031   6.799
 2772SOL    HW1 9215   3.517   0.968   6.859
 2772SOL    HW2 9216   3.529   1.105   6.771
 2773SOL     OW 9217   3.012   4.307   1.492
 2773SOL    HW1 9218   2.991   4.223   1.542
 2773SOL    HW2 9219   2.949   4.379   1.520
 2774SOL     OW 9220   4.985   3.093   1.943
 2774SOL    HW1 9221   5.034   3.154   2.006
 2774SOL    HW2 9222   4.898   3.066   1.984
 2775SOL     OW 9223   0.162   0.035   2.534
 2775SOL    HW1 9224   0.236   0.101   2.550
 2775SOL    HW2 9225   0.105   0.030   2.617
 2776SOL     OW 9226   2.788   6.062   0.332
 2776SOL    HW1 9227   2.876   6.111   0.335
 2776SOL    HW2 9228   2.719   6.122   0.291
 2777SOL     OW 9229   1.459   2.620   4.118
 2777SOL    HW1 9230   1.480   2.583   4.209
 2777SOL    HW2 9231   1.487   2.716   4.114
 2778SOL     OW 9232   3.033   2.039   5.145
 2778SOL    HW1 9233   3.061   2.131   5.117
 2778SOL    HW2 9234   3.098   2.002   5.210
 2779SOL     OW 9235   6.215   1.026   0.659
 2779SOL    HW1 9236   6.120   1.057   0.669
 2779SOL    HW2 9237   6.236   0.960   0.730
 2780SOL     OW 9238   3.434   5.870   6.630
 2780SOL    HW1 9239   3.374   5.861   6.710
 2780SOL    HW2 9240   3.430   5.964   6.596
 2781SOL     OW 9241   5.322   3.920   6.242
 2781SOL    HW1 9242   5.274   3.833   6.249
 2781SOL    HW2 9243   5.412   3.912   6.285
 2782SOL     OW 9244   3.582   0.769   5.253
 2782SOL    HW1 9245   3.501   0.755   5.311
 2782SOL    HW2 9246   3.553   0.810   5.167
 2783SOL     OW 9247   0.332   3.753   5.357
 2783SOL    HW1 9248   0.290   3.820   5.295
 2783SOL    HW2 9249   0.262   3.716   5.418
 2784SOL     OW 9250   2.376   1.965   1.771
 2784SOL    HW1 9251   2.341   1.901   1.840
 2784SOL    HW2 9252   2.455   1.925   1.725
 2785SOL     OW 9253   6.182   1.955   2.118
 2785SOL    HW1 9254   6.169   1.878   2.180
 2785SOL    HW2 9255   6.139   1.934   2.030
 2786SOL     OW 9256   3.649   0.191   1.189
 2786SOL    HW1 9257   3.569   0.137   1.164
 2786SOL    HW2 9258   3.701   0.144   1.261
 2787SOL     OW 9259   1.833   4.008   5.999
 2787SOL    HW1 9260   1.928   4.028   5.976
 2787SOL    HW2 9261   1.790   4.089   6.039
 2788SOL     OW 9262   1.186   3.188   0.325
 2788SOL    HW1 9263   1.216   3.282   0.311
 2788SOL    HW2 9264   1.159   3.148   0.238
 2789SOL     OW 9265   0.399   3.347   3.691
 2789SOL    HW1 9266   0.373   3.322   3.784
 2789SOL    HW2 9267   0.317   3.373   3.640
 2790SOL     OW 9268   4.014   6.521   4.424
 2790SOL    HW1 9269   3.994   6.505   4.521
 2790SOL    HW2 9270   4.109   6.497   4.406
 2791SOL     OW 9271   1.513   3.512   2.331
 2791SOL    HW1 9272   1.459   3.456   2.268
 2791SOL    HW2 9273   1.551   3.590   2.281
 2792SOL     OW 9274   0.791   2.118   5.865
 2792SOL    HW1 9275   0.863   2.155   5.807
 2792SOL    HW2 9276   0.709   2.102   5.810
 2793SOL     OW 9277   4.625   0.577   4.277
 2793SOL    HW1 9278   4.650   0.501   4.218
 2793SOL    HW2 9279   4.626   0.547   4.373
 2794SOL     OW 9280   0.484   1.274   2.148
 2794SOL    HW1 9281   0.473   1.311   2.240
 2794SOL    HW2 9282   0.525   1.343   2.088
 2795SOL     OW 9283   0.742   3.718   0.716
 2795SOL    HW1 9284   0.751   3.740   0.619
 2795SOL    HW2 9285   0.670   3.774   0.756
 2796SOL     OW 9286   4.470   4.513   2.325
 2796SOL    HW1 9287   4.446   4.510   2.228
 2796SOL    HW2 9288   4.387   4.513   2.380
 2797SOL     OW 9289   4.722   4.159   5.428
 2797SOL    HW1 9290   4.747   4.137   5.522
 2797SOL    HW2 9291   4.705   4.258   5.421
 2798SOL     OW 9292   2.047   3.698   2.843
 2798SOL    HW1 9293   2.024   3.684   2.747
 2798SOL    HW2 9294   1.999   3.631   2.899
 2799SOL     OW 9295   0.025   6.017   5.843
 2799SOL    HW1 9296   0.021   5.936   5.901
 2799SOL    HW2 9297   6.969   6.072   5.856
 2800SOL     OW 9298   2.357   0.708   6.137
 2800SOL    HW1 9299   2.443   0.658   6.151
 2800SOL    HW2 9300   2.298   0.695   6.216
 2801SOL     OW 9301   3.773   5.155   2.243
 2801SOL    HW1 9302   3.818   5.220   2.181
 2801SOL    HW2 9303   3.759   5.068   2.195
 2802SOL     OW 9304   6.718   0.473   6.268
 2802SOL    HW1 9305   6.674   0.471   6.178
 2802SOL    HW2 9306   6.793   0.407   6.270
 2803SOL     OW 9307   3.121   5.747   5.052
 2803SOL    HW1 9308   3.034   5.721   5.094
 2803SOL    HW2 9309   3.136   5.694   4.969
 2804SOL     OW 9310   0.458   5.014   2.446
 2804SOL    HW1 9311   0.377   5.038   2.392
 2804SOL    HW2 9312   0.462   4.915   2.459
 2805SOL     OW 9313   6.580   4.193   6.714
 2805SOL    HW1 9314   6.674   4.228   6.715
 2805SOL    HW2 9315   6.575   4.114   6.653
 2806SOL     OW 9316   6.265   5.638   2.919
 2806SOL    HW1 9317   6.207   5.590   2.986
 2806SOL    HW2 9318   6.251   5.598   2.829
 2807SOL     OW 9319   4.029   4.885   3.812
 2807SOL    HW1 9320   4.040   4.810   3.746
 2807SOL    HW2 9321   4.015   4.971   3.762
 2808SOL     OW 9322   4.895   6.349   4.389
 2808SOL    HW1 9323   4.944   6.425   4.433
 2808SOL    HW2 9324   4.868   6.283   4.459
 2809SOL     OW 9325   5.404   2.538   0.350
 2809SOL    HW1 9326   5.467   2.600   0.396
 2809SOL    HW2 9327   5.434   2.444   0.365
 2810SOL     OW 9328   2.219   1.248   6.560
 2810SOL    HW1 9329   2.309   1.291   6.566
 2810SOL    HW2 9330   2.187   1.225   6.652
 2811SOL     OW 9331   0.383   0.526   3.575
 2811SOL    HW1 9332   0.461   0.583   3.601
 2811SOL    HW2 9333   0.416   0.441   3.534
 2812SOL     OW 9334   4.840   4.636   2.885
 2812SOL    HW1 9335   4.796   4.593   2.806
 2812SOL    HW2 9336   4.931   4.668   2.859
 2813SOL     OW 9337   6.209   1.548   5.995
 2813SOL    HW1 9338   6.138   1.491   6.035
 2813SOL    HW2 9339   6.283   1.490   5.961
 2814SOL     OW 9340   5.694   4.316   5.462
 2814SOL    HW1 9341   5.665   4.221   5.448
 2814SOL    HW2 9342   5.770   4.338   5.400
 2815SOL     OW 9343   0.957   1.069   4.583
 2815SOL    HW1 9344   1.040   1.093   4.532
 2815SOL    HW2 9345   0.976   0.994   4.646
 2816SOL     OW 9346   4.943   6.582   3.393
 2816SOL    HW1 9347   4.885   6.541   3.322
 2816SOL    HW2 9348   4.932   6.531   3.478
 2817SOL     OW 9349   1.296   1.453   1.055
 2817SOL    HW1 9350   1.208   1.433   1.098
 2817SOL    HW2 9351   1.370   1.439   1.121
 2818SOL     OW 9352   1.447   2.482   6.730
 2818SOL    HW1 9353   1.517   2.506   6.663
 2818SOL    HW2 9354   1.357   2.486   6.687
 2819SOL     OW 9355   6.483   3.429   1.700
 2819SOL    HW1 9356   6.562   3.490   1.704
 2819SOL    HW2 9357   6.421   3.460   1.629
 2820SOL     OW 9358   5.164   3.281   3.964
 2820SOL    HW1 9359   5.246   3.263   3.909
 2820SOL    HW2 9360   5.191   3.299   4.059
 2821SOL     OW 9361   1.065   3.172   3.177
 2821SOL    HW1 9362   1.136   3.201   3.112
 2821SOL    HW2 9363   1.102   3.100   3.236
 2822SOL     OW 9364   2.795   2.213   0.522
 2822SOL    HW1 9365   2.726   2.183   0.588
 2822SOL    HW2 9366   2.852   2.284   0.563
 2823SOL     OW 9367   1.164   0.247   4.378
 2823SOL    HW1 9368   1.122   0.249   4.288
 2823SOL    HW2 9369   1.198   0.338   4.402
 2824SOL     OW 9370   3.512   2.173   5.743
 2824SOL    HW1 9371   3.478   2.164   5.837
 2824SOL    HW2 9372   3.612   2.166   5.743
 2825SOL     OW 9373   5.727   5.872   0.969
 2825SOL    HW1 9374   5.808   5.884   1.026
 2825SOL    HW2 9375   5.649   5.847   1.026
 2826SOL     OW 9376   4.873   3.858   4.435
 2826SOL    HW1 9377   4.902   3.770   4.473
 2826SOL    HW2 9378   4.881   3.856   4.336
 2827SOL     OW 9379   0.110   0.044   6.049
 2827SOL    HW1 9380   0.171   6.997   6.079
 2827SOL    HW2 9381   0.018   0.007   6.038
 2828SOL     OW 9382   3.102   2.063   6.359
 2828SOL    HW1 9383   3.079   1.973   6.395
 2828SOL    HW2 9384   3.027   2.127   6.376
 2829SOL     OW 9385   2.926   1.108   6.755
 2829SOL    HW1 9386   2.885   1.016   6.760
 2829SOL    HW2 9387   2.861   1.171   6.712
 2830SOL     OW 9388   3.110   3.803   6.774
 2830SOL    HW1 9389   3.023   3.828   6.816
 2830SOL    HW2 9390   3.094   3.767   6.682
 2831SOL     OW 9391   6.275   6.389   3.976
 2831SOL    HW1 9392   6.353   6.433   4.020
 2831SOL    HW2 9393   6.301   6.359   3.884
 2832SOL     OW 9394   0.171   0.989   2.075
 2832SOL    HW1 9395   0.230   0.992   2.156
 2832SOL    HW2 9396   0.138   0.896   2.061
 2833SOL     OW 9397   6.179   3.161   2.250
 2833SOL    HW1 9398   6.217   3.123   2.166
 2833SOL    HW2 9399   6.198   3.259   2.255
 2834SOL     OW 9400   4.504   1.031   5.160
 2834SOL    HW1 9401   4.527   1.072   5.072
 2834SOL    HW2 9402   4.446   0.951   5.145
 2835SOL     OW 9403   6.148   6.211   3.397
 2835SOL    HW1 9404   6.164   6.296   3.448
 2835SOL    HW2 9405   6.228   6.152   3.405
 2836SOL     OW 9406   6.325   0.014   1.072
 2836SOL    HW1 9407   6.299   0.037   1.166
 2836SOL    HW2 9408   6.376   6.955   1.072
 2837SOL     OW 9409   5.830   2.985   3.947
 2837SOL    HW1 9410   5.815   3.083   3.960
 2837SOL    HW2 9411   5.767   2.951   3.877
 2838SOL     OW 9412   1.628   4.619   4.363
 2838SOL    HW1 9413   1.699   4.550   4.355
 2838SOL    HW2 9414   1.563   4.593   4.434
 2839SOL     OW 9415   4.835   3.132   0.494
 2839SOL    HW1 9416   4.790   3.057   0.542
 2839SOL    HW2 9417   4.907   3.170   0.552
 2840SOL     OW 9418   6.859   2.583   4.902
 2840SOL    HW1 9419   6.883   2.617   4.993
 2840SOL    HW2 9420   6.938   2.594   4.841
 2841SOL     OW 9421   6.943   6.236   0.217
 2841SOL    HW1 9422   6.920   6.179   0.138
 2841SOL    HW2 9423   6.978   6.178   0.291
 2842SOL     OW 9424   6.296   3.851   2.728
 2842SOL    HW1 9425   6.306   3.754   2.752
 2842SOL    HW2 9426   6.204   3.867   2.693
 2843SOL     OW 9427   4.084   0.842   3.994
 2843SOL    HW1 9428   4.044   0.933   3.987
 2843SOL    HW2 9429   4.028   0.776   3.944
 2844SOL     OW 9430   1.729   4.245   5.492
 2844SOL    HW1 9431   1.739   4.150   5.462
 2844SOL    HW2 9432   1.711   4.247   5.590
 2845SOL     OW 9433   0.421   3.442   6.372
 2845SOL    HW1 9434   0.436   3.510   6.444
 2845SOL    HW2 9435   0.430   3.485   6.282
 2846SOL     OW 9436   5.459   1.433   6.106
 2846SOL    HW1 9437   5.409   1.520   6.106
 2846SOL    HW2 9438   5.533   1.437   6.039
 2847SOL     OW 9439   4.307   4.970   4.325
 2847SOL    HW1 9440   4.353   5.025   4.255
 2847SOL    HW2 9441   4.277   5.029   4.400
 2848SOL     OW 9442   2.247   0.119   5.695
 2848SOL    HW1 9443   2.324   0.159   5.745
 2848SOL    HW2 9444   2.265   0.121   5.597
 2849SOL     OW 9445   2.270   3.043   1.736
 2849SOL    HW1 9446   2.181   2.998   1.728
 2849SOL    HW2 9447   2.340   2.984   1.696
 2850SOL     OW 9448   4.225   1.499   0.725
 2850SOL    HW1 9449   4.212   1.512   0.824
 2850SOL    HW2 9450   4.253   1.585   0.684
 2851SOL     OW 9451   2.920   5.678   5.716
 2851SOL    HW1 9452   2.879   5.759   5.758
 2851SOL    HW2 9453   2.944   5.699   5.621
 2852SOL     OW 9454   0.125   2.250   6.520
 2852SOL    HW1 9455   0.194   2.301   6.571
 2852SOL    HW2 9456   0.069   2.315   6.467
 2853SOL     OW 9457   3.507   2.709   1.450
 2853SOL    HW1 9458   3.469   2.770   1.519
 2853SOL    HW2 9459   3.480   2.740   1.359
 2854SOL     OW 9460   0.639   0.927   3.772
 2854SOL    HW1 9461   0.650   0.878   3.686
 2854SOL    HW2 9462   0.587   0.870   3.837
 2855SOL     OW 9463   3.360   1.508   4.217
 2855SOL    HW1 9464   3.439   1.480   4.270
 2855SOL    HW2 9465   3.304   1.570   4.272
 2856SOL     OW 9466   3.245   1.364   5.855
 2856SOL    HW1 9467   3.344   1.379   5.846
 2856SOL    HW2 9468   3.228   1.266   5.870
 2857SOL     OW 9469   3.651   2.918   3.872
 2857SOL    HW1 9470   3.617   3.011   3.884
 2857SOL    HW2 9471   3.620   2.882   3.784
 2858SOL     OW 9472   5.567   2.863   3.072
 2858SOL    HW1 9473   5.610   2.952   3.058
 2858SOL    HW2 9474   5.553   2.819   2.984
 2859SOL     OW 9475   5.276   5.710   6.973
 2859SOL    HW1 9476   5.231   5.797   6.954
 2859SOL    HW2 9477   5.299   5.705   0.043
 2860SOL     OW 9478   4.534   2.464   0.851
 2860SOL    HW1 9479   4.538   2.549   0.902
 2860SOL    HW2 9480   4.576   2.391   0.904
 2861SOL     OW 9481   4.514   4.396   6.180
 2861SOL    HW1 9482   4.455   4.390   6.261
 2861SOL    HW2 9483   4.506   4.487   6.141
 2862SOL     OW 9484   6.367   6.952   3.539
 2862SOL    HW1 9485   6.412   6.891   3.474
 2862SOL    HW2 9486   6.436   7.009   3.585
 2863SOL     OW 9487   6.343   0.404   0.004
 2863SOL    HW1 9488   6.276   0.389   0.076
 2863SOL    HW2 9489   6.434   0.416   0.045
 2864SOL     OW 9490   3.845   2.412   0.664
 2864SOL    HW1 9491   3.882   2.326   0.698
 2864SOL    HW2 9492   3.871   2.487   0.725
 2865SOL     OW 9493   4.672   4.839   5.283
 2865SOL    HW1 9494   4.601   4.888   5.233
 2865SOL    HW2 9495   4.744   4.811   5.220
 2866SOL     OW 9496   0.347   6.942   6.512
 2866SOL    HW1 9497   0.422   7.004   6.491
 2866SOL    HW2 9498   0.275   6.993   6.561
 2867SOL     OW 9499   6.418   4.282   4.369
 2867SOL    HW1 9500   6.400   4.227   4.287
 2867SOL    HW2 9501   6.388   4.232   4.450
 2868SOL     OW 9502   1.645   4.797   4.906
 2868SOL    HW1 9503   1.677   4.788   4.812
 2868SOL    HW2 9504   1.579   4.724   4.926
 2869SOL     OW 9505   6.013   1.415   2.312
 2869SOL    HW1 9506   6.099   1.387   2.355
 2869SOL    HW2 9507   5.967   1.334   2.274
 2870SOL     OW 9508   4.201   2.283   2.036
 2870SOL    HW1 9509   4.218   2.336   1.953
 2870SOL    HW2 9510   4.112   2.238   2.029
 2871SOL     OW 9511   1.348   1.485   6.074
 2871SOL    HW1 9512   1.280   1.558   6.077
 2871SOL    HW2 9513   1.417   1.507   6.005
 2872SOL     OW 9514   1.720   0.424   3.936
 2872SOL    HW1 9515   1.819   0.424   3.923
 2872SOL    HW2 9516   1.680   0.497   3.880
 2873SOL     OW 9517   6.355   5.671   2.257
 2873SOL    HW1 9518   6.300   5.621   2.189
 2873SOL    HW2 9519   6.409   5.607   2.310
 2874SOL     OW 9520   5.262   2.404   1.786
 2874SOL    HW1 9521   5.200   2.339   1.829
 2874SOL    HW2 9522   5.211   2.465   1.725
 2875SOL     OW 9523   3.003   4.787   0.750
 2875SOL    HW1 9524   2.957   4.713   0.799
 2875SOL    HW2 9525   2.980   4.782   0.653
 2876SOL     OW 9526   5.948   2.478   2.068
 2876SOL    HW1 9527   6.042   2.444   2.080
 2876SOL    HW2 9528   5.915   2.453   1.977
 2877SOL     OW 9529   1.586   3.827   5.300
 2877SOL    HW1 9530   1.493   3.865   5.302
 2877SOL    HW2 9531   1.615   3.805   5.392
 2878SOL     OW 9532   4.477   4.998   0.362
 2878SOL    HW1 9533   4.420   4.915   0.368
 2878SOL    HW2 9534   4.537   4.991   0.282
 2879SOL     OW 9535   5.339   3.872   6.626
 2879SOL    HW1 9536   5.268   3.818   6.581
 2879SOL    HW2 9537   5.326   3.969   6.606
 2880SOL     OW 9538   1.857   6.244   3.467
 2880SOL    HW1 9539   1.788   6.296   3.518
 2880SOL    HW2 9540   1.841   6.255   3.369
 2881SOL     OW 9541   0.098   0.429   0.120
 2881SOL    HW1 9542   0.020   0.441   0.182
 2881SOL    HW2 9543   0.176   0.395   0.172
 2882SOL     OW 9544   6.960   3.638   3.188
 2882SOL    HW1 9545   7.009   3.645   3.274
 2882SOL    HW2 9546   6.986   3.714   3.128
 2883SOL     OW 9547   3.880   6.479   1.853
 2883SOL    HW1 9548   3.874   6.403   1.919
 2883SOL    HW2 9549   3.792   6.492   1.809
 2884SOL     OW 9550   2.090   5.030   2.926
 2884SOL    HW1 9551   2.177   4.982   2.933
 2884SOL    HW2 9552   2.017   4.964   2.910
 2885SOL     OW 9553   0.939   2.162   4.630
 2885SOL    HW1 9554   1.012   2.231   4.631
 2885SOL    HW2 9555   0.881   2.174   4.710
 2886SOL     OW 9556   2.724   2.763   6.113
 2886SOL    HW1 9557   2.655   2.836   6.105
 2886SOL    HW2 9558   2.706   2.693   6.045
 2887SOL     OW 9559   2.825   1.597   5.182
 2887SOL    HW1 9560   2.735   1.552   5.184
 2887SOL    HW2 9561   2.860   1.596   5.088
 2888SOL     OW 9562   7.004   5.432   7.026
 2888SOL    HW1 9563   0.071   5.462   0.017
 2888SOL    HW2 9564   6.983   5.352   0.057
 2889SOL     OW 9565   1.184   0.491   0.960
 2889SOL    HW1 9566   1.207   0.524   1.052
 2889SOL    HW2 9567   1.209   0.560   0.892
 2890SOL     OW 9568   2.894   0.345   0.714
 2890SOL    HW1 9569   2.893   0.403   0.633
 2890SOL    HW2 9570   2.989   0.330   0.743
 2891SOL     OW 9571   2.966   4.873   4.976
 2891SOL    HW1 9572   2.958   4.779   4.942
 2891SOL    HW2 9573   2.977   4.872   5.075
 2892SOL     OW 9574   4.060   4.192   5.229
 2892SOL    HW1 9575   4.124   4.265   5.205
 2892SOL    HW2 9576   4.018   4.156   5.146
 2893SOL     OW 9577   3.477   0.504   5.108
 2893SOL    HW1 9578   3.433   0.529   5.022
 2893SOL    HW2 9579   3.481   0.585   5.167
 2894SOL     OW 9580   4.232   3.392   1.793
 2894SOL    HW1 9581   4.327   3.403   1.764
 2894SOL    HW2 9582   4.225   3.314   1.855
 2895SOL     OW 9583   3.735   3.126   0.180
 2895SOL    HW1 9584   3.759   3.071   0.260
 2895SOL    HW2 9585   3.639   3.155   0.187
 2896SOL     OW 9586   1.410   4.949   0.481
 2896SOL    HW1 9587   1.389   5.039   0.519
 2896SOL    HW2 9588   1.347   4.927   0.407
 2897SOL     OW 9589   1.113   6.648   3.573
 2897SOL    HW1 9590   1.146   6.669   3.481
 2897SOL    HW2 9591   1.054   6.723   3.605
 2898SOL     OW 9592   2.015   5.161   2.694
 2898SOL    HW1 9593   1.917   5.181   2.698
 2898SOL    HW2 9594   2.047   5.135   2.785
 2899SOL     OW 9595   5.637   0.462   0.885
 2899SOL    HW1 9596   5.654   0.502   0.975
 2899SOL    HW2 9597   5.721   0.417   0.852
 2900SOL     OW 9598   2.699   5.401   6.269
 2900SOL    HW1 9599   2.666   5.431   6.180
 2900SOL    HW2 9600   2.720   5.303   6.266
 2901SOL     OW 9601   2.949   6.612   1.132
 2901SOL    HW1 9602   3.019   6.681   1.156
 2901SOL    HW2 9603   2.902   6.640   1.049
 2902SOL     OW 9604   4.528   5.559   0.688
 2902SOL    HW1 9605   4.530   5.460   0.693
 2902SOL    HW2 9606   4.465   5.595   0.757
 2903SOL     OW 9607   2.930   2.566   1.697
 2903SOL    HW1 9608   2.925   2.527   1.788
 2903SOL    HW2 9609   3.021   2.551   1.659
 2904SOL     OW 9610   2.624   2.067   4.303
 2904SOL    HW1 9611   2.589   2.068   4.209
 2904SOL    HW2 9612   2.687   2.143   4.316
 2905SOL     OW 9613   0.885   1.761   2.102
 2905SOL    HW1 9614   0.933   1.813   2.172
 2905SOL    HW2 9615   0.912   1.665   2.107
 2906SOL     OW 9616   5.242   5.175   2.423
 2906SOL    HW1 9617   5.219   5.244   2.354
 2906SOL    HW2 9618   5.321   5.206   2.476
 2907SOL     OW 9619   5.875   0.565   4.810
 2907SOL    HW1 9620   5.971   0.573   4.783
 2907SOL    HW2 9621   5.869   0.522   4.900
 2908SOL     OW 9622   3.643   5.842   4.838
 2908SOL    HW1 9623   3.686   5.778   4.902
 2908SOL    HW2 9624   3.633   5.798   4.749
 2909SOL     OW 9625   2.429   6.428   5.703
 2909SOL    HW1 9626   2.358   6.412   5.635
 2909SOL    HW2 9627   2.460   6.340   5.740
 2910SOL     OW 9628   4.350   5.849   5.293
 2910SOL    HW1 9629   4.297   5.774   5.333
 2910SOL    HW2 9630   4.384   5.908   5.367
 2911SOL     OW 9631   2.511   4.432   3.225
 2911SOL    HW1 9632   2.602   4.460   3.256
 2911SOL    HW2 9633   2.510   4.430   3.125
 2912SOL     OW 9634   2.910   5.035   1.527
 2912SOL    HW1 9635   2.938   4.946   1.491
 2912SOL    HW2 9636   2.950   5.108   1.472
 2913SOL     OW 9637   0.767   3.056   2.142
 2913SOL    HW1 9638   0.776   3.105   2.055
 2913SOL    HW2 9639   0.857   3.046   2.184
 2914SOL     OW 9640   5.185   4.501   6.113
 2914SOL    HW1 9641   5.126   4.580   6.099
 2914SOL    HW2 9642   5.257   4.525   6.179
 2915SOL     OW 9643   4.796   1.489   3.347
 2915SOL    HW1 9644   4.722   1.449   3.293
 2915SOL    HW2 9645   4.823   1.425   3.419
 2916SOL     OW 9646   4.847   0.100   4.677
 2916SOL    HW1 9647   4.946   0.093   4.690
 2916SOL    HW2 9648   4.814   0.022   4.624
 2917SOL     OW 9649   3.874   0.303   2.210
 2917SOL    HW1 9650   3.795   0.243   2.224
 2917SOL    HW2 9651   3.870   0.344   2.119
 2918SOL     OW 9652   1.261   2.737   4.796
 2918SOL    HW1 9653   1.330   2.808   4.808
 2918SOL    HW2 9654   1.282   2.684   4.713
 2919SOL     OW 9655   5.589   5.808   0.326
 2919SOL    HW1 9656   5.579   5.789   0.228
 2919SOL    HW2 9657   5.678   5.851   0.342
 2920SOL     OW 9658   4.692   1.624   2.713
 2920SOL    HW1 9659   4.681   1.648   2.617
 2920SOL    HW2 9660   4.687   1.525   2.724
 2921SOL     OW 9661   6.354   1.516   0.826
 2921SOL    HW1 9662   6.288   1.530   0.752
 2921SOL    HW2 9663   6.365   1.418   0.842
 2922SOL     OW 9664   4.219   6.880   4.507
 2922SOL    HW1 9665   4.215   6.971   4.467
 2922SOL    HW2 9666   4.236   6.887   4.605
 2923SOL     OW 9667   0.241   4.767   6.534
 2923SOL    HW1 9668   0.294   4.788   6.452
 2923SOL    HW2 9669   0.267   4.678   6.570
 2924SOL     OW 9670   6.639   0.020   6.412
 2924SOL    HW1 9671   6.588   0.074   6.345
 2924SOL    HW2 9672   6.737   0.034   6.399
 2925SOL     OW 9673   6.184   4.642   0.088
 2925SOL    HW1 9674   6.108   4.608   0.034
 2925SOL    HW2 9675   6.167   4.624   0.185
 2926SOL     OW 9676   0.404   1.093   3.170
 2926SOL    HW1 9677   0.410   1.034   3.089
 2926SOL    HW2 9678   0.309   1.099   3.200
 2927SOL     OW 9679   0.280   3.392   2.689
 2927SOL    HW1 9680   0.378   3.371   2.686
 2927SOL    HW2 9681   0.238   3.345   2.766
 2928SOL     OW 9682   5.498   6.189   0.431
 2928SOL    HW1 9683   5.413   6.194   0.483
 2928SOL    HW2 9684   5.567   6.142   0.486
 2929SOL     OW 9685   0.814   0.100   5.487
 2929SOL    HW1 9686   0.876   0.069   5.559
 2929SOL    HW2 9687   0.854   0.178   5.440
 2930SOL     OW 9688   2.966   0.002   4.256
 2930SOL    HW1 9689   2.936   0.083   4.307
 2930SOL    HW2 9690   3.015   6.967   4.317
 2931SOL     OW 9691   4.434   5.025   6.351
 2931SOL    HW1 9692   4.411   4.935   6.315
 2931SOL    HW2 9693   4.437   5.022   6.451
 2932SOL     OW 9694   1.222   4.687   1.708
 2932SOL    HW1 9695   1.190   4.635   1.628
 2932SOL    HW2 9696   1.177   4.776   1.710
 2933SOL     OW 9697   4.838   2.327   3.534
 2933SOL    HW1 9698   4.843   2.365   3.441
 2933SOL    HW2 9699   4.876   2.234   3.535
 2934SOL     OW 9700   2.176   1.267   0.899
 2934SOL    HW1 9701   2.083   1.255   0.866
 2934SOL    HW2 9702   2.197   1.195   0.966
 2935SOL     OW 9703   6.670   1.257   1.009
 2935SOL    HW1 9704   6.620   1.326   0.956
 2935SOL    HW2 9705   6.626   1.168   0.997
 2936SOL     OW 9706   3.469   5.275   0.908
 2936SOL    HW1 9707   3.559   5.233   0.919
 2936SOL    HW2 9708   3.417   5.224   0.839
 2937SOL     OW 9709   2.746   4.243   0.024
 2937SOL    HW1 9710   2.690   4.224   6.970
 2937SOL    HW2 9711   2.687   4.253   0.104
 2938SOL     OW 9712   4.915   4.281   6.692
 2938SOL    HW1 9713   4.916   4.343   6.770
 2938SOL    HW2 9714   4.996   4.222   6.695
 2939SOL     OW 9715   0.081   6.555   5.558
 2939SOL    HW1 9716   0.093   6.554   5.657
 2939SOL    HW2 9717   0.166   6.529   5.513
 2940SOL     OW 9718   3.740   0.038   5.385
 2940SOL    HW1 9719   3.680   0.054   5.463
 2940SOL    HW2 9720   3.706   0.088   5.306
 2941SOL     OW 9721   3.929   1.805   5.080
 2941SOL    HW1 9722   3.891   1.859   5.155
 2941SOL    HW2 9723   3.948   1.712   5.111
 2942SOL     OW 9724   3.121   6.231   4.259
 2942SOL    HW1 9725   3.194   6.282   4.213
 2942SOL    HW2 9726   3.117   6.258   4.355
 2943SOL     OW 9727   5.527   4.814   3.090
 2943SOL    HW1 9728   5.515   4.879   3.015
 2943SOL    HW2 9729   5.624   4.795   3.102
 2944SOL     OW 9730   4.670   5.823   0.204
 2944SOL    HW1 9731   4.661   5.894   0.134
 2944SOL    HW2 9732   4.578   5.793   0.232
 2945SOL     OW 9733   2.893   3.565   4.647
 2945SOL    HW1 9734   2.962   3.508   4.691
 2945SOL    HW2 9735   2.802   3.529   4.669
 2946SOL     OW 9736   1.356   6.210   5.676
 2946SOL    HW1 9737   1.366   6.144   5.602
 2946SOL    HW2 9738   1.297   6.285   5.647
 2947SOL     OW 9739   6.929   5.235   0.188
 2947SOL    HW1 9740   6.834   5.264   0.204
 2947SOL    HW2 9741   6.974   5.217   0.276
 2948SOL     OW 9742   5.793   3.634   5.557
 2948SOL    HW1 9743   5.881   3.606   5.517
 2948SOL    HW2 9744   5.727   3.560   5.546
 2949SOL     OW 9745   0.698   6.384   0.164
 2949SOL    HW1 9746   0.701   6.407   0.067
 2949SOL    HW2 9747   0.624   6.320   0.182
 2950SOL     OW 9748   5.293   3.327   4.905
 2950SOL    HW1 9749   5.341   3.351   4.989
 2950SOL    HW2 9750   5.197   3.351   4.913
 2951SOL     OW 9751   5.840   0.149   0.331
 2951SOL    HW1 9752   5.821   0.198   0.246
 2951SOL    HW2 9753   5.759   0.097   0.360
 2952SOL     OW 9754   0.528   3.270   2.044
 2952SOL    HW1 9755   0.519   3.189   1.986
 2952SOL    HW2 9756   0.543   3.242   2.139
 2953SOL     OW 9757   5.892   1.879   2.249
 2953SOL    HW1 9758   5.958   1.804   2.241
 2953SOL    HW2 9759   5.808   1.855   2.199
 2954SOL     OW 9760   5.227   5.669   2.202
 2954SOL    HW1 9761   5.173   5.670   2.117
 2954SOL    HW2 9762   5.298   5.740   2.196
 2955SOL     OW 9763   5.911   1.984   1.231
 2955SOL    HW1 9764   5.996   2.007   1.279
 2955SOL    HW2 9765   5.930   1.918   1.159
 2956SOL     OW 9766   5.798   5.646   3.747
 2956SOL    HW1 9767   5.715   5.698   3.768
 2956SOL    HW2 9768   5.791   5.607   3.655
 2957SOL     OW 9769   1.481   4.772   1.581
 2957SOL    HW1 9770   1.381   4.771   1.586
 2957SOL    HW2 9771   1.509   4.780   1.486
 2958SOL     OW 9772   2.933   4.879   6.367
 2958SOL    HW1 9773   2.998   4.810   6.399
 2958SOL    HW2 9774   2.862   4.893   6.437
 2959SOL     OW 9775   3.632   4.946   0.579
 2959SOL    HW1 9776   3.661   5.042   0.577
 2959SOL    HW2 9777   3.668   4.899   0.499
 2960SOL     OW 9778   2.987   1.598   0.075
 2960SOL    HW1 9779   3.046   1.662   0.124
 2960SOL    HW2 9780   3.011   1.504   0.100
 2961SOL     OW 9781   5.554   1.420   4.255
 2961SOL    HW1 9782   5.640   1.369   4.259
 2961SOL    HW2 9783   5.516   1.428   4.348
 2962SOL     OW 9784   4.560   0.263   2.826
 2962SOL    HW1 9785   4.537   0.356   2.854
 2962SOL    HW2 9786   4.623   0.267   2.748
 2963SOL     OW 9787   2.130   3.215   5.042
 2963SOL    HW1 9788   2.128   3.284   5.114
 2963SOL    HW2 9789   2.216   3.164   5.047
 2964SOL     OW 9790   3.073   5.888   0.457
 2964SOL    HW1 9791   3.086   5.987   0.454
 2964SOL    HW2 9792   3.021   5.863   0.539
 2965SOL     OW 9793   0.541   2.975   6.391
 2965SOL    HW1 9794   0.445   2.950   6.397
 2965SOL    HW2 9795   0.571   3.014   6.479
 2966SOL     OW 9796   4.851   4.813   3.727
 2966SOL    HW1 9797   4.851   4.859   3.639
 2966SOL    HW2 9798   4.826   4.717   3.714
 2967SOL     OW 9799   6.188   2.864   4.280
 2967SOL    HW1 9800   6.264   2.821   4.233
 2967SOL    HW2 9801   6.215   2.888   4.374
 2968SOL     OW 9802   6.958   4.042   3.567
 2968SOL    HW1 9803   6.946   3.947   3.539
 2968SOL    HW2 9804   6.890   4.100   3.522
 2969SOL     OW 9805   3.661   1.735   4.799
 2969SOL    HW1 9806   3.648   1.721   4.701
 2969SOL    HW2 9807   3.757   1.753   4.818
 2970SOL     OW 9808   1.170   3.962   5.779
 2970SOL    HW1 9809   1.253   4.015   5.796
 2970SOL    HW2 9810   1.090   4.021   5.786
 2971SOL     OW 9811   5.437   3.946   2.285
 2971SOL    HW1 9812   5.531   3.967   2.313
 2971SOL    HW2 9813   5.402   3.872   2.341
 2972SOL     OW 9814   0.808   4.113   4.898
 2972SOL    HW1 9815   0.828   4.133   4.802
 2972SOL    HW2 9816   0.816   4.015   4.914
 2973SOL     OW 9817   5.852   0.057   3.750
 2973SOL    HW1 9818   5.936   0.059   3.803
 2973SOL    HW2 9819   5.813   0.149   3.745
 2974SOL     OW 9820   0.075   4.678   1.222
 2974SOL    HW1 9821   0.090   4.584   1.251
 2974SOL    HW2 9822   0.111   4.740   1.292
 2975SOL     OW 9823   6.319   1.594   3.977
 2975SOL    HW1 9824   6.238   1.602   3.919
 2975SOL    HW2 9825   6.387   1.662   3.950
 2976SOL     OW 9826   2.263   6.130   1.400
 2976SOL    HW1 9827   2.242   6.180   1.484
 2976SOL    HW2 9828   2.360   6.138   1.380
 2977SOL     OW 9829   3.187   6.803   3.701
 2977SOL    HW1 9830   3.137   6.889   3.714
 2977SOL    HW2 9831   3.285   6.820   3.713
 2978SOL     OW 9832   2.747   0.159   6.603
 2978SOL    HW1 9833   2.705   0.077   6.564
 2978SOL    HW2 9834   2.840   0.169   6.568
 2979SOL     OW 9835   2.860   1.285   3.271
 2979SOL    HW1 9836   2.786   1.280   3.337
 2979SOL    HW2 9837   2.899   1.377   3.270
 2980SOL     OW 9838   6.113   6.961   2.950
 2980SOL    HW1 9839   6.129   0.003   3.021
 2980SOL    HW2 9840   6.187   6.893   2.951
 2981SOL     OW 9841   1.881   1.649   5.985
 2981SOL    HW1 9842   1.860   1.575   5.921
 2981SOL    HW2 9843   1.800   1.708   5.995
 2982SOL     OW 9844   4.619   5.632   1.950
 2982SOL    HW1 9845   4.649   5.565   2.018
 2982SOL    HW2 9846   4.527   5.664   1.973
 2983SOL     OW 9847   0.300   0.937   2.654
 2983SOL    HW1 9848   0.282   0.839   2.645
 2983SOL    HW2 9849   0.395   0.955   2.625
 2984SOL     OW 9850   5.998   4.689   1.713
 2984SOL    HW1 9851   6.072   4.747   1.746
 2984SOL    HW2 9852   5.939   4.664   1.790
 2985SOL     OW 9853   6.307   2.417   3.055
 2985SOL    HW1 9854   6.360   2.446   3.135
 2985SOL    HW2 9855   6.230   2.478   3.041
 2986SOL     OW 9856   1.740   3.315   5.233
 2986SOL    HW1 9857   1.811   3.244   5.238
 2986SOL    HW2 9858   1.709   3.324   5.138
 2987SOL     OW 9859   5.083   1.800   5.157
 2987SOL    HW1 9860   5.168   1.797   5.106
 2987SOL    HW2 9861   5.103   1.806   5.255
 2988SOL     OW 9862   1.056   0.289   2.748
 2988SOL    HW1 9863   1.020   0.366   2.801
 2988SOL    HW2 9864   1.138   0.318   2.698
 2989SOL     OW 9865   6.268   5.203   0.811
 2989SOL    HW1 9866   6.285   5.286   0.758
 2989SOL    HW2 9867   6.173   5.200   0.840
 2990SOL     OW 9868   3.017   1.559   1.379
 2990SOL    HW1 9869   2.968   1.616   1.313
 2990SOL    HW2 9870   2.959   1.481   1.404
 2991SOL     OW 9871   6.740   4.605   6.798
 2991SOL    HW1 9872   6.724   4.704   6.802
 2991SOL    HW2 9873   6.719   4.572   6.706
 2992SOL     OW 9874   4.680   4.275   6.978
 2992SOL    HW1 9875   4.760   4.218   6.958
 2992SOL    HW2 9876   4.639   4.246   0.038
 2993SOL     OW 9877   1.483   4.575   6.964
 2993SOL    HW1 9878   1.481   4.675   6.955
 2993SOL    HW2 9879   1.572   4.547   7.002
 2994SOL     OW 9880   4.550   6.151   0.081
 2994SOL    HW1 9881   4.618   6.183   0.014
 2994SOL    HW2 9882   4.507   6.068   0.046
 2995SOL     OW 9883   2.408   0.983   5.462
 2995SOL    HW1 9884   2.316   1.016   5.482
 2995SOL    HW2 9885   2.435   0.916   5.531
 2996SOL     OW 9886   4.422   6.958   5.873
 2996SOL    HW1 9887   4.347   6.918   5.927
 2996SOL    HW2 9888   4.432   6.906   5.788
 2997SOL     OW 9889   4.053   5.743   0.367
 2997SOL    HW1 9890   4.124   5.764   0.434
 2997SOL    HW2 9891   4.043   5.644   0.359
 2998SOL     OW 9892   6.561   4.287   5.692
 2998SOL    HW1 9893   6.518   4.298   5.782
 2998SOL    HW2 9894   6.490   4.285   5.621
 2999SOL     OW 9895   2.128   1.677   1.515
 2999SOL    HW1 9896   2.114   1.612   1.440
 2999SOL    HW2 9897   2.147   1.627   1.599
 3000SOL     OW 9898   1.352   2.016   4.741
 3000SOL    HW1 9899   1.382   2.100   4.698
 3000SOL    HW2 9900   1.269   2.033   4.795
 3001SOL     OW 9901   4.803   6.134   5.726
 3001SOL    HW1 9902   4.790   6.203   5.797
 3001SOL    HW2 9903   4.806   6.178   5.637
 3002SOL     OW 9904   3.335   0.267   4.951
 3002SOL    HW1 9905   3.415   0.274   4.890
 3002SOL    HW2 9906   3.307   0.358   4.980
 3003SOL     OW 9907   1.252   0.197   5.641
 3003SOL    HW1 9908   1.268   0.124   5.574
 3003SOL    HW2 9909   1.270   0.285   5.599
 3004SOL     OW 9910   6.960   2.702   5.791
 3004SOL    HW1 9911   0.011   2.640   5.801
 3004SOL    HW2 9912   6.954   2.762   5.870
 3005SOL     OW 9913   4.954   2.418   0.949
 3005SOL    HW1 9914   4.872   2.361   0.950
 3005SOL    HW2 9915   5.024   2.377   1.007
 3006SOL     OW 9916   4.377   0.079   1.709
 3006SOL    HW1 9917   4.313   0.141   1.754
 3006SOL    HW2 9918   4.451   0.056   1.772
 3007SOL     OW 9919   5.871   5.317   1.787
 3007SOL    HW1 9920   5.968   5.309   1.809
 3007SOL    HW2 9921   5.823   5.233   1.813
 3008SOL     OW 9922   4.365   5.325   5.714
 3008SOL    HW1 9923   4.399   5.232   5.724
 3008SOL    HW2 9924   4.272   5.331   5.751
 3009SOL     OW 9925   0.950   0.477   2.901
 3009SOL    HW1 9926   0.854   0.500   2.886
 3009SOL    HW2 9927   0.996   0.553   2.946
 3010SOL     OW 9928   2.805   6.946   3.125
 3010SOL    HW1 9929   2.858   7.024   3.092
 3010SOL    HW2 9930   2.809   6.941   3.224
 3011SOL     OW 9931   5.428   0.162   0.774
 3011SOL    HW1 9932   5.476   0.123   0.853
 3011SOL    HW2 9933   5.495   0.188   0.704
 3012SOL     OW 9934   6.905   5.545   1.175
 3012SOL    HW1 9935   6.936   5.464   1.125
 3012SOL    HW2 9936   6.911   5.527   1.273
 3013SOL     OW 9937   5.638   4.635   1.778
 3013SOL    HW1 9938   5.681   4.572   1.713
 3013SOL    HW2 9939   5.547   4.660   1.746
 3014SOL     OW 9940   5.182   6.766   5.891
 3014SOL    HW1 9941   5.219   6.838   5.950
 3014SOL    HW2 9942   5.246   6.690   5.886
 3015SOL     OW 9943   2.638   1.087   0.105
 3015SOL    HW1 9944   2.727   1.126   0.083
 3015SOL    HW2 9945   2.641   1.045   0.196
 3016SOL     OW 9946   3.944   5.991   3.717
 3016SOL    HW1 9947   3.856   6.022   3.679
 3016SOL    HW2 9948   4.007   6.069   3.720
 3017SOL     OW 9949   0.477   5.828   1.561
 3017SOL    HW1 9950   0.549   5.813   1.628
 3017SOL    HW2 9951   0.458   5.926   1.554
 3018SOL     OW 9952   4.570   0.162   5.924
 3018SOL    HW1 9953   4.517   0.081   5.896
 3018SOL    HW2 9954   4.556   0.235   5.858
 3019SOL     OW 9955   4.780   0.352   1.800
 3019SOL    HW1 9956   4.835   0.413   1.743
 3019SOL    HW2 9957   4.683   0.368   1.782
 3020SOL     OW 9958   2.227   0.623   1.593
 3020SOL    HW1 9959   2.291   0.553   1.560
 3020SOL    HW2 9960   2.171   0.656   1.517
 3021SOL     OW 9961   4.334   0.940   6.645
 3021SOL    HW1 9962   4.242   0.978   6.639
 3021SOL    HW2 9963   4.401   1.012   6.626
 3022SOL     OW 9964   0.039   0.485   3.132
 3022SOL    HW1 9965   0.069   0.396   3.168
 3022SOL    HW2 9966   7.017   0.470   3.046
 3023SOL     OW 9967   5.570   0.374   1.437
 3023SOL    HW1 9968   5.659   0.419   1.446
 3023SOL    HW2 9969   5.562   0.334   1.346
 3024SOL     OW 9970   2.139   0.016   6.642
 3024SOL    HW1 9971   2.062   6.986   6.670
 3024SOL    HW2 9972   2.219   6.984   6.626
 3025SOL     OW 9973   2.122   2.346   1.713
 3025SOL    HW1 9974   2.146   2.433   1.754
 3025SOL    HW2 9975   2.121   2.355   1.613
 3026SOL     OW 9976   2.858   5.633   0.695
 3026SOL    HW1 9977   2.841   5.731   0.683
 3026SOL    HW2 9978   2.800   5.582   0.631
 3027SOL     OW 9979   1.393   1.978   3.693
 3027SOL    HW1 9980   1.385   1.922   3.610
 3027SOL    HW2 9981   1.308   2.030   3.706
 3028SOL     OW 9982   1.142   0.428   4.722
 3028SOL    HW1 9983   1.158   0.472   4.634
 3028SOL    HW2 9984   1.228   0.418   4.771
 3029SOL     OW 9985   6.451   5.385   5.897
 3029SOL    HW1 9986   6.424   5.428   5.811
 3029SOL    HW2 9987   6.520   5.315   5.880
 3030SOL     OW 9988   1.200   0.675   5.182
 3030SOL    HW1 9989   1.188   0.736   5.260
 3030SOL    HW2 9990   1.117   0.674   5.127
 3031SOL     OW 9991   0.193   5.675   5.894
 3031SOL    HW1 9992   0.259   5.749   5.904
 3031SOL    HW2 9993   0.214   5.622   5.812
 3032SOL     OW 9994   4.035   6.667   5.526
 3032SOL    HW1 9995   3.997   6.627   5.610
 3032SOL    HW2 9996   4.081   6.596   5.473
 3033SOL     OW 9997   4.886   4.735   5.575
 3033SOL    HW1 9998   4.940   4.658   5.540
 3033SOL    HW2 9999   4.788   4.714   5.566
 3034SOL     OW10000   2.733   6.620   4.488
 3034SOL    HW110001   2.788   6.536   4.482
 3034SOL    HW210002   2.639   6.600   4.463
 3035SOL     OW10003   6.138   0.125   0.078
 3035SOL    HW110004   6.154   0.209   0.130
 3035SOL    HW210005   6.082   0.062   0.132
 3036SOL     OW10006   0.979   5.095   5.556
 3036SOL    HW110007   1.034   5.013   5.548
 3036SOL    HW210008   1.028   5.164   5.610
 3037SOL     OW10009   5.402   6.571   6.045
 3037SOL    HW110010   5.469   6.497   6.057
 3037SOL    HW210011   5.349   6.581   6.129
 3038SOL     OW10012   5.964   6.085   5.895
 3038SOL    HW110013   5.934   6.095   5.990
 3038SOL    HW210014   5.916   6.150   5.837
 3039SOL     OW10015   0.606   5.328   0.685
 3039SOL    HW110016   0.697   5.356   0.655
 3039SOL    HW210017   0.576   5.248   0.633
 3040SOL     OW10018   3.113   1.182   0.185
 3040SOL    HW110019   3.191   1.207   0.129
 3040SOL    HW210020   3.083   1.089   0.162
 3041SOL     OW10021   1.506   2.272   6.240
 3041SOL    HW110022   1.582   2.219   6.276
 3041SOL    HW210023   1.534   2.317   6.155
 3042SOL     OW10024   6.093   0.266   1.102
 3042SOL    HW110025   6.149   0.286   1.183
 3042SOL    HW210026   6.149   0.278   1.020
 3043SOL     OW10027   0.010   5.388   6.729
 3043SOL    HW110028   7.003   5.294   6.723
 3043SOL    HW210029   7.023   5.422   6.822
 3044SOL     OW10030   2.598   3.167   6.499
 3044SOL    HW110031   2.623   3.073   6.473
 3044SOL    HW210032   2.539   3.205   6.428
 3045SOL     OW10033   4.808   2.432   3.787
 3045SOL    HW110034   4.735   2.497   3.808
 3045SOL    HW210035   4.792   2.393   3.696
 3046SOL     OW10036   1.976   2.511   6.131
 3046SOL    HW110037   2.053   2.548   6.079
 3046SOL    HW210038   1.899   2.575   6.128
 3047SOL     OW10039   6.920   5.467   1.766
 3047SOL    HW110040   6.920   5.473   1.667
 3047SOL    HW210041   6.999   5.517   1.802
 3048SOL     OW10042   3.292   3.037   1.972
 3048SOL    HW110043   3.389   3.059   1.977
 3048SOL    HW210044   3.262   3.038   1.876
 3049SOL     OW10045   0.870   0.543   1.207
 3049SOL    HW110046   0.775   0.537   1.238
 3049SOL    HW210047   0.905   0.635   1.223
 3050SOL     OW10048   1.669   0.827   3.928
 3050SOL    HW110049   1.768   0.818   3.929
 3050SOL    HW210050   1.641   0.904   3.985
 3051SOL     OW10051   2.577   4.642   6.184
 3051SOL    HW110052   2.573   4.569   6.252
 3051SOL    HW210053   2.579   4.731   6.229
 3052SOL     OW10054   5.254   6.986   2.642
 3052SOL    HW110055   5.247   0.050   2.685
 3052SOL    HW210056   5.295   6.921   2.706
 3053SOL     OW10057   3.988   6.982   1.956
 3053SOL    HW110058   3.986   6.903   1.895
 3053SOL    HW210059   4.031   6.957   2.043
 3054SOL     OW10060   1.969   4.222   5.773
 3054SOL    HW110061   1.959   4.187   5.680
 3054SOL    HW210062   2.038   4.169   5.822
 3055SOL     OW10063   6.620   6.484   2.641
 3055SOL    HW110064   6.536   6.536   2.627
 3055SOL    HW210065   6.694   6.525   2.588
 3056SOL     OW10066   5.542   0.623   1.813
 3056SOL    HW110067   5.501   0.598   1.726
 3056SOL    HW210068   5.639   0.599   1.812
 3057SOL     OW10069   6.252   5.483   2.632
 3057SOL    HW110070   6.175   5.500   2.694
 3057SOL    HW210071   6.223   5.421   2.559
 3058SOL     OW10072   5.896   6.072   1.422
 3058SOL    HW110073   5.884   6.117   1.511
 3058SOL    HW210074   5.900   5.973   1.435
 3059SOL     OW10075   2.417   2.635   6.160
 3059SOL    HW110076   2.467   2.722   6.157
 3059SOL    HW210077   2.422   2.598   6.253
 3060SOL     OW10078   0.497   6.569   6.481
 3060SOL    HW110079   0.424   6.504   6.501
 3060SOL    HW210080   0.496   6.590   6.383
 3061SOL     OW10081   0.637   0.976   6.136
 3061SOL    HW110082   0.569   0.951   6.067
 3061SOL    HW210083   0.723   0.927   6.117
 3062SOL     OW10084   3.328   5.015   6.271
 3062SOL    HW110085   3.290   5.023   6.363
 3062SOL    HW210086   3.362   4.922   6.257
 3063SOL     OW10087   2.513   5.947   1.083
 3063SOL    HW110088   2.576   5.887   1.132
 3063SOL    HW210089   2.563   6.026   1.048
 3064SOL     OW10090   0.319   4.601   3.228
 3064SOL    HW110091   0.237   4.626   3.279
 3064SOL    HW210092   0.346   4.508   3.253
 3065SOL     OW10093   3.293   1.532   1.430
 3065SOL    HW110094   3.306   1.440   1.467
 3065SOL    HW210095   3.196   1.547   1.413
 3066SOL     OW10096   5.382   5.317   0.712
 3066SOL    HW110097   5.480   5.332   0.725
 3066SOL    HW210098   5.341   5.400   0.673
 3067SOL     OW10099   4.262   6.986   3.123
 3067SOL    HW110100   4.258   6.900   3.072
 3067SOL    HW210101   4.226   6.972   3.215
 3068SOL     OW10102   6.403   4.588   6.677
 3068SOL    HW110103   6.415   4.589   6.776
 3068SOL    HW210104   6.490   4.565   6.633
 3069SOL     OW10105   0.896   4.668   3.380
 3069SOL    HW110106   0.888   4.766   3.361
 3069SOL    HW210107   0.864   4.616   3.301
 3070SOL     OW10108   4.415   2.003   4.007
 3070SOL    HW110109   4.410   1.920   4.063
 3070SOL    HW210110   4.510   2.033   4.001
 3071SOL     OW10111   5.871   0.464   4.011
 3071SOL    HW110112   5.962   0.483   3.974
 3071SOL    HW210113   5.876   0.384   4.071
 3072SOL     OW10114   0.260   0.506   1.687
 3072SOL    HW110115   0.225   0.432   1.631
 3072SOL    HW210116   0.211   0.591   1.665
 3073SOL     OW10117   2.199   2.042   4.714
 3073SOL    HW110118   2.168   2.082   4.628
 3073SOL    HW210119   2.120   2.018   4.770
 3074SOL     OW10120   4.853   3.848   5.982
 3074SOL    HW110121   4.809   3.846   5.892
 3074SOL    HW210122   4.937   3.903   5.976
 3075SOL     OW10123   0.068   5.646   0.870
 3075SOL    HW110124   0.016   5.716   0.821
 3075SOL    HW210125   0.032   5.555   0.847
 3076SOL     OW10126   0.813   0.965   5.230
 3076SOL    HW110127   0.848   1.056   5.253
 3076SOL    HW210128   0.751   0.972   5.151
 3077SOL     OW10129   4.753   4.695   3.279
 3077SOL    HW110130   4.704   4.731   3.201
 3077SOL    HW210131   4.837   4.650   3.248
 3078SOL     OW10132   1.781   2.812   0.091
 3078SOL    HW110133   1.763   2.773   0.001
 3078SOL    HW210134   1.765   2.742   0.161
 3079SOL     OW10135   5.346   2.842   5.678
 3079SOL    HW110136   5.410   2.903   5.630
 3079SOL    HW210137   5.275   2.897   5.722
 3080SOL     OW10138   5.986   6.753   1.699
 3080SOL    HW110139   5.936   6.671   1.726
 3080SOL    HW210140   6.081   6.728   1.677
 3081SOL     OW10141   1.130   4.310   5.763
 3081SOL    HW110142   1.063   4.304   5.689
 3081SOL    HW210143   1.215   4.347   5.728
 3082SOL     OW10144   3.379   0.008   2.373
 3082SOL    HW110145   3.475   7.014   2.355
 3082SOL    HW210146   3.357   7.012   2.468
 3083SOL     OW10147   3.682   0.086   2.264
 3083SOL    HW110148   3.622   0.136   2.326
 3083SOL    HW210149   3.660   7.015   2.268
 3084SOL     OW10150   4.204   6.222   4.199
 3084SOL    HW110151   4.165   6.143   4.152
 3084SOL    HW210152   4.180   6.217   4.296
 3085SOL     OW10153   1.043   4.927   2.247
 3085SOL    HW110154   0.974   4.894   2.311
 3085SOL    HW210155   1.090   5.007   2.285
 3086SOL     OW10156   6.117   1.380   4.525
 3086SOL    HW110157   6.083   1.389   4.431
 3086SOL    HW210158   6.184   1.306   4.530
 3087SOL     OW10159   5.783   4.046   1.404
 3087SOL    HW110160   5.707   4.029   1.466
 3087SOL    HW210161   5.822   4.136   1.423
 3088SOL     OW10162   2.971   3.814   6.463
 3088SOL    HW110163   3.027   3.864   6.397
 3088SOL    HW210164   2.965   3.718   6.435
 3089SOL     OW10165   3.531   1.882   1.634
 3089SOL    HW110166   3.606   1.816   1.631
 3089SOL    HW210167   3.551   1.959   1.574
 3090SOL     OW10168   6.193   1.751   0.915
 3090SOL    HW110169   6.273   1.691   0.911
 3090SOL    HW210170   6.131   1.719   0.987
 3091SOL     OW10171   2.408   5.988   0.118
 3091SOL    HW110172   2.378   5.893   0.130
 3091SOL    HW210173   2.337   6.039   0.070
 3092SOL     OW10174   3.467   5.362   0.141
 3092SOL    HW110175   3.418   5.277   0.160
 3092SOL    HW210176   3.448   5.391   0.048
 3093SOL     OW10177   4.935   0.146   3.084
 3093SOL    HW110178   5.001   0.100   3.144
 3093SOL    HW210179   4.879   0.209   3.138
 3094SOL     OW10180   3.526   5.517   5.041
 3094SOL    HW110181   3.455   5.567   5.090
 3094SOL    HW210182   3.486   5.470   4.963
 3095SOL     OW10183   1.882   5.092   5.146
 3095SOL    HW110184   1.939   5.111   5.066
 3095SOL    HW210185   1.837   5.003   5.134
 3096SOL     OW10186   0.733   1.301   5.536
 3096SOL    HW110187   0.719   1.322   5.439
 3096SOL    HW210188   0.826   1.328   5.562
 3097SOL     OW10189   1.990   1.037   0.286
 3097SOL    HW110190   2.014   0.955   0.339
 3097SOL    HW210191   1.897   1.026   0.250
 3098SOL     OW10192   4.227   2.539   0.950
 3098SOL    HW110193   4.230   2.448   0.908
 3098SOL    HW210194   4.273   2.536   1.038
 3099SOL     OW10195   1.837   5.928   5.480
 3099SOL    HW110196   1.922   5.963   5.441
 3099SOL    HW210197   1.822   5.835   5.447
 3100SOL     OW10198   6.639   6.846   6.233
 3100SOL    HW110199   6.568   6.867   6.166
 3100SOL    HW210200   6.646   6.921   6.299
 3101SOL     OW10201   3.572   0.739   1.265
 3101SOL    HW110202   3.569   0.640   1.257
 3101SOL    HW210203   3.550   0.780   1.176
 3102SOL     OW10204   1.003   5.845   0.255
 3102SOL    HW110205   0.945   5.800   0.186
 3102SOL    HW210206   0.950   5.915   0.303
 3103SOL     OW10207   4.238   4.317   1.639
 3103SOL    HW110208   4.300   4.291   1.712
 3103SOL    HW210209   4.166   4.248   1.631
 3104SOL     OW10210   5.801   5.633   4.017
 3104SOL    HW110211   5.726   5.571   4.039
 3104SOL    HW210212   5.808   5.642   3.917
 3105SOL     OW10213   6.073   5.647   3.710
 3105SOL    HW110214   6.094   5.711   3.637
 3105SOL    HW210215   5.977   5.619   3.704
 3106SOL     OW10216   6.695   3.037   4.736
 3106SOL    HW110217   6.610   3.022   4.785
 3106SOL    HW210218   6.755   3.096   4.791
 3107SOL     OW10219   2.681   6.914   4.290
 3107SOL    HW110220   2.666   6.964   4.376
 3107SOL    HW210221   2.768   6.943   4.250
 3108SOL     OW10222   1.771   0.737   2.945
 3108SOL    HW110223   1.810   0.667   3.006
 3108SOL    HW210224   1.839   0.808   2.929
 3109SOL     OW10225   4.910   6.073   3.353
 3109SOL    HW110226   4.834   6.044   3.295
 3109SOL    HW210227   4.933   5.998   3.416
 3110SOL     OW10228   1.206   2.776   1.640
 3110SOL    HW110229   1.111   2.766   1.612
 3110SOL    HW210230   1.238   2.868   1.618
 3111SOL     OW10231   0.348   4.855   2.166
 3111SOL    HW110232   0.390   4.793   2.099
 3111SOL    HW210233   0.386   4.946   2.156
 3112SOL     OW10234   2.776   3.434   5.754
 3112SOL    HW110235   2.868   3.397   5.768
 3112SOL    HW210236   2.779   3.533   5.750
 3113SOL     OW10237   4.262   6.460   4.392
 3113SOL    HW110238   4.304   6.448   4.303
 3113SOL    HW210239   4.325   6.508   4.453
 3114SOL     OW10240   5.090   5.731   0.596
 3114SOL    HW110241   5.029   5.685   0.531
 3114SOL    HW210242   5.038   5.756   0.678
 3115SOL     OW10243   2.941   3.215   2.244
 3115SOL    HW110244   2.941   3.225   2.144
 3115SOL    HW210245   2.889   3.135   2.270
 3116SOL     OW10246   0.205   1.309   6.784
 3116SOL    HW110247   0.258   1.377   6.834
 3116SOL    HW210248   0.264   1.261   6.719
 3117SOL     OW10249   3.710   4.191   5.928
 3117SOL    HW110250   3.724   4.099   5.891
 3117SOL    HW210251   3.626   4.230   5.889
 3118SOL     OW10252   6.315   5.543   6.753
 3118SOL    HW110253   6.236   5.570   6.808
 3118SOL    HW210254   6.310   5.589   6.664
 3119SOL     OW10255   2.352   4.276   0.077
 3119SOL    HW110256   2.291   4.215   0.027
 3119SOL    HW210257   2.334   4.371   0.049
 3120SOL     OW10258   2.598   5.240   6.616
 3120SOL    HW110259   2.592   5.310   6.546
 3120SOL    HW210260   2.603   5.283   6.706
 3121SOL     OW10261   0.506   5.805   3.652
 3121SOL    HW110262   0.570   5.869   3.609
 3121SOL    HW210263   0.507   5.718   3.604
 3122SOL     OW10264   3.580   5.331   1.269
 3122SOL    HW110265   3.618   5.259   1.326
 3122SOL    HW210266   3.654   5.376   1.219
 3123SOL     OW10267   3.517   6.915   4.324
 3123SOL    HW110268   3.580   6.933   4.400
 3123SOL    HW210269   3.529   6.821   4.291
 3124SOL     OW10270   3.574   0.105   5.914
 3124SOL    HW110271   3.482   0.105   5.874
 3124SOL    HW210272   3.640   0.134   5.845
 3125SOL     OW10273   6.787   2.306   6.465
 3125SOL    HW110274   6.848   2.240   6.510
 3125SOL    HW210275   6.701   2.311   6.514
 3126SOL     OW10276   3.962   6.162   6.301
 3126SOL    HW110277   3.995   6.167   6.395
 3126SOL    HW210278   3.904   6.242   6.282
 3127SOL     OW10279   1.024   1.283   4.325
 3127SOL    HW110280   1.076   1.206   4.360
 3127SOL    HW210281   0.926   1.266   4.339
 3128SOL     OW10282   1.737   0.636   1.092
 3128SOL    HW110283   1.769   0.654   0.999
 3128SOL    HW210284   1.681   0.553   1.093
 3129SOL     OW10285   0.826   3.057   3.193
 3129SOL    HW110286   0.912   3.107   3.181
 3129SOL    HW210287   0.752   3.109   3.152
 3130SOL     OW10288   2.527   5.347   3.254
 3130SOL    HW110289   2.611   5.294   3.254
 3130SOL    HW210290   2.452   5.291   3.217
 3131SOL     OW10291   0.429   2.756   4.128
 3131SOL    HW110292   0.382   2.836   4.092
 3131SOL    HW210293   0.374   2.674   4.110
 3132SOL     OW10294   5.225   3.938   5.944
 3132SOL    HW110295   5.253   3.907   6.035
 3132SOL    HW210296   5.158   4.011   5.952
 3133SOL     OW10297   2.252   1.894   3.425
 3133SOL    HW110298   2.344   1.889   3.384
 3133SOL    HW210299   2.204   1.973   3.388
 3134SOL     OW10300   5.765   3.070   2.079
 3134SOL    HW110301   5.683   3.017   2.102
 3134SOL    HW210302   5.797   3.044   1.988
 3135SOL     OW10303   1.290   2.083   2.757
 3135SOL    HW110304   1.215   2.054   2.815
 3135SOL    HW210305   1.313   2.010   2.692
 3136SOL     OW10306   6.272   0.349   4.923
 3136SOL    HW110307   6.197   0.289   4.893
 3136SOL    HW210308   6.234   0.424   4.978
 3137SOL     OW10309   0.592   1.878   4.439
 3137SOL    HW110310   0.508   1.851   4.391
 3137SOL    HW210311   0.623   1.966   4.404
 3138SOL     OW10312   6.139   2.431   4.191
 3138SOL    HW110313   6.135   2.385   4.280
 3138SOL    HW210314   6.048   2.465   4.167
 3139SOL     OW10315   4.676   5.562   5.221
 3139SOL    HW110316   4.630   5.617   5.152
 3139SOL    HW210317   4.613   5.492   5.255
 3140SOL     OW10318   5.882   6.105   6.147
 3140SOL    HW110319   5.846   6.013   6.136
 3140SOL    HW210320   5.812   6.163   6.190
 3141SOL     OW10321   0.977   6.094   2.218
 3141SOL    HW110322   1.007   6.172   2.164
 3141SOL    HW210323   0.971   6.013   2.160
 3142SOL     OW10324   3.556   7.013   0.435
 3142SOL    HW110325   3.541   6.917   0.411
 3142SOL    HW210326   3.621   0.027   0.371
 3143SOL     OW10327   0.210   1.735   0.440
 3143SOL    HW110328   0.178   1.640   0.439
 3143SOL    HW210329   0.141   1.794   0.398
 3144SOL     OW10330   2.505   3.072   6.866
 3144SOL    HW110331   2.450   2.995   6.899
 3144SOL    HW210332   2.497   3.078   6.766
 3145SOL     OW10333   2.981   5.139   3.021
 3145SOL    HW110334   3.007   5.069   2.954
 3145SOL    HW210335   3.053   5.149   3.089
 3146SOL     OW10336   2.101   6.856   4.162
 3146SOL    HW110337   2.060   6.801   4.089
 3146SOL    HW210338   2.055   6.837   4.248
 3147SOL     OW10339   3.800   4.450   0.686
 3147SOL    HW110340   3.760   4.394   0.759
 3147SOL    HW210341   3.728   4.476   0.621
 3148SOL     OW10342   3.127   5.635   4.807
 3148SOL    HW110343   3.197   5.563   4.804
 3148SOL    HW210344   3.149   5.705   4.739
 3149SOL     OW10345   2.641   6.591   5.839
 3149SOL    HW110346   2.636   6.665   5.771
 3149SOL    HW210347   2.569   6.525   5.821
 3150SOL     OW10348   6.597   0.159   4.213
 3150SOL    HW110349   6.562   0.250   4.189
 3150SOL    HW210350   6.539   0.118   4.282
 3151SOL     OW10351   3.461   7.018   1.882
 3151SOL    HW110352   3.463   6.923   1.914
 3151SOL    HW210353   3.533   0.044   1.928
 3152SOL     OW10354   1.418   4.733   6.063
 3152SOL    HW110355   1.376   4.822   6.082
 3152SOL    HW210356   1.411   4.674   6.143
 3153SOL     OW10357   6.834   4.090   3.158
 3153SOL    HW110358   6.889   4.006   3.149
 3153SOL    HW210359   6.747   4.078   3.111
 3154SOL     OW10360   5.962   2.641   6.042
 3154SOL    HW110361   5.930   2.606   5.954
 3154SOL    HW210362   5.934   2.737   6.052
 3155SOL     OW10363   4.245   5.987   0.481
 3155SOL    HW110364   4.330   6.030   0.510
 3155SOL    HW210365   4.239   5.987   0.382
 3156SOL     OW10366   3.597   3.847   3.368
 3156SOL    HW110367   3.669   3.912   3.341
 3156SOL    HW210368   3.636   3.778   3.430
 3157SOL     OW10369   2.144   2.382   4.723
 3157SOL    HW110370   2.208   2.342   4.788
 3157SOL    HW210371   2.085   2.447   4.770
 3158SOL     OW10372   4.596   6.738   1.445
 3158SOL    HW110373   4.551   6.693   1.523
 3158SOL    HW210374   4.680   6.782   1.475
 3159SOL     OW10375   5.102   4.681   0.401
 3159SOL    HW110376   5.178   4.643   0.348
 3159SOL    HW210377   5.116   4.779   0.415
 3160SOL     OW10378   6.362   4.712   0.632
 3160SOL    HW110379   6.331   4.793   0.682
 3160SOL    HW210380   6.360   4.633   0.693
 3161SOL     OW10381   1.163   1.320   4.010
 3161SOL    HW110382   1.117   1.301   4.097
 3161SOL    HW210383   1.159   1.239   3.952
 3162SOL     OW10384   6.889   0.225   5.951
 3162SOL    HW110385   6.910   0.265   6.040
 3162SOL    HW210386   6.793   0.196   5.949
 3163SOL     OW10387   1.952   4.598   5.518
 3163SOL    HW110388   1.943   4.519   5.458
 3163SOL    HW210389   1.964   4.568   5.612
 3164SOL     OW10390   6.582   5.140   5.546
 3164SOL    HW110391   6.552   5.044   5.542
 3164SOL    HW210392   6.528   5.194   5.482
 3165SOL     OW10393   0.407   3.159   1.434
 3165SOL    HW110394   0.358   3.173   1.348
 3165SOL    HW210395   0.405   3.062   1.459
 3166SOL     OW10396   3.855   3.087   6.321
 3166SOL    HW110397   3.918   3.039   6.260
 3166SOL    HW210398   3.837   3.178   6.284
 3167SOL     OW10399   0.039   4.979   2.018
 3167SOL    HW110400   0.022   5.041   1.941
 3167SOL    HW210401   7.024   5.016   2.100
 3168SOL     OW10402   6.144   2.708   0.855
 3168SOL    HW110403   6.187   2.623   0.887
 3168SOL    HW210404   6.113   2.696   0.761
 3169SOL     OW10405   2.562   2.169   5.609
 3169SOL    HW110406   2.506   2.250   5.629
 3169SOL    HW210407   2.635   2.194   5.546
 3170SOL     OW10408   3.478   0.139   5.172
 3170SOL    HW110409   3.497   0.041   5.169
 3170SOL    HW210410   3.421   0.164   5.093
 3171SOL     OW10411   5.687   5.910   2.790
 3171SOL    HW110412   5.772   5.911   2.735
 3171SOL    HW210413   5.689   5.831   2.851
 3172SOL     OW10414   5.648   6.781   5.616
 3172SOL    HW110415   5.571   6.834   5.652
 3172SOL    HW210416   5.616   6.724   5.540
 3173SOL     OW10417   1.817   0.843   1.657
 3173SOL    HW110418   1.838   0.881   1.568
 3173SOL    HW210419   1.872   0.888   1.727
 3174SOL     OW10420   2.467   3.442   6.614
 3174SOL    HW110421   2.537   3.380   6.579
 3174SOL    HW210422   2.428   3.404   6.698
 3175SOL     OW10423   0.222   6.501   0.539
 3175SOL    HW110424   0.309   6.538   0.508
 3175SOL    HW210425   0.179   6.451   0.464
 3176SOL     OW10426   0.668   5.352   0.122
 3176SOL    HW110427   0.626   5.300   0.197
 3176SOL    HW210428   0.645   5.308   0.035
 3177SOL     OW10429   0.835   0.287   4.346
 3177SOL    HW110430   0.899   0.270   4.271
 3177SOL    HW210431   0.831   0.207   4.405
 3178SOL     OW10432   3.499   2.878   0.137
 3178SOL    HW110433   3.587   2.854   0.096
 3178SOL    HW210434   3.455   2.795   0.173
 3179SOL     OW10435   1.147   2.498   4.224
 3179SOL    HW110436   1.053   2.466   4.210
 3179SOL    HW210437   1.204   2.422   4.254
 3180SOL     OW10438   6.434   1.457   6.646
 3180SOL    HW110439   6.349   1.419   6.684
 3180SOL    HW210440   6.414   1.541   6.597
 3181SOL     OW10441   0.543   1.756   2.474
 3181SOL    HW110442   0.571   1.672   2.427
 3181SOL    HW210443   0.488   1.812   2.412
 3182SOL     OW10444   1.665   5.159   6.062
 3182SOL    HW110445   1.721   5.076   6.067
 3182SOL    HW210446   1.694   5.222   6.135
 3183SOL     OW10447   4.676   3.825   1.429
 3183SOL    HW110448   4.736   3.790   1.357
 3183SOL    HW210449   4.609   3.888   1.390
 3184SOL     OW10450   0.460   2.035   3.175
 3184SOL    HW110451   0.445   2.134   3.178
 3184SOL    HW210452   0.489   2.008   3.084
 3185SOL     OW10453   0.106   6.483   6.958
 3185SOL    HW110454   0.170   6.406   6.949
 3185SOL    HW210455   0.129   6.535   0.014
 3186SOL     OW10456   3.352   0.213   1.608
 3186SOL    HW110457   3.299   0.185   1.688
 3186SOL    HW210458   3.442   0.170   1.611
 3187SOL     OW10459   3.002   4.216   0.243
 3187SOL    HW110460   2.936   4.143   0.231
 3187SOL    HW210461   3.068   4.191   0.314
 3188SOL     OW10462   3.862   6.694   3.314
 3188SOL    HW110463   3.819   6.783   3.333
 3188SOL    HW210464   3.881   6.647   3.400
 3189SOL     OW10465   6.375   6.382   2.208
 3189SOL    HW110466   6.469   6.406   2.184
 3189SOL    HW210467   6.350   6.295   2.165
 3190SOL     OW10468   1.336   0.254   2.041
 3190SOL    HW110469   1.375   0.229   1.953
 3190SOL    HW210470   1.359   0.185   2.109
 3191SOL     OW10471   3.298   1.403   0.326
 3191SOL    HW110472   3.266   1.476   0.386
 3191SOL    HW210473   3.293   1.315   0.373
 3192SOL     OW10474   5.416   2.874   4.202
 3192SOL    HW110475   5.445   2.851   4.109
 3192SOL    HW210476   5.323   2.910   4.201
 3193SOL     OW10477   5.387   4.458   1.179
 3193SOL    HW110478   5.438   4.544   1.172
 3193SOL    HW210479   5.417   4.408   1.261
 3194SOL     OW10480   2.869   5.665   5.161
 3194SOL    HW110481   2.822   5.672   5.248
 3194SOL    HW210482   2.843   5.580   5.115
 3195SOL     OW10483   6.789   4.233   3.982
 3195SOL    HW110484   6.776   4.208   4.078
 3195SOL    HW210485   6.824   4.154   3.931
 3196SOL     OW10486   0.048   6.294   5.996
 3196SOL    HW110487   0.142   6.303   6.028
 3196SOL    HW210488   7.019   6.252   6.067
 3197SOL     OW10489   0.890   4.336   5.607
 3197SOL    HW110490   0.923   4.403   5.540
 3197SOL    HW210491   0.790   4.343   5.613
 3198SOL     OW10492   5.797   6.730   0.624
 3198SOL    HW110493   5.851   6.665   0.677
 3198SOL    HW210494   5.701   6.703   0.626
 3199SOL     OW10495   3.205   1.538   2.993
 3199SOL    HW110496   3.258   1.454   2.977
 3199SOL    HW210497   3.176   1.542   3.088
 3200SOL     OW10498   6.293   1.976   0.437
 3200SOL    HW110499   6.282   1.878   0.454
 3200SOL    HW210500   6.205   2.014   0.409
 3201SOL     OW10501   4.060   4.833   3.036
 3201SOL    HW110502   3.964   4.823   3.062
 3201SOL    HW210503   4.112   4.868   3.113
 3202SOL     OW10504   1.249   5.000   1.821
 3202SOL    HW110505   1.343   5.000   1.857
 3202SOL    HW210506   1.185   4.988   1.896
 3203SOL     OW10507   4.504   0.325   0.452
 3203SOL    HW110508   4.510   0.240   0.400
 3203SOL    HW210509   4.590   0.376   0.444
 3204SOL     OW10510   6.604   6.441   2.051
 3204SOL    HW110511   6.535   6.493   2.000
 3204SOL    HW210512   6.640   6.368   1.993
 3205SOL     OW10513   1.081   3.628   4.431
 3205SOL    HW110514   1.027   3.701   4.474
 3205SOL    HW210515   1.166   3.616   4.482
 3206SOL     OW10516   1.789   6.600   0.058
 3206SOL    HW110517   1.841   6.677   0.021
 3206SOL    HW210518   1.779   6.530   7.013
 3207SOL     OW10519   1.703   1.571   3.033
 3207SOL    HW110520   1.691   1.495   3.097
 3207SOL    HW210521   1.730   1.653   3.084
 3208SOL     OW10522   6.008   6.524   5.595
 3208SOL    HW110523   5.908   6.524   5.590
 3208SOL    HW210524   6.045   6.554   5.507
 3209SOL     OW10525   0.967   6.867   3.558
 3209SOL    HW110526   0.892   6.806   3.531
 3209SOL    HW210527   0.996   6.922   3.480
 3210SOL     OW10528   0.614   5.997   1.943
 3210SOL    HW110529   0.651   6.067   1.881
 3210SOL    HW210530   0.552   5.937   1.892
 3211SOL     OW10531   0.648   4.494   3.732
 3211SOL    HW110532   0.662   4.592   3.741
 3211SOL    HW210533   0.736   4.448   3.721
 3212SOL     OW10534   4.663   2.809   5.042
 3212SOL    HW110535   4.626   2.810   4.949
 3212SOL    HW210536   4.719   2.727   5.054
 3213SOL     OW10537   5.374   0.158   1.253
 3213SOL    HW110538   5.468   0.130   1.237
 3213SOL    HW210539   5.359   0.171   1.352
 3214SOL     OW10540   4.662   4.183   0.207
 3214SOL    HW110541   4.755   4.150   0.193
 3214SOL    HW210542   4.604   4.108   0.239
 3215SOL     OW10543   6.199   1.590   6.945
 3215SOL    HW110544   6.106   1.626   6.953
 3215SOL    HW210545   6.206   1.534   6.863
 3216SOL     OW10546   5.173   6.523   5.166
 3216SOL    HW110547   5.250   6.501   5.225
 3216SOL    HW210548   5.201   6.517   5.070
 3217SOL     OW10549   0.005   4.458   6.636
 3217SOL    HW110550   6.997   4.552   6.635
 3217SOL    HW210551   0.078   4.449   6.569
 3218SOL     OW10552   4.060   2.276   1.679
 3218SOL    HW110553   3.977   2.326   1.706
 3218SOL    HW210554   4.034   2.186   1.644
 3219SOL     OW10555   0.563   1.548   3.095
 3219SOL    HW110556   0.566   1.643   3.127
 3219SOL    HW210557   0.656   1.510   3.098
 3220SOL     OW10558   6.700   3.146   6.498
 3220SOL    HW110559   6.703   3.135   6.597
 3220SOL    HW210560   6.750   3.072   6.454
 3221SOL     OW10561   3.685   0.596   1.818
 3221SOL    HW110562   3.645   0.647   1.894
 3221SOL    HW210563   3.614   0.541   1.774
 3222SOL     OW10564   6.410   4.111   2.355
 3222SOL    HW110565   6.455   4.035   2.402
 3222SOL    HW210566   6.446   4.198   2.390
 3223SOL     OW10567   1.544   4.346   5.213
 3223SOL    HW110568   1.612   4.320   5.144
 3223SOL    HW210569   1.457   4.367   5.169
 3224SOL     OW10570   2.840   6.203   1.184
 3224SOL    HW110571   2.759   6.146   1.192
 3224SOL    HW210572   2.860   6.219   1.087
 3225SOL     OW10573   1.491   2.305   0.686
 3225SOL    HW110574   1.590   2.294   0.676
 3225SOL    HW210575   1.459   2.377   0.624
 3226SOL     OW10576   6.579   1.626   3.696
 3226SOL    HW110577   6.643   1.550   3.703
 3226SOL    HW210578   6.495   1.595   3.651
 3227SOL     OW10579   2.678   1.892   5.456
 3227SOL    HW110580   2.716   1.911   5.365
 3227SOL    HW210581   2.589   1.937   5.464
 3228SOL     OW10582   5.010   3.453   4.911
 3228SOL    HW110583   4.951   3.520   4.957
 3228SOL    HW210584   4.956   3.405   4.841
 3229SOL     OW10585   4.418   1.683   4.791
 3229SOL    HW110586   4.453   1.776   4.801
 3229SOL    HW210587   4.346   1.682   4.722
 3230SOL     OW10588   1.549   6.974   4.176
 3230SOL    HW110589   1.463   6.969   4.126
 3230SOL    HW210590   1.567   6.886   4.219
 3231SOL     OW10591   4.295   4.774   0.367
 3231SOL    HW110592   4.261   4.799   0.457
 3231SOL    HW210593   4.241   4.697   0.331
 3232SOL     OW10594   0.832   3.926   3.413
 3232SOL    HW110595   0.906   3.987   3.384
 3232SOL    HW210596   0.871   3.843   3.453
 3233SOL     OW10597   2.428   4.164   0.611
 3233SOL    HW110598   2.370   4.122   0.540
 3233SOL    HW210599   2.524   4.144   0.591
 3234SOL     OW10600   6.593   1.705   4.427
 3234SOL    HW110601   6.560   1.618   4.466
 3234SOL    HW210602   6.534   1.731   4.350
 3235SOL     OW10603   6.226   0.619   2.403
 3235SOL    HW110604   6.138   0.584   2.434
 3235SOL    HW210605   6.233   0.717   2.426
 3236SOL     OW10606   6.961   2.059   1.339
 3236SOL    HW110607   6.879   2.002   1.338
 3236SOL    HW210608   0.015   2.002   1.351
 3237SOL     OW10609   2.722   5.977   4.417
 3237SOL    HW110610   2.622   5.967   4.416
 3237SOL    HW210611   2.765   5.888   4.404
 3238SOL     OW10612   6.421   6.559   6.953
 3238SOL    HW110613   6.440   6.496   6.878
 3238SOL    HW210614   6.323   6.581   6.954
 3239SOL     OW10615   1.963   6.229   6.279
 3239SOL    HW110616   1.965   6.311   6.222
 3239SOL    HW210617   2.053   6.186   6.279
 3240SOL     OW10618   1.310   2.308   4.584
 3240SOL    HW110619   1.397   2.353   4.567
 3240SOL    HW210620   1.264   2.354   4.660
 3241SOL     OW10621   3.347   6.429   5.188
 3241SOL    HW110622   3.407   6.479   5.249
 3241SOL    HW210623   3.401   6.369   5.129
 3242SOL     OW10624   2.603   0.615   1.031
 3242SOL    HW110625   2.691   0.585   0.995
 3242SOL    HW210626   2.530   0.590   0.967
 3243SOL     OW10627   4.139   5.418   2.223
 3243SOL    HW110628   4.119   5.355   2.148
 3243SOL    HW210629   4.234   5.448   2.218
 3244SOL     OW10630   1.117   0.150   5.139
 3244SOL    HW110631   1.041   0.097   5.176
 3244SOL    HW210632   1.203   0.109   5.168
 3245SOL     OW10633   3.575   1.966   6.031
 3245SOL    HW110634   3.639   2.024   5.980
 3245SOL    HW210635   3.555   2.008   6.119
 3246SOL     OW10636   6.118   6.667   2.457
 3246SOL    HW110637   6.075   6.597   2.513
 3246SOL    HW210638   6.060   6.686   2.377
 3247SOL     OW10639   6.227   2.942   5.359
 3247SOL    HW110640   6.218   3.037   5.326
 3247SOL    HW210641   6.242   2.882   5.281
 3248SOL     OW10642   5.125   4.197   3.327
 3248SOL    HW110643   5.064   4.133   3.375
 3248SOL    HW210644   5.199   4.223   3.388
 3249SOL     OW10645   3.527   5.404   5.968
 3249SOL    HW110646   3.602   5.339   5.983
 3249SOL    HW210647   3.439   5.358   5.980
 3250SOL     OW10648   4.239   4.459   0.631
 3250SOL    HW110649   4.327   4.419   0.603
 3250SOL    HW210650   4.170   4.387   0.635
 3251SOL     OW10651   2.388   1.421   3.467
 3251SOL    HW110652   2.465   1.484   3.458
 3251SOL    HW210653   2.328   1.452   3.541
 3252SOL     OW10654   3.099   2.007   3.030
 3252SOL    HW110655   3.179   1.963   2.990
 3252SOL    HW210656   3.076   2.089   2.978
 3253SOL     OW10657   5.080   4.418   1.452
 3253SOL    HW110658   5.111   4.499   1.402
 3253SOL    HW210659   4.983   4.402   1.435
 3254SOL     OW10660   6.507   4.017   2.616
 3254SOL    HW110661   6.476   4.080   2.688
 3254SOL    HW210662   6.445   3.939   2.612
 3255SOL     OW10663   3.692   5.093   0.847
 3255SOL    HW110664   3.681   5.000   0.811
 3255SOL    HW210665   3.707   5.156   0.771
 3256SOL     OW10666   6.487   0.093   5.338
 3256SOL    HW110667   6.577   0.054   5.354
 3256SOL    HW210668   6.484   0.137   5.248
 3257SOL     OW10669   2.547   1.226   1.697
 3257SOL    HW110670   2.634   1.254   1.737
 3257SOL    HW210671   2.536   1.267   1.606
 3258SOL     OW10672   5.053   6.805   2.552
 3258SOL    HW110673   5.126   6.873   2.559
 3258SOL    HW210674   5.066   6.734   2.621
 3259SOL     OW10675   5.841   5.463   2.943
 3259SOL    HW110676   5.830   5.561   2.960
 3259SOL    HW210677   5.760   5.415   2.978
 3260SOL     OW10678   2.412   1.513   1.247
 3260SOL    HW110679   2.365   1.504   1.159
 3260SOL    HW210680   2.509   1.533   1.232
 3261SOL     OW10681   5.401   6.692   4.202
 3261SOL    HW110682   5.400   6.631   4.123
 3261SOL    HW210683   5.379   6.641   4.285
 3262SOL     OW10684   4.515   2.252   3.525
 3262SOL    HW110685   4.525   2.339   3.477
 3262SOL    HW210686   4.567   2.182   3.477
 3263SOL     OW10687   3.180   4.878   3.211
 3263SOL    HW110688   3.176   4.866   3.310
 3263SOL    HW210689   3.268   4.845   3.177
 3264SOL     OW10690   5.568   3.876   6.392
 3264SOL    HW110691   5.660   3.900   6.361
 3264SOL    HW210692   5.573   3.836   6.484
 3265SOL     OW10693   5.196   6.787   5.553
 3265SOL    HW110694   5.114   6.743   5.516
 3265SOL    HW210695   5.217   6.749   5.643
 3266SOL     OW10696   0.790   2.286   6.484
 3266SOL    HW110697   0.817   2.262   6.577
 3266SOL    HW210698   0.845   2.363   6.453
 3267SOL     OW10699   5.365   4.360   1.863
 3267SOL    HW110700   5.430   4.287   1.843
 3267SOL    HW210701   5.278   4.341   1.817
 3268SOL     OW10702   1.809   5.446   0.376
 3268SOL    HW110703   1.793   5.348   0.369
 3268SOL    HW210704   1.755   5.494   0.307
 3269SOL     OW10705   4.572   2.847   1.073
 3269SOL    HW110706   4.652   2.872   1.128
 3269SOL    HW210707   4.497   2.821   1.134
 3270SOL     OW10708   6.832   5.683   3.477
 3270SOL    HW110709   6.922   5.638   3.475
 3270SOL    HW210710   6.761   5.618   3.451
 3271SOL     OW10711   4.928   6.840   0.683
 3271SOL    HW110712   4.982   6.924   0.686
 3271SOL    HW210713   4.987   6.764   0.656
 3272SOL     OW10714   4.342   5.672   5.883
 3272SOL    HW110715   4.358   5.651   5.979
 3272SOL    HW210716   4.410   5.739   5.851
 3273SOL     OW10717   6.910   0.013   3.148
 3273SOL    HW110718   6.851   0.058   3.215
 3273SOL    HW210719   6.993   7.006   3.194
 3274SOL     OW10720   2.898   0.796   1.265
 3274SOL    HW110721   2.932   0.876   1.216
 3274SOL    HW210722   2.799   0.792   1.259
 3275SOL     OW10723   4.109   0.075   6.868
 3275SOL    HW110724   4.053   0.067   6.786
 3275SOL    HW210725   4.152   0.165   6.869
 3276SOL     OW10726   1.237   5.973   1.238
 3276SOL    HW110727   1.193   5.908   1.301
 3276SOL    HW210728   1.256   6.058   1.287
 3277SOL     OW10729   0.159   6.155   6.951
 3277SOL    HW110730   0.179   6.133   0.020
 3277SOL    HW210731   0.122   6.074   6.906
 3278SOL     OW10732   1.495   0.408   0.044
 3278SOL    HW110733   1.425   0.344   0.078
 3278SOL    HW210734   1.569   0.356   0.001
 3279SOL     OW10735   1.963   6.571   1.573
 3279SOL    HW110736   1.910   6.513   1.634
 3279SOL    HW210737   1.926   6.664   1.576
 3280SOL     OW10738   2.675   5.850   3.167
 3280SOL    HW110739   2.619   5.772   3.197
 3280SOL    HW210740   2.659   5.867   3.070
 3281SOL     OW10741   1.419   6.424   1.022
 3281SOL    HW110742   1.364   6.443   1.103
 3281SOL    HW210743   1.477   6.502   1.002
 3282SOL     OW10744   1.731   4.960   2.618
 3282SOL    HW110745   1.719   5.040   2.677
 3282SOL    HW210746   1.778   4.888   2.668
 3283SOL     OW10747   1.460   0.566   3.441
 3283SOL    HW110748   1.402   0.550   3.521
 3283SOL    HW210749   1.446   0.660   3.408
 3284SOL     OW10750   1.972   6.189   5.688
 3284SOL    HW110751   1.893   6.250   5.674
 3284SOL    HW210752   1.996   6.146   5.601
 3285SOL     OW10753   0.575   3.247   4.477
 3285SOL    HW110754   0.493   3.294   4.444
 3285SOL    HW210755   0.655   3.280   4.426
 3286SOL     OW10756   5.399   4.528   6.573
 3286SOL    HW110757   5.336   4.525   6.650
 3286SOL    HW210758   5.463   4.604   6.585
 3287SOL     OW10759   0.109   2.762   1.224
 3287SOL    HW110760   0.135   2.847   1.178
 3287SOL    HW210761   0.163   2.752   1.308
 3288SOL     OW10762   0.628   0.221   0.641
 3288SOL    HW110763   0.668   0.232   0.732
 3288SOL    HW210764   0.538   0.179   0.649
 3289SOL     OW10765   1.514   0.208   3.931
 3289SOL    HW110766   1.435   0.256   3.969
 3289SOL    HW210767   1.590   0.271   3.920
 3290SOL     OW10768   6.941   4.847   4.093
 3290SOL    HW110769   6.949   4.940   4.056
 3290SOL    HW210770   6.882   4.793   4.034
 3291SOL     OW10771   1.053   1.790   1.801
 3291SOL    HW110772   1.145   1.752   1.790
 3291SOL    HW210773   0.996   1.724   1.850
 3292SOL     OW10774   0.731   6.252   4.054
 3292SOL    HW110775   0.704   6.318   4.125
 3292SOL    HW210776   0.815   6.206   4.082
 3293SOL     OW10777   6.259   0.390   2.815
 3293SOL    HW110778   6.273   0.374   2.913
 3293SOL    HW210779   6.280   0.306   2.765
 3294SOL     OW10780   6.962   6.652   1.108
 3294SOL    HW110781   0.000   6.728   1.095
 3294SOL    HW210782   6.906   6.642   1.026
 3295SOL     OW10783   3.042   3.050   5.925
 3295SOL    HW110784   3.020   2.966   5.875
 3295SOL    HW210785   3.126   3.036   5.977
 3296SOL     OW10786   0.778   6.507   1.683
 3296SOL    HW110787   0.703   6.524   1.619
 3296SOL    HW210788   0.849   6.453   1.638
 3297SOL     OW10789   3.388   0.850   5.602
 3297SOL    HW110790   3.428   0.938   5.628
 3297SOL    HW210791   3.319   0.864   5.531
 3298SOL     OW10792   0.481   5.689   3.054
 3298SOL    HW110793   0.461   5.746   2.974
 3298SOL    HW210794   0.577   5.696   3.077
 3299SOL     OW10795   1.835   1.436   4.496
 3299SOL    HW110796   1.748   1.399   4.462
 3299SOL    HW210797   1.838   1.535   4.479
 3300SOL     OW10798   0.239   6.777   4.896
 3300SOL    HW110799   0.231   6.678   4.888
 3300SOL    HW210800   0.327   6.807   4.861
 3301SOL     OW10801   6.533   4.450   2.057
 3301SOL    HW110802   6.466   4.409   2.119
 3301SOL    HW210803   6.562   4.383   1.989
 3302SOL     OW10804   1.735   6.286   5.721
 3302SOL    HW110805   1.690   6.358   5.774
 3302SOL    HW210806   1.687   6.273   5.635
 3303SOL     OW10807   3.431   3.558   5.087
 3303SOL    HW110808   3.377   3.524   5.164
 3303SOL    HW210809   3.370   3.596   5.017
 3304SOL     OW10810   1.247   1.007   4.095
 3304SOL    HW110811   1.198   1.017   4.008
 3304SOL    HW210812   1.345   0.997   4.076
 3305SOL     OW10813   0.658   2.385   0.404
 3305SOL    HW110814   0.705   2.318   0.462
 3305SOL    HW210815   0.598   2.337   0.340
 3306SOL     OW10816   1.719   1.445   0.982
 3306SOL    HW110817   1.647   1.401   0.928
 3306SOL    HW210818   1.762   1.517   0.927
 3307SOL     OW10819   0.252   0.075   7.005
 3307SOL    HW110820   0.240   0.113   0.070
 3307SOL    HW210821   0.284   7.007   7.013
 3308SOL     OW10822   5.247   6.217   0.541
 3308SOL    HW110823   5.216   6.154   0.612
 3308SOL    HW210824   5.186   6.296   0.537
 3309SOL     OW10825   0.851   4.478   1.996
 3309SOL    HW110826   0.758   4.492   1.964
 3309SOL    HW210827   0.911   4.461   1.918
 3310SOL     OW10828   2.086   5.866   2.452
 3310SOL    HW110829   1.990   5.885   2.431
 3310SOL    HW210830   2.140   5.950   2.441
 3311SOL     OW10831   4.254   5.496   1.107
 3311SOL    HW110832   4.267   5.410   1.157
 3311SOL    HW210833   4.210   5.478   1.020
 3312SOL     OW10834   1.994   2.417   6.468
 3312SOL    HW110835   1.959   2.351   6.401
 3312SOL    HW210836   2.073   2.465   6.429
 3313SOL     OW10837   5.664   6.502   5.232
 3313SOL    HW110838   5.671   6.402   5.232
 3313SOL    HW210839   5.608   6.532   5.309
 3314SOL     OW10840   0.595   4.240   5.883
 3314SOL    HW110841   0.560   4.229   5.976
 3314SOL    HW210842   0.640   4.156   5.854
 3315SOL     OW10843   5.903   3.328   3.009
 3315SOL    HW110844   5.918   3.409   2.952
 3315SOL    HW210845   5.934   3.247   2.959
 3316SOL     OW10846   3.357   6.923   6.757
 3316SOL    HW110847   3.303   6.860   6.812
 3316SOL    HW210848   3.452   6.922   6.788
 3317SOL     OW10849   5.083   3.130   1.287
 3317SOL    HW110850   5.058   3.040   1.250
 3317SOL    HW210851   5.168   3.161   1.245
 3318SOL     OW10852   2.449   5.039   6.722
 3318SOL    HW110853   2.404   5.086   6.798
 3318SOL    HW210854   2.502   5.104   6.669
 3319SOL     OW10855   1.013   5.890   6.101
 3319SOL    HW110856   0.995   5.970   6.160
 3319SOL    HW210857   1.105   5.897   6.064
 3320SOL     OW10858   1.004   0.756   1.355
 3320SOL    HW110859   0.949   0.693   1.410
 3320SOL    HW210860   1.039   0.708   1.275
 3321SOL     OW10861   3.426   3.751   4.266
 3321SOL    HW110862   3.436   3.845   4.299
 3321SOL    HW210863   3.485   3.690   4.319
 3322SOL     OW10864   4.856   3.760   2.581
 3322SOL    HW110865   4.862   3.722   2.489
 3322SOL    HW210866   4.833   3.857   2.576
 3323SOL     OW10867   1.463   4.780   0.702
 3323SOL    HW110868   1.451   4.848   0.629
 3323SOL    HW210869   1.411   4.698   0.680
 3324SOL     OW10870   6.757   3.295   1.788
 3324SOL    HW110871   6.668   3.253   1.804
 3324SOL    HW210872   6.792   3.265   1.698
 3325SOL     OW10873   1.163   5.046   5.019
 3325SOL    HW110874   1.183   4.948   5.014
 3325SOL    HW210875   1.215   5.087   5.094
 3326SOL     OW10876   4.639   6.776   2.071
 3326SOL    HW110877   4.548   6.817   2.063
 3326SOL    HW210878   4.663   6.768   2.168
 3327SOL     OW10879   4.765   6.469   1.490
 3327SOL    HW110880   4.701   6.474   1.567
 3327SOL    HW210881   4.768   6.376   1.453
 3328SOL     OW10882   6.062   6.496   3.703
 3328SOL    HW110883   6.115   6.489   3.619
 3328SOL    HW210884   6.078   6.585   3.746
 3329SOL     OW10885   5.773   0.212   6.251
 3329SOL    HW110886   5.773   0.288   6.315
 3329SOL    HW210887   5.694   0.153   6.269
 3330SOL     OW10888   5.974   0.126   2.717
 3330SOL    HW110889   6.017   0.040   2.743
 3330SOL    HW210890   5.964   0.184   2.799
 3331SOL     OW10891   1.212   3.382   2.534
 3331SOL    HW110892   1.246   3.291   2.511
 3331SOL    HW210893   1.274   3.425   2.600
 3332SOL     OW10894   4.221   5.154   0.761
 3332SOL    HW110895   4.261   5.117   0.677
 3332SOL    HW210896   4.281   5.132   0.838
 3333SOL     OW10897   2.460   4.079   1.249
 3333SOL    HW110898   2.553   4.078   1.286
 3333SOL    HW210899   2.435   3.986   1.222
 3334SOL     OW10900   1.668   2.783   2.368
 3334SOL    HW110901   1.748   2.727   2.391
 3334SOL    HW210902   1.649   2.774   2.270
 3335SOL     OW10903   4.885   4.059   6.288
 3335SOL    HW110904   4.921   4.010   6.368
 3335SOL    HW210905   4.811   4.120   6.317
 3336SOL     OW10906   3.649   5.884   5.865
 3336SOL    HW110907   3.557   5.921   5.880
 3336SOL    HW210908   3.645   5.784   5.862
 3337SOL     OW10909   2.928   3.711   3.950
 3337SOL    HW110910   2.992   3.780   3.916
 3337SOL    HW210911   2.893   3.738   4.039
 3338SOL     OW10912   3.154   2.861   1.415
 3338SOL    HW110913   3.203   2.878   1.501
 3338SOL    HW210914   3.220   2.847   1.341
 3339SOL     OW10915   0.863   6.821   6.067
 3339SOL    HW110916   0.899   6.872   6.145
 3339SOL    HW210917   0.928   6.749   6.040
 3340SOL     OW10918   4.599   1.738   6.586
 3340SOL    HW110919   4.663   1.811   6.561
 3340SOL    HW210920   4.571   1.689   6.504
 3341SOL     OW10921   1.185   4.271   1.632
 3341SOL    HW110922   1.176   4.187   1.579
 3341SOL    HW210923   1.264   4.323   1.599
 3342SOL     OW10924   5.737   0.616   2.710
 3342SOL    HW110925   5.656   0.569   2.675
 3342SOL    HW210926   5.801   0.548   2.747
 3343SOL     OW10927   3.817   4.716   1.068
 3343SOL    HW110928   3.900   4.666   1.047
 3343SOL    HW210929   3.835   4.815   1.062
 3344SOL     OW10930   1.416   3.518   1.050
 3344SOL    HW110931   1.359   3.491   0.972
 3344SOL    HW210932   1.452   3.610   1.035
 3345SOL     OW10933   4.659   5.069   0.900
 3345SOL    HW110934   4.655   5.106   0.992
 3345SOL    HW210935   4.751   5.035   0.881
 3346SOL     OW10936   1.514   0.840   6.952
 3346SOL    HW110937   1.502   0.938   6.967
 3346SOL    HW210938   1.483   0.790   0.007
 3347SOL     OW10939   0.802   3.146   5.752
 3347SOL    HW110940   0.814   3.120   5.848
 3347SOL    HW210941   0.884   3.120   5.700
 3348SOL     OW10942   3.292   4.163   5.925
 3348SOL    HW110943   3.215   4.153   5.861
 3348SOL    HW210944   3.361   4.222   5.885
 3349SOL     OW10945   2.383   5.053   1.856
 3349SOL    HW110946   2.455   5.005   1.906
 3349SOL    HW210947   2.395   5.152   1.868
 3350SOL     OW10948   3.164   5.388   3.913
 3350SOL    HW110949   3.137   5.303   3.960
 3350SOL    HW210950   3.250   5.421   3.950
 3351SOL     OW10951   5.124   6.999   1.619
 3351SOL    HW110952   5.182   6.966   1.694
 3351SOL    HW210953   5.030   7.010   1.651
 3352SOL     OW10954   6.014   0.985   0.271
 3352SOL    HW110955   6.010   0.954   0.176
 3352SOL    HW210956   5.927   0.964   0.316
 3353SOL     OW10957   4.285   0.761   5.858
 3353SOL    HW110958   4.282   0.774   5.759
 3353SOL    HW210959   4.358   0.817   5.897
 3354SOL     OW10960   2.927   2.019   6.900
 3354SOL    HW110961   2.946   2.014   6.998
 3354SOL    HW210962   3.001   2.069   6.855
 3355SOL     OW10963   1.063   2.224   5.378
 3355SOL    HW110964   1.133   2.265   5.319
 3355SOL    HW210965   1.025   2.295   5.438
 3356SOL     OW10966   3.127   0.461   5.199
 3356SOL    HW110967   3.187   0.405   5.256
 3356SOL    HW210968   3.113   0.550   5.241
 3357SOL     OW10969   2.948   3.773   4.494
 3357SOL    HW110970   2.922   3.702   4.559
 3357SOL    HW210971   2.975   3.856   4.544
 3358SOL     OW10972   6.785   1.974   1.573
 3358SOL    HW110973   6.877   1.959   1.609
 3358SOL    HW210974   6.763   2.071   1.578
 3359SOL     OW10975   1.203   6.791   3.805
 3359SOL    HW110976   1.173   6.710   3.755
 3359SOL    HW210977   1.242   6.858   3.741
 3360SOL     OW10978   1.037   5.441   4.746
 3360SOL    HW110979   1.019   5.382   4.668
 3360SOL    HW210980   1.090   5.391   4.814
 3361SOL     OW10981   0.453   0.122   4.369
 3361SOL    HW110982   0.464   0.041   4.311
 3361SOL    HW210983   0.356   0.133   4.393
 3362SOL     OW10984   3.192   0.955   5.148
 3362SOL    HW110985   3.282   0.925   5.115
 3362SOL    HW210986   3.193   1.054   5.159
 3363SOL     OW10987   4.983   3.607   0.757
 3363SOL    HW110988   4.915   3.582   0.825
 3363SOL    HW210989   4.964   3.698   0.721
 3364SOL     OW10990   1.943   2.948   1.209
 3364SOL    HW110991   1.903   2.861   1.181
 3364SOL    HW210992   1.935   3.014   1.134
 3365SOL     OW10993   0.526   2.658   2.877
 3365SOL    HW110994   0.454   2.667   2.946
 3365SOL    HW210995   0.485   2.627   2.791
 3366SOL     OW10996   5.716   3.618   3.219
 3366SOL    HW110997   5.638   3.609   3.281
 3366SOL    HW210998   5.775   3.537   3.227
 3367SOL     OW10999   2.885   3.612   3.699
 3367SOL    HW111000   2.898   3.515   3.720
 3367SOL    HW211001   2.875   3.663   3.784
 3368SOL     OW11002   1.182   1.021   3.834
 3368SOL    HW111003   1.198   0.935   3.786
 3368SOL    HW211004   1.192   1.098   3.771
 3369SOL     OW11005   5.573   2.666   0.534
 3369SOL    HW111006   5.619   2.748   0.567
 3369SOL    HW211007   5.486   2.655   0.582
 3370SOL     OW11008   0.681   5.787   3.268
 3370SOL    HW111009   0.692   5.836   3.355
 3370SOL    HW211010   0.649   5.695   3.287
 3371SOL     OW11011   3.063   3.141   1.182
 3371SOL    HW111012   3.138   3.168   1.242
 3371SOL    HW211013   3.029   3.051   1.208
 3372SOL     OW11014   5.164   3.071   3.049
 3372SOL    HW111015   5.228   3.145   3.069
 3372SOL    HW211016   5.177   3.040   2.954
 3373SOL     OW11017   0.545   4.725   1.105
 3373SOL    HW111018   0.575   4.820   1.105
 3373SOL    HW211019   0.490   4.707   1.186
 3374SOL     OW11020   1.365   5.585   3.851
 3374SOL    HW111021   1.318   5.500   3.875
 3374SOL    HW211022   1.379   5.589   3.752
 3375SOL     OW11023   6.833   7.013   5.497
 3375SOL    HW111024   6.851   6.983   5.591
 3375SOL    HW211025   6.767   0.062   5.498
 3376SOL     OW11026   3.415   3.849   4.738
 3376SOL    HW111027   3.478   3.911   4.786
 3376SOL    HW211028   3.446   3.837   4.644
 3377SOL     OW11029   6.643   5.793   4.655
 3377SOL    HW111030   6.605   5.701   4.650
 3377SOL    HW211031   6.726   5.792   4.710
 3378SOL     OW11032   1.188   6.023   0.178
 3378SOL    HW111033   1.112   5.959   0.196
 3378SOL    HW211034   1.221   6.010   0.085
 3379SOL     OW11035   5.732   4.570   4.042
 3379SOL    HW111036   5.729   4.624   4.125
 3379SOL    HW211037   5.663   4.604   3.978
 3380SOL     OW11038   1.400   4.353   2.247
 3380SOL    HW111039   1.440   4.433   2.291
 3380SOL    HW211040   1.304   4.371   2.225
 3381SOL     OW11041   2.979   4.270   6.421
 3381SOL    HW111042   3.005   4.307   6.511
 3381SOL    HW211043   3.021   4.181   6.408
 3382SOL     OW11044   0.253   3.853   6.545
 3382SOL    HW111045   0.168   3.839   6.595
 3382SOL    HW211046   0.316   3.907   6.601
 3383SOL     OW11047   4.120   6.241   0.433
 3383SOL    HW111048   4.063   6.255   0.352
 3383SOL    HW211049   4.169   6.154   0.424
 3384SOL     OW11050   3.794   2.478   6.476
 3384SOL    HW111051   3.750   2.545   6.417
 3384SOL    HW211052   3.770   2.496   6.571
 3385SOL     OW11053   5.971   2.071   4.483
 3385SOL    HW111054   5.889   2.018   4.505
 3385SOL    HW211055   6.052   2.017   4.506
 3386SOL     OW11056   0.046   5.079   5.311
 3386SOL    HW111057   0.069   5.090   5.407
 3386SOL    HW211058   0.103   5.007   5.271
 3387SOL     OW11059   6.185   0.654   2.838
 3387SOL    HW111060   6.277   0.681   2.866
 3387SOL    HW211061   6.175   0.555   2.844
 3388SOL     OW11062   1.041   3.738   0.550
 3388SOL    HW111063   1.132   3.779   0.542
 3388SOL    HW211064   0.999   3.767   0.636
 3389SOL     OW11065   6.278   5.157   5.669
 3389SOL    HW111066   6.255   5.107   5.586
 3389SOL    HW211067   6.296   5.253   5.647
 3390SOL     OW11068   2.823   4.660   0.949
 3390SOL    HW111069   2.757   4.596   0.909
 3390SOL    HW211070   2.792   4.688   1.040
 3391SOL     OW11071   5.147   3.807   5.708
 3391SOL    HW111072   5.173   3.844   5.797
 3391SOL    HW211073   5.199   3.854   5.636
 3392SOL     OW11074   4.911   5.880   5.701
 3392SOL    HW111075   4.879   5.973   5.723
 3392SOL    HW211076   4.853   5.813   5.747
 3393SOL     OW11077   3.221   0.908   0.767
 3393SOL    HW111078   3.175   0.856   0.839
 3393SOL    HW211079   3.264   0.845   0.702
 3394SOL     OW11080   2.995   5.981   2.189
 3394SOL    HW111081   3.082   5.987   2.140
 3394SOL    HW211082   3.006   5.925   2.271
 3395SOL     OW11083   1.801   5.947   3.220
 3395SOL    HW111084   1.743   5.906   3.291
 3395SOL    HW211085   1.763   5.924   3.130
 3396SOL     OW11086   3.991   6.989   4.158
 3396SOL    HW111087   3.906   6.971   4.108
 3396SOL    HW211088   4.003   6.920   4.229
 3397SOL     OW11089   2.736   6.046   2.108
 3397SOL    HW111090   2.831   6.019   2.120
 3397SOL    HW211091   2.700   6.007   2.023
 3398SOL     OW11092   6.607   0.618   0.605
 3398SOL    HW111093   6.635   0.538   0.657
 3398SOL    HW211094   6.583   0.590   0.511
 3399SOL     OW11095   6.820   6.412   2.262
 3399SOL    HW111096   6.752   6.453   2.202
 3399SOL    HW211097   6.886   6.482   2.291
 3400SOL     OW11098   3.597   3.498   5.633
 3400SOL    HW111099   3.669   3.515   5.566
 3400SOL    HW211100   3.524   3.565   5.621
 3401SOL     OW11101   6.674   3.730   3.755
 3401SOL    HW111102   6.587   3.742   3.707
 3401SOL    HW211103   6.679   3.637   3.792
 3402SOL     OW11104   6.242   3.855   0.296
 3402SOL    HW111105   6.169   3.839   0.363
 3402SOL    HW211106   6.331   3.841   0.341
 3403SOL     OW11107   5.647   6.910   3.652
 3403SOL    HW111108   5.557   6.950   3.669
 3403SOL    HW211109   5.718   6.973   3.683
 3404SOL     OW11110   5.115   4.928   2.691
 3404SOL    HW111111   5.082   4.857   2.753
 3404SOL    HW211112   5.065   4.922   2.604
 3405SOL     OW11113   4.451   0.142   1.199
 3405SOL    HW111114   4.378   0.117   1.135
 3405SOL    HW211115   4.484   0.060   1.246
 3406SOL     OW11116   4.310   5.238   1.223
 3406SOL    HW111117   4.383   5.229   1.154
 3406SOL    HW211118   4.273   5.147   1.243
 3407SOL     OW11119   2.309   1.682   0.803
 3407SOL    HW111120   2.225   1.641   0.767
 3407SOL    HW211121   2.304   1.781   0.797
 3408SOL     OW11122   3.356   0.030   3.943
 3408SOL    HW111123   3.331   0.008   4.038
 3408SOL    HW211124   3.326   0.123   3.922
 3409SOL     OW11125   4.646   2.348   6.772
 3409SOL    HW111126   4.548   2.370   6.770
 3409SOL    HW211127   4.699   2.430   6.750
 3410SOL     OW11128   6.383   1.615   2.695
 3410SOL    HW111129   6.479   1.610   2.669
 3410SOL    HW211130   6.367   1.564   2.780
 3411SOL     OW11131   5.764   3.131   6.556
 3411SOL    HW111132   5.695   3.200   6.537
 3411SOL    HW211133   5.811   3.106   6.471
 3412SOL     OW11134   5.200   3.588   3.265
 3412SOL    HW111135   5.176   3.589   3.362
 3412SOL    HW211136   5.117   3.595   3.209
 3413SOL     OW11137   1.023   2.628   0.665
 3413SOL    HW111138   1.078   2.668   0.738
 3413SOL    HW211139   0.955   2.695   0.635
 3414SOL     OW11140   3.783   3.179   2.076
 3414SOL    HW111141   3.690   3.192   2.108
 3414SOL    HW211142   3.818   3.265   2.039
 3415SOL     OW11143   2.759   0.715   6.522
 3415SOL    HW111144   2.704   0.669   6.452
 3415SOL    HW211145   2.825   0.651   6.561
 3416SOL     OW11146   5.436   6.175   6.426
 3416SOL    HW111147   5.503   6.107   6.397
 3416SOL    HW211148   5.351   6.129   6.450
 3417SOL     OW11149   6.161   0.631   2.122
 3417SOL    HW111150   6.131   0.539   2.100
 3417SOL    HW211151   6.193   0.634   2.217
 3418SOL     OW11152   4.168   5.043   1.368
 3418SOL    HW111153   4.106   4.969   1.342
 3418SOL    HW211154   4.190   5.036   1.465
 3419SOL     OW11155   3.010   4.824   5.241
 3419SOL    HW111156   2.976   4.734   5.215
 3419SOL    HW211157   2.982   4.845   5.335
 3420SOL     OW11158   5.037   0.782   2.091
 3420SOL    HW111159   5.126   0.827   2.081
 3420SOL    HW211160   4.980   0.804   2.012
 3421SOL     OW11161   0.323   1.257   4.315
 3421SOL    HW111162   0.315   1.259   4.215
 3421SOL    HW211163   0.281   1.338   4.354
 3422SOL     OW11164   2.934   4.916   1.179
 3422SOL    HW111165   2.921   4.826   1.220
 3422SOL    HW211166   3.032   4.937   1.176
 3423SOL     OW11167   1.816   5.522   5.730
 3423SOL    HW111168   1.760   5.545   5.810
 3423SOL    HW211169   1.789   5.432   5.696
 3424SOL     OW11170   5.599   5.788   2.331
 3424SOL    HW111171   5.554   5.708   2.371
 3424SOL    HW211172   5.538   5.867   2.339
 3425SOL     OW11173   5.551   2.840   6.246
 3425SOL    HW111174   5.454   2.848   6.267
 3425SOL    HW211175   5.596   2.784   6.315
 3426SOL     OW11176   6.647   5.466   6.053
 3426SOL    HW111177   6.633   5.497   6.147
 3426SOL    HW211178   6.558   5.451   6.009
 3427SOL     OW11179   1.615   1.347   6.736
 3427SOL    HW111180   1.531   1.327   6.686
 3427SOL    HW211181   1.677   1.400   6.678
 3428SOL     OW11182   4.231   0.818   4.437
 3428SOL    HW111183   4.169   0.896   4.431
 3428SOL    HW211184   4.319   0.847   4.474
 3429SOL     OW11185   5.214   5.363   0.148
 3429SOL    HW111186   5.170   5.407   0.069
 3429SOL    HW211187   5.176   5.400   0.232
 3430SOL     OW11188   2.554   4.141   6.876
 3430SOL    HW111189   2.536   4.067   6.811
 3430SOL    HW211190   2.467   4.170   6.917
 3431SOL     OW11191   1.252   3.943   1.976
 3431SOL    HW111192   1.299   4.027   1.950
 3431SOL    HW211193   1.320   3.875   2.006
 3432SOL     OW11194   0.100   5.601   6.527
 3432SOL    HW111195   0.008   5.620   6.492
 3432SOL    HW211196   0.094   5.573   6.622
 3433SOL     OW11197   0.890   1.388   0.129
 3433SOL    HW111198   0.847   1.441   0.203
 3433SOL    HW211199   0.903   1.293   0.159
 3434SOL     OW11200   4.238   2.438   1.800
 3434SOL    HW111201   4.173   2.383   1.748
 3434SOL    HW211202   4.211   2.534   1.796
 3435SOL     OW11203   2.950   2.880   1.216
 3435SOL    HW111204   2.865   2.850   1.259
 3435SOL    HW211205   3.024   2.877   1.283
 3436SOL     OW11206   4.339   5.488   5.497
 3436SOL    HW111207   4.263   5.543   5.530
 3436SOL    HW211208   4.368   5.425   5.569
 3437SOL     OW11209   2.595   5.849   0.741
 3437SOL    HW111210   2.543   5.841   0.826
 3437SOL    HW211211   2.552   5.916   0.681
 3438SOL     OW11212   2.476   4.410   0.422
 3438SOL    HW111213   2.470   4.370   0.513
 3438SOL    HW211214   2.540   4.357   0.366
 3439SOL     OW11215   2.738   5.791   1.230
 3439SOL    HW111216   2.700   5.714   1.282
 3439SOL    HW211217   2.824   5.764   1.188
 3440SOL     OW11218   4.240   4.942   5.797
 3440SOL    HW111219   4.256   4.990   5.883
 3440SOL    HW211220   4.270   4.847   5.806
 3441SOL     OW11221   0.230   5.783   5.553
 3441SOL    HW111222   0.133   5.784   5.574
 3441SOL    HW211223   0.263   5.877   5.544
 3442SOL     OW11224   1.729   2.045   0.624
 3442SOL    HW111225   1.747   2.140   0.650
 3442SOL    HW211226   1.799   2.014   0.560
 3443SOL     OW11227   6.586   5.516   2.710
 3443SOL    HW111228   6.651   5.579   2.753
 3443SOL    HW211229   6.499   5.563   2.695
 3444SOL     OW11230   1.068   3.792   6.025
 3444SOL    HW111231   1.124   3.837   5.954
 3444SOL    HW211232   0.988   3.848   6.045
 3445SOL     OW11233   6.146   5.043   4.428
 3445SOL    HW111234   6.113   4.956   4.392
 3445SOL    HW211235   6.228   5.028   4.484
 3446SOL     OW11236   5.048   1.600   6.976
 3446SOL    HW111237   5.084   1.538   0.019
 3446SOL    HW211238   5.113   1.674   6.960
 3447SOL     OW11239   4.856   1.633   5.983
 3447SOL    HW111240   4.803   1.562   6.029
 3447SOL    HW211241   4.893   1.597   5.897
 3448SOL     OW11242   0.657   5.367   4.532
 3448SOL    HW111243   0.621   5.356   4.625
 3448SOL    HW211244   0.597   5.429   4.481
 3449SOL     OW11245   1.290   4.272   4.602
 3449SOL    HW111246   1.368   4.323   4.566
 3449SOL    HW211247   1.218   4.267   4.533
 3450SOL     OW11248   1.992   6.000   3.542
 3450SOL    HW111249   2.022   5.978   3.634
 3450SOL    HW211250   1.949   6.091   3.542
 3451SOL     OW11251   2.502   1.776   1.072
 3451SOL    HW111252   2.488   1.841   1.146
 3451SOL    HW211253   2.440   1.798   0.996
 3452SOL     OW11254   4.399   1.220   5.314
 3452SOL    HW111255   4.463   1.297   5.306
 3452SOL    HW211256   4.430   1.145   5.255
 3453SOL     OW11257   4.467   6.590   5.551
 3453SOL    HW111258   4.567   6.601   5.556
 3453SOL    HW211259   4.436   6.616   5.459
 3454SOL     OW11260   1.469   3.295   4.085
 3454SOL    HW111261   1.526   3.216   4.108
 3454SOL    HW211262   1.483   3.367   4.153
 3455SOL     OW11263   1.383   4.113   5.918
 3455SOL    HW111264   1.412   4.208   5.905
 3455SOL    HW211265   1.459   4.052   5.898
 3456SOL     OW11266   4.195   5.738   2.826
 3456SOL    HW111267   4.238   5.718   2.738
 3456SOL    HW211268   4.255   5.799   2.879
 3457SOL     OW11269   3.688   4.059   0.360
 3457SOL    HW111270   3.615   3.991   0.365
 3457SOL    HW211271   3.762   4.034   0.422
 3458SOL     OW11272   3.876   1.795   1.097
 3458SOL    HW111273   3.830   1.867   1.150
 3458SOL    HW211274   3.943   1.836   1.035
 3459SOL     OW11275   6.575   0.317   3.003
 3459SOL    HW111276   6.638   0.317   2.925
 3459SOL    HW211277   6.554   0.223   3.029
 3460SOL     OW11278   4.567   1.631   5.057
 3460SOL    HW111279   4.568   1.658   4.961
 3460SOL    HW211280   4.518   1.700   5.111
 3461SOL     OW11281   4.618   4.489   4.025
 3461SOL    HW111282   4.560   4.539   3.960
 3461SOL    HW211283   4.672   4.421   3.975
 3462SOL     OW11284   1.443   4.305   6.843
 3462SOL    HW111285   1.368   4.245   6.872
 3462SOL    HW211286   1.448   4.383   6.905
 3463SOL     OW11287   6.386   3.792   6.984
 3463SOL    HW111288   6.435   3.791   0.045
 3463SOL    HW211289   6.336   3.878   6.975
 3464SOL     OW11290   7.016   5.220   4.430
 3464SOL    HW111291   0.065   5.156   4.413
 3464SOL    HW211292   7.010   5.240   4.528
 3465SOL     OW11293   0.629   2.844   1.194
 3465SOL    HW111294   0.647   2.941   1.175
 3465SOL    HW211295   0.710   2.803   1.237
 3466SOL     OW11296   5.583   3.960   3.353
 3466SOL    HW111297   5.500   3.906   3.367
 3466SOL    HW211298   5.647   3.909   3.295
 3467SOL     OW11299   2.111   1.740   5.867
 3467SOL    HW111300   2.165   1.673   5.815
 3467SOL    HW211301   2.034   1.694   5.911
 3468SOL     OW11302   5.560   5.044   1.948
 3468SOL    HW111303   5.558   4.968   2.013
 3468SOL    HW211304   5.470   5.055   1.906
 3469SOL     OW11305   5.756   3.642   0.792
 3469SOL    HW111306   5.828   3.668   0.856
 3469SOL    HW211307   5.699   3.722   0.772
 3470SOL     OW11308   6.515   5.801   6.859
 3470SOL    HW111309   6.457   5.773   6.935
 3470SOL    HW211310   6.458   5.834   6.784
 3471SOL     OW11311   4.231   0.012   4.268
 3471SOL    HW111312   4.158   0.006   4.201
 3471SOL    HW211313   4.309   0.062   4.229
 3472SOL     OW11314   3.490   1.153   4.543
 3472SOL    HW111315   3.408   1.153   4.487
 3472SOL    HW211316   3.532   1.062   4.541
 3473SOL     OW11317   4.890   0.322   3.847
 3473SOL    HW111318   4.866   0.226   3.866
 3473SOL    HW211319   4.879   0.376   3.930
 3474SOL     OW11320   5.532   5.152   0.445
 3474SOL    HW111321   5.593   5.128   0.370
 3474SOL    HW211322   5.540   5.250   0.465
 3475SOL     OW11323   2.006   5.889   5.201
 3475SOL    HW111324   1.909   5.868   5.204
 3475SOL    HW211325   2.020   5.976   5.153
 3476SOL     OW11326   2.920   1.752   3.349
 3476SOL    HW111327   2.905   1.770   3.446
 3476SOL    HW211328   3.016   1.769   3.326
 3477SOL     OW11329   4.684   5.252   2.594
 3477SOL    HW111330   4.763   5.195   2.618
 3477SOL    HW211331   4.710   5.348   2.598
 3478SOL     OW11332   3.466   4.852   0.193
 3478SOL    HW111333   3.455   4.886   0.100
 3478SOL    HW211334   3.395   4.891   0.251
 3479SOL     OW11335   1.499   0.284   0.395
 3479SOL    HW111336   1.507   0.185   0.396
 3479SOL    HW211337   1.416   0.310   0.345
 3480SOL     OW11338   1.324   6.397   4.463
 3480SOL    HW111339   1.394   6.337   4.502
 3480SOL    HW211340   1.273   6.441   4.537
 3481SOL     OW11341   2.135   4.252   0.455
 3481SOL    HW111342   2.187   4.326   0.412
 3481SOL    HW211343   2.096   4.284   0.541
 3482SOL     OW11344   0.166   2.363   1.867
 3482SOL    HW111345   0.216   2.448   1.885
 3482SOL    HW211346   0.170   2.304   1.947
 3483SOL     OW11347   4.105   1.922   1.356
 3483SOL    HW111348   4.197   1.883   1.361
 3483SOL    HW211349   4.045   1.875   1.421
 3484SOL     OW11350   3.199   4.092   3.654
 3484SOL    HW111351   3.185   4.040   3.570
 3484SOL    HW211352   3.114   4.093   3.706
 3485SOL     OW11353   6.525   2.540   3.870
 3485SOL    HW111354   6.494   2.565   3.962
 3485SOL    HW211355   6.624   2.556   3.863
 3486SOL     OW11356   6.287   1.741   2.449
 3486SOL    HW111357   6.250   1.677   2.382
 3486SOL    HW211358   6.323   1.691   2.528
 3487SOL     OW11359   1.449   6.180   1.366
 3487SOL    HW111360   1.536   6.166   1.320
 3487SOL    HW211361   1.458   6.153   1.462
 3488SOL     OW11362   6.457   3.423   5.413
 3488SOL    HW111363   6.441   3.370   5.329
 3488SOL    HW211364   6.419   3.515   5.402
 3489SOL     OW11365   2.902   5.635   6.865
 3489SOL    HW111366   2.810   5.657   6.895
 3489SOL    HW211367   2.966   5.648   6.940
 3490SOL     OW11368   5.790   3.447   0.339
 3490SOL    HW111369   5.692   3.436   0.322
 3490SOL    HW211370   5.839   3.368   0.303
 3491SOL     OW11371   6.007   2.623   5.151
 3491SOL    HW111372   6.072   2.672   5.094
 3491SOL    HW211373   5.968   2.686   5.219
 3492SOL     OW11374   0.554   4.473   6.317
 3492SOL    HW111375   0.609   4.499   6.396
 3492SOL    HW211376   0.458   4.463   6.345
 3493SOL     OW11377   6.938   5.001   1.307
 3493SOL    HW111378   6.872   4.928   1.322
 3493SOL    HW211379   6.966   5.001   1.211
 3494SOL     OW11380   3.203   0.348   1.061
 3494SOL    HW111381   3.187   0.344   1.160
 3494SOL    HW211382   3.295   0.382   1.043
 3495SOL     OW11383   5.919   4.423   5.765
 3495SOL    HW111384   5.819   4.418   5.773
 3495SOL    HW211385   5.943   4.483   5.689
 3496SOL     OW11386   0.920   6.337   1.527
 3496SOL    HW111387   0.938   6.325   1.624
 3496SOL    HW211388   0.898   6.248   1.486
 3497SOL     OW11389   2.725   0.379   4.910
 3497SOL    HW111390   2.812   0.412   4.873
 3497SOL    HW211391   2.731   0.280   4.924
 3498SOL     OW11392   1.499   1.896   0.273
 3498SOL    HW111393   1.520   1.911   0.176
 3498SOL    HW211394   1.502   1.798   0.293
 3499SOL     OW11395   6.804   3.907   2.848
 3499SOL    HW111396   6.725   3.947   2.893
 3499SOL    HW211397   6.791   3.909   2.749
 3500SOL     OW11398   6.694   2.370   0.719
 3500SOL    HW111399   6.781   2.413   0.741
 3500SOL    HW211400   6.710   2.283   0.673
 3501SOL     OW11401   6.889   5.185   3.309
 3501SOL    HW111402   6.823   5.178   3.234
 3501SOL    HW211403   6.951   5.262   3.292
 3502SOL     OW11404   1.005   6.601   1.439
 3502SOL    HW111405   1.044   6.623   1.528
 3502SOL    HW211406   0.968   6.508   1.439
 3503SOL     OW11407   2.712   0.704   3.553
 3503SOL    HW111408   2.729   0.618   3.601
 3503SOL    HW211409   2.751   0.780   3.605
 3504SOL     OW11410   2.077   2.985   2.575
 3504SOL    HW111411   2.039   3.013   2.488
 3504SOL    HW211412   2.124   3.063   2.618
 3505SOL     OW11413   4.250   6.446   4.739
 3505SOL    HW111414   4.314   6.514   4.703
 3505SOL    HW211415   4.270   6.430   4.836
 3506SOL     OW11416   6.929   3.960   2.597
 3506SOL    HW111417   0.001   3.974   2.583
 3506SOL    HW211418   6.883   4.049   2.598
 3507SOL     OW11419   6.743   0.264   5.445
 3507SOL    HW111420   6.690   0.304   5.370
 3507SOL    HW211421   6.767   0.336   5.511
 3508SOL     OW11422   0.418   4.551   6.675
 3508SOL    HW111423   0.492   4.602   6.630
 3508SOL    HW211424   0.366   4.500   6.606
 3509SOL     OW11425   4.250   6.514   6.563
 3509SOL    HW111426   4.230   6.593   6.506
 3509SOL    HW211427   4.219   6.532   6.657
 3510SOL     OW11428   2.063   1.199   2.484
 3510SOL    HW111429   2.098   1.262   2.553
 3510SOL    HW211430   1.985   1.148   2.521
 3511SOL     OW11431   1.190   1.062   4.382
 3511SOL    HW111432   1.240   0.991   4.432
 3511SOL    HW211433   1.212   1.057   4.285
 3512SOL     OW11434   3.265   3.459   1.870
 3512SOL    HW111435   3.361   3.468   1.845
 3512SOL    HW211436   3.236   3.364   1.855
 3513SOL     OW11437   6.885   5.127   0.799
 3513SOL    HW111438   6.799   5.171   0.772
 3513SOL    HW211439   6.955   5.145   0.729
 3514SOL     OW11440   3.511   5.737   3.541
 3514SOL    HW111441   3.439   5.765   3.478
 3514SOL    HW211442   3.506   5.792   3.625
 3515SOL     OW11443   3.959   5.654   4.274
 3515SOL    HW111444   3.889   5.585   4.288
 3515SOL    HW211445   3.993   5.686   4.363
 3516SOL     OW11446   1.189   1.314   0.222
 3516SOL    HW111447   1.198   1.413   0.210
 3516SOL    HW211448   1.132   1.277   0.149
 3517SOL     OW11449   0.501   0.475   0.012
 3517SOL    HW111450   0.490   0.452   0.108
 3517SOL    HW211451   0.412   0.496   6.998
 3518SOL     OW11452   4.112   3.645   6.344
 3518SOL    HW111453   4.131   3.572   6.278
 3518SOL    HW211454   4.166   3.631   6.426
 3519SOL     OW11455   4.262   0.064   0.289
 3519SOL    HW111456   4.293   0.061   0.194
 3519SOL    HW211457   4.175   0.113   0.295
 3520SOL     OW11458   4.114   4.792   1.257
 3520SOL    HW111459   4.203   4.838   1.255
 3520SOL    HW211460   4.115   4.716   1.193
 3521SOL     OW11461   0.109   1.947   5.652
 3521SOL    HW111462   0.146   2.035   5.683
 3521SOL    HW211463   0.162   1.873   5.692
 3522SOL     OW11464   2.408   0.067   1.029
 3522SOL    HW111465   2.376   0.082   0.936
 3522SOL    HW211466   2.495   0.114   1.043
 3523SOL     OW11467   2.235   4.300   5.023
 3523SOL    HW111468   2.272   4.208   5.030
 3523SOL    HW211469   2.289   4.352   4.955
 3524SOL     OW11470   2.526   1.519   3.800
 3524SOL    HW111471   2.595   1.563   3.742
 3524SOL    HW211472   2.570   1.446   3.853
 3525SOL     OW11473   1.882   3.075   3.743
 3525SOL    HW111474   1.940   3.114   3.671
 3525SOL    HW211475   1.805   3.028   3.702
 3526SOL     OW11476   3.704   6.055   3.580
 3526SOL    HW111477   3.732   6.004   3.499
 3526SOL    HW211478   3.638   6.002   3.632
 3527SOL     OW11479   6.840   4.209   6.421
 3527SOL    HW111480   6.890   4.124   6.436
 3527SOL    HW211481   6.748   4.188   6.387
 3528SOL     OW11482   0.969   6.499   4.124
 3528SOL    HW111483   0.928   6.524   4.212
 3528SOL    HW211484   1.067   6.483   4.137
 3529SOL     OW11485   3.520   6.221   0.340
 3529SOL    HW111486   3.521   6.301   0.400
 3529SOL    HW211487   3.596   6.227   0.276
 3530SOL     OW11488   1.901   5.717   2.283
 3530SOL    HW111489   2.001   5.720   2.292
 3530SOL    HW211490   1.873   5.622   2.269
 3531SOL     OW11491   5.522   4.368   6.867
 3531SOL    HW111492   5.575   4.337   6.946
 3531SOL    HW211493   5.571   4.346   6.783
 3532SOL     OW11494   2.657   6.737   6.733
 3532SOL    HW111495   2.753   6.729   6.706
 3532SOL    HW211496   2.616   6.646   6.737
 3533SOL     OW11497   1.165   1.221   3.638
 3533SOL    HW111498   1.236   1.289   3.659
 3533SOL    HW211499   1.079   1.267   3.621
 3534SOL     OW11500   4.759   6.514   4.243
 3534SOL    HW111501   4.819   6.564   4.181
 3534SOL    HW211502   4.812   6.444   4.292
 3535SOL     OW11503   4.192   4.866   0.076
 3535SOL    HW111504   4.102   4.852   0.116
 3535SOL    HW211505   4.263   4.845   0.143
 3536SOL     OW11506   1.999   3.072   2.328
 3536SOL    HW111507   2.054   3.099   2.249
 3536SOL    HW211508   1.914   3.125   2.330
 3537SOL     OW11509   3.239   5.167   1.899
 3537SOL    HW111510   3.214   5.263   1.911
 3537SOL    HW211511   3.178   5.109   1.952
 3538SOL     OW11512   3.047   0.585   3.313
 3538SOL    HW111513   3.116   0.537   3.258
 3538SOL    HW211514   3.055   0.555   3.409
 3539SOL     OW11515   5.524   5.452   5.535
 3539SOL    HW111516   5.603   5.504   5.566
 3539SOL    HW211517   5.505   5.378   5.599
 3540SOL     OW11518   4.908   4.082   0.124
 3540SOL    HW111519   4.996   4.125   0.103
 3540SOL    HW211520   4.881   4.023   0.049
 3541SOL     OW11521   0.763   2.993   2.463
 3541SOL    HW111522   0.830   3.003   2.389
 3541SOL    HW211523   0.808   2.957   2.544
 3542SOL     OW11524   5.756   1.239   6.845
 3542SOL    HW111525   5.784   1.155   6.891
 3542SOL    HW211526   5.836   1.280   6.800
 3543SOL     OW11527   0.322   2.675   4.784
 3543SOL    HW111528   0.294   2.771   4.794
 3543SOL    HW211529   0.405   2.659   4.836
 3544SOL     OW11530   3.948   4.999   5.995
 3544SOL    HW111531   4.035   5.003   6.044
 3544SOL    HW211532   3.894   4.922   6.030
 3545SOL     OW11533   2.913   6.423   1.315
 3545SOL    HW111534   2.862   6.340   1.293
 3545SOL    HW211535   2.928   6.477   1.232
 3546SOL     OW11536   0.436   4.643   1.375
 3546SOL    HW111537   0.399   4.708   1.441
 3546SOL    HW211538   0.404   4.551   1.398
 3547SOL     OW11539   1.728   3.884   4.388
 3547SOL    HW111540   1.654   3.903   4.452
 3547SOL    HW211541   1.694   3.892   4.294
 3548SOL     OW11542   6.400   0.033   5.699
 3548SOL    HW111543   6.352   7.017   5.622
 3548SOL    HW211544   6.486   7.012   5.715
 3549SOL     OW11545   1.938   0.191   6.524
 3549SOL    HW111546   2.030   0.160   6.548
 3549SOL    HW211547   1.874   0.161   6.594
 3550SOL     OW11548   6.454   2.173   4.901
 3550SOL    HW111549   6.378   2.236   4.916
 3550SOL    HW211550   6.479   2.173   4.805
 3551SOL     OW11551   6.328   1.110   5.361
 3551SOL    HW111552   6.353   1.068   5.274
 3551SOL    HW211553   6.403   1.166   5.395
 3552SOL     OW11554   6.295   0.884   3.596
 3552SOL    HW111555   6.206   0.927   3.586
 3552SOL    HW211556   6.309   0.856   3.691
 3553SOL     OW11557   5.807   6.070   6.499
 3553SOL    HW111558   5.872   6.146   6.492
 3553SOL    HW211559   5.835   6.009   6.573
 3554SOL     OW11560   6.194   3.929   6.455
 3554SOL    HW111561   6.109   3.943   6.506
 3554SOL    HW211562   6.229   3.837   6.473
 3555SOL     OW11563   3.540   1.104   5.336
 3555SOL    HW111564   3.552   1.087   5.434
 3555SOL    HW211565   3.566   1.021   5.285
 3556SOL     OW11566   5.434   1.158   1.000
 3556SOL    HW111567   5.404   1.069   1.035
 3556SOL    HW211568   5.531   1.155   0.980
 3557SOL     OW11569   4.749   0.273   1.156
 3557SOL    HW111570   4.667   0.215   1.157
 3557SOL    HW211571   4.827   0.219   1.126
 3558SOL     OW11572   4.446   5.782   3.211
 3558SOL    HW111573   4.402   5.766   3.300
 3558SOL    HW211574   4.506   5.705   3.189
 3559SOL     OW11575   4.570   6.143   6.447
 3559SOL    HW111576   4.552   6.232   6.489
 3559SOL    HW211577   4.485   6.091   6.441
 3560SOL     OW11578   1.984   5.954   4.480
 3560SOL    HW111579   1.905   6.010   4.458
 3560SOL    HW211580   1.955   5.860   4.498
 3561SOL     OW11581   3.923   2.645   6.219
 3561SOL    HW111582   3.849   2.706   6.190
 3561SOL    HW211583   3.884   2.564   6.262
 3562SOL     OW11584   2.939   0.968   0.432
 3562SOL    HW111585   2.966   1.064   0.429
 3562SOL    HW211586   2.987   0.918   0.359
 3563SOL     OW11587   6.576   2.004   6.445
 3563SOL    HW111588   6.652   1.941   6.457
 3563SOL    HW211589   6.562   2.022   6.347
 3564SOL     OW11590   5.776   3.031   3.020
 3564SOL    HW111591   5.796   2.946   2.971
 3564SOL    HW211592   5.855   3.058   3.075
 3565SOL     OW11593   4.794   6.204   4.601
 3565SOL    HW111594   4.730   6.250   4.664
 3565SOL    HW211595   4.758   6.113   4.579
 3566SOL     OW11596   0.662   1.013   5.024
 3566SOL    HW111597   0.574   0.972   5.050
 3566SOL    HW211598   0.694   0.972   4.939
 3567SOL     OW11599   1.027   4.452   6.549
 3567SOL    HW111600   1.014   4.373   6.488
 3567SOL    HW211601   1.109   4.437   6.605
 3568SOL     OW11602   2.350   4.303   5.832
 3568SOL    HW111603   2.407   4.383   5.816
 3568SOL    HW211604   2.334   4.256   5.746
 3569SOL     OW11605   0.758   0.118   3.500
 3569SOL    HW111606   0.854   0.089   3.504
 3569SOL    HW211607   0.701   0.048   3.543
 3570SOL     OW11608   0.270   2.138   4.790
 3570SOL    HW111609   0.208   2.206   4.830
 3570SOL    HW211610   0.303   2.172   4.702
 3571SOL     OW11611   6.619   5.445   4.959
 3571SOL    HW111612   6.666   5.428   4.872
 3571SOL    HW211613   6.640   5.371   5.023
 3572SOL     OW11614   5.483   6.329   5.733
 3572SOL    HW111615   5.548   6.314   5.659
 3572SOL    HW211616   5.494   6.422   5.768
 3573SOL     OW11617   0.560   2.734   1.914
 3573SOL    HW111618   0.599   2.714   1.824
 3573SOL    HW211619   0.631   2.728   1.984
 3574SOL     OW11620   0.124   3.648   0.052
 3574SOL    HW111621   0.197   3.625   7.014
 3574SOL    HW211622   0.163   3.695   0.131
 3575SOL     OW11623   6.721   0.509   2.565
 3575SOL    HW111624   6.788   0.493   2.492
 3575SOL    HW211625   6.655   0.577   2.535
 3576SOL     OW11626   0.571   0.915   0.560
 3576SOL    HW111627   0.593   0.994   0.616
 3576SOL    HW211628   0.597   0.831   0.608
 3577SOL     OW11629   2.078   4.702   0.487
 3577SOL    HW111630   2.158   4.646   0.463
 3577SOL    HW211631   2.045   4.675   0.578
 3578SOL     OW11632   3.349   4.635   1.686
 3578SOL    HW111633   3.444   4.633   1.717
 3578SOL    HW211634   3.291   4.670   1.759
 3579SOL     OW11635   2.396   2.952   6.594
 3579SOL    HW111636   2.380   2.855   6.612
 3579SOL    HW211637   2.486   2.963   6.552
 3580SOL     OW11638   5.521   1.358   2.085
 3580SOL    HW111639   5.583   1.281   2.073
 3580SOL    HW211640   5.521   1.386   2.181
 3581SOL     OW11641   6.706   1.058   2.896
 3581SOL    HW111642   6.662   1.071   2.984
 3581SOL    HW211643   6.670   0.975   2.853
 3582SOL     OW11644   0.819   0.686   5.469
 3582SOL    HW111645   0.864   0.608   5.511
 3582SOL    HW211646   0.858   0.702   5.378
 3583SOL     OW11647   1.344   6.888   1.923
 3583SOL    HW111648   1.444   6.899   1.925
 3583SOL    HW211649   1.313   6.853   2.011
 3584SOL     OW11650   5.289   0.338   4.652
 3584SOL    HW111651   5.222   0.267   4.673
 3584SOL    HW211652   5.324   0.377   4.737
 3585SOL     OW11653   2.307   4.581   3.582
 3585SOL    HW111654   2.308   4.486   3.552
 3585SOL    HW211655   2.342   4.587   3.676
 3586SOL     OW11656   1.273   1.102   0.019
 3586SOL    HW111657   1.249   1.180   6.988
 3586SOL    HW211658   1.370   1.107   0.043
 3587SOL     OW11659   3.392   6.653   5.589
 3587SOL    HW111660   3.451   6.573   5.596
 3587SOL    HW211661   3.433   6.729   5.639
 3588SOL     OW11662   2.639   2.519   5.297
 3588SOL    HW111663   2.667   2.615   5.296
 3588SOL    HW211664   2.598   2.494   5.210
 3589SOL     OW11665   2.707   6.139   4.632
 3589SOL    HW111666   2.785   6.119   4.690
 3589SOL    HW211667   2.710   6.080   4.551
 3590SOL     OW11668   1.002   5.722   6.991
 3590SOL    HW111669   0.938   5.664   0.014
 3590SOL    HW211670   1.083   5.670   6.967
 3591SOL     OW11671   5.209   1.639   4.936
 3591SOL    HW111672   5.215   1.586   4.852
 3591SOL    HW211673   5.233   1.581   5.014
 3592SOL     OW11674   5.506   1.609   2.317
 3592SOL    HW111675   5.435   1.677   2.334
 3592SOL    HW211676   5.517   1.597   2.218
 3593SOL     OW11677   0.512   5.002   4.150
 3593SOL    HW111678   0.509   4.959   4.060
 3593SOL    HW211679   0.448   5.079   4.152
 3594SOL     OW11680   4.270   1.203   4.619
 3594SOL    HW111681   4.309   1.138   4.684
 3594SOL    HW211682   4.178   1.230   4.650
 3595SOL     OW11683   2.188   6.607   6.348
 3595SOL    HW111684   2.131   6.653   6.417
 3595SOL    HW211685   2.228   6.524   6.388
 3596SOL     OW11686   6.613   3.601   2.896
 3596SOL    HW111687   6.536   3.585   2.834
 3596SOL    HW211688   6.613   3.532   2.968
 3597SOL     OW11689   4.273   0.384   4.110
 3597SOL    HW111690   4.174   0.389   4.101
 3597SOL    HW211691   4.312   0.474   4.091
 3598SOL     OW11692   2.222   6.757   6.815
 3598SOL    HW111693   2.292   6.824   6.840
 3598SOL    HW211694   2.145   6.765   6.878
 3599SOL     OW11695   0.407   2.557   3.822
 3599SOL    HW111696   0.385   2.551   3.724
 3599SOL    HW211697   0.504   2.535   3.835
 3600SOL     OW11698   6.490   6.823   1.266
 3600SOL    HW111699   6.427   6.900   1.270
 3600SOL    HW211700   6.447   6.743   1.309
 3601SOL     OW11701   0.045   3.820   5.848
 3601SOL    HW111702   0.014   3.902   5.799
 3601SOL    HW211703   0.019   3.738   5.796
 3602SOL     OW11704   3.333   2.731   0.948
 3602SOL    HW111705   3.321   2.632   0.955
 3602SOL    HW211706   3.257   2.769   0.895
 3603SOL     OW11707   4.082   5.113   4.979
 3603SOL    HW111708   4.123   5.156   5.059
 3603SOL    HW211709   4.000   5.063   5.006
 3604SOL     OW11710   5.543   4.326   3.570
 3604SOL    HW111711   5.580   4.299   3.659
 3604SOL    HW211712   5.443   4.326   3.575
 3605SOL     OW11713   5.343   1.657   6.463
 3605SOL    HW111714   5.374   1.671   6.368
 3605SOL    HW211715   5.275   1.584   6.465
 3606SOL     OW11716   1.628   3.320   2.649
 3606SOL    HW111717   1.665   3.337   2.557
 3606SOL    HW211718   1.667   3.236   2.685
 3607SOL     OW11719   4.161   6.733   5.225
 3607SOL    HW111720   4.117   6.694   5.143
 3607SOL    HW211721   4.140   6.675   5.304
 3608SOL     OW11722   6.977   3.232   3.006
 3608SOL    HW111723   0.051   3.227   3.002
 3608SOL    HW211724   6.945   3.310   2.952
 3609SOL     OW11725   0.139   0.755   3.844
 3609SOL    HW111726   0.202   0.810   3.789
 3609SOL    HW211727   0.070   0.714   3.785
 3610SOL     OW11728   1.789   4.925   5.520
 3610SOL    HW111729   1.706   4.880   5.554
 3610SOL    HW211730   1.766   5.015   5.484
 3611SOL     OW11731   4.806   4.417   6.152
 3611SOL    HW111732   4.831   4.422   6.248
 3611SOL    HW211733   4.707   4.403   6.143
 3612SOL     OW11734   2.150   5.880   1.320
 3612SOL    HW111735   2.190   5.965   1.354
 3612SOL    HW211736   2.088   5.900   1.244
 3613SOL     OW11737   5.740   4.714   6.001
 3613SOL    HW111738   5.642   4.697   6.007
 3613SOL    HW211739   5.759   4.777   5.926
 3614SOL     OW11740   3.739   3.157   4.849
 3614SOL    HW111741   3.801   3.152   4.770
 3614SOL    HW211742   3.678   3.077   4.849
 3615SOL     OW11743   5.894   6.309   6.709
 3615SOL    HW111744   5.841   6.391   6.732
 3615SOL    HW211745   5.873   6.236   6.774
 3616SOL     OW11746   6.519   1.472   4.489
 3616SOL    HW111747   6.502   1.403   4.559
 3616SOL    HW211748   6.445   1.472   4.422
 3617SOL     OW11749   0.098   0.577   0.925
 3617SOL    HW111750   0.155   0.588   1.007
 3617SOL    HW211751   0.116   0.488   0.884
 3618SOL     OW11752   3.753   5.590   5.988
 3618SOL    HW111753   3.688   5.564   5.917
 3618SOL    HW211754   3.702   5.611   6.072
 3619SOL     OW11755   5.000   3.571   3.975
 3619SOL    HW111756   5.049   3.525   3.900
 3619SOL    HW211757   5.038   3.541   4.062
 3620SOL     OW11758   5.955   1.713   5.117
 3620SOL    HW111759   5.873   1.675   5.161
 3620SOL    HW211760   5.961   1.678   5.023
 3621SOL     OW11761   1.913   2.682   6.466
 3621SOL    HW111762   1.940   2.587   6.452
 3621SOL    HW211763   1.963   2.720   6.543
 3622SOL     OW11764   1.127   3.959   0.785
 3622SOL    HW111765   1.204   3.991   0.840
 3622SOL    HW211766   1.160   3.899   0.712
 3623SOL     OW11767   6.551   4.741   5.025
 3623SOL    HW111768   6.468   4.693   4.998
 3623SOL    HW211769   6.631   4.685   5.005
 3624SOL     OW11770   1.769   0.347   1.829
 3624SOL    HW111771   1.705   0.408   1.784
 3624SOL    HW211772   1.828   0.304   1.761
 3625SOL     OW11773   1.008   2.470   5.488
 3625SOL    HW111774   1.017   2.540   5.417
 3625SOL    HW211775   1.088   2.473   5.548
 3626SOL     OW11776   2.098   3.255   5.601
 3626SOL    HW111777   2.021   3.199   5.632
 3626SOL    HW211778   2.064   3.336   5.554
 3627SOL     OW11779   4.114   3.459   4.642
 3627SOL    HW111780   4.073   3.374   4.607
 3627SOL    HW211781   4.106   3.531   4.573
 3628SOL     OW11782   3.044   5.472   3.657
 3628SOL    HW111783   3.115   5.533   3.622
 3628SOL    HW211784   3.079   5.421   3.736
 3629SOL     OW11785   5.637   3.527   4.942
 3629SOL    HW111786   5.630   3.509   5.040
 3629SOL    HW211787   5.655   3.441   4.893
 3630SOL     OW11788   6.117   1.739   4.849
 3630SOL    HW111789   6.189   1.784   4.902
 3630SOL    HW211790   6.118   1.773   4.755
 3631SOL     OW11791   1.794   0.670   4.284
 3631SOL    HW111792   1.861   0.615   4.334
 3631SOL    HW211793   1.843   0.736   4.227
 3632SOL     OW11794   5.027   6.393   6.246
 3632SOL    HW111795   5.040   6.310   6.300
 3632SOL    HW211796   5.116   6.435   6.228
 3633SOL     OW11797   0.577   2.613   5.628
 3633SOL    HW111798   0.500   2.653   5.578
 3633SOL    HW211799   0.563   2.628   5.726
 3634SOL     OW11800   2.764   4.837   6.585
 3634SOL    HW111801   2.697   4.772   6.550
 3634SOL    HW211802   2.774   4.825   6.684
 3635SOL     OW11803   1.964   1.863   4.221
 3635SOL    HW111804   2.007   1.788   4.170
 3635SOL    HW211805   1.954   1.942   4.162
 3636SOL     OW11806   1.078   6.930   1.465
 3636SOL    HW111807   1.056   6.854   1.404
 3636SOL    HW211808   1.140   6.899   1.537
 3637SOL     OW11809   5.220   1.412   2.477
 3637SOL    HW111810   5.252   1.462   2.558
 3637SOL    HW211811   5.120   1.408   2.478
 3638SOL     OW11812   6.815   4.645   3.152
 3638SOL    HW111813   6.880   4.709   3.111
 3638SOL    HW211814   6.848   4.551   3.138
 3639SOL     OW11815   2.904   6.075   6.892
 3639SOL    HW111816   2.829   6.141   6.894
 3639SOL    HW211817   2.968   6.099   6.820
 3640SOL     OW11818   2.217   6.539   2.450
 3640SOL    HW111819   2.185   6.620   2.499
 3640SOL    HW211820   2.289   6.495   2.504
 3641SOL     OW11821   1.844   1.367   5.329
 3641SOL    HW111822   1.830   1.334   5.423
 3641SOL    HW211823   1.806   1.301   5.265
 3642SOL     OW11824   6.158   7.002   2.486
 3642SOL    HW111825   6.221   0.030   2.541
 3642SOL    HW211826   6.177   6.905   2.500
 3643SOL     OW11827   3.988   6.669   3.921
 3643SOL    HW111828   3.917   6.608   3.886
 3643SOL    HW211829   4.058   6.615   3.968
 3644SOL     OW11830   5.761   0.301   1.800
 3644SOL    HW111831   5.686   0.298   1.866
 3644SOL    HW211832   5.788   0.395   1.784
 3645SOL     OW11833   4.603   5.671   3.961
 3645SOL    HW111834   4.550   5.753   3.980
 3645SOL    HW211835   4.548   5.590   3.984
 3646SOL     OW11836   0.756   5.376   5.340
 3646SOL    HW111837   0.763   5.441   5.265
 3646SOL    HW211838   0.847   5.342   5.364
 3647SOL     OW11839   3.329   3.094   0.838
 3647SOL    HW111840   3.323   3.191   0.816
 3647SOL    HW211841   3.239   3.052   0.829
 3648SOL     OW11842   2.754   6.239   3.421
 3648SOL    HW111843   2.696   6.190   3.356
 3648SOL    HW211844   2.700   6.309   3.468
 3649SOL     OW11845   3.281   2.939   3.019
 3649SOL    HW111846   3.372   2.960   3.055
 3649SOL    HW211847   3.288   2.908   2.924
 3650SOL     OW11848   5.560   6.242   1.635
 3650SOL    HW111849   5.642   6.193   1.666
 3650SOL    HW211850   5.578   6.282   1.546
 3651SOL     OW11851   1.657   5.303   1.657
 3651SOL    HW111852   1.695   5.384   1.613
 3651SOL    HW211853   1.604   5.250   1.590
 3652SOL     OW11854   4.372   6.263   4.007
 3652SOL    HW111855   4.283   6.227   4.036
 3652SOL    HW211856   4.388   6.351   4.052
 3653SOL     OW11857   0.461   3.510   3.483
 3653SOL    HW111858   0.448   3.438   3.550
 3653SOL    HW211859   0.471   3.598   3.530
 3654SOL     OW11860   2.094   6.813   2.059
 3654SOL    HW111861   2.157   6.890   2.057
 3654SOL    HW211862   2.061   6.793   1.967
 3655SOL     OW11863   6.427   1.311   3.720
 3655SOL    HW111864   6.463   1.219   3.706
 3655SOL    HW211865   6.411   1.355   3.632
 3656SOL     OW11866   2.002   1.868   3.117
 3656SOL    HW111867   2.067   1.795   3.141
 3656SOL    HW211868   2.033   1.915   3.035
 3657SOL     OW11869   5.680   5.335   1.455
 3657SOL    HW111870   5.680   5.403   1.528
 3657SOL    HW211871   5.717   5.249   1.489
 3658SOL     OW11872   2.820   4.499   5.566
 3658SOL    HW111873   2.762   4.506   5.485
 3658SOL    HW211874   2.849   4.590   5.595
 3659SOL     OW11875   1.555   4.028   6.251
 3659SOL    HW111876   1.593   4.092   6.317
 3659SOL    HW211877   1.457   4.018   6.268
 3660SOL     OW11878   4.821   4.015   0.826
 3660SOL    HW111879   4.830   4.031   0.925
 3660SOL    HW211880   4.742   4.067   0.792
 3661SOL     OW11881   5.633   1.087   2.000
 3661SOL    HW111882   5.733   1.089   2.001
 3661SOL    HW211883   5.601   1.037   1.920
 3662SOL     OW11884   1.240   6.741   4.202
 3662SOL    HW111885   1.289   6.828   4.204
 3662SOL    HW211886   1.302   6.667   4.176
 3663SOL     OW11887   2.234   2.261   6.023
 3663SOL    HW111888   2.302   2.327   5.989
 3663SOL    HW211889   2.197   2.210   5.945
 3664SOL     OW11890   3.634   0.476   2.358
 3664SOL    HW111891   3.730   0.452   2.370
 3664SOL    HW211892   3.609   0.548   2.422
 3665SOL     OW11893   2.482   1.619   5.358
 3665SOL    HW111894   2.430   1.694   5.317
 3665SOL    HW211895   2.463   1.615   5.456
 3666SOL     OW11896   0.793   4.596   3.098
 3666SOL    HW111897   0.736   4.669   3.061
 3666SOL    HW211898   0.754   4.507   3.073
 3667SOL     OW11899   6.918   1.146   0.031
 3667SOL    HW111900   6.836   1.145   0.089
 3667SOL    HW211901   6.941   1.052   0.005
 3668SOL     OW11902   1.827   6.813   1.462
 3668SOL    HW111903   1.818   6.897   1.516
 3668SOL    HW211904   1.904   6.824   1.398
 3669SOL     OW11905   5.441   1.696   4.118
 3669SOL    HW111906   5.424   1.609   4.164
 3669SOL    HW211907   5.433   1.684   4.019
 3670SOL     OW11908   3.073   4.990   5.912
 3670SOL    HW111909   3.029   5.066   5.864
 3670SOL    HW211910   3.066   5.004   6.011
 3671SOL     OW11911   2.020   1.152   3.336
 3671SOL    HW111912   2.003   1.249   3.353
 3671SOL    HW211913   1.938   1.100   3.358
 3672SOL     OW11914   6.340   6.348   0.164
 3672SOL    HW111915   6.347   6.321   0.260
 3672SOL    HW211916   6.368   6.443   0.155
 3673SOL     OW11917   4.212   0.060   6.491
 3673SOL    HW111918   4.238   0.066   6.394
 3673SOL    HW211919   4.292   0.075   6.548
 3674SOL     OW11920   1.180   6.313   0.933
 3674SOL    HW111921   1.261   6.347   0.980
 3674SOL    HW211922   1.107   6.297   1.000
 3675SOL     OW11923   2.227   2.081   4.068
 3675SOL    HW111924   2.252   2.178   4.067
 3675SOL    HW211925   2.131   2.071   4.044
 3676SOL     OW11926   1.515   5.276   2.561
 3676SOL    HW111927   1.464   5.217   2.498
 3676SOL    HW211928   1.460   5.356   2.584
 3677SOL     OW11929   5.931   0.856   3.507
 3677SOL    HW111930   5.877   0.795   3.564
 3677SOL    HW211931   5.947   0.942   3.556
 3678SOL     OW11932   0.740   2.772   4.147
 3678SOL    HW111933   0.719   2.756   4.244
 3678SOL    HW211934   0.662   2.746   4.091
 3679SOL     OW11935   5.982   1.540   2.008
 3679SOL    HW111936   6.011   1.589   2.090
 3679SOL    HW211937   5.982   1.442   2.026
 3680SOL     OW11938   6.063   4.402   4.837
 3680SOL    HW111939   6.143   4.346   4.859
 3680SOL    HW211940   6.088   4.467   4.764
 3681SOL     OW11941   5.457   0.400   5.372
 3681SOL    HW111942   5.504   0.387   5.459
 3681SOL    HW211943   5.401   0.483   5.376
 3682SOL     OW11944   7.020   1.655   7.020
 3682SOL    HW111945   0.079   1.669   0.042
 3682SOL    HW211946   0.006   1.676   6.923
 3683SOL     OW11947   5.190   6.665   3.279
 3683SOL    HW111948   5.096   6.640   3.301
 3683SOL    HW211949   5.225   6.726   3.350
 3684SOL     OW11950   2.349   4.094   1.846
 3684SOL    HW111951   2.291   4.166   1.806
 3684SOL    HW211952   2.332   4.089   1.944
 3685SOL     OW11953   5.505   5.818   5.471
 3685SOL    HW111954   5.471   5.727   5.494
 3685SOL    HW211955   5.473   5.843   5.380
 3686SOL     OW11956   0.205   4.118   0.352
 3686SOL    HW111957   0.168   4.141   0.442
 3686SOL    HW211958   0.261   4.193   0.318
 3687SOL     OW11959   4.177   0.805   0.581
 3687SOL    HW111960   4.105   0.804   0.511
 3687SOL    HW211961   4.259   0.849   0.544
 3688SOL     OW11962   0.107   3.346   0.252
 3688SOL    HW111963   0.093   3.319   0.157
 3688SOL    HW211964   0.086   3.270   0.313
 3689SOL     OW11965   2.000   6.390   3.870
 3689SOL    HW111966   1.990   6.295   3.901
 3689SOL    HW211967   2.013   6.449   3.950
 3690SOL     OW11968   4.867   4.987   5.637
 3690SOL    HW111969   4.903   5.041   5.560
 3690SOL    HW211970   4.894   4.892   5.625
 3691SOL     OW11971   3.405   3.223   6.337
 3691SOL    HW111972   3.439   3.287   6.267
 3691SOL    HW211973   3.389   3.272   6.422
 3692SOL     OW11974   6.863   0.355   5.148
 3692SOL    HW111975   6.948   0.393   5.187
 3692SOL    HW211976   6.785   0.386   5.202
 3693SOL     OW11977   1.502   1.263   3.988
 3693SOL    HW111978   1.531   1.352   3.955
 3693SOL    HW211979   1.408   1.268   4.021
 3694SOL     OW11980   1.740   5.051   3.879
 3694SOL    HW111981   1.741   4.951   3.880
 3694SOL    HW211982   1.833   5.085   3.893
 3695SOL     OW11983   2.053   2.544   0.583
 3695SOL    HW111984   1.985   2.574   0.650
 3695SOL    HW211985   2.099   2.625   0.544
 3696SOL     OW11986   2.946   6.117   5.484
 3696SOL    HW111987   2.982   6.091   5.574
 3696SOL    HW211988   2.991   6.062   5.413
 3697SOL     OW11989   5.395   0.957   3.534
 3697SOL    HW111990   5.394   1.056   3.520
 3697SOL    HW211991   5.301   0.924   3.546
 3698SOL     OW11992   3.250   6.924   6.174
 3698SOL    HW111993   3.317   6.886   6.110
 3698SOL    HW211994   3.217   6.852   6.235
 3699SOL     OW11995   1.128   5.174   2.315
 3699SOL    HW111996   1.087   5.177   2.224
 3699SOL    HW211997   1.142   5.267   2.348
 3700SOL     OW11998   6.331   0.609   3.524
 3700SOL    HW111999   6.302   0.705   3.521
 3700SOL    HW212000   6.323   0.575   3.618
 3701SOL     OW12001   4.563   1.274   3.937
 3701SOL    HW112002   4.535   1.253   3.843
 3701SOL    HW212003   4.491   1.247   4.000
 3702SOL     OW12004   4.806   1.375   6.264
 3702SOL    HW112005   4.902   1.366   6.239
 3702SOL    HW212006   4.751   1.317   6.204
 3703SOL     OW12007   4.049   4.570   1.103
 3703SOL    HW112008   4.092   4.485   1.131
 3703SOL    HW212009   4.076   4.593   1.010
 3704SOL     OW12010   3.177   6.307   1.298
 3704SOL    HW112011   3.091   6.287   1.345
 3704SOL    HW212012   3.158   6.332   1.203
 3705SOL     OW12013   6.893   0.904   4.107
 3705SOL    HW112014   6.801   0.891   4.144
 3705SOL    HW212015   6.888   0.915   4.008
 3706SOL     OW12016   2.725   2.034   3.326
 3706SOL    HW112017   2.798   2.056   3.390
 3706SOL    HW212018   2.663   2.113   3.318
 3707SOL     OW12019   4.322   2.303   5.530
 3707SOL    HW112020   4.370   2.307   5.617
 3707SOL    HW212021   4.310   2.207   5.503
 3708SOL     OW12022   6.567   0.664   0.187
 3708SOL    HW112023   6.660   0.644   0.219
 3708SOL    HW212024   6.572   0.720   0.104
 3709SOL     OW12025   0.034   6.416   6.489
 3709SOL    HW112026   0.044   6.488   6.558
 3709SOL    HW212027   6.964   6.401   6.470
 3710SOL     OW12028   0.578   5.210   6.290
 3710SOL    HW112029   0.667   5.219   6.335
 3710SOL    HW212030   0.587   5.154   6.208
 3711SOL     OW12031   6.674   5.343   1.975
 3711SOL    HW112032   6.587   5.380   1.943
 3711SOL    HW212033   6.726   5.309   1.897
 3712SOL     OW12034   1.345   6.614   6.567
 3712SOL    HW112035   1.403   6.635   6.488
 3712SOL    HW212036   1.322   6.699   6.615
 3713SOL     OW12037   3.536   4.853   5.993
 3713SOL    HW112038   3.608   4.852   6.063
 3713SOL    HW212039   3.562   4.918   5.921
 3714SOL     OW12040   4.635   2.029   5.207
 3714SOL    HW112041   4.599   1.942   5.174
 3714SOL    HW212042   4.733   2.034   5.188
 3715SOL     OW12043   4.800   4.060   3.682
 3715SOL    HW112044   4.800   4.069   3.782
 3715SOL    HW212045   4.822   4.149   3.641
 3716SOL     OW12046   1.075   1.152   4.993
 3716SOL    HW112047   1.053   1.070   5.045
 3716SOL    HW212048   1.090   1.128   4.897
 3717SOL     OW12049   5.910   0.735   6.870
 3717SOL    HW112050   5.964   0.726   6.787
 3717SOL    HW212051   5.861   0.650   6.888
 3718SOL     OW12052   0.706   6.236   6.199
 3718SOL    HW112053   0.646   6.288   6.139
 3718SOL    HW212054   0.660   6.221   6.287
 3719SOL     OW12055   3.182   4.236   0.493
 3719SOL    HW112056   3.213   4.303   0.425
 3719SOL    HW212057   3.134   4.283   0.567
 3720SOL     OW12058   6.988   1.251   6.442
 3720SOL    HW112059   6.895   1.227   6.413
 3720SOL    HW212060   6.984   1.329   6.505
 3721SOL     OW12061   4.951   3.163   0.253
 3721SOL    HW112062   4.918   3.134   0.343
 3721SOL    HW212063   4.920   3.256   0.234
 3722SOL     OW12064   4.493   5.888   1.013
 3722SOL    HW112065   4.445   5.890   1.101
 3722SOL    HW212066   4.450   5.953   0.950
 3723SOL     OW12067   4.602   1.104   0.616
 3723SOL    HW112068   4.694   1.144   0.615
 3723SOL    HW212069   4.535   1.175   0.639
 3724SOL     OW12070   0.760   4.527   6.129
 3724SOL    HW112071   0.698   4.561   6.058
 3724SOL    HW212072   0.708   4.504   6.211
 3725SOL     OW12073   5.270   6.167   1.646
 3725SOL    HW112074   5.258   6.261   1.680
 3725SOL    HW212075   5.340   6.166   1.575
 3726SOL     OW12076   6.218   3.480   1.917
 3726SOL    HW112077   6.198   3.432   1.832
 3726SOL    HW212078   6.139   3.473   1.979
 3727SOL     OW12079   2.883   2.872   5.481
 3727SOL    HW112080   2.893   2.775   5.503
 3727SOL    HW212081   2.973   2.910   5.457
 3728SOL     OW12082   0.655   4.043   6.229
 3728SOL    HW112083   0.628   3.953   6.196
 3728SOL    HW212084   0.589   4.111   6.197
 3729SOL     OW12085   0.999   3.387   3.921
 3729SOL    HW112086   0.981   3.293   3.947
 3729SOL    HW212087   0.974   3.448   3.996
 3730SOL     OW12088   2.254   0.076   1.550
 3730SOL    HW112089   2.305   0.012   1.608
 3730SOL    HW212090   2.285   0.067   1.455
 3731SOL     OW12091   2.448   5.805   0.453
 3731SOL    HW112092   2.452   5.763   0.363
 3731SOL    HW212093   2.422   5.737   0.521
 3732SOL     OW12094   2.147   3.740   4.274
 3732SOL    HW112095   2.107   3.716   4.186
 3732SOL    HW212096   2.127   3.669   4.341
 3733SOL     OW12097   3.274   3.124   1.660
 3733SOL    HW112098   3.334   3.201   1.642
 3733SOL    HW212099   3.179   3.153   1.652
 3734SOL     OW12100   3.979   1.466   3.191
 3734SOL    HW112101   4.015   1.461   3.284
 3734SOL    HW212102   3.880   1.453   3.193
 3735SOL     OW12103   3.967   2.135   2.021
 3735SOL    HW112104   3.959   2.036   2.010
 3735SOL    HW212105   3.881   2.178   1.994
 3736SOL     OW12106   4.742   1.013   6.216
 3736SOL    HW112107   4.811   1.005   6.144
 3736SOL    HW212108   4.726   0.923   6.257
 3737SOL     OW12109   3.042   0.026   3.753
 3737SOL    HW112110   2.962   0.080   3.726
 3737SOL    HW212111   3.059   0.039   3.851
 3738SOL     OW12112   0.324   0.665   4.539
 3738SOL    HW112113   0.283   0.695   4.625
 3738SOL    HW212114   0.410   0.616   4.558
 3739SOL     OW12115   0.235   3.345   0.920
 3739SOL    HW112116   0.148   3.372   0.878
 3739SOL    HW212117   0.268   3.262   0.876
 3740SOL     OW12118   5.769   6.798   6.903
 3740SOL    HW112119   5.857   6.827   6.942
 3740SOL    HW212120   5.734   6.871   6.844
 3741SOL     OW12121   3.653   1.224   0.231
 3741SOL    HW112122   3.600   1.309   0.227
 3741SOL    HW212123   3.622   1.169   0.308
 3742SOL     OW12124   3.678   3.571   6.100
 3742SOL    HW112125   3.757   3.599   6.154
 3742SOL    HW212126   3.686   3.607   6.007
 3743SOL     OW12127   0.871   5.987   5.868
 3743SOL    HW112128   0.922   5.936   5.938
 3743SOL    HW212129   0.783   5.941   5.852
 3744SOL     OW12130   6.584   4.901   2.978
 3744SOL    HW112131   6.594   4.964   3.055
 3744SOL    HW212132   6.545   4.815   3.011
 3745SOL     OW12133   5.185   4.817   1.085
 3745SOL    HW112134   5.169   4.784   0.992
 3745SOL    HW212135   5.165   4.914   1.090
 3746SOL     OW12136   3.981   1.481   1.337
 3746SOL    HW112137   3.943   1.544   1.269
 3746SOL    HW212138   3.981   1.388   1.300
 3747SOL     OW12139   2.604   6.746   1.239
 3747SOL    HW112140   2.660   6.701   1.309
 3747SOL    HW212141   2.641   6.724   1.149
 3748SOL     OW12142   5.806   0.506   1.487
 3748SOL    HW112143   5.867   0.537   1.413
 3748SOL    HW212144   5.812   0.570   1.564
 3749SOL     OW12145   0.793   0.641   3.852
 3749SOL    HW112146   0.723   0.693   3.901
 3749SOL    HW212147   0.880   0.646   3.902
 3750SOL     OW12148   0.668   3.985   6.959
 3750SOL    HW112149   0.608   3.917   7.003
 3750SOL    HW212150   0.626   4.076   6.967
 3751SOL     OW12151   1.805   5.105   1.750
 3751SOL    HW112152   1.773   5.023   1.701
 3751SOL    HW212153   1.738   5.178   1.738
 3752SOL     OW12154   5.450   5.315   6.638
 3752SOL    HW112155   5.435   5.413   6.648
 3752SOL    HW212156   5.371   5.265   6.674
 3753SOL     OW12157   0.059   1.035   3.674
 3753SOL    HW112158   0.154   1.061   3.686
 3753SOL    HW212159   0.046   1.001   3.580
 3754SOL     OW12160   3.698   1.733   1.464
 3754SOL    HW112161   3.737   1.814   1.421
 3754SOL    HW212162   3.638   1.686   1.399
 3755SOL     OW12163   2.730   5.705   3.867
 3755SOL    HW112164   2.642   5.695   3.913
 3755SOL    HW212165   2.790   5.762   3.924
 3756SOL     OW12166   1.321   6.354   0.688
 3756SOL    HW112167   1.319   6.294   0.768
 3756SOL    HW212168   1.296   6.447   0.715
 3757SOL     OW12169   0.577   5.154   0.276
 3757SOL    HW112170   0.623   5.132   0.363
 3757SOL    HW212171   0.603   5.087   0.207
 3758SOL     OW12172   0.441   5.937   4.293
 3758SOL    HW112173   0.423   5.852   4.343
 3758SOL    HW212174   0.392   5.936   4.206
 3759SOL     OW12175   4.639   0.571   3.875
 3759SOL    HW112176   4.548   0.576   3.916
 3759SOL    HW212177   4.681   0.662   3.874
 3760SOL     OW12178   0.697   0.723   3.569
 3760SOL    HW112179   0.728   0.736   3.475
 3760SOL    HW212180   0.687   0.625   3.587
 3761SOL     OW12181   4.399   1.408   5.089
 3761SOL    HW112182   4.473   1.475   5.086
 3761SOL    HW212183   4.316   1.447   5.049
 3762SOL     OW12184   0.246   2.582   3.580
 3762SOL    HW112185   0.233   2.676   3.609
 3762SOL    HW212186   0.158   2.534   3.582
 3763SOL     OW12187   0.979   6.350   6.819
 3763SOL    HW112188   1.054   6.413   6.841
 3763SOL    HW212189   0.949   6.365   6.725
 3764SOL     OW12190   3.620   1.428   2.378
 3764SOL    HW112191   3.621   1.349   2.316
 3764SOL    HW212192   3.713   1.455   2.400
 3765SOL     OW12193   5.750   3.989   2.540
 3765SOL    HW112194   5.703   4.048   2.474
 3765SOL    HW212195   5.762   3.898   2.499
 3766SOL     OW12196   2.109   2.931   1.995
 3766SOL    HW112197   2.105   3.030   1.985
 3766SOL    HW212198   2.204   2.902   2.006
 3767SOL     OW12199   1.730   6.231   6.007
 3767SOL    HW112200   1.764   6.144   5.971
 3767SOL    HW212201   1.781   6.306   5.966
 3768SOL     OW12202   2.255   6.939   3.766
 3768SOL    HW112203   2.293   6.960   3.856
 3768SOL    HW212204   2.210   6.850   3.768
 3769SOL     OW12205   5.227   4.946   5.717
 3769SOL    HW112206   5.317   4.904   5.727
 3769SOL    HW212207   5.186   4.959   5.808
 3770SOL     OW12208   2.812   6.573   0.772
 3770SOL    HW112209   2.901   6.617   0.758
 3770SOL    HW212210   2.823   6.474   0.768
 3771SOL     OW12211   6.769   6.091   5.966
 3771SOL    HW112212   6.829   6.132   6.035
 3771SOL    HW212213   6.718   6.015   6.007
 3772SOL     OW12214   3.317   5.731   2.050
 3772SOL    HW112215   3.308   5.830   2.037
 3772SOL    HW212216   3.229   5.687   2.033
 3773SOL     OW12217   5.131   4.130   6.750
 3773SOL    HW112218   5.214   4.122   6.694
 3773SOL    HW212219   5.156   4.123   6.847
 3774SOL     OW12220   7.017   4.615   0.783
 3774SOL    HW112221   0.076   4.655   0.815
 3774SOL    HW212222   6.946   4.686   0.780
 3775SOL     OW12223   5.405   6.688   4.999
 3775SOL    HW112224   5.333   6.661   4.935
 3775SOL    HW212225   5.484   6.627   4.988
 3776SOL     OW12226   4.464   2.670   6.754
 3776SOL    HW112227   4.419   2.582   6.739
 3776SOL    HW212228   4.446   2.701   6.848
 3777SOL     OW12229   3.455   5.000   3.398
 3777SOL    HW112230   3.537   4.955   3.433
 3777SOL    HW212231   3.392   5.018   3.474
 3778SOL     OW12232   3.106   5.654   6.600
 3778SOL    HW112233   3.029   5.708   6.634
 3778SOL    HW212234   3.108   5.658   6.500
 3779SOL     OW12235   0.157   4.838   5.808
 3779SOL    HW112236   0.228   4.770   5.828
 3779SOL    HW212237   0.154   4.905   5.882
 3780SOL     OW12238   5.965   2.385   1.810
 3780SOL    HW112239   5.907   2.319   1.763
 3780SOL    HW212240   6.060   2.371   1.784
 3781SOL     OW12241   1.166   7.021   5.950
 3781SOL    HW112242   1.190   0.078   5.901
 3781SOL    HW212243   1.240   6.997   6.012
 3782SOL     OW12244   3.514   5.314   6.712
 3782SOL    HW112245   3.563   5.394   6.744
 3782SOL    HW212246   3.578   5.239   6.696
 3783SOL     OW12247   4.499   5.006   5.144
 3783SOL    HW112248   4.570   5.077   5.147
 3783SOL    HW212249   4.440   5.014   5.224
 3784SOL     OW12250   5.405   3.537   4.533
 3784SOL    HW112251   5.332   3.597   4.499
 3784SOL    HW212252   5.470   3.591   4.586
 3785SOL     OW12253   0.769   3.289   2.634
 3785SOL    HW112254   0.828   3.257   2.708
 3785SOL    HW212255   0.820   3.289   2.548
 3786SOL     OW12256   3.055   2.768   5.789
 3786SOL    HW112257   3.039   2.694   5.723
 3786SOL    HW212258   3.042   2.734   5.881
 3787SOL     OW12259   4.847   6.209   5.152
 3787SOL    HW112260   4.823   6.148   5.227
 3787SOL    HW212261   4.881   6.155   5.075
 3788SOL     OW12262   5.606   3.108   6.207
 3788SOL    HW112263   5.703   3.121   6.227
 3788SOL    HW212264   5.587   3.011   6.192
 3789SOL     OW12265   1.994   4.109   0.902
 3789SOL    HW112266   1.999   4.030   0.962
 3789SOL    HW212267   2.057   4.180   0.934
 3790SOL     OW12268   2.049   0.006   1.717
 3790SOL    HW112269   2.124   0.026   1.655
 3790SOL    HW212270   1.975   0.071   1.703
 3791SOL     OW12271   4.969   0.675   4.315
 3791SOL    HW112272   4.952   0.576   4.309
 3791SOL    HW212273   4.969   0.714   4.222
 3792SOL     OW12274   6.305   0.350   3.088
 3792SOL    HW112275   6.301   0.382   3.183
 3792SOL    HW212276   6.396   0.371   3.051
 3793SOL     OW12277   4.917   3.419   0.203
 3793SOL    HW112278   4.877   3.500   0.160
 3793SOL    HW212279   4.959   3.445   0.290
 3794SOL     OW12280   1.502   5.185   5.823
 3794SOL    HW112281   1.544   5.181   5.914
 3794SOL    HW212282   1.443   5.106   5.809
 3795SOL     OW12283   3.253   6.131   0.401
 3795SOL    HW112284   3.342   6.126   0.356
 3795SOL    HW212285   3.262   6.181   0.487
 3796SOL     OW12286   5.263   0.926   7.025
 3796SOL    HW112287   5.261   0.920   0.099
 3796SOL    HW212288   5.181   0.882   6.988
 3797SOL     OW12289   6.848   2.392   1.042
 3797SOL    HW112290   6.910   2.416   1.116
 3797SOL    HW212291   6.808   2.475   1.003
 3798SOL     OW12292   0.347   4.418   4.370
 3798SOL    HW112293   0.394   4.388   4.287
 3798SOL    HW212294   0.331   4.516   4.365
 3799SOL     OW12295   6.748   1.694   2.390
 3799SOL    HW112296   6.791   1.784   2.388
 3799SOL    HW212297   6.792   1.635   2.322
 3800SOL     OW12298   5.166   3.609   2.269
 3800SOL    HW112299   5.094   3.567   2.214
 3800SOL    HW212300   5.245   3.630   2.211
 3801SOL     OW12301   5.588   1.507   1.288
 3801SOL    HW112302   5.509   1.446   1.281
 3801SOL    HW212303   5.609   1.523   1.385
 3802SOL     OW12304   6.411   3.661   3.114
 3802SOL    HW112305   6.496   3.686   3.068
 3802SOL    HW212306   6.348   3.739   3.112
 3803SOL     OW12307   3.672   4.228   6.229
 3803SOL    HW112308   3.620   4.305   6.266
 3803SOL    HW212309   3.665   4.228   6.129
 3804SOL     OW12310   3.128   6.214   2.891
 3804SOL    HW112311   3.095   6.274   2.965
 3804SOL    HW212312   3.212   6.169   2.921
 3805SOL     OW12313   2.659   1.976   6.626
 3805SOL    HW112314   2.753   1.948   6.607
 3805SOL    HW212315   2.596   1.904   6.598
 3806SOL     OW12316   1.778   3.530   2.055
 3806SOL    HW112317   1.683   3.561   2.041
 3806SOL    HW212318   1.813   3.569   2.140
 3807SOL     OW12319   0.523   4.137   4.034
 3807SOL    HW112320   0.508   4.218   3.978
 3807SOL    HW212321   0.438   4.086   4.043
 3808SOL     OW12322   2.877   6.435   5.790
 3808SOL    HW112323   2.906   6.439   5.694
 3808SOL    HW212324   2.778   6.450   5.795
 3809SOL     OW12325   5.196   1.324   1.529
 3809SOL    HW112326   5.184   1.295   1.624
 3809SOL    HW212327   5.245   1.254   1.478
 3810SOL     OW12328   4.966   2.078   3.522
 3810SOL    HW112329   5.066   2.077   3.535
 3810SOL    HW212330   4.923   2.017   3.589
 3811SOL     OW12331   0.029   5.992   5.083
 3811SOL    HW112332   7.018   5.900   5.085
 3811SOL    HW212333   0.043   6.024   5.177
 3812SOL     OW12334   4.044   5.740   0.075
 3812SOL    HW112335   4.042   5.762   0.172
 3812SOL    HW212336   3.991   5.806   0.023
 3813SOL     OW12337   6.624   3.339   6.778
 3813SOL    HW112338   6.610   3.405   6.852
 3813SOL    HW212339   6.566   3.363   6.700
 3814SOL     OW12340   6.594   0.406   5.271
 3814SOL    HW112341   6.529   0.349   5.221
 3814SOL    HW212342   6.554   0.497   5.285
 3815SOL     OW12343   5.039   2.200   5.424
 3815SOL    HW112344   5.010   2.217   5.329
 3815SOL    HW212345   4.974   2.243   5.486
 3816SOL     OW12346   6.842   6.461   1.571
 3816SOL    HW112347   6.873   6.426   1.659
 3816SOL    HW212348   6.825   6.559   1.578
 3817SOL     OW12349   3.924   3.860   2.458
 3817SOL    HW112350   4.002   3.851   2.520
 3817SOL    HW212351   3.841   3.827   2.504
 3818SOL     OW12352   4.456   5.575   2.702
 3818SOL    HW112353   4.530   5.618   2.649
 3818SOL    HW212354   4.369   5.589   2.655
 3819SOL     OW12355   6.200   3.466   3.018
 3819SOL    HW112356   6.113   3.512   3.001
 3819SOL    HW212357   6.252   3.517   3.087
 3820SOL     OW12358   2.854   6.363   6.149
 3820SOL    HW112359   2.898   6.344   6.061
 3820SOL    HW212360   2.810   6.453   6.145
 3821SOL     OW12361   1.661   6.608   1.340
 3821SOL    HW112362   1.731   6.654   1.394
 3821SOL    HW212363   1.693   6.517   1.313
 3822SOL     OW12364   5.837   6.878   1.516
 3822SOL    HW112365   5.773   6.932   1.570
 3822SOL    HW212366   5.905   6.836   1.576
 3823SOL     OW12367   5.188   5.851   4.636
 3823SOL    HW112368   5.253   5.863   4.562
 3823SOL    HW212369   5.176   5.938   4.684
 3824SOL     OW12370   1.813   2.599   0.769
 3824SOL    HW112371   1.833   2.646   0.855
 3824SOL    HW212372   1.754   2.657   0.713
 3825SOL     OW12373   0.410   4.726   5.596
 3825SOL    HW112374   0.352   4.686   5.667
 3825SOL    HW212375   0.442   4.816   5.626
 3826SOL     OW12376   5.118   3.921   4.027
 3826SOL    HW112377   5.080   4.013   4.030
 3826SOL    HW212378   5.106   3.883   3.935
 3827SOL     OW12379   0.622   1.409   6.971
 3827SOL    HW112380   0.713   1.429   6.935
 3827SOL    HW212381   0.629   1.341   0.017
 3828SOL     OW12382   3.266   3.806   5.229
 3828SOL    HW112383   3.246   3.857   5.145
 3828SOL    HW212384   3.183   3.799   5.284
 3829SOL     OW12385   6.979   3.014   1.349
 3829SOL    HW112386   6.891   3.060   1.335
 3829SOL    HW212387   6.985   2.983   1.444
 3830SOL     OW12388   5.303   6.832   3.494
 3830SOL    HW112389   5.263   6.851   3.584
 3830SOL    HW212390   5.325   6.918   3.449
 3831SOL     OW12391   5.138   2.796   3.873
 3831SOL    HW112392   5.201   2.722   3.849
 3831SOL    HW212393   5.050   2.780   3.830
 3832SOL     OW12394   6.448   1.369   3.986
 3832SOL    HW112395   6.466   1.342   3.891
 3832SOL    HW212396   6.398   1.455   3.988
 3833SOL     OW12397   1.951   2.960   6.018
 3833SOL    HW112398   1.932   3.054   6.047
 3833SOL    HW212399   1.872   2.903   6.039
 3834SOL     OW12400   4.901   4.989   0.835
 3834SOL    HW112401   4.954   4.904   0.830
 3834SOL    HW212402   4.930   5.051   0.761
 3835SOL     OW12403   4.572   5.166   4.376
 3835SOL    HW112404   4.655   5.169   4.320
 3835SOL    HW212405   4.492   5.184   4.318
 3836SOL     OW12406   0.227   7.019   4.649
 3836SOL    HW112407   0.247   0.030   4.558
 3836SOL    HW212408   0.194   0.065   4.708
 3837SOL     OW12409   5.029   4.094   5.374
 3837SOL    HW112410   4.940   4.140   5.378
 3837SOL    HW212411   5.016   3.998   5.350
 3838SOL     OW12412   6.929   1.494   3.970
 3838SOL    HW112413   6.928   1.406   4.018
 3838SOL    HW212414   7.022   1.527   3.963
 3839SOL     OW12415   4.312   1.545   3.771
 3839SOL    HW112416   4.372   1.466   3.760
 3839SOL    HW212417   4.281   1.576   3.681
 3840SOL     OW12418   3.911   1.186   6.499
 3840SOL    HW112419   3.834   1.122   6.490
 3840SOL    HW212420   3.987   1.140   6.546
 3841SOL     OW12421   5.530   4.561   2.759
 3841SOL    HW112422   5.432   4.577   2.774
 3841SOL    HW212423   5.576   4.554   2.848
 3842SOL     OW12424   1.658   3.714   5.071
 3842SOL    HW112425   1.635   3.780   5.142
 3842SOL    HW212426   1.723   3.756   5.006
 3843SOL     OW12427   5.677   2.273   6.584
 3843SOL    HW112428   5.724   2.330   6.517
 3843SOL    HW212429   5.585   2.253   6.553
 3844SOL     OW12430   6.183   6.584   0.428
 3844SOL    HW112431   6.179   6.497   0.477
 3844SOL    HW212432   6.278   6.613   0.417
 3845SOL     OW12433   2.331   5.267   6.950
 3845SOL    HW112434   2.308   5.288   0.019
 3845SOL    HW212435   2.256   5.216   6.908
 3846SOL     OW12436   6.800   3.330   2.701
 3846SOL    HW112437   6.860   3.384   2.761
 3846SOL    HW212438   6.710   3.374   2.697
 3847SOL     OW12439   0.802   1.006   6.949
 3847SOL    HW112440   0.859   0.924   6.942
 3847SOL    HW212441   0.707   0.980   6.966
 3848SOL     OW12442   6.405   4.883   2.213
 3848SOL    HW112443   6.476   4.813   2.210
 3848SOL    HW212444   6.317   4.843   2.184
 3849SOL     OW12445   0.033   3.076   5.542
 3849SOL    HW112446   6.992   3.007   5.570
 3849SOL    HW212447   7.019   3.167   5.550
 3850SOL     OW12448   3.386   2.870   1.605
 3850SOL    HW112449   3.363   2.967   1.616
 3850SOL    HW212450   3.427   2.835   1.689
 3851SOL     OW12451   0.035   5.598   2.576
 3851SOL    HW112452   7.003   5.673   2.545
 3851SOL    HW212453   0.124   5.605   2.532
 3852SOL     OW12454   2.921   1.162   5.398
 3852SOL    HW112455   3.020   1.170   5.413
 3852SOL    HW212456   2.877   1.248   5.421
 3853SOL     OW12457   2.373   1.049   3.046
 3853SOL    HW112458   2.426   1.096   3.117
 3853SOL    HW212459   2.433   0.987   2.996
 3854SOL     OW12460   0.397   1.978   1.548
 3854SOL    HW112461   0.429   1.886   1.569
 3854SOL    HW212462   0.376   2.027   1.633
 3855SOL     OW12463   3.023   6.143   6.647
 3855SOL    HW112464   3.118   6.147   6.678
 3855SOL    HW212465   3.013   6.070   6.580
 3856SOL     OW12466   6.464   2.688   6.388
 3856SOL    HW112467   6.485   2.759   6.321
 3856SOL    HW212468   6.399   2.724   6.455
 3857SOL     OW12469   1.238   0.208   6.416
 3857SOL    HW112470   1.177   0.191   6.339
 3857SOL    HW212471   1.261   0.305   6.420
 3858SOL     OW12472   3.877   1.284   5.226
 3858SOL    HW112473   3.827   1.208   5.267
 3858SOL    HW212474   3.970   1.287   5.263
 3859SOL     OW12475   5.551   0.063   2.039
 3859SOL    HW112476   5.650   0.052   2.048
 3859SOL    HW212477   5.505   7.008   2.073
 3860SOL     OW12478   1.603   6.636   4.487
 3860SOL    HW112479   1.506   6.659   4.499
 3860SOL    HW212480   1.648   6.631   4.576
 3861SOL     OW12481   3.033   5.860   2.445
 3861SOL    HW112482   3.077   5.941   2.481
 3861SOL    HW212483   3.038   5.786   2.512
 3862SOL     OW12484   1.546   0.511   4.452
 3862SOL    HW112485   1.620   0.464   4.499
 3862SOL    HW212486   1.571   0.525   4.356
 3863SOL     OW12487   4.219   0.531   0.963
 3863SOL    HW112488   4.194   0.437   0.988
 3863SOL    HW212489   4.137   0.582   0.939
 3864SOL     OW12490   0.870   6.929   4.254
 3864SOL    HW112491   0.923   6.929   4.170
 3864SOL    HW212492   0.920   6.979   4.325
 3865SOL     OW12493   5.122   0.894   0.596
 3865SOL    HW112494   5.167   0.983   0.602
 3865SOL    HW212495   5.190   0.821   0.601
 3866SOL     OW12496   3.475   0.528   6.696
 3866SOL    HW112497   3.393   0.494   6.743
 3866SOL    HW212498   3.473   0.628   6.694
 3867SOL     OW12499   6.174   3.417   2.326
 3867SOL    HW112500   6.266   3.387   2.351
 3867SOL    HW212501   6.138   3.478   2.397
 3868SOL     OW12502   3.805   0.208   0.252
 3868SOL    HW112503   3.894   0.207   0.207
 3868SOL    HW212504   3.818   0.194   0.351
 3869SOL     OW12505   3.565   1.127   4.199
 3869SOL    HW112506   3.570   1.029   4.179
 3869SOL    HW212507   3.606   1.178   4.124
 3870SOL     OW12508   0.176   1.487   5.546
 3870SOL    HW112509   0.208   1.455   5.635
 3870SOL    HW212510   0.243   1.464   5.476
 3871SOL     OW12511   3.018   5.132   3.608
 3871SOL    HW112512   3.017   5.125   3.708
 3871SOL    HW212513   2.936   5.179   3.577
 3872SOL     OW12514   2.942   4.028   5.285
 3872SOL    HW112515   2.914   3.938   5.254
 3872SOL    HW212516   2.864   4.076   5.325
 3873SOL     OW12517   4.795   2.017   6.723
 3873SOL    HW112518   4.866   1.947   6.713
 3873SOL    HW212519   4.784   2.040   6.820
 3874SOL     OW12520   2.138   1.463   1.298
 3874SOL    HW112521   2.189   1.466   1.212
 3874SOL    HW212522   2.202   1.458   1.375
 3875SOL     OW12523   1.162   1.143   6.612
 3875SOL    HW112524   1.169   1.043   6.602
 3875SOL    HW212525   1.067   1.171   6.598
 3876SOL     OW12526   3.741   5.606   2.426
 3876SOL    HW112527   3.718   5.652   2.511
 3876SOL    HW212528   3.701   5.515   2.425
 3877SOL     OW12529   0.875   1.614   5.424
 3877SOL    HW112530   0.867   1.701   5.375
 3877SOL    HW212531   0.842   1.624   5.517
 3878SOL     OW12532   4.950   1.626   4.761
 3878SOL    HW112533   4.896   1.683   4.698
 3878SOL    HW212534   5.001   1.685   4.823
 3879SOL     OW12535   5.290   5.547   6.743
 3879SOL    HW112536   5.213   5.580   6.687
 3879SOL    HW212537   5.306   5.611   6.818
 3880SOL     OW12538   5.189   4.587   4.150
 3880SOL    HW112539   5.092   4.563   4.155
 3880SOL    HW212540   5.212   4.648   4.226
 3881SOL     OW12541   1.475   3.041   0.196
 3881SOL    HW112542   1.477   2.948   0.161
 3881SOL    HW212543   1.565   3.065   0.233
 3882SOL     OW12544   0.470   1.865   5.846
 3882SOL    HW112545   0.402   1.933   5.819
 3882SOL    HW212546   0.442   1.821   5.932
 3883SOL     OW12547   4.493   6.145   4.270
 3883SOL    HW112548   4.552   6.075   4.230
 3883SOL    HW212549   4.397   6.115   4.264
 3884SOL     OW12550   0.260   3.277   2.208
 3884SOL    HW112551   0.217   3.292   2.298
 3884SOL    HW212552   0.315   3.356   2.184
 3885SOL     OW12553   4.321   5.546   1.728
 3885SOL    HW112554   4.310   5.561   1.826
 3885SOL    HW212555   4.418   5.535   1.706
 3886SOL     OW12556   3.030   5.263   6.111
 3886SOL    HW112557   3.032   5.164   6.130
 3886SOL    HW212558   2.976   5.308   6.183
 3887SOL     OW12559   2.096   5.436   2.083
 3887SOL    HW112560   2.000   5.424   2.055
 3887SOL    HW212561   2.137   5.347   2.101
 3888SOL     OW12562   5.284   4.988   3.886
 3888SOL    HW112563   5.226   4.963   3.808
 3888SOL    HW212564   5.319   4.905   3.929
 3889SOL     OW12565   5.666   4.263   0.072
 3889SOL    HW112566   5.721   4.224   7.025
 3889SOL    HW212567   5.726   4.287   0.148
 3890SOL     OW12568   5.546   3.900   3.990
 3890SOL    HW112569   5.459   3.851   3.986
 3890SOL    HW212570   5.567   3.939   3.900
 3891SOL     OW12571   4.763   5.358   3.920
 3891SOL    HW112572   4.743   5.313   4.007
 3891SOL    HW212573   4.681   5.362   3.864
 3892SOL     OW12574   6.759   2.225   1.708
 3892SOL    HW112575   6.663   2.245   1.727
 3892SOL    HW212576   6.810   2.220   1.794
 3893SOL     OW12577   4.103   3.357   3.744
 3893SOL    HW112578   4.074   3.288   3.809
 3893SOL    HW212579   4.126   3.314   3.657
 3894SOL     OW12580   4.501   0.943   5.932
 3894SOL    HW112581   4.589   0.908   5.900
 3894SOL    HW212582   4.490   1.038   5.902
 3895SOL     OW12583   0.305   0.234   3.937
 3895SOL    HW112584   0.217   0.188   3.926
 3895SOL    HW212585   0.301   0.294   4.017
 3896SOL     OW12586   2.017   1.199   6.363
 3896SOL    HW112587   1.979   1.285   6.330
 3896SOL    HW212588   2.108   1.216   6.403
 3897SOL     OW12589   3.322   6.015   1.035
 3897SOL    HW112590   3.376   5.933   1.013
 3897SOL    HW212591   3.265   5.996   1.115
 3898SOL     OW12592   3.680   2.994   1.421
 3898SOL    HW112593   3.596   2.942   1.434
 3898SOL    HW212594   3.743   2.943   1.362
 3899SOL     OW12595   2.892   0.108   5.610
 3899SOL    HW112596   2.946   0.034   5.650
 3899SOL    HW212597   2.948   0.191   5.606
 3900SOL     OW12598   4.444   4.803   2.895
 3900SOL    HW112599   4.492   4.867   2.835
 3900SOL    HW212600   4.346   4.804   2.875
 3901SOL     OW12601   2.847   1.188   6.994
 3901SOL    HW112602   2.855   1.154   6.901
 3901SOL    HW212603   2.927   1.243   7.017
 3902SOL     OW12604   5.259   2.711   2.726
 3902SOL    HW112605   5.186   2.746   2.667
 3902SOL    HW212606   5.241   2.615   2.747
 3903SOL     OW12607   3.463   4.469   6.542
 3903SOL    HW112608   3.474   4.537   6.615
 3903SOL    HW212609   3.386   4.409   6.563
 3904SOL     OW12610   2.051   6.644   0.701
 3904SOL    HW112611   2.001   6.675   0.621
 3904SOL    HW212612   2.089   6.552   0.684
 3905SOL     OW12613   7.022   6.435   5.114
 3905SOL    HW112614   7.012   6.533   5.100
 3905SOL    HW212615   0.088   6.407   5.091
 3906SOL     OW12616   6.905   6.308   5.331
 3906SOL    HW112617   6.973   6.239   5.358
 3906SOL    HW212618   6.948   6.374   5.268
 3907SOL     OW12619   5.541   2.543   3.978
 3907SOL    HW112620   5.531   2.451   4.017
 3907SOL    HW212621   5.609   2.541   3.905
 3908SOL     OW12622   2.684   3.712   5.984
 3908SOL    HW112623   2.743   3.713   5.904
 3908SOL    HW212624   2.736   3.680   6.063
 3909SOL     OW12625   5.517   5.714   3.358
 3909SOL    HW112626   5.500   5.786   3.290
 3909SOL    HW212627   5.571   5.751   3.433
 3910SOL     OW12628   3.925   3.484   2.614
 3910SOL    HW112629   4.020   3.456   2.600
 3910SOL    HW212630   3.866   3.439   2.548
 3911SOL     OW12631   6.108   2.216   5.945
 3911SOL    HW112632   6.119   2.119   5.965
 3911SOL    HW212633   6.198   2.260   5.943
 3912SOL     OW12634   5.466   2.713   5.877
 3912SOL    HW112635   5.441   2.778   5.806
 3912SOL    HW212636   5.423   2.740   5.963
 3913SOL     OW12637   1.403   6.755   1.447
 3913SOL    HW112638   1.421   6.657   1.453
 3913SOL    HW212639   1.478   6.800   1.399
 3914SOL     OW12640   3.006   5.683   5.450
 3914SOL    HW112641   2.907   5.687   5.438
 3914SOL    HW212642   3.042   5.602   5.402
 3915SOL     OW12643   6.362   5.784   1.667
 3915SOL    HW112644   6.439   5.732   1.703
 3915SOL    HW212645   6.290   5.790   1.736
 3916SOL     OW12646   0.171   0.279   3.673
 3916SOL    HW112647   0.183   0.358   3.612
 3916SOL    HW212648   0.252   0.268   3.731
 3917SOL     OW12649   2.711   6.909   6.528
 3917SOL    HW112650   2.803   6.889   6.495
 3917SOL    HW212651   2.673   6.829   6.574
 3918SOL     OW12652   6.014   3.589   6.727
 3918SOL    HW112653   5.942   3.557   6.666
 3918SOL    HW212654   5.989   3.678   6.765
 3919SOL     OW12655   3.200   6.252   0.982
 3919SOL    HW112656   3.249   6.338   0.988
 3919SOL    HW212657   3.264   6.176   0.995
 3920SOL     OW12658   2.338   0.708   6.953
 3920SOL    HW112659   2.246   0.676   6.977
 3920SOL    HW212660   2.377   0.648   6.884
 3921SOL     OW12661   0.893   3.581   1.075
 3921SOL    HW112662   0.931   3.640   1.003
 3921SOL    HW212663   0.798   3.606   1.091
 3922SOL     OW12664   1.198   5.278   1.186
 3922SOL    HW112665   1.264   5.331   1.239
 3922SOL    HW212666   1.122   5.250   1.245
 3923SOL     OW12667   0.057   6.405   0.979
 3923SOL    HW112668   0.050   6.483   1.042
 3923SOL    HW212669   0.024   6.433   0.889
 3924SOL     OW12670   6.561   4.936   4.687
 3924SOL    HW112671   6.477   4.917   4.738
 3924SOL    HW212672   6.583   4.857   4.629
 3925SOL     OW12673   1.202   4.958   1.558
 3925SOL    HW112674   1.127   5.025   1.559
 3925SOL    HW212675   1.256   4.967   1.641
 3926SOL     OW12676   3.406   5.232   2.994
 3926SOL    HW112677   3.504   5.249   2.986
 3926SOL    HW212678   3.384   5.144   2.951
 3927SOL     OW12679   1.995   3.638   6.549
 3927SOL    HW112680   2.083   3.592   6.534
 3927SOL    HW212681   1.921   3.581   6.514
 3928SOL     OW12682   6.037   6.522   6.383
 3928SOL    HW112683   5.954   6.523   6.327
 3928SOL    HW212684   6.109   6.573   6.337
 3929SOL     OW12685   1.127   1.600   4.722
 3929SOL    HW112686   1.159   1.683   4.676
 3929SOL    HW212687   1.178   1.521   4.688
 3930SOL     OW12688   2.776   1.735   3.984
 3930SOL    HW112689   2.706   1.694   4.043
 3930SOL    HW212690   2.736   1.810   3.932
 3931SOL     OW12691   4.385   0.160   2.100
 3931SOL    HW112692   4.339   0.219   2.033
 3931SOL    HW212693   4.318   0.129   2.168
 3932SOL     OW12694   1.941   2.858   3.499
 3932SOL    HW112695   1.852   2.903   3.508
 3932SOL    HW212696   2.014   2.926   3.504
 3933SOL     OW12697   1.912   0.988   6.214
 3933SOL    HW112698   1.953   1.057   6.273
 3933SOL    HW212699   1.898   0.904   6.266
 3934SOL     OW12700   5.283   6.228   0.081
 3934SOL    HW112701   5.383   6.226   0.079
 3934SOL    HW212702   5.251   6.320   0.059
 3935SOL     OW12703   4.886   6.788   1.461
 3935SOL    HW112704   4.911   6.712   1.522
 3935SOL    HW212705   4.954   6.796   1.388
 3936SOL     OW12706   0.472   4.556   2.358
 3936SOL    HW112707   0.415   4.559   2.441
 3936SOL    HW212708   0.420   4.515   2.283
 3937SOL     OW12709   0.004   2.185   2.480
 3937SOL    HW112710   0.080   2.181   2.416
 3937SOL    HW212711   6.951   2.227   2.435
 3938SOL     OW12712   6.492   3.028   3.476
 3938SOL    HW112713   6.474   3.112   3.426
 3938SOL    HW212714   6.407   2.975   3.484
 3939SOL     OW12715   2.013   1.998   1.732
 3939SOL    HW112716   2.084   2.067   1.745
 3939SOL    HW212717   2.048   1.909   1.758
 3940SOL     OW12718   4.303   4.249   1.018
 3940SOL    HW112719   4.366   4.325   1.035
 3940SOL    HW212720   4.253   4.228   1.102
 3941SOL     OW12721   5.474   3.302   0.058
 3941SOL    HW112722   5.376   3.318   0.071
 3941SOL    HW212723   5.494   3.205   0.068
 3942SOL     OW12724   6.643   0.338   0.726
 3942SOL    HW112725   6.666   0.244   0.698
 3942SOL    HW212726   6.607   0.336   0.819
 3943SOL     OW12727   6.562   3.036   5.156
 3943SOL    HW112728   6.657   3.019   5.131
 3943SOL    HW212729   6.534   2.972   5.228
 3944SOL     OW12730   5.436   1.586   4.703
 3944SOL    HW112731   5.434   1.533   4.788
 3944SOL    HW212732   5.520   1.565   4.653
 3945SOL     OW12733   0.162   0.301   1.112
 3945SOL    HW112734   0.092   0.230   1.104
 3945SOL    HW212735   0.126   0.377   1.166
 3946SOL     OW12736   3.751   5.607   3.284
 3946SOL    HW112737   3.685   5.545   3.243
 3946SOL    HW212738   3.752   5.594   3.383
 3947SOL     OW12739   6.898   4.099   5.977
 3947SOL    HW112740   6.844   4.093   5.893
 3947SOL    HW212741   6.888   4.014   6.029
 3948SOL     OW12742   6.720   3.601   0.874
 3948SOL    HW112743   6.773   3.670   0.925
 3948SOL    HW212744   6.644   3.645   0.828
 3949SOL     OW12745   5.434   6.527   3.172
 3949SOL    HW112746   5.344   6.547   3.209
 3949SOL    HW212747   5.495   6.605   3.189
 3950SOL     OW12748   1.806   6.629   0.553
 3950SOL    HW112749   1.738   6.601   0.486
 3950SOL    HW212750   1.775   6.711   0.601
 3951SOL     OW12751   5.592   5.871   1.648
 3951SOL    HW112752   5.510   5.829   1.688
 3951SOL    HW212753   5.648   5.800   1.606
 3952SOL     OW12754   5.977   1.674   6.129
 3952SOL    HW112755   5.879   1.658   6.127
 3952SOL    HW212756   6.022   1.602   6.182
 3953SOL     OW12757   3.166   3.924   2.672
 3953SOL    HW112758   3.147   3.933   2.574
 3953SOL    HW212759   3.086   3.884   2.717
 3954SOL     OW12760   4.047   4.664   5.685
 3954SOL    HW112761   4.113   4.706   5.748
 3954SOL    HW212762   3.998   4.591   5.733
 3955SOL     OW12763   3.653   1.506   4.983
 3955SOL    HW112764   3.620   1.573   4.916
 3955SOL    HW212765   3.703   1.553   5.055
 3956SOL     OW12766   1.983   1.580   0.923
 3956SOL    HW112767   1.953   1.674   0.937
 3956SOL    HW212768   2.061   1.560   0.982
 3957SOL     OW12769   3.731   1.106   3.816
 3957SOL    HW112770   3.709   1.169   3.890
 3957SOL    HW212771   3.685   1.019   3.831
 3958SOL     OW12772   5.634   6.411   6.004
 3958SOL    HW112773   5.670   6.414   6.097
 3958SOL    HW212774   5.709   6.417   5.939
 3959SOL     OW12775   5.455   5.272   6.303
 3959SOL    HW112776   5.541   5.280   6.252
 3959SOL    HW212777   5.417   5.181   6.289
 3960SOL     OW12778   6.219   2.317   4.897
 3960SOL    HW112779   6.158   2.311   4.818
 3960SOL    HW212780   6.165   2.324   4.981
 3961SOL     OW12781   5.231   0.047   4.364
 3961SOL    HW112782   5.155   0.018   4.306
 3961SOL    HW212783   5.316   0.005   4.331
 3962SOL     OW12784   6.319   5.149   5.107
 3962SOL    HW112785   6.360   5.155   5.016
 3962SOL    HW212786   6.224   5.181   5.103
 3963SOL     OW12787   4.377   0.076   2.472
 3963SOL    HW112788   4.364   0.098   2.569
 3963SOL    HW212789   4.463   0.026   2.460
 3964SOL     OW12790   5.313   2.966   3.738
 3964SOL    HW112791   5.241   2.952   3.805
 3964SOL    HW212792   5.298   2.904   3.660
 3965SOL     OW12793   5.112   4.286   4.577
 3965SOL    HW112794   5.103   4.379   4.542
 3965SOL    HW212795   5.121   4.222   4.501
 3966SOL     OW12796   2.359   6.416   6.486
 3966SOL    HW112797   2.442   6.361   6.481
 3966SOL    HW212798   2.344   6.446   6.580
 3967SOL     OW12799   1.594   3.920   3.797
 3967SOL    HW112800   1.571   3.995   3.735
 3967SOL    HW212801   1.624   3.841   3.744
 3968SOL     OW12802   3.565   0.221   0.595
 3968SOL    HW112803   3.541   0.176   0.682
 3968SOL    HW212804   3.575   0.152   0.524
 3969SOL     OW12805   0.042   4.665   3.284
 3969SOL    HW112806   6.981   4.670   3.236
 3969SOL    HW212807   0.062   4.570   3.307
 3970SOL     OW12808   4.744   5.834   1.808
 3970SOL    HW112809   4.761   5.802   1.715
 3970SOL    HW212810   4.695   5.763   1.860
 3971SOL     OW12811   1.614   6.044   3.957
 3971SOL    HW112812   1.541   5.997   4.007
 3971SOL    HW212813   1.660   5.978   3.897
 3972SOL     OW12814   1.601   3.336   0.351
 3972SOL    HW112815   1.561   3.424   0.375
 3972SOL    HW212816   1.690   3.350   0.308
 3973SOL     OW12817   1.727   4.712   0.583
 3973SOL    HW112818   1.631   4.687   0.573
 3973SOL    HW212819   1.764   4.738   0.494
 3974SOL     OW12820   2.810   0.925   5.373
 3974SOL    HW112821   2.849   1.017   5.372
 3974SOL    HW212822   2.748   0.916   5.451
 3975SOL     OW12823   6.176   3.190   0.002
 3975SOL    HW112824   6.172   3.290   0.008
 3975SOL    HW212825   6.271   3.161   0.010
 3976SOL     OW12826   1.787   4.010   2.798
 3976SOL    HW112827   1.791   4.073   2.875
 3976SOL    HW212828   1.762   3.919   2.831
 3977SOL     OW12829   0.886   2.964   0.026
 3977SOL    HW112830   0.846   2.905   0.096
 3977SOL    HW212831   0.836   2.952   6.967
 3978SOL     OW12832   6.229   4.489   3.966
 3978SOL    HW112833   6.209   4.516   3.872
 3978SOL    HW212834   6.317   4.442   3.970
 3979SOL     OW12835   4.566   5.844   6.111
 3979SOL    HW112836   4.648   5.886   6.150
 3979SOL    HW212837   4.488   5.862   6.171
 3980SOL     OW12838   5.846   5.131   5.958
 3980SOL    HW112839   5.936   5.151   5.917
 3980SOL    HW212840   5.839   5.033   5.976
 3981SOL     OW12841   4.818   5.587   6.868
 3981SOL    HW112842   4.745   5.653   6.850
 3981SOL    HW212843   4.835   5.581   6.966
 3982SOL     OW12844   2.630   6.230   2.915
 3982SOL    HW112845   2.710   6.289   2.906
 3982SOL    HW212846   2.547   6.285   2.908
 3983SOL     OW12847   3.365   5.805   4.415
 3983SOL    HW112848   3.309   5.795   4.333
 3983SOL    HW212849   3.454   5.844   4.390
 3984SOL     OW12850   6.793   3.250   3.203
 3984SOL    HW112851   6.842   3.202   3.275
 3984SOL    HW212852   6.844   3.243   3.117
 3985SOL     OW12853   4.125   5.264   6.485
 3985SOL    HW112854   4.176   5.240   6.568
 3985SOL    HW212855   4.189   5.275   6.409
 3986SOL     OW12856   5.262   0.694   2.778
 3986SOL    HW112857   5.300   0.687   2.870
 3986SOL    HW212858   5.226   0.787   2.765
 3987SOL     OW12859   3.812   5.323   5.685
 3987SOL    HW112860   3.845   5.235   5.650
 3987SOL    HW212861   3.808   5.320   5.784
 3988SOL     OW12862   4.698   5.732   0.601
 3988SOL    HW112863   4.639   5.669   0.650
 3988SOL    HW212864   4.782   5.685   0.572
 3989SOL     OW12865   6.333   2.906   1.201
 3989SOL    HW112866   6.257   2.941   1.146
 3989SOL    HW212867   6.413   2.894   1.144
 3990SOL     OW12868   0.107   1.516   1.941
 3990SOL    HW112869   0.149   1.596   1.984
 3990SOL    HW212870   0.161   1.435   1.962
 3991SOL     OW12871   5.730   1.245   2.988
 3991SOL    HW112872   5.822   1.260   2.951
 3991SOL    HW212873   5.705   1.149   2.976
 3992SOL     OW12874   4.169   1.951   1.662
 3992SOL    HW112875   4.094   1.905   1.614
 3992SOL    HW212876   4.251   1.894   1.657
 3993SOL     OW12877   0.782   3.337   1.719
 3993SOL    HW112878   0.698   3.389   1.735
 3993SOL    HW212879   0.765   3.267   1.649
 3994SOL     OW12880   2.499   5.657   4.587
 3994SOL    HW112881   2.401   5.647   4.567
 3994SOL    HW212882   2.551   5.596   4.528
 3995SOL     OW12883   1.772   2.393   4.266
 3995SOL    HW112884   1.855   2.440   4.293
 3995SOL    HW212885   1.745   2.328   4.338
 3996SOL     OW12886   0.130   5.825   4.582
 3996SOL    HW112887   0.071   5.875   4.519
 3996SOL    HW212888   0.225   5.855   4.570
 3997SOL     OW12889   3.186   1.523   3.267
 3997SOL    HW112890   3.203   1.426   3.286
 3997SOL    HW212891   3.142   1.566   3.346
 3998SOL     OW12892   4.472   2.500   2.974
 3998SOL    HW112893   4.534   2.421   2.977
 3998SOL    HW212894   4.378   2.468   2.975
 3999SOL     OW12895   4.888   1.827   4.312
 3999SOL    HW112896   4.806   1.863   4.268
 3999SOL    HW212897   4.916   1.889   4.385
 4000SOL     OW12898   3.861   6.074   4.325
 4000SOL    HW112899   3.940   6.012   4.318
 4000SOL    HW212900   3.846   6.120   4.237
 4001SOL     OW12901   0.729   1.545   4.257
 4001SOL    HW112902   0.697   1.452   4.275
 4001SOL    HW212903   0.691   1.607   4.326
 4002SOL     OW12904   1.697   4.379   1.296
 4002SOL    HW112905   1.643   4.298   1.272
 4002SOL    HW212906   1.787   4.371   1.254
 4003SOL     OW12907   4.054   2.157   5.089
 4003SOL    HW112908   4.096   2.247   5.076
 4003SOL    HW212909   3.957   2.162   5.068
 4004SOL     OW12910   6.822   1.526   6.089
 4004SOL    HW112911   6.869   1.549   6.175
 4004SOL    HW212912   6.839   1.598   6.022
 4005SOL     OW12913   6.437   4.502   4.633
 4005SOL    HW112914   6.411   4.585   4.682
 4005SOL    HW212915   6.511   4.456   4.681
 4006SOL     OW12916   3.339   6.427   2.973
 4006SOL    HW112917   3.415   6.362   2.969
 4006SOL    HW212918   3.284   6.409   3.054
 4007SOL     OW12919   0.587   1.431   5.780
 4007SOL    HW112920   0.580   1.390   5.689
 4007SOL    HW212921   0.672   1.483   5.786
 4008SOL     OW12922   3.101   1.397   5.557
 4008SOL    HW112923   3.136   1.332   5.490
 4008SOL    HW212924   3.164   1.476   5.563
 4009SOL     OW12925   3.498   3.808   2.679
 4009SOL    HW112926   3.514   3.757   2.764
 4009SOL    HW212927   3.400   3.805   2.658
 4010SOL     OW12928   1.088   3.144   0.087
 4010SOL    HW112929   1.014   3.080   0.066
 4010SOL    HW212930   1.135   3.171   0.003
 4011SOL     OW12931   0.356   2.269   0.788
 4011SOL    HW112932   0.289   2.195   0.785
 4011SOL    HW212933   0.309   2.356   0.804
 4012SOL     OW12934   5.563   3.255   3.237
 4012SOL    HW112935   5.650   3.290   3.273
 4012SOL    HW212936   5.566   3.259   3.137
 4013SOL     OW12937   5.098   2.776   3.021
 4013SOL    HW112938   5.170   2.743   2.960
 4013SOL    HW212939   5.114   2.872   3.043
 4014SOL     OW12940   5.364   5.329   2.020
 4014SOL    HW112941   5.413   5.406   1.979
 4014SOL    HW212942   5.347   5.259   1.951
 4015SOL     OW12943   4.759   3.560   0.025
 4015SOL    HW112944   4.686   3.511   0.073
 4015SOL    HW212945   4.770   3.522   6.960
 4016SOL     OW12946   3.029   5.965   4.286
 4016SOL    HW112947   3.044   6.061   4.262
 4016SOL    HW212948   2.991   5.959   4.378
 4017SOL     OW12949   6.120   6.464   6.026
 4017SOL    HW112950   6.124   6.554   6.069
 4017SOL    HW212951   6.027   6.444   5.996
 4018SOL     OW12952   2.091   0.359   6.841
 4018SOL    HW112953   2.034   0.288   6.881
 4018SOL    HW212954   2.176   0.318   6.807
 4019SOL     OW12955   5.516   5.737   3.785
 4019SOL    HW112956   5.451   5.744   3.860
 4019SOL    HW212957   5.476   5.684   3.711
 4020SOL     OW12958   5.484   2.037   5.003
 4020SOL    HW112959   5.453   2.124   5.041
 4020SOL    HW212960   5.422   2.009   4.929
 4021SOL     OW12961   5.226   3.772   0.162
 4021SOL    HW112962   5.243   3.688   0.214
 4021SOL    HW212963   5.310   3.826   0.158
 4022SOL     OW12964   5.590   0.700   0.739
 4022SOL    HW112965   5.617   0.606   0.758
 4022SOL    HW212966   5.672   0.756   0.727
 4023SOL     OW12967   6.427   6.312   5.659
 4023SOL    HW112968   6.437   6.351   5.751
 4023SOL    HW212969   6.465   6.219   5.658
 4024SOL     OW12970   4.597   4.491   5.123
 4024SOL    HW112971   4.600   4.451   5.215
 4024SOL    HW212972   4.502   4.515   5.101
 4025SOL     OW12973   0.959   3.925   4.118
 4025SOL    HW112974   0.911   3.840   4.097
 4025SOL    HW212975   0.922   3.999   4.061
 4026SOL     OW12976   5.571   0.708   5.464
 4026SOL    HW112977   5.613   0.655   5.538
 4026SOL    HW212978   5.475   0.682   5.454
 4027SOL     OW12979   3.137   5.218   2.460
 4027SOL    HW112980   3.084   5.141   2.497
 4027SOL    HW212981   3.089   5.304   2.479
 4028SOL     OW12982   1.824   5.387   2.994
 4028SOL    HW112983   1.856   5.474   3.032
 4028SOL    HW212984   1.728   5.373   3.019
 4029SOL     OW12985   1.890   3.971   3.379
 4029SOL    HW112986   1.895   3.877   3.413
 4029SOL    HW212987   1.803   3.984   3.331
 4030SOL     OW12988   1.778   1.484   6.536
 4030SOL    HW112989   1.731   1.499   6.449
 4030SOL    HW212990   1.861   1.539   6.539
 4031SOL     OW12991   6.543   6.013   4.209
 4031SOL    HW112992   6.461   5.992   4.155
 4031SOL    HW212993   6.577   5.930   4.251
 4032SOL     OW12994   3.423   6.820   4.772
 4032SOL    HW112995   3.366   6.879   4.828
 4032SOL    HW212996   3.513   6.809   4.815
 4033SOL     OW12997   3.863   3.688   6.240
 4033SOL    HW112998   3.950   3.675   6.288
 4033SOL    HW212999   3.811   3.761   6.284
 4034SOL     OW13000   5.793   3.308   4.857
 4034SOL    HW113001   5.838   3.226   4.893
 4034SOL    HW213002   5.861   3.377   4.835
 4035SOL     OW13003   0.149   6.292   2.035
 4035SOL    HW113004   0.192   6.270   2.122
 4035SOL    HW213005   0.215   6.279   1.961
 4036SOL     OW13006   6.062   5.822   1.596
 4036SOL    HW113007   6.118   5.789   1.520
 4036SOL    HW213008   6.043   5.745   1.658
 4037SOL     OW13009   0.443   3.664   6.529
 4037SOL    HW113010   0.527   3.699   6.571
 4037SOL    HW213011   0.366   3.722   6.555
 4038SOL     OW13012   6.046   5.258   3.259
 4038SOL    HW113013   6.004   5.303   3.338
 4038SOL    HW213014   6.127   5.208   3.289
 4039SOL     OW13015   2.276   5.184   1.066
 4039SOL    HW113016   2.228   5.221   1.145
 4039SOL    HW213017   2.374   5.180   1.085
 4040SOL     OW13018   3.123   6.675   0.038
 4040SOL    HW113019   3.069   6.757   0.058
 4040SOL    HW213020   3.110   6.608   0.111
 4041SOL     OW13021   0.650   6.037   3.131
 4041SOL    HW113022   0.643   5.941   3.158
 4041SOL    HW213023   0.714   6.084   3.192
 4042SOL     OW13024   5.884   5.992   2.011
 4042SOL    HW113025   5.849   5.917   2.068
 4042SOL    HW213026   5.964   5.961   1.960
 4043SOL     OW13027   6.759   3.349   0.950
 4043SOL    HW113028   6.812   3.368   1.033
 4043SOL    HW213029   6.727   3.435   0.911
 4044SOL     OW13030   6.040   5.133   2.430
 4044SOL    HW113031   5.992   5.140   2.343
 4044SOL    HW213032   5.995   5.192   2.498
 4045SOL     OW13033   2.648   4.576   5.928
 4045SOL    HW113034   2.603   4.614   6.009
 4045SOL    HW213035   2.702   4.496   5.955
 4046SOL     OW13036   0.562   3.291   0.646
 4046SOL    HW113037   0.618   3.291   0.729
 4046SOL    HW213038   0.517   3.203   0.636
 4047SOL     OW13039   2.971   3.300   3.187
 4047SOL    HW113040   3.055   3.272   3.140
 4047SOL    HW213041   2.903   3.227   3.178
 4048SOL     OW13042   4.513   2.496   0.440
 4048SOL    HW113043   4.454   2.493   0.521
 4048SOL    HW213044   4.537   2.591   0.420
 4049SOL     OW13045   6.872   6.801   6.810
 4049SOL    HW113046   6.946   6.868   6.815
 4049SOL    HW213047   6.787   6.841   6.842
 4050SOL     OW13048   2.519   0.911   2.808
 4050SOL    HW113049   2.609   0.869   2.816
 4050SOL    HW213050   2.529   1.011   2.811
 4051SOL     OW13051   2.581   3.336   0.959
 4051SOL    HW113052   2.626   3.423   0.981
 4051SOL    HW213053   2.525   3.347   0.877
 4052SOL     OW13054   1.791   0.297   1.017
 4052SOL    HW113055   1.692   0.283   1.012
 4052SOL    HW213056   1.812   0.355   1.095
 4053SOL     OW13057   2.881   5.393   2.496
 4053SOL    HW113058   2.870   5.479   2.546
 4053SOL    HW213059   2.793   5.346   2.491
 4054SOL     OW13060   5.502   1.487   6.583
 4054SOL    HW113061   5.459   1.567   6.541
 4054SOL    HW213062   5.491   1.408   6.523
 4055SOL     OW13063   4.723   3.563   0.417
 4055SOL    HW113064   4.764   3.472   0.425
 4055SOL    HW213065   4.725   3.592   0.321
 4056SOL     OW13066   4.612   2.933   6.867
 4056SOL    HW113067   4.569   2.871   6.933
 4056SOL    HW213068   4.699   2.894   6.836
 4057SOL     OW13069   5.903   2.503   0.892
 4057SOL    HW113070   5.842   2.428   0.915
 4057SOL    HW213071   5.957   2.479   0.811
 4058SOL     OW13072   1.080   3.129   3.997
 4058SOL    HW113073   1.161   3.168   4.041
 4058SOL    HW213074   1.054   3.044   4.044
 4059SOL     OW13075   0.018   1.783   4.721
 4059SOL    HW113076   0.052   1.816   4.810
 4059SOL    HW213077   7.017   1.687   4.730
 4060SOL     OW13078   2.695   6.775   5.623
 4060SOL    HW113079   2.792   6.793   5.637
 4060SOL    HW213080   2.683   6.705   5.553
 4061SOL     OW13081   2.242   2.788   1.269
 4061SOL    HW113082   2.227   2.716   1.337
 4061SOL    HW213083   2.195   2.763   1.184
 4062SOL     OW13084   2.770   0.081   2.806
 4062SOL    HW113085   2.695   0.030   2.848
 4062SOL    HW213086   2.848   0.086   2.869
 4063SOL     OW13087   3.138   6.003   5.980
 4063SOL    HW113088   3.088   6.012   6.067
 4063SOL    HW213089   3.194   5.920   5.983
 4064SOL     OW13090   6.441   6.795   4.791
 4064SOL    HW113091   6.363   6.762   4.844
 4064SOL    HW213092   6.409   6.858   4.721
 4065SOL     OW13093   1.398   4.249   5.632
 4065SOL    HW113094   1.474   4.239   5.696
 4065SOL    HW213095   1.351   4.162   5.622
 4066SOL     OW13096   4.589   5.457   1.729
 4066SOL    HW113097   4.561   5.364   1.751
 4066SOL    HW213098   4.615   5.505   1.812
 4067SOL     OW13099   5.723   0.538   1.160
 4067SOL    HW113100   5.624   0.527   1.168
 4067SOL    HW213101   5.766   0.447   1.158
 4068SOL     OW13102   4.989   0.529   4.664
 4068SOL    HW113103   4.964   0.617   4.623
 4068SOL    HW213104   4.999   0.460   4.591
 4069SOL     OW13105   6.640   6.508   0.525
 4069SOL    HW113106   6.686   6.440   0.468
 4069SOL    HW213107   6.616   6.588   0.469
 4070SOL     OW13108   6.721   3.719   2.569
 4070SOL    HW113109   6.706   3.709   2.667
 4070SOL    HW213110   6.657   3.786   2.532
 4071SOL     OW13111   2.562   0.479   4.654
 4071SOL    HW113112   2.647   0.472   4.706
 4071SOL    HW213113   2.527   0.573   4.661
 4072SOL     OW13114   0.570   0.383   4.370
 4072SOL    HW113115   0.522   0.307   4.327
 4072SOL    HW213116   0.669   0.371   4.360
 4073SOL     OW13117   2.644   4.686   2.161
 4073SOL    HW113118   2.573   4.642   2.106
 4073SOL    HW213119   2.732   4.677   2.115
 4074SOL     OW13120   0.231   2.868   0.770
 4074SOL    HW113121   0.271   2.797   0.712
 4074SOL    HW213122   0.193   2.826   0.852
 4075SOL     OW13123   6.257   0.392   3.361
 4075SOL    HW113124   6.254   0.481   3.406
 4075SOL    HW213125   6.220   0.322   3.422
 4076SOL     OW13126   1.843   3.231   3.380
 4076SOL    HW113127   1.758   3.193   3.343
 4076SOL    HW213128   1.918   3.212   3.317
 4077SOL     OW13129   3.391   1.036   1.321
 4077SOL    HW113130   3.443   0.996   1.245
 4077SOL    HW213131   3.448   1.039   1.403
 4078SOL     OW13132   4.656   5.038   3.247
 4078SOL    HW113133   4.671   4.971   3.174
 4078SOL    HW213134   4.568   5.085   3.232
 4079SOL     OW13135   4.768   1.052   3.713
 4079SOL    HW113136   4.822   1.133   3.735
 4079SOL    HW213137   4.802   1.011   3.629
 4080SOL     OW13138   3.309   4.134   4.669
 4080SOL    HW113139   3.403   4.101   4.664
 4080SOL    HW213140   3.303   4.207   4.736
 4081SOL     OW13141   2.370   0.255   0.034
 4081SOL    HW113142   2.391   0.288   6.968
 4081SOL    HW213143   2.394   0.158   0.040
 4082SOL     OW13144   1.369   1.301   5.757
 4082SOL    HW113145   1.419   1.262   5.680
 4082SOL    HW213146   1.316   1.380   5.725
 4083SOL     OW13147   6.293   5.073   2.380
 4083SOL    HW113148   6.304   4.995   2.319
 4083SOL    HW213149   6.196   5.082   2.405
 4084SOL     OW13150   4.239   6.686   2.482
 4084SOL    HW113151   4.330   6.728   2.485
 4084SOL    HW213152   4.180   6.729   2.550
 4085SOL     OW13153   2.013   4.049   2.646
 4085SOL    HW113154   2.018   4.148   2.648
 4085SOL    HW213155   1.927   4.019   2.689
 4086SOL     OW13156   5.418   5.050   4.932
 4086SOL    HW113157   5.477   5.049   4.852
 4086SOL    HW213158   5.344   5.116   4.918
 4087SOL     OW13159   1.585   0.853   1.782
 4087SOL    HW113160   1.684   0.836   1.786
 4087SOL    HW213161   1.552   0.837   1.689
 4088SOL     OW13162   6.962   2.194   5.492
 4088SOL    HW113163   6.955   2.113   5.434
 4088SOL    HW213164   6.966   2.165   5.588
 4089SOL     OW13165   0.038   6.793   2.693
 4089SOL    HW113166   6.977   6.841   2.686
 4089SOL    HW213167   0.086   6.824   2.776
 4090SOL     OW13168   3.474   2.432   5.434
 4090SOL    HW113169   3.557   2.375   5.426
 4090SOL    HW213170   3.393   2.373   5.429
 4091SOL     OW13171   3.894   6.606   2.700
 4091SOL    HW113172   3.910   6.508   2.708
 4091SOL    HW213173   3.798   6.626   2.715
 4092SOL     OW13174   5.041   1.982   6.417
 4092SOL    HW113175   5.082   2.041   6.348
 4092SOL    HW213176   5.113   1.932   6.466
 4093SOL     OW13177   5.603   4.176   2.393
 4093SOL    HW113178   5.583   4.262   2.441
 4093SOL    HW213179   5.597   4.191   2.295
 4094SOL     OW13180   6.619   6.579   0.214
 4094SOL    HW113181   6.656   6.585   0.121
 4094SOL    HW213182   6.635   6.488   0.251
 4095SOL     OW13183   1.330   5.156   0.647
 4095SOL    HW113184   1.401   5.141   0.717
 4095SOL    HW213185   1.304   5.252   0.647
 4096SOL     OW13186   0.735   6.460   5.887
 4096SOL    HW113187   0.793   6.379   5.896
 4096SOL    HW213188   0.771   6.519   5.815
 4097SOL     OW13189   1.397   3.941   5.580
 4097SOL    HW113190   1.474   3.898   5.626
 4097SOL    HW213191   1.316   3.882   5.587
 4098SOL     OW13192   1.191   6.050   1.864
 4098SOL    HW113193   1.200   6.042   1.964
 4098SOL    HW213194   1.126   6.123   1.843
 4099SOL     OW13195   0.115   2.500   5.920
 4099SOL    HW113196   0.040   2.444   5.956
 4099SOL    HW213197   0.145   2.563   5.992
 4100SOL     OW13198   2.505   0.972   3.768
 4100SOL    HW113199   2.442   0.927   3.705
 4100SOL    HW213200   2.599   0.951   3.743
 4101SOL     OW13201   6.305   6.365   6.205
 4101SOL    HW113202   6.277   6.269   6.204
 4101SOL    HW213203   6.255   6.414   6.134
 4102SOL     OW13204   2.590   5.076   0.620
 4102SOL    HW113205   2.601   5.009   0.693
 4102SOL    HW213206   2.517   5.048   0.559
 4103SOL     OW13207   2.469   5.051   3.098
 4103SOL    HW113208   2.395   5.116   3.112
 4103SOL    HW213209   2.555   5.091   3.129
 4104SOL     OW13210   2.521   5.740   5.765
 4104SOL    HW113211   2.450   5.805   5.739
 4104SOL    HW213212   2.479   5.654   5.794
 4105SOL     OW13213   3.582   0.074   1.651
 4105SOL    HW113214   3.643   0.004   1.613
 4105SOL    HW213215   3.527   0.034   1.724
 4106SOL     OW13216   1.723   6.870   3.147
 4106SOL    HW113217   1.778   6.870   3.231
 4106SOL    HW213218   1.758   6.800   3.085
 4107SOL     OW13219   2.029   1.901   0.724
 4107SOL    HW113220   2.010   1.959   0.645
 4107SOL    HW213221   2.048   1.808   0.693
 4108SOL     OW13222   0.682   5.781   5.120
 4108SOL    HW113223   0.772   5.791   5.079
 4108SOL    HW213224   0.620   5.851   5.084
 4109SOL     OW13225   5.103   0.563   4.943
 4109SOL    HW113226   5.066   0.616   4.867
 4109SOL    HW213227   5.185   0.514   4.912
 4110SOL     OW13228   4.769   2.649   0.711
 4110SOL    HW113229   4.737   2.677   0.621
 4110SOL    HW213230   4.773   2.549   0.716
 4111SOL     OW13231   6.521   4.917   3.571
 4111SOL    HW113232   6.459   4.965   3.509
 4111SOL    HW213233   6.602   4.886   3.521
 4112SOL     OW13234   4.002   5.719   6.021
 4112SOL    HW113235   4.064   5.644   6.001
 4112SOL    HW213236   3.908   5.685   6.028
 4113SOL     OW13237   5.144   5.869   5.571
 4113SOL    HW113238   5.052   5.899   5.596
 4113SOL    HW213239   5.211   5.916   5.629
 4114SOL     OW13240   6.674   1.752   3.328
 4114SOL    HW113241   6.699   1.807   3.248
 4114SOL    HW213242   6.629   1.810   3.396
 4115SOL     OW13243   3.949   6.418   4.837
 4115SOL    HW113244   4.005   6.336   4.827
 4115SOL    HW213245   3.949   6.469   4.751
 4116SOL     OW13246   6.598   4.156   3.489
 4116SOL    HW113247   6.592   4.165   3.588
 4116SOL    HW213248   6.673   4.213   3.455
 4117SOL     OW13249   0.055   2.398   2.682
 4117SOL    HW113250   6.991   2.408   2.723
 4117SOL    HW213251   0.055   2.318   2.622
 4118SOL     OW13252   1.247   0.510   2.172
 4118SOL    HW113253   1.249   0.431   2.112
 4118SOL    HW213254   1.295   0.489   2.257
 4119SOL     OW13255   6.599   1.013   4.790
 4119SOL    HW113256   6.542   0.998   4.871
 4119SOL    HW213257   6.628   0.925   4.753
 4120SOL     OW13258   1.478   0.752   6.686
 4120SOL    HW113259   1.401   0.689   6.674
 4120SOL    HW213260   1.486   0.778   6.782
 4121SOL     OW13261   6.577   0.382   1.247
 4121SOL    HW113262   6.632   0.299   1.241
 4121SOL    HW213263   6.480   0.357   1.255
 4122SOL     OW13264   1.197   4.351   3.804
 4122SOL    HW113265   1.183   4.432   3.748
 4122SOL    HW213266   1.169   4.370   3.898
 4123SOL     OW13267   5.866   4.488   1.937
 4123SOL    HW113268   5.767   4.491   1.955
 4123SOL    HW213269   5.916   4.514   2.020
 4124SOL     OW13270   5.980   6.526   0.205
 4124SOL    HW113271   5.994   6.427   0.198
 4124SOL    HW213272   6.037   6.562   0.278
 4125SOL     OW13273   0.295   3.000   0.309
 4125SOL    HW113274   0.222   3.047   0.359
 4125SOL    HW213275   0.275   3.001   0.211
 4126SOL     OW13276   1.591   4.150   3.611
 4126SOL    HW113277   1.689   4.164   3.596
 4126SOL    HW213278   1.539   4.211   3.551
 4127SOL     OW13279   4.744   2.625   4.225
 4127SOL    HW113280   4.727   2.679   4.143
 4127SOL    HW213281   4.825   2.661   4.272
 4128SOL     OW13282   5.863   2.769   6.351
 4128SOL    HW113283   5.914   2.743   6.269
 4128SOL    HW213284   5.923   2.816   6.415
 4129SOL     OW13285   3.151   0.032   2.176
 4129SOL    HW113286   3.123   6.972   2.134
 4129SOL    HW213287   3.233   0.017   2.231
 4130SOL     OW13288   5.065   1.303   0.334
 4130SOL    HW113289   5.080   1.369   0.408
 4130SOL    HW213290   5.042   1.214   0.374
 4131SOL     OW13291   5.078   6.585   3.743
 4131SOL    HW113292   5.125   6.565   3.830
 4131SOL    HW213293   5.096   6.511   3.679
 4132SOL     OW13294   6.502   3.821   2.372
 4132SOL    HW113295   6.592   3.799   2.336
 4132SOL    HW213296   6.442   3.852   2.298
 4133SOL     OW13297   5.610   6.397   3.401
 4133SOL    HW113298   5.674   6.419   3.327
 4133SOL    HW213299   5.551   6.477   3.418
 4134SOL     OW13300   1.533   2.644   1.263
 4134SOL    HW113301   1.477   2.566   1.236
 4134SOL    HW213302   1.585   2.620   1.345
 4135SOL     OW13303   5.941   1.155   0.738
 4135SOL    HW113304   5.872   1.161   0.666
 4135SOL    HW213305   5.946   1.241   0.787
 4136SOL     OW13306   0.461   4.627   0.195
 4136SOL    HW113307   0.538   4.569   0.168
 4136SOL    HW213308   0.473   4.657   0.289
 4137SOL     OW13309   0.192   2.307   5.391
 4137SOL    HW113310   0.112   2.272   5.440
 4137SOL    HW213311   0.168   2.393   5.345
 4138SOL     OW13312   6.151   6.711   6.152
 4138SOL    HW113313   6.138   6.792   6.096
 4138SOL    HW213314   6.229   6.724   6.213
 4139SOL     OW13315   1.441   3.973   2.330
 4139SOL    HW113316   1.483   4.051   2.283
 4139SOL    HW213317   1.473   3.969   2.424
 4140SOL     OW13318   2.427   6.408   0.292
 4140SOL    HW113319   2.434   6.495   0.339
 4140SOL    HW213320   2.352   6.412   0.226
 4141SOL     OW13321   5.053   0.467   5.981
 4141SOL    HW113322   5.098   0.557   5.984
 4141SOL    HW213323   5.037   0.435   6.074
 4142SOL     OW13324   0.079   6.566   1.735
 4142SOL    HW113325   0.064   6.609   1.824
 4142SOL    HW213326   0.164   6.600   1.696
 4143SOL     OW13327   6.478   3.336   6.275
 4143SOL    HW113328   6.395   3.376   6.238
 4143SOL    HW213329   6.463   3.311   6.371
 4144SOL     OW13330   4.918   0.919   1.886
 4144SOL    HW113331   4.831   0.943   1.929
 4144SOL    HW213332   4.910   0.933   1.787
 4145SOL     OW13333   4.788   0.984   1.310
 4145SOL    HW113334   4.760   0.888   1.311
 4145SOL    HW213335   4.730   1.036   1.373
 4146SOL     OW13336   3.279   1.128   2.478
 4146SOL    HW113337   3.184   1.148   2.504
 4146SOL    HW213338   3.305   1.188   2.402
 4147SOL     OW13339   4.855   3.776   6.708
 4147SOL    HW113340   4.762   3.787   6.673
 4147SOL    HW213341   4.920   3.780   6.631
 4148SOL     OW13342   3.276   1.057   6.149
 4148SOL    HW113343   3.205   1.073   6.081
 4148SOL    HW213344   3.297   0.960   6.152
 4149SOL     OW13345   1.499   2.828   0.018
 4149SOL    HW113346   1.475   2.746   0.069
 4149SOL    HW213347   1.596   2.849   0.030
 4150SOL     OW13348   7.005   1.236   1.000
 4150SOL    HW113349   6.910   1.208   0.985
 4150SOL    HW213350   7.008   1.303   1.074
 4151SOL     OW13351   2.883   5.454   4.785
 4151SOL    HW113352   2.840   5.438   4.873
 4151SOL    HW213353   2.922   5.546   4.782
 4152SOL     OW13354   2.479   3.918   1.691
 4152SOL    HW113355   2.460   4.000   1.745
 4152SOL    HW213356   2.461   3.936   1.594
 4153SOL     OW13357   6.572   6.293   0.704
 4153SOL    HW113358   6.564   6.366   0.637
 4153SOL    HW213359   6.571   6.331   0.796
 4154SOL     OW13360   0.426   6.596   4.071
 4154SOL    HW113361   0.466   6.516   4.026
 4154SOL    HW213362   0.388   6.569   4.159
 4155SOL     OW13363   5.627   1.879   2.125
 4155SOL    HW113364   5.586   1.912   2.040
 4155SOL    HW213365   5.629   1.779   2.125
 4156SOL     OW13366   1.141   5.252   5.691
 4156SOL    HW113367   1.208   5.201   5.746
 4156SOL    HW213368   1.167   5.348   5.688
 4157SOL     OW13369   5.064   6.409   0.549
 4157SOL    HW113370   5.052   6.428   0.646
 4157SOL    HW213371   5.002   6.335   0.521
 4158SOL     OW13372   6.174   1.448   6.705
 4158SOL    HW113373   6.153   1.503   6.625
 4158SOL    HW213374   6.138   1.355   6.692
 4159SOL     OW13375   3.004   0.522   4.922
 4159SOL    HW113376   3.015   0.466   5.004
 4159SOL    HW213377   2.998   0.618   4.949
 4160SOL     OW13378   1.378   0.019   6.134
 4160SOL    HW113379   1.436   0.094   6.164
 4160SOL    HW213380   1.429   6.987   6.072
 4161SOL     OW13381   3.483   3.472   4.791
 4161SOL    HW113382   3.576   3.507   4.795
 4161SOL    HW213383   3.447   3.460   4.884
 4162SOL     OW13384   4.391   6.089   1.283
 4162SOL    HW113385   4.408   6.071   1.380
 4162SOL    HW213386   4.453   6.160   1.250
 4163SOL     OW13387   3.500   5.797   0.926
 4163SOL    HW113388   3.597   5.819   0.913
 4163SOL    HW213389   3.491   5.703   0.959
 4164SOL     OW13390   5.465   1.366   0.093
 4164SOL    HW113391   5.487   1.407   0.005
 4164SOL    HW213392   5.533   1.296   0.116
 4165SOL     OW13393   3.616   2.069   4.197
 4165SOL    HW113394   3.596   2.057   4.294
 4165SOL    HW213395   3.696   2.127   4.186
 4166SOL     OW13396   5.754   2.089   2.920
 4166SOL    HW113397   5.655   2.077   2.909
 4166SOL    HW213398   5.799   2.002   2.905
 4167SOL     OW13399   3.928   6.649   4.673
 4167SOL    HW113400   3.959   6.731   4.625
 4167SOL    HW213401   3.918   6.669   4.770
 4168SOL     OW13402   5.139   3.789   6.885
 4168SOL    HW113403   5.093   3.866   6.929
 4168SOL    HW213404   5.194   3.822   6.809
 4169SOL     OW13405   4.977   3.860   6.496
 4169SOL    HW113406   4.983   3.802   6.415
 4169SOL    HW213407   5.056   3.922   6.499
 4170SOL     OW13408   1.313   3.010   5.189
 4170SOL    HW113409   1.385   3.069   5.153
 4170SOL    HW213410   1.241   3.066   5.230
 4171SOL     OW13411   0.071   1.034   6.315
 4171SOL    HW113412   0.137   1.004   6.383
 4171SOL    HW213413   0.032   1.122   6.343
 4172SOL     OW13414   3.265   2.675   0.201
 4172SOL    HW113415   3.191   2.734   0.167
 4172SOL    HW213416   3.283   2.696   0.297
 4173SOL     OW13417   5.670   1.412   5.951
 4173SOL    HW113418   5.629   1.471   5.881
 4173SOL    HW213419   5.762   1.386   5.923
 4174SOL     OW13420   2.594   6.396   3.596
 4174SOL    HW113421   2.538   6.367   3.673
 4174SOL    HW213422   2.536   6.414   3.517
 4175SOL     OW13423   0.982   4.294   6.327
 4175SOL    HW113424   0.908   4.227   6.334
 4175SOL    HW213425   1.013   4.300   6.232
 4176SOL     OW13426   4.001   6.587   5.056
 4176SOL    HW113427   4.005   6.524   4.977
 4176SOL    HW213428   3.919   6.569   5.109
 4177SOL     OW13429   4.433   6.184   3.718
 4177SOL    HW113430   4.474   6.095   3.700
 4177SOL    HW213431   4.422   6.197   3.817
 4178SOL     OW13432   3.589   6.836   1.042
 4178SOL    HW113433   3.686   6.857   1.026
 4178SOL    HW213434   3.545   6.914   1.085
 4179SOL     OW13435   4.226   1.866   0.105
 4179SOL    HW113436   4.292   1.791   0.095
 4179SOL    HW213437   4.133   1.829   0.098
 4180SOL     OW13438   3.729   4.229   0.020
 4180SOL    HW113439   3.824   4.253   0.044
 4180SOL    HW213440   3.723   4.130   0.005
 4181SOL     OW13441   5.632   6.260   5.503
 4181SOL    HW113442   5.570   6.187   5.532
 4181SOL    HW213443   5.691   6.227   5.430
 4182SOL     OW13444   6.839   5.202   5.512
 4182SOL    HW113445   6.891   5.119   5.530
 4182SOL    HW213446   6.741   5.183   5.523
 4183SOL     OW13447   5.216   2.540   6.835
 4183SOL    HW113448   5.179   2.458   6.792
 4183SOL    HW213449   5.258   2.516   6.923
 4184SOL     OW13450   3.492   5.637   2.872
 4184SOL    HW113451   3.496   5.673   2.966
 4184SOL    HW213452   3.414   5.575   2.864
 4185SOL     OW13453   4.523   4.495   3.304
 4185SOL    HW113454   4.480   4.561   3.242
 4185SOL    HW213455   4.565   4.543   3.380
 4186SOL     OW13456   1.356   5.418   0.390
 4186SOL    HW113457   1.298   5.431   0.470
 4186SOL    HW213458   1.309   5.359   0.324
 4187SOL     OW13459   1.890   4.249   6.897
 4187SOL    HW113460   1.817   4.210   6.840
 4187SOL    HW213461   1.979   4.228   6.856
 4188SOL     OW13462   5.349   0.990   6.245
 4188SOL    HW113463   5.312   0.898   6.254
 4188SOL    HW213464   5.442   0.993   6.282
 4189SOL     OW13465   4.556   5.865   3.621
 4189SOL    HW113466   4.601   5.919   3.692
 4189SOL    HW213467   4.558   5.915   3.534
 4190SOL     OW13468   6.277   5.768   1.401
 4190SOL    HW113469   6.296   5.854   1.353
 4190SOL    HW213470   6.304   5.777   1.497
 4191SOL     OW13471   4.502   2.868   5.715
 4191SOL    HW113472   4.594   2.904   5.695
 4191SOL    HW213473   4.510   2.784   5.768
 4192SOL     OW13474   1.807   3.558   6.287
 4192SOL    HW113475   1.822   3.656   6.292
 4192SOL    HW213476   1.765   3.535   6.199
 4193SOL     OW13477   5.645   6.866   1.323
 4193SOL    HW113478   5.572   6.863   1.391
 4193SOL    HW213479   5.734   6.857   1.368
 4194SOL     OW13480   5.010   0.650   6.656
 4194SOL    HW113481   4.950   0.581   6.617
 4194SOL    HW213482   5.013   0.730   6.596
 4195SOL     OW13483   2.013   6.243   0.856
 4195SOL    HW113484   1.992   6.161   0.802
 4195SOL    HW213485   2.081   6.219   0.926
 4196SOL     OW13486   6.957   3.076   3.760
 4196SOL    HW113487   6.887   3.050   3.693
 4196SOL    HW213488   6.972   3.175   3.756
 4197SOL     OW13489   4.269   0.638   0.177
 4197SOL    HW113490   4.185   0.690   0.164
 4197SOL    HW213491   4.299   0.646   0.271
 4198SOL     OW13492   6.341   2.274   1.424
 4198SOL    HW113493   6.412   2.341   1.402
 4198SOL    HW213494   6.381   2.200   1.478
 4199SOL     OW13495   0.983   3.823   6.689
 4199SOL    HW113496   0.968   3.844   6.786
 4199SOL    HW213497   1.029   3.900   6.645
 4200SOL     OW13498   5.620   1.683   2.548
 4200SOL    HW113499   5.557   1.659   2.475
 4200SOL    HW213500   5.700   1.623   2.543
 4201SOL     OW13501   4.722   0.103   4.925
 4201SOL    HW113502   4.787   0.085   4.851
 4201SOL    HW213503   4.768   0.093   5.013
 4202SOL     OW13504   4.571   4.072   1.681
 4202SOL    HW113505   4.543   4.148   1.740
 4202SOL    HW213506   4.492   4.015   1.660
 4203SOL     OW13507   6.256   4.293   4.616
 4203SOL    HW113508   6.320   4.369   4.624
 4203SOL    HW213509   6.247   4.246   4.704
 4204SOL     OW13510   2.432   4.031   5.856
 4204SOL    HW113511   2.441   4.128   5.878
 4204SOL    HW213512   2.457   4.016   5.760
 4205SOL     OW13513   5.744   5.920   5.621
 4205SOL    HW113514   5.687   5.900   5.542
 4205SOL    HW213515   5.839   5.895   5.601
 4206SOL     OW13516   2.467   2.484   5.097
 4206SOL    HW113517   2.433   2.577   5.086
 4206SOL    HW213518   2.434   2.427   5.021
 4207SOL     OW13519   2.161   2.579   1.449
 4207SOL    HW113520   2.166   2.481   1.428
 4207SOL    HW213521   2.077   2.598   1.500
 4208SOL     OW13522   1.870   2.414   3.097
 4208SOL    HW113523   1.775   2.398   3.125
 4208SOL    HW213524   1.892   2.355   3.019
 4209SOL     OW13525   6.366   5.328   2.325
 4209SOL    HW113526   6.313   5.249   2.356
 4209SOL    HW213527   6.448   5.297   2.277
 4210SOL     OW13528   3.182   5.366   5.626
 4210SOL    HW113529   3.196   5.268   5.608
 4210SOL    HW213530   3.269   5.408   5.653
 4211SOL     OW13531   4.633   2.604   5.905
 4211SOL    HW113532   4.660   2.529   5.966
 4211SOL    HW213533   4.707   2.621   5.839
 4212SOL     OW13534   0.843   2.450   2.953
 4212SOL    HW113535   0.819   2.533   2.903
 4212SOL    HW213536   0.837   2.467   3.051
 4213SOL     OW13537   3.114   0.773   3.624
 4213SOL    HW113538   3.072   0.695   3.577
 4213SOL    HW213539   3.136   0.844   3.557
 4214SOL     OW13540   6.003   6.389   4.061
 4214SOL    HW113541   6.085   6.417   4.010
 4214SOL    HW213542   5.922   6.403   4.004
 4215SOL     OW13543   5.451   0.106   5.405
 4215SOL    HW113544   5.436   0.204   5.402
 4215SOL    HW213545   5.539   0.084   5.362
 4216SOL     OW13546   2.185   5.503   2.317
 4216SOL    HW113547   2.146   5.495   2.225
 4216SOL    HW213548   2.123   5.461   2.383
 4217SOL     OW13549   0.386   0.383   3.047
 4217SOL    HW113550   0.436   0.415   3.128
 4217SOL    HW213551   0.451   0.345   2.981
 4218SOL     OW13552   2.770   0.712   1.564
 4218SOL    HW113553   2.720   0.636   1.523
 4218SOL    HW213554   2.705   0.771   1.613
 4219SOL     OW13555   3.107   5.678   2.639
 4219SOL    HW113556   3.135   5.731   2.719
 4219SOL    HW213557   3.041   5.608   2.666
 4220SOL     OW13558   5.751   1.820   1.467
 4220SOL    HW113559   5.806   1.871   1.401
 4220SOL    HW213560   5.805   1.744   1.503
 4221SOL     OW13561   0.634   6.689   1.101
 4221SOL    HW113562   0.700   6.632   1.150
 4221SOL    HW213563   0.541   6.664   1.128
 4222SOL     OW13564   5.000   3.603   4.266
 4222SOL    HW113565   4.938   3.643   4.198
 4222SOL    HW213566   4.948   3.575   4.347
 4223SOL     OW13567   3.554   4.148   3.141
 4223SOL    HW113568   3.522   4.175   3.050
 4223SOL    HW213569   3.647   4.112   3.134
 4224SOL     OW13570   4.737   4.266   4.604
 4224SOL    HW113571   4.717   4.324   4.525
 4224SOL    HW213572   4.754   4.323   4.684
 4225SOL     OW13573   0.743   1.760   6.340
 4225SOL    HW113574   0.750   1.860   6.347
 4225SOL    HW213575   0.761   1.731   6.246
 4226SOL     OW13576   5.421   4.811   4.536
 4226SOL    HW113577   5.516   4.793   4.510
 4226SOL    HW213578   5.378   4.727   4.568
 4227SOL     OW13579   5.553   5.674   1.147
 4227SOL    HW113580   5.492   5.644   1.074
 4227SOL    HW213581   5.607   5.596   1.179
 4228SOL     OW13582   1.918   3.996   3.783
 4228SOL    HW113583   2.000   3.939   3.796
 4228SOL    HW213584   1.915   4.067   3.853
 4229SOL     OW13585   6.151   6.254   5.563
 4229SOL    HW113586   6.164   6.352   5.546
 4229SOL    HW213587   6.202   6.227   5.644
 4230SOL     OW13588   0.438   0.796   2.408
 4230SOL    HW113589   0.390   0.714   2.377
 4230SOL    HW213590   0.525   0.770   2.451
 4231SOL     OW13591   0.433   0.688   5.871
 4231SOL    HW113592   0.360   0.624   5.847
 4231SOL    HW213593   0.520   0.639   5.875
 4232SOL     OW13594   1.734   4.613   2.890
 4232SOL    HW113595   1.762   4.530   2.842
 4232SOL    HW213596   1.636   4.626   2.879
 4233SOL     OW13597   4.244   5.618   2.546
 4233SOL    HW113598   4.266   5.715   2.531
 4233SOL    HW213599   4.188   5.585   2.470
 4234SOL     OW13600   3.572   5.119   6.298
 4234SOL    HW113601   3.473   5.121   6.281
 4234SOL    HW213602   3.597   5.032   6.340
 4235SOL     OW13603   6.901   6.013   6.782
 4235SOL    HW113604   6.835   6.073   6.737
 4235SOL    HW213605   6.854   5.958   6.851
 4236SOL     OW13606   6.889   4.971   3.469
 4236SOL    HW113607   6.888   5.055   3.415
 4236SOL    HW213608   6.980   4.957   3.506
 4237SOL     OW13609   6.494   4.538   3.727
 4237SOL    HW113610   6.522   4.630   3.753
 4237SOL    HW213611   6.399   4.539   3.698
 4238SOL     OW13612   2.330   5.471   2.607
 4238SOL    HW113613   2.295   5.563   2.584
 4238SOL    HW213614   2.256   5.405   2.597
 4239SOL     OW13615   4.140   1.163   3.189
 4239SOL    HW113616   4.187   1.075   3.198
 4239SOL    HW213617   4.046   1.148   3.160
 4240SOL     OW13618   4.826   6.966   1.643
 4240SOL    HW113619   4.829   6.883   1.587
 4240SOL    HW213620   4.752   7.025   1.610
 4241SOL     OW13621   0.425   4.441   6.982
 4241SOL    HW113622   0.390   4.499   0.030
 4241SOL    HW213623   0.422   4.492   6.896
 4242SOL     OW13624   3.558   2.100   2.547
 4242SOL    HW113625   3.559   2.088   2.646
 4242SOL    HW213626   3.646   2.136   2.517
 4243SOL     OW13627   3.404   2.112   2.862
 4243SOL    HW113628   3.348   2.046   2.811
 4243SOL    HW213629   3.500   2.101   2.836
 4244SOL     OW13630   2.983   3.492   5.146
 4244SOL    HW113631   2.960   3.587   5.167
 4244SOL    HW213632   3.025   3.450   5.226
 4245SOL     OW13633   6.765   1.057   5.472
 4245SOL    HW113634   6.755   1.063   5.571
 4245SOL    HW213635   6.826   1.130   5.441
 4246SOL     OW13636   1.099   4.761   5.859
 4246SOL    HW113637   1.089   4.768   5.958
 4246SOL    HW213638   1.185   4.715   5.837
 4247SOL     OW13639   0.238   4.895   5.156
 4247SOL    HW113640   0.258   4.798   5.167
 4247SOL    HW213641   0.321   4.948   5.170
 4248SOL     OW13642   1.943   3.539   6.950
 4248SOL    HW113643   1.932   3.481   6.869
 4248SOL    HW213644   1.873   3.516   7.017
 4249SOL     OW13645   5.204   3.132   6.063
 4249SOL    HW113646   5.238   3.071   5.992
 4249SOL    HW213647   5.152   3.079   6.130
 4250SOL     OW13648   6.977   4.073   3.852
 4250SOL    HW113649   0.032   4.119   3.887
 4250SOL    HW213650   6.959   4.104   3.759
 4251SOL     OW13651   6.114   4.841   6.115
 4251SOL    HW113652   6.142   4.937   6.111
 4251SOL    HW213653   6.064   4.824   6.200
 4252SOL     OW13654   6.836   4.945   5.190
 4252SOL    HW113655   6.741   4.965   5.170
 4252SOL    HW213656   6.874   5.018   5.248
 4253SOL     OW13657   3.299   6.770   3.089
 4253SOL    HW113658   3.240   6.717   3.028
 4253SOL    HW213659   3.354   6.833   3.035
 4254SOL     OW13660   3.170   2.971   2.407
 4254SOL    HW113661   3.199   2.918   2.327
 4254SOL    HW213662   3.249   2.986   2.467
 4255SOL     OW13663   0.498   2.241   4.089
 4255SOL    HW113664   0.576   2.185   4.061
 4255SOL    HW213665   0.440   2.259   4.009
 4256SOL     OW13666   1.253   0.918   2.098
 4256SOL    HW113667   1.282   0.832   2.140
 4256SOL    HW213668   1.316   0.942   2.024
 4257SOL     OW13669   4.356   2.282   5.214
 4257SOL    HW113670   4.282   2.315   5.156
 4257SOL    HW213671   4.442   2.327   5.188
 4258SOL     OW13672   5.438   5.800   2.039
 4258SOL    HW113673   5.499   5.800   2.118
 4258SOL    HW213674   5.410   5.894   2.019
 4259SOL     OW13675   2.691   3.169   1.736
 4259SOL    HW113676   2.702   3.072   1.757
 4259SOL    HW213677   2.596   3.186   1.710
 4260SOL     OW13678   3.990   6.129   4.868
 4260SOL    HW113679   3.930   6.111   4.789
 4260SOL    HW213680   3.935   6.131   4.951
 4261SOL     OW13681   1.084   1.415   3.228
 4261SOL    HW113682   1.090   1.466   3.143
 4261SOL    HW213683   1.168   1.428   3.281
 4262SOL     OW13684   0.740   6.687   5.209
 4262SOL    HW113685   0.697   6.600   5.235
 4262SOL    HW213686   0.697   6.722   5.126
 4263SOL     OW13687   4.684   5.124   6.856
 4263SOL    HW113688   4.699   5.207   6.908
 4263SOL    HW213689   4.751   5.055   6.883
 4264SOL     OW13690   1.301   0.228   1.411
 4264SOL    HW113691   1.268   0.286   1.485
 4264SOL    HW213692   1.258   0.255   1.325
 4265SOL     OW13693   1.856   1.370   0.582
 4265SOL    HW113694   1.937   1.350   0.527
 4265SOL    HW213695   1.785   1.410   0.524
 4266SOL     OW13696   2.823   4.752   0.501
 4266SOL    HW113697   2.765   4.696   0.560
 4266SOL    HW213698   2.773   4.776   0.418
 4267SOL     OW13699   1.899   3.711   5.520
 4267SOL    HW113700   1.958   3.741   5.594
 4267SOL    HW213701   1.954   3.680   5.443
 4268SOL     OW13702   1.142   1.178   0.915
 4268SOL    HW113703   1.087   1.247   0.868
 4268SOL    HW213704   1.181   1.217   0.998
 4269SOL     OW13705   2.849   3.511   0.461
 4269SOL    HW113706   2.873   3.561   0.377
 4269SOL    HW213707   2.838   3.414   0.440
 4270SOL     OW13708   3.644   2.880   6.926
 4270SOL    HW113709   3.632   2.977   6.946
 4270SOL    HW213710   3.672   2.869   6.830
 4271SOL     OW13711   1.649   0.575   1.420
 4271SOL    HW113712   1.654   0.539   1.327
 4271SOL    HW213713   1.592   0.657   1.421
 4272SOL     OW13714   0.909   4.045   3.741
 4272SOL    HW113715   0.974   4.073   3.671
 4272SOL    HW213716   0.912   4.110   3.817
 4273SOL     OW13717   6.029   6.794   3.316
 4273SOL    HW113718   5.980   6.765   3.234
 4273SOL    HW213719   5.977   6.766   3.397
 4274SOL     OW13720   2.439   0.318   3.782
 4274SOL    HW113721   2.404   0.268   3.861
 4274SOL    HW213722   2.525   0.276   3.751
 4275SOL     OW13723   0.718   0.185   5.199
 4275SOL    HW113724   0.778   0.259   5.231
 4275SOL    HW213725   0.655   0.221   5.130
 4276SOL     OW13726   2.058   3.724   3.128
 4276SOL    HW113727   2.062   3.627   3.149
 4276SOL    HW213728   2.099   3.740   3.038
 4277SOL     OW13729   1.233   5.477   5.451
 4277SOL    HW113730   1.252   5.569   5.417
 4277SOL    HW213731   1.165   5.434   5.393
 4278SOL     OW13732   1.018   6.179   6.507
 4278SOL    HW113733   0.947   6.123   6.551
 4278SOL    HW213734   1.106   6.160   6.550
 4279SOL     OW13735   3.344   6.007   2.951
 4279SOL    HW113736   3.333   5.975   2.857
 4279SOL    HW213737   3.432   5.974   2.988
 4280SOL     OW13738   5.085   2.583   3.581
 4280SOL    HW113739   5.071   2.531   3.497
 4280SOL    HW213740   5.138   2.665   3.561
 4281SOL     OW13741   1.734   4.043   5.198
 4281SOL    HW113742   1.818   4.097   5.196
 4281SOL    HW213743   1.745   3.966   5.260
 4282SOL     OW13744   0.866   1.543   0.388
 4282SOL    HW113745   0.836   1.579   0.476
 4282SOL    HW213746   0.873   1.617   0.322
 4283SOL     OW13747   2.932   1.129   4.156
 4283SOL    HW113748   3.019   1.113   4.109
 4283SOL    HW213749   2.932   1.078   4.243
 4284SOL     OW13750   6.863   2.068   3.248
 4284SOL    HW113751   6.800   2.008   3.198
 4284SOL    HW213752   6.911   2.014   3.317
 4285SOL     OW13753   1.001   6.183   4.136
 4285SOL    HW113754   1.077   6.164   4.074
 4285SOL    HW213755   1.016   6.271   4.181
 4286SOL     OW13756   4.599   5.668   6.441
 4286SOL    HW113757   4.613   5.611   6.360
 4286SOL    HW213758   4.687   5.704   6.472
 4287SOL     OW13759   3.934   5.559   5.732
 4287SOL    HW113760   3.889   5.593   5.814
 4287SOL    HW213761   3.878   5.487   5.690
 4288SOL     OW13762   1.512   6.186   3.698
 4288SOL    HW113763   1.539   6.116   3.764
 4288SOL    HW213764   1.451   6.252   3.742
 4289SOL     OW13765   0.138   4.134   6.816
 4289SOL    HW113766   0.140   4.097   6.909
 4289SOL    HW213767   0.101   4.226   6.817
 4290SOL     OW13768   1.524   1.957   2.960
 4290SOL    HW113769   1.606   1.910   2.991
 4290SOL    HW213770   1.547   2.051   2.934
 4291SOL     OW13771   0.327   4.107   1.354
 4291SOL    HW113772   0.357   4.174   1.287
 4291SOL    HW213773   0.249   4.056   1.318
 4292SOL     OW13774   5.665   5.258   5.141
 4292SOL    HW113775   5.701   5.169   5.115
 4292SOL    HW213776   5.717   5.295   5.218
 4293SOL     OW13777   0.286   2.065   0.543
 4293SOL    HW113778   0.316   2.155   0.512
 4293SOL    HW213779   0.208   2.035   0.487
 4294SOL     OW13780   4.880   1.945   6.078
 4294SOL    HW113781   4.858   1.978   6.170
 4294SOL    HW213782   4.858   1.848   6.070
 4295SOL     OW13783   3.713   5.812   5.617
 4295SOL    HW113784   3.705   5.843   5.712
 4295SOL    HW213785   3.624   5.819   5.572
 4296SOL     OW13786   2.482   1.254   2.255
 4296SOL    HW113787   2.389   1.218   2.265
 4296SOL    HW213788   2.540   1.216   2.327
 4297SOL     OW13789   5.956   0.292   0.531
 4297SOL    HW113790   6.056   0.291   0.523
 4297SOL    HW213791   5.916   0.251   0.449
 4298SOL     OW13792   1.311   4.496   1.884
 4298SOL    HW113793   1.337   4.542   1.969
 4298SOL    HW213794   1.297   4.565   1.812
 4299SOL     OW13795   1.440   5.714   5.246
 4299SOL    HW113796   1.486   5.798   5.276
 4299SOL    HW213797   1.346   5.714   5.281
 4300SOL     OW13798   6.035   6.950   5.721
 4300SOL    HW113799   5.956   7.009   5.740
 4300SOL    HW213800   6.061   6.961   5.625
 4301SOL     OW13801   3.228   1.328   1.118
 4301SOL    HW113802   3.227   1.310   1.216
 4301SOL    HW213803   3.206   1.424   1.102
 4302SOL     OW13804   0.909   0.418   6.744
 4302SOL    HW113805   0.876   0.504   6.704
 4302SOL    HW213806   0.858   0.398   6.827
 4303SOL     OW13807   0.609   3.921   1.514
 4303SOL    HW113808   0.537   3.861   1.550
 4303SOL    HW213809   0.681   3.932   1.583
 4304SOL     OW13810   3.048   3.599   5.769
 4304SOL    HW113811   3.065   3.682   5.822
 4304SOL    HW213812   3.121   3.533   5.786
 4305SOL     OW13813   0.323   1.517   5.031
 4305SOL    HW113814   0.363   1.426   5.027
 4305SOL    HW213815   0.263   1.530   4.952
 4306SOL     OW13816   6.406   5.579   5.406
 4306SOL    HW113817   6.370   5.672   5.415
 4306SOL    HW213818   6.413   5.537   5.496
 4307SOL     OW13819   5.853   3.442   0.638
 4307SOL    HW113820   5.867   3.488   0.551
 4307SOL    HW213821   5.827   3.509   0.708
 4308SOL     OW13822   3.093   0.116   4.940
 4308SOL    HW113823   3.162   0.188   4.939
 4308SOL    HW213824   3.137   0.028   4.961
 4309SOL     OW13825   1.099   6.656   1.687
 4309SOL    HW113826   1.178   6.717   1.687
 4309SOL    HW213827   1.028   6.693   1.747
 4310SOL     OW13828   1.802   6.675   2.984
 4310SOL    HW113829   1.867   6.707   2.916
 4310SOL    HW213830   1.780   6.579   2.968
 4311SOL     OW13831   1.072   5.126   4.152
 4311SOL    HW113832   1.027   5.215   4.151
 4311SOL    HW213833   1.025   5.063   4.091
 4312SOL     OW13834   1.286   5.464   2.125
 4312SOL    HW113835   1.341   5.380   2.117
 4312SOL    HW213836   1.275   5.487   2.221
 4313SOL     OW13837   4.956   1.199   1.450
 4313SOL    HW113838   5.050   1.229   1.468
 4313SOL    HW213839   4.938   1.201   1.352
 4314SOL     OW13840   6.090   3.444   1.117
 4314SOL    HW113841   6.026   3.452   1.193
 4314SOL    HW213842   6.050   3.385   1.046
 4315SOL     OW13843   2.170   1.131   2.847
 4315SOL    HW113844   2.182   1.213   2.791
 4315SOL    HW213845   2.243   1.126   2.916
 4316SOL     OW13846   0.420   1.402   2.379
 4316SOL    HW113847   0.365   1.372   2.458
 4316SOL    HW213848   0.501   1.450   2.411
 4317SOL     OW13849   4.319   0.559   3.304
 4317SOL    HW113850   4.287   0.634   3.245
 4317SOL    HW213851   4.417   0.547   3.291
 4318SOL     OW13852   6.929   2.249   5.133
 4318SOL    HW113853   6.843   2.263   5.084
 4318SOL    HW213854   6.930   2.157   5.173
 4319SOL     OW13855   3.785   2.207   6.543
 4319SOL    HW113856   3.832   2.198   6.630
 4319SOL    HW213857   3.786   2.302   6.514
 4320SOL     OW13858   6.547   6.546   3.481
 4320SOL    HW113859   6.541   6.457   3.435
 4320SOL    HW213860   6.572   6.532   3.577
 4321SOL     OW13861   0.565   0.503   4.875
 4321SOL    HW113862   0.573   0.422   4.933
 4321SOL    HW213863   0.534   0.581   4.930
 4322SOL     OW13864   6.439   1.009   1.134
 4322SOL    HW113865   6.463   0.931   1.076
 4322SOL    HW213866   6.359   0.987   1.189
 4323SOL     OW13867   6.805   1.904   3.773
 4323SOL    HW113868   6.828   1.955   3.690
 4323SOL    HW213869   6.745   1.959   3.830
 4324SOL     OW13870   5.788   2.586   5.507
 4324SOL    HW113871   5.783   2.660   5.440
 4324SOL    HW213872   5.699   2.575   5.551
 4325SOL     OW13873   1.724   2.680   6.860
 4325SOL    HW113874   1.730   2.580   6.852
 4325SOL    HW213875   1.653   2.714   6.798
 4326SOL     OW13876   6.718   2.327   4.985
 4326SOL    HW113877   6.775   2.394   4.939
 4326SOL    HW213878   6.621   2.349   4.972
 4327SOL     OW13879   4.682   0.781   3.085
 4327SOL    HW113880   4.672   0.867   3.136
 4327SOL    HW213881   4.730   0.799   2.999
 4328SOL     OW13882   6.281   4.988   0.264
 4328SOL    HW113883   6.227   4.991   0.179
 4328SOL    HW213884   6.314   4.896   0.279
 4329SOL     OW13885   5.007   1.556   6.696
 4329SOL    HW113886   4.926   1.501   6.677
 4329SOL    HW213887   5.025   1.556   6.794
 4330SOL     OW13888   0.934   0.957   6.500
 4330SOL    HW113889   0.943   1.005   6.413
 4330SOL    HW213890   1.023   0.921   6.527
 4331SOL     OW13891   5.052   2.592   6.373
 4331SOL    HW113892   5.136   2.541   6.356
 4331SOL    HW213893   5.065   2.687   6.342
 4332SOL     OW13894   6.035   4.168   1.720
 4332SOL    HW113895   5.946   4.168   1.765
 4332SOL    HW213896   6.054   4.076   1.684
 4333SOL     OW13897   6.550   1.400   4.952
 4333SOL    HW113898   6.611   1.479   4.955
 4333SOL    HW213899   6.572   1.343   4.873
 4334SOL     OW13900   3.883   0.452   1.980
 4334SOL    HW113901   3.925   0.382   1.923
 4334SOL    HW213902   3.828   0.513   1.923
 4335SOL     OW13903   3.969   4.322   5.928
 4335SOL    HW113904   4.013   4.292   5.844
 4335SOL    HW213905   3.881   4.277   5.938
 4336SOL     OW13906   1.133   6.865   5.711
 4336SOL    HW113907   1.128   6.912   5.799
 4336SOL    HW213908   1.086   6.919   5.641
 4337SOL     OW13909   0.939   5.595   6.482
 4337SOL    HW113910   0.924   5.670   6.417
 4337SOL    HW213911   0.852   5.571   6.526
 4338SOL     OW13912   5.576   6.749   3.214
 4338SOL    HW113913   5.534   6.839   3.197
 4338SOL    HW213914   5.650   6.759   3.280
 4339SOL     OW13915   6.347   0.833   0.010
 4339SOL    HW113916   6.339   0.931   0.031
 4339SOL    HW213917   6.443   0.812   7.019
 4340SOL     OW13918   4.616   3.697   1.667
 4340SOL    HW113919   4.713   3.686   1.686
 4340SOL    HW213920   4.604   3.747   1.582
 4341SOL     OW13921   0.959   3.360   0.692
 4341SOL    HW113922   0.881   3.406   0.735
 4341SOL    HW213923   0.954   3.372   0.593
 4342SOL     OW13924   0.036   2.099   2.743
 4342SOL    HW113925   0.017   2.195   2.764
 4342SOL    HW213926   0.019   2.083   2.646
 4343SOL     OW13927   3.243   2.470   0.995
 4343SOL    HW113928   3.189   2.389   0.971
 4343SOL    HW213929   3.335   2.441   1.023
 4344SOL     OW13930   2.095   3.266   1.676
 4344SOL    HW113931   2.030   3.223   1.613
 4344SOL    HW213932   2.146   3.195   1.725
 4345SOL     OW13933   3.050   1.151   5.958
 4345SOL    HW113934   3.063   1.059   5.921
 4345SOL    HW213935   2.988   1.202   5.898
 4346SOL     OW13936   0.270   3.944   0.985
 4346SOL    HW113937   0.351   3.969   1.039
 4346SOL    HW213938   0.256   4.011   0.912
 4347SOL     OW13939   4.900   5.793   2.645
 4347SOL    HW113940   4.965   5.780   2.720
 4347SOL    HW213941   4.872   5.889   2.642
 4348SOL     OW13942   1.506   3.569   0.434
 4348SOL    HW113943   1.502   3.578   0.534
 4348SOL    HW213944   1.538   3.655   0.395
 4349SOL     OW13945   6.572   1.094   1.680
 4349SOL    HW113946   6.569   1.036   1.599
 4349SOL    HW213947   6.606   1.185   1.655
 4350SOL     OW13948   3.899   0.555   2.839
 4350SOL    HW113949   3.805   0.570   2.809
 4350SOL    HW213950   3.962   0.586   2.767
 4351SOL     OW13951   3.160   6.732   6.816
 4351SOL    HW113952   3.232   6.666   6.795
 4351SOL    HW213953   3.105   6.698   6.893
 4352SOL     OW13954   6.721   1.973   2.066
 4352SOL    HW113955   6.642   1.980   2.006
 4352SOL    HW213956   6.755   1.878   2.066
 4353SOL     OW13957   3.296   5.630   1.182
 4353SOL    HW113958   3.296   5.729   1.192
 4353SOL    HW213959   3.206   5.593   1.204
 4354SOL     OW13960   3.054   0.745   1.485
 4354SOL    HW113961   3.029   0.772   1.392
 4354SOL    HW213962   2.972   0.731   1.539
 4355SOL     OW13963   4.810   6.851   6.688
 4355SOL    HW113964   4.828   6.944   6.655
 4355SOL    HW213965   4.721   6.821   6.655
 4356SOL     OW13966   3.168   3.754   0.946
 4356SOL    HW113967   3.090   3.711   0.991
 4356SOL    HW213968   3.253   3.721   0.988
 4357SOL     OW13969   5.955   0.555   0.412
 4357SOL    HW113970   6.017   0.511   0.477
 4357SOL    HW213971   6.006   0.620   0.357
 4358SOL     OW13972   6.158   0.639   1.275
 4358SOL    HW113973   6.246   0.665   1.236
 4358SOL    HW213974   6.092   0.626   1.201
 4359SOL     OW13975   0.585   4.173   4.656
 4359SOL    HW113976   0.581   4.177   4.756
 4359SOL    HW213977   0.664   4.119   4.628
 4360SOL     OW13978   2.286   3.418   1.160
 4360SOL    HW113979   2.204   3.475   1.166
 4360SOL    HW213980   2.293   3.361   1.243
 4361SOL     OW13981   5.547   2.339   2.816
 4361SOL    HW113982   5.627   2.318   2.760
 4361SOL    HW213983   5.526   2.260   2.873
 4362SOL     OW13984   4.927   4.282   2.776
 4362SOL    HW113985   4.832   4.268   2.805
 4362SOL    HW213986   4.928   4.323   2.684
 4363SOL     OW13987   4.813   0.920   6.603
 4363SOL    HW113988   4.897   0.892   6.649
 4363SOL    HW213989   4.834   0.982   6.528
 4364SOL     OW13990   3.884   3.645   4.787
 4364SOL    HW113991   3.906   3.649   4.689
 4364SOL    HW213992   3.838   3.558   4.807
 4365SOL     OW13993   4.512   2.159   0.106
 4365SOL    HW113994   4.550   2.236   0.158
 4365SOL    HW213995   4.462   2.099   0.168
 4366SOL     OW13996   4.196   5.131   0.431
 4366SOL    HW113997   4.278   5.084   0.399
 4366SOL    HW213998   4.218   5.228   0.447
 4367SOL     OW13999   6.540   6.900   0.828
 4367SOL    HW114000   6.577   6.965   0.895
 4367SOL    HW214001   6.615   6.857   0.779
 4368SOL     OW14002   4.101   5.191   2.042
 4368SOL    HW114003   4.185   5.146   2.074
 4368SOL    HW214004   4.096   5.185   1.942
 4369SOL     OW14005   3.227   5.445   2.195
 4369SOL    HW114006   3.296   5.375   2.210
 4369SOL    HW214007   3.251   5.527   2.246
 4370SOL     OW14008   5.127   4.332   1.739
 4370SOL    HW114009   5.106   4.396   1.665
 4370SOL    HW214010   5.072   4.249   1.727
 4371SOL     OW14011   1.270   1.711   2.188
 4371SOL    HW114012   1.314   1.693   2.276
 4371SOL    HW214013   1.238   1.805   2.185
 4372SOL     OW14014   5.342   6.997   4.018
 4372SOL    HW114015   5.250   6.975   4.050
 4372SOL    HW214016   5.407   6.929   4.052
 4373SOL     OW14017   0.230   1.709   5.731
 4373SOL    HW114018   0.208   1.647   5.657
 4373SOL    HW214019   0.314   1.678   5.776
 4374SOL     OW14020   3.339   1.242   0.015
 4374SOL    HW114021   3.307   1.190   6.963
 4374SOL    HW214022   3.341   1.340   7.019
 4375SOL     OW14023   3.572   5.552   4.257
 4375SOL    HW114024   3.594   5.456   4.242
 4375SOL    HW214025   3.543   5.565   4.351
 4376SOL     OW14026   6.897   2.787   3.485
 4376SOL    HW114027   6.871   2.767   3.390
 4376SOL    HW214028   6.985   2.744   3.505
 4377SOL     OW14029   6.815   4.746   6.106
 4377SOL    HW114030   6.834   4.670   6.044
 4377SOL    HW214031   6.717   4.766   6.105
 4378SOL     OW14032   3.181   1.974   4.023
 4378SOL    HW114033   3.121   1.920   4.082
 4378SOL    HW214034   3.240   2.032   4.080
 4379SOL     OW14035   3.634   1.754   6.307
 4379SOL    HW114036   3.648   1.704   6.221
 4379SOL    HW214037   3.681   1.842   6.303
 4380SOL     OW14038   0.214   2.592   2.985
 4380SOL    HW114039   0.255   2.509   3.022
 4380SOL    HW214040   0.210   2.586   2.885
 4381SOL     OW14041   1.277   5.034   6.824
 4381SOL    HW114042   1.224   5.067   6.902
 4381SOL    HW214043   1.226   5.048   6.740
 4382SOL     OW14044   1.125   4.941   4.623
 4382SOL    HW114045   1.130   5.014   4.554
 4382SOL    HW214046   1.052   4.877   4.599
 4383SOL     OW14047   0.477   4.756   0.447
 4383SOL    HW114048   0.540   4.768   0.524
 4383SOL    HW214049   0.397   4.705   0.477
 4384SOL     OW14050   5.095   0.057   3.299
 4384SOL    HW114051   5.181   0.019   3.334
 4384SOL    HW214052   5.051   0.111   3.370
 4385SOL     OW14053   4.526   0.328   5.721
 4385SOL    HW114054   4.571   0.416   5.734
 4385SOL    HW214055   4.476   0.328   5.634
 4386SOL     OW14056   2.126   3.225   4.317
 4386SOL    HW114057   2.120   3.129   4.290
 4386SOL    HW214058   2.101   3.283   4.239
 4387SOL     OW14059   5.216   2.321   1.436
 4387SOL    HW114060   5.290   2.258   1.458
 4387SOL    HW214061   5.199   2.381   1.514
 4388SOL     OW14062   5.591   3.372   0.591
 4388SOL    HW114063   5.670   3.415   0.634
 4388SOL    HW214064   5.604   3.370   0.492
 4389SOL     OW14065   2.699   1.419   0.034
 4389SOL    HW114066   2.736   1.343   7.006
 4389SOL    HW214067   2.604   1.435   0.008
 4390SOL     OW14068   7.003   1.841   0.789
 4390SOL    HW114069   0.076   1.835   0.774
 4390SOL    HW214070   6.981   1.807   0.880
 4391SOL     OW14071   0.209   6.036   1.757
 4391SOL    HW114072   0.189   6.019   1.660
 4391SOL    HW214073   0.275   6.110   1.765
 4392SOL     OW14074   1.461   2.749   6.122
 4392SOL    HW114075   1.438   2.831   6.070
 4392SOL    HW214076   1.555   2.721   6.100
 4393SOL     OW14077   6.269   0.224   2.138
 4393SOL    HW114078   6.174   0.232   2.168
 4393SOL    HW214079   6.298   0.129   2.142
 4394SOL     OW14080   6.967   0.436   2.877
 4394SOL    HW114081   6.890   0.376   2.855
 4394SOL    HW214082   6.966   0.515   2.816
 4395SOL     OW14083   1.341   3.747   1.668
 4395SOL    HW114084   1.266   3.783   1.723
 4395SOL    HW214085   1.385   3.823   1.620
 4396SOL     OW14086   2.615   1.404   2.953
 4396SOL    HW114087   2.551   1.402   3.030
 4396SOL    HW214088   2.709   1.409   2.987
 4397SOL     OW14089   3.715   0.388   5.153
 4397SOL    HW114090   3.783   0.455   5.122
 4397SOL    HW214091   3.625   0.431   5.158
 4398SOL     OW14092   2.353   3.216   6.009
 4398SOL    HW114093   2.428   3.203   5.944
 4398SOL    HW214094   2.299   3.296   5.982
 4399SOL     OW14095   3.248   5.906   1.711
 4399SOL    HW114096   3.314   5.878   1.781
 4399SOL    HW214097   3.218   5.825   1.660
 4400SOL     OW14098   1.532   6.005   5.238
 4400SOL    HW114099   1.587   6.064   5.296
 4400SOL    HW214100   1.524   6.046   5.147
 4401SOL     OW14101   2.962   6.805   6.404
 4401SOL    HW114102   2.964   6.706   6.391
 4401SOL    HW214103   3.051   6.837   6.434
 4402SOL     OW14104   1.187   0.877   2.745
 4402SOL    HW114105   1.129   0.908   2.821
 4402SOL    HW214106   1.152   0.790   2.711
 4403SOL     OW14107   6.287   5.853   3.265
 4403SOL    HW114108   6.304   5.919   3.339
 4403SOL    HW214109   6.280   5.902   3.178
 4404SOL     OW14110   0.498   6.477   5.108
 4404SOL    HW114111   0.402   6.458   5.086
 4404SOL    HW214112   0.535   6.541   5.040
 4405SOL     OW14113   1.372   4.982   2.649
 4405SOL    HW114114   1.440   4.960   2.579
 4405SOL    HW214115   1.391   5.073   2.687
 4406SOL     OW14116   6.181   4.513   2.508
 4406SOL    HW114117   6.189   4.448   2.584
 4406SOL    HW214118   6.153   4.602   2.543
 4407SOL     OW14119   5.321   6.689   1.244
 4407SOL    HW114120   5.308   6.590   1.233
 4407SOL    HW214121   5.335   6.730   1.154
 4408SOL     OW14122   4.640   0.630   0.697
 4408SOL    HW114123   4.599   0.715   0.663
 4408SOL    HW214124   4.569   0.559   0.700
 4409SOL     OW14125   3.556   0.706   3.599
 4409SOL    HW114126   3.513   0.690   3.510
 4409SOL    HW214127   3.651   0.736   3.585
 4410SOL     OW14128   1.180   0.265   1.174
 4410SOL    HW114129   1.173   0.223   1.084
 4410SOL    HW214130   1.090   0.264   1.219
 4411SOL     OW14131   4.405   4.759   4.894
 4411SOL    HW114132   4.494   4.795   4.920
 4411SOL    HW214133   4.379   4.686   4.957
 4412SOL     OW14134   4.413   6.056   1.578
 4412SOL    HW114135   4.338   5.990   1.563
 4412SOL    HW214136   4.459   6.035   1.664
 4413SOL     OW14137   5.343   6.264   4.289
 4413SOL    HW114138   5.432   6.236   4.254
 4413SOL    HW214139   5.271   6.226   4.230
 4414SOL     OW14140   5.660   4.262   1.048
 4414SOL    HW114141   5.592   4.189   1.051
 4414SOL    HW214142   5.667   4.297   0.954
 4415SOL     OW14143   1.638   4.023   1.368
 4415SOL    HW114144   1.637   3.930   1.405
 4415SOL    HW214145   1.610   4.021   1.272
 4416SOL     OW14146   5.027   3.339   4.547
 4416SOL    HW114147   4.993   3.272   4.481
 4416SOL    HW214148   5.124   3.356   4.531
 4417SOL     OW14149   0.593   4.220   2.028
 4417SOL    HW114150   0.675   4.180   1.987
 4417SOL    HW214151   0.604   4.227   2.127
 4418SOL     OW14152   6.743   1.376   5.361
 4418SOL    HW114153   6.815   1.444   5.347
 4418SOL    HW214154   6.656   1.411   5.324
 4419SOL     OW14155   6.543   6.538   6.565
 4419SOL    HW114156   6.452   6.547   6.605
 4419SOL    HW214157   6.609   6.517   6.637
 4420SOL     OW14158   3.743   1.292   0.539
 4420SOL    HW114159   3.827   1.342   0.556
 4420SOL    HW214160   3.664   1.352   0.556
 4421SOL     OW14161   2.814   2.924   0.217
 4421SOL    HW114162   2.782   2.921   0.312
 4421SOL    HW214163   2.770   3.000   0.170
 4422SOL     OW14164   1.023   3.028   6.224
 4422SOL    HW114165   0.987   3.105   6.277
 4422SOL    HW214166   0.968   2.947   6.241
 4423SOL     OW14167   5.408   4.225   4.394
 4423SOL    HW114168   5.443   4.304   4.445
 4423SOL    HW214169   5.475   4.152   4.397
 4424SOL     OW14170   3.999   5.951   2.807
 4424SOL    HW114171   4.058   6.030   2.824
 4424SOL    HW214172   4.051   5.867   2.821
 4425SOL     OW14173   0.186   6.351   1.466
 4425SOL    HW114174   0.115   6.285   1.488
 4425SOL    HW214175   0.160   6.403   1.384
 4426SOL     OW14176   0.587   0.858   4.548
 4426SOL    HW114177   0.653   0.796   4.507
 4426SOL    HW214178   0.512   0.875   4.484
 4427SOL     OW14179   3.524   5.960   2.099
 4427SOL    HW114180   3.514   5.973   2.000
 4427SOL    HW214181   3.538   5.863   2.119
 4428SOL     OW14182   6.264   6.658   3.265
 4428SOL    HW114183   6.257   6.581   3.328
 4428SOL    HW214184   6.193   6.725   3.286
 4429SOL     OW14185   2.644   5.957   2.846
 4429SOL    HW114186   2.649   6.056   2.856
 4429SOL    HW214187   2.591   5.933   2.765
 4430SOL     OW14188   5.873   3.998   4.556
 4430SOL    HW114189   5.886   3.912   4.508
 4430SOL    HW214190   5.893   3.986   4.654
 4431SOL     OW14191   3.912   6.824   4.956
 4431SOL    HW114192   3.906   6.910   5.005
 4431SOL    HW214193   3.973   6.762   5.005
 4432SOL     OW14194   1.279   3.666   6.490
 4432SOL    HW114195   1.286   3.763   6.466
 4432SOL    HW214196   1.293   3.655   6.589
 4433SOL     OW14197   0.775   0.225   4.809
 4433SOL    HW114198   0.797   0.304   4.753
 4433SOL    HW214199   0.687   0.240   4.855
 4434SOL     OW14200   6.478   1.075   2.422
 4434SOL    HW114201   6.561   1.100   2.473
 4434SOL    HW214202   6.503   1.021   2.342
 4435SOL     OW14203   2.449   4.550   1.202
 4435SOL    HW114204   2.513   4.539   1.278
 4435SOL    HW214205   2.442   4.464   1.151
 4436SOL     OW14206   4.660   2.417   1.678
 4436SOL    HW114207   4.717   2.495   1.650
 4436SOL    HW214208   4.683   2.390   1.771
 4437SOL     OW14209   6.706   5.188   6.617
 4437SOL    HW114210   6.657   5.101   6.616
 4437SOL    HW214211   6.690   5.234   6.704
 4438SOL     OW14212   4.475   1.484   4.603
 4438SOL    HW114213   4.478   1.530   4.692
 4438SOL    HW214214   4.510   1.391   4.612
 4439SOL     OW14215   2.761   4.787   1.796
 4439SOL    HW114216   2.812   4.873   1.800
 4439SOL    HW214217   2.803   4.721   1.858
 4440SOL     OW14218   1.993   5.182   5.632
 4440SOL    HW114219   1.898   5.208   5.652
 4440SOL    HW214220   2.014   5.207   5.537
 4441SOL     OW14221   6.333   1.246   1.020
 4441SOL    HW114222   6.323   1.232   0.921
 4441SOL    HW214223   6.374   1.165   1.061
 4442SOL     OW14224   1.580   4.905   1.327
 4442SOL    HW114225   1.495   4.956   1.319
 4442SOL    HW214226   1.642   4.930   1.253
 4443SOL     OW14227   1.187   6.047   5.099
 4443SOL    HW114228   1.225   6.139   5.104
 4443SOL    HW214229   1.120   6.033   5.172
 4444SOL     OW14230   5.152   5.965   6.953
 4444SOL    HW114231   5.123   6.038   6.891
 4444SOL    HW214232   5.200   6.005   0.004
 4445SOL     OW14233   2.132   3.483   0.661
 4445SOL    HW114234   2.055   3.493   0.725
 4445SOL    HW214235   2.144   3.386   0.640
 4446SOL     OW14236   5.301   2.096   2.090
 4446SOL    HW114237   5.321   2.001   2.068
 4446SOL    HW214238   5.378   2.154   2.063
 4447SOL     OW14239   4.760   5.929   5.246
 4447SOL    HW114240   4.703   5.874   5.309
 4447SOL    HW214241   4.856   5.921   5.273
 4448SOL     OW14242   3.153   6.599   2.636
 4448SOL    HW114243   3.124   6.669   2.571
 4448SOL    HW214244   3.125   6.509   2.603
 4449SOL     OW14245   4.110   1.689   5.890
 4449SOL    HW114246   4.047   1.736   5.951
 4449SOL    HW214247   4.118   1.739   5.804
 4450SOL     OW14248   1.961   6.003   0.705
 4450SOL    HW114249   2.011   5.922   0.735
 4450SOL    HW214250   1.891   5.977   0.638
 4451SOL     OW14251   5.009   5.958   3.807
 4451SOL    HW114252   5.089   5.930   3.859
 4451SOL    HW214253   5.005   6.058   3.802
 4452SOL     OW14254   5.234   4.535   3.468
 4452SOL    HW114255   5.266   4.570   3.379
 4452SOL    HW214256   5.135   4.527   3.467
 4453SOL     OW14257   0.368   5.625   1.387
 4453SOL    HW114258   0.444   5.562   1.400
 4453SOL    HW214259   0.396   5.718   1.411
 4454SOL     OW14260   0.739   1.196   0.433
 4454SOL    HW114261   0.641   1.213   0.443
 4454SOL    HW214262   0.770   1.136   0.507
 4455SOL     OW14263   1.227   0.656   4.229
 4455SOL    HW114264   1.142   0.684   4.182
 4455SOL    HW214265   1.305   0.694   4.180
 4456SOL     OW14266   1.351   5.876   3.980
 4456SOL    HW114267   1.358   5.787   4.024
 4456SOL    HW214268   1.306   5.865   3.891
 4457SOL     OW14269   1.524   2.073   4.299
 4457SOL    HW114270   1.567   2.130   4.368
 4457SOL    HW214271   1.488   2.130   4.226
 4458SOL     OW14272   2.034   1.991   6.119
 4458SOL    HW114273   2.121   2.004   6.167
 4458SOL    HW214274   1.988   2.080   6.108
 4459SOL     OW14275   0.654   4.354   3.060
 4459SOL    HW114276   0.664   4.332   3.157
 4459SOL    HW214277   0.568   4.318   3.025
 4460SOL     OW14278   6.834   3.010   5.105
 4460SOL    HW114279   6.859   3.021   5.009
 4460SOL    HW214280   6.891   3.070   5.162
 4461SOL     OW14281   2.152   0.431   0.738
 4461SOL    HW114282   2.195   0.371   0.670
 4461SOL    HW214283   2.053   0.428   0.728
 4462SOL     OW14284   6.926   4.441   2.146
 4462SOL    HW114285   6.968   4.531   2.157
 4462SOL    HW214286   6.994   4.370   2.168
 4463SOL     OW14287   5.872   2.103   0.209
 4463SOL    HW114288   5.781   2.140   0.226
 4463SOL    HW214289   5.924   2.166   0.153
 4464SOL     OW14290   0.637   3.619   1.103
 4464SOL    HW114291   0.557   3.655   1.151
 4464SOL    HW214292   0.608   3.560   1.028
 4465SOL     OW14293   4.215   4.813   1.710
 4465SOL    HW114294   4.204   4.741   1.779
 4465SOL    HW214295   4.127   4.830   1.666
 4466SOL     OW14296   0.553   3.046   2.794
 4466SOL    HW114297   0.475   3.015   2.738
 4466SOL    HW214298   0.608   3.111   2.741
 4467SOL     OW14299   5.176   4.683   1.327
 4467SOL    HW114300   5.099   4.732   1.369
 4467SOL    HW214301   5.193   4.720   1.236
 4468SOL     OW14302   1.847   3.109   0.423
 4468SOL    HW114303   1.894   3.028   0.387
 4468SOL    HW214304   1.776   3.137   0.358
 4469SOL     OW14305   1.847   5.710   1.961
 4469SOL    HW114306   1.748   5.720   1.962
 4469SOL    HW214307   1.883   5.724   2.053
 4470SOL     OW14308   0.827   6.890   2.891
 4470SOL    HW114309   0.825   6.878   2.990
 4470SOL    HW214310   0.904   6.948   2.865
 4471SOL     OW14311   1.164   0.717   6.802
 4471SOL    HW114312   1.179   0.619   6.812
 4471SOL    HW214313   1.073   0.740   6.837
 4472SOL     OW14314   1.693   2.782   0.555
 4472SOL    HW114315   1.601   2.820   0.549
 4472SOL    HW214316   1.704   2.709   0.488
 4473SOL     OW14317   0.259   2.442   5.098
 4473SOL    HW114318   0.352   2.466   5.126
 4473SOL    HW214319   0.193   2.483   5.160
 4474SOL     OW14320   2.364   6.491   1.211
 4474SOL    HW114321   2.353   6.573   1.156
 4474SOL    HW214322   2.389   6.414   1.153
 4475SOL     OW14323   0.675   3.585   0.421
 4475SOL    HW114324   0.725   3.672   0.425
 4475SOL    HW214325   0.644   3.560   0.513
 4476SOL     OW14326   4.893   0.698   3.563
 4476SOL    HW114327   4.862   0.706   3.468
 4476SOL    HW214328   4.920   0.603   3.581
 4477SOL     OW14329   0.053   1.077   4.748
 4477SOL    HW114330   7.010   1.110   4.812
 4477SOL    HW214331   0.131   1.043   4.799
 4478SOL     OW14332   1.098   0.673   2.583
 4478SOL    HW114333   1.162   0.598   2.604
 4478SOL    HW214334   1.099   0.690   2.485
 4479SOL     OW14335   2.713   3.128   0.048
 4479SOL    HW114336   2.662   3.213   0.060
 4479SOL    HW214337   2.673   3.076   6.999
 4480SOL     OW14338   6.539   0.066   3.112
 4480SOL    HW114339   6.531   6.993   3.112
 4480SOL    HW214340   6.507   0.103   3.199
 4481SOL     OW14341   2.153   3.687   6.098
 4481SOL    HW114342   2.194   3.677   6.189
 4481SOL    HW214343   2.223   3.717   6.033
 4482SOL     OW14344   2.644   0.012   1.264
 4482SOL    HW114345   2.647   6.938   1.262
 4482SOL    HW214346   2.623   0.042   1.357
 4483SOL     OW14347   0.985   3.136   0.934
 4483SOL    HW114348   0.981   3.196   1.014
 4483SOL    HW214349   0.951   3.185   0.854
 4484SOL     OW14350   3.747   0.355   0.958
 4484SOL    HW114351   3.742   0.323   1.053
 4484SOL    HW214352   3.836   0.331   0.920
 4485SOL     OW14353   0.301   2.875   5.108
 4485SOL    HW114354   0.238   2.870   5.185
 4485SOL    HW214355   0.391   2.903   5.140
 4486SOL     OW14356   5.380   4.797   3.622
 4486SOL    HW114357   5.283   4.810   3.640
 4486SOL    HW214358   5.396   4.703   3.591
 4487SOL     OW14359   0.225   2.545   6.490
 4487SOL    HW114360   0.132   2.533   6.526
 4487SOL    HW214361   0.276   2.606   6.551
 4488SOL     OW14362   5.596   4.961   3.676
 4488SOL    HW114363   5.516   4.916   3.636
 4488SOL    HW214364   5.577   5.059   3.687
 4489SOL     OW14365   3.478   6.224   6.098
 4489SOL    HW114366   3.523   6.314   6.097
 4489SOL    HW214367   3.458   6.196   6.004
 4490SOL     OW14368   5.333   1.822   2.347
 4490SOL    HW114369   5.261   1.878   2.387
 4490SOL    HW214370   5.420   1.872   2.350
 4491SOL     OW14371   0.173   4.045   2.848
 4491SOL    HW114372   0.242   3.972   2.849
 4491SOL    HW214373   0.164   4.083   2.939
 4492SOL     OW14374   6.929   1.115   2.167
 4492SOL    HW114375   6.928   1.157   2.076
 4492SOL    HW214376   7.024   1.104   2.197
 4493SOL     OW14377   5.446   1.290   6.357
 4493SOL    HW114378   5.352   1.259   6.368
 4493SOL    HW214379   5.461   1.319   6.263
 4494SOL     OW14380   1.447   1.684   2.387
 4494SOL    HW114381   1.519   1.750   2.408
 4494SOL    HW214382   1.467   1.597   2.433
 4495SOL     OW14383   4.101   6.336   1.131
 4495SOL    HW114384   4.010   6.313   1.165
 4495SOL    HW214385   4.151   6.251   1.113
 4496SOL     OW14386   2.281   5.100   5.599
 4496SOL    HW114387   2.333   5.117   5.682
 4496SOL    HW214388   2.192   5.145   5.606
 4497SOL     OW14389   4.276   6.930   5.396
 4497SOL    HW114390   4.197   6.991   5.398
 4497SOL    HW214391   4.273   6.874   5.313
 4498SOL     OW14392   1.732   4.880   4.331
 4498SOL    HW114393   1.693   4.789   4.316
 4498SOL    HW214394   1.682   4.926   4.405
 4499SOL     OW14395   5.569   2.240   2.299
 4499SOL    HW114396   5.640   2.198   2.243
 4499SOL    HW214397   5.543   2.178   2.373
 4500SOL     OW14398   3.380   6.727   0.094
 4500SOL    HW114399   3.284   6.720   0.069
 4500SOL    HW214400   3.436   6.736   0.011
 4501SOL     OW14401   5.969   0.250   2.963
 4501SOL    HW114402   6.033   0.223   3.035
 4501SOL    HW214403   5.875   0.236   2.994
 4502SOL     OW14404   1.088   4.215   0.003
 4502SOL    HW114405   0.991   4.222   7.004
 4502SOL    HW214406   1.133   4.148   6.971
 4503SOL     OW14407   3.719   1.323   2.983
 4503SOL    HW114408   3.761   1.254   3.043
 4503SOL    HW214409   3.659   1.277   2.917
 4504SOL     OW14410   1.314   2.624   3.868
 4504SOL    HW114411   1.375   2.620   3.948
 4504SOL    HW214412   1.232   2.677   3.891
 4505SOL     OW14413   6.872   3.454   3.446
 4505SOL    HW114414   6.841   3.466   3.351
 4505SOL    HW214415   6.906   3.360   3.458
 4506SOL     OW14416   4.256   4.090   0.199
 4506SOL    HW114417   4.194   4.068   0.274
 4506SOL    HW214418   4.257   4.015   0.133
 4507SOL     OW14419   6.099   2.592   3.017
 4507SOL    HW114420   6.052   2.547   2.941
 4507SOL    HW214421   6.041   2.587   3.098
 4508SOL     OW14422   5.849   5.213   0.050
 4508SOL    HW114423   5.923   5.186   7.014
 4508SOL    HW214424   5.830   5.139   0.114
 4509SOL     OW14425   4.469   1.851   2.863
 4509SOL    HW114426   4.395   1.872   2.799
 4509SOL    HW214427   4.430   1.828   2.952
 4510SOL     OW14428   4.815   1.923   3.688
 4510SOL    HW114429   4.817   1.827   3.660
 4510SOL    HW214430   4.789   1.929   3.784
 4511SOL     OW14431   0.731   4.368   6.761
 4511SOL    HW114432   0.749   4.359   6.663
 4511SOL    HW214433   0.733   4.464   6.787
 4512SOL     OW14434   2.791   3.726   5.739
 4512SOL    HW114435   2.725   3.711   5.665
 4512SOL    HW214436   2.875   3.676   5.718
 4513SOL     OW14437   0.584   1.302   1.322
 4513SOL    HW114438   0.526   1.296   1.404
 4513SOL    HW214439   0.549   1.240   1.252
 4514SOL     OW14440   4.559   4.486   6.529
 4514SOL    HW114441   4.551   4.576   6.486
 4514SOL    HW214442   4.653   4.473   6.561
 4515SOL     OW14443   4.272   0.135   5.665
 4515SOL    HW114444   4.332   0.063   5.702
 4515SOL    HW214445   4.324   0.192   5.602
 4516SOL     OW14446   3.316   1.574   5.377
 4516SOL    HW114447   3.365   1.638   5.319
 4516SOL    HW214448   3.373   1.494   5.394
 4517SOL     OW14449   3.568   0.244   4.032
 4517SOL    HW114450   3.490   0.212   3.979
 4517SOL    HW214451   3.544   0.245   4.130
 4518SOL     OW14452   6.741   0.063   0.657
 4518SOL    HW114453   6.758   6.991   0.663
 4518SOL    HW214454   6.712   0.087   0.565
 4519SOL     OW14455   5.041   0.135   6.409
 4519SOL    HW114456   5.109   0.190   6.457
 4519SOL    HW214457   5.061   0.135   6.311
 4520SOL     OW14458   4.489   5.286   4.600
 4520SOL    HW114459   4.527   5.230   4.527
 4520SOL    HW214460   4.394   5.310   4.579
 4521SOL     OW14461   4.542   2.551   4.376
 4521SOL    HW114462   4.485   2.478   4.338
 4521SOL    HW214463   4.604   2.585   4.306
 4522SOL     OW14464   5.432   4.168   3.191
 4522SOL    HW114465   5.391   4.126   3.109
 4522SOL    HW214466   5.476   4.097   3.246
 4523SOL     OW14467   0.436   2.905   6.882
 4523SOL    HW114468   0.398   2.971   6.947
 4523SOL    HW214469   0.497   2.842   6.930
 4524SOL     OW14470   2.182   3.798   1.993
 4524SOL    HW114471   2.207   3.702   2.006
 4524SOL    HW214472   2.188   3.821   1.896
 4525SOL     OW14473   3.495   1.441   5.830
 4525SOL    HW114474   3.592   1.420   5.842
 4525SOL    HW214475   3.480   1.538   5.849
 4526SOL     OW14476   0.889   6.767   5.492
 4526SOL    HW114477   0.963   6.835   5.496
 4526SOL    HW214478   0.856   6.760   5.398
 4527SOL     OW14479   0.881   2.517   2.549
 4527SOL    HW114480   0.932   2.598   2.578
 4527SOL    HW214481   0.907   2.494   2.455
 4528SOL     OW14482   5.701   2.003   4.666
 4528SOL    HW114483   5.649   2.084   4.694
 4528SOL    HW214484   5.765   1.978   4.739
 4529SOL     OW14485   1.553   2.731   3.636
 4529SOL    HW114486   1.457   2.750   3.657
 4529SOL    HW214487   1.584   2.652   3.690
 4530SOL     OW14488   4.105   4.719   6.098
 4530SOL    HW114489   4.033   4.674   6.045
 4530SOL    HW214490   4.119   4.669   6.183
 4531SOL     OW14491   1.599   6.866   5.293
 4531SOL    HW114492   1.509   6.848   5.332
 4531SOL    HW214493   1.665   6.880   5.367
 4532SOL     OW14494   5.670   1.107   2.297
 4532SOL    HW114495   5.601   1.145   2.358
 4532SOL    HW214496   5.625   1.069   2.216
 4533SOL     OW14497   2.722   5.494   1.290
 4533SOL    HW114498   2.688   5.479   1.198
 4533SOL    HW214499   2.676   5.432   1.354
 4534SOL     OW14500   5.752   1.581   4.543
 4534SOL    HW114501   5.750   1.494   4.495
 4534SOL    HW214502   5.819   1.577   4.618
 4535SOL     OW14503   1.575   0.003   0.460
 4535SOL    HW114504   1.630   0.032   0.382
 4535SOL    HW214505   1.508   6.962   0.430
 4536SOL     OW14506   3.824   0.646   5.354
 4536SOL    HW114507   3.738   0.692   5.333
 4536SOL    HW214508   3.867   0.617   5.268
 4537SOL     OW14509   3.324   3.754   3.572
 4537SOL    HW114510   3.256   3.824   3.554
 4537SOL    HW214511   3.375   3.734   3.488
 4538SOL     OW14512   1.113   2.982   0.493
 4538SOL    HW114513   1.165   2.904   0.459
 4538SOL    HW214514   1.124   3.059   0.430
 4539SOL     OW14515   0.860   4.674   5.110
 4539SOL    HW114516   0.842   4.746   5.176
 4539SOL    HW214517   0.928   4.706   5.044
 4540SOL     OW14518   1.933   2.009   0.443
 4540SOL    HW114519   1.958   1.919   0.409
 4540SOL    HW214520   1.886   2.060   0.370
 4541SOL     OW14521   4.278   3.018   0.149
 4541SOL    HW114522   4.210   3.030   0.222
 4541SOL    HW214523   4.236   2.968   0.073
 4542SOL     OW14524   6.828   1.477   0.120
 4542SOL    HW114525   6.863   1.418   0.192
 4542SOL    HW214526   6.903   1.532   0.082
 4543SOL     OW14527   4.016   1.068   0.985
 4543SOL    HW114528   3.926   1.027   0.999
 4543SOL    HW214529   4.078   1.001   0.944
 4544SOL     OW14530   4.863   6.103   0.261
 4544SOL    HW114531   4.963   6.109   0.260
 4544SOL    HW214532   4.826   6.164   0.190
 4545SOL     OW14533   3.180   3.274   5.485
 4545SOL    HW114534   3.239   3.196   5.463
 4545SOL    HW214535   3.084   3.249   5.470
 4546SOL     OW14536   4.772   6.664   5.623
 4546SOL    HW114537   4.735   6.721   5.550
 4546SOL    HW214538   4.806   6.722   5.697
 4547SOL     OW14539   6.673   1.074   0.195
 4547SOL    HW114540   6.629   1.117   0.117
 4547SOL    HW214541   6.604   1.049   0.263
 4548SOL     OW14542   3.209   1.449   2.030
 4548SOL    HW114543   3.177   1.517   2.095
 4548SOL    HW214544   3.184   1.477   1.937
 4549SOL     OW14545   6.860   4.759   3.667
 4549SOL    HW114546   6.847   4.814   3.585
 4549SOL    HW214547   6.899   4.671   3.643
 4550SOL     OW14548   2.614   5.446   6.816
 4550SOL    HW114549   2.653   5.530   6.855
 4550SOL    HW214550   2.531   5.470   6.764
 4551SOL     OW14551   3.747   3.177   5.863
 4551SOL    HW114552   3.817   3.213   5.924
 4551SOL    HW214553   3.789   3.148   5.777
 4552SOL     OW14554   4.812   0.604   6.858
 4552SOL    HW114555   4.762   0.690   6.847
 4552SOL    HW214556   4.848   0.575   6.769
 4553SOL     OW14557   0.125   0.009   0.617
 4553SOL    HW114558   0.077   6.983   0.688
 4553SOL    HW214559   0.088   0.102   0.613
 4554SOL     OW14560   5.730   6.452   2.623
 4554SOL    HW114561   5.726   6.357   2.591
 4554SOL    HW214562   5.738   6.513   2.544
 4555SOL     OW14563   0.258   0.139   3.112
 4555SOL    HW114564   0.273   0.234   3.083
 4555SOL    HW214565   0.345   0.099   3.141
 4556SOL     OW14566   5.044   4.311   5.052
 4556SOL    HW114567   5.025   4.331   4.956
 4556SOL    HW214568   5.034   4.395   5.106
 4557SOL     OW14569   0.229   5.490   4.910
 4557SOL    HW114570   0.272   5.405   4.941
 4557SOL    HW214571   0.283   5.568   4.940
 4558SOL     OW14572   0.933   4.463   3.604
 4558SOL    HW114573   0.924   4.524   3.525
 4558SOL    HW214574   0.956   4.371   3.573
 4559SOL     OW14575   0.022   3.671   4.469
 4559SOL    HW114576   7.020   3.597   4.409
 4559SOL    HW214577   0.118   3.695   4.449
 4560SOL     OW14578   6.838   3.831   3.464
 4560SOL    HW114579   6.744   3.798   3.466
 4560SOL    HW214580   6.896   3.764   3.419
 4561SOL     OW14581   5.183   3.303   4.240
 4561SOL    HW114582   5.244   3.285   4.318
 4561SOL    HW214583   5.132   3.388   4.257
 4562SOL     OW14584   4.667   1.337   1.011
 4562SOL    HW114585   4.613   1.254   0.994
 4562SOL    HW214586   4.759   1.311   1.040
 4563SOL     OW14587   0.812   4.174   1.880
 4563SOL    HW114588   0.885   4.168   1.948
 4563SOL    HW214589   0.829   4.252   1.819
 4564SOL     OW14590   2.083   3.617   2.220
 4564SOL    HW114591   2.143   3.585   2.147
 4564SOL    HW214592   2.031   3.697   2.188
 4565SOL     OW14593   2.000   6.565   4.995
 4565SOL    HW114594   2.053   6.506   5.055
 4565SOL    HW214595   1.942   6.625   5.050
 4566SOL     OW14596   6.994   4.818   2.944
 4566SOL    HW114597   0.031   4.745   2.918
 4566SOL    HW214598   6.933   4.839   2.868
 4567SOL     OW14599   0.882   0.014   0.272
 4567SOL    HW114600   0.799   0.067   0.291
 4567SOL    HW214601   0.932   0.056   0.196
 4568SOL     OW14602   0.205   4.194   3.881
 4568SOL    HW114603   0.188   4.149   3.793
 4568SOL    HW214604   0.291   4.244   3.876
 4569SOL     OW14605   0.440   2.896   3.789
 4569SOL    HW114606   0.361   2.834   3.798
 4569SOL    HW214607   0.475   2.892   3.695
 4570SOL     OW14608   5.019   6.130   1.602
 4570SOL    HW114609   5.111   6.166   1.615
 4570SOL    HW214610   4.990   6.082   1.685
 4571SOL     OW14611   1.916   2.468   5.118
 4571SOL    HW114612   1.843   2.534   5.138
 4571SOL    HW214613   1.875   2.384   5.082
 4572SOL     OW14614   4.919   3.477   1.765
 4572SOL    HW114615   4.911   3.551   1.698
 4572SOL    HW214616   4.847   3.409   1.749
 4573SOL     OW14617   1.871   5.124   1.034
 4573SOL    HW114618   1.884   5.141   1.132
 4573SOL    HW214619   1.834   5.033   1.020
 4574SOL     OW14620   5.186   0.403   1.812
 4574SOL    HW114621   5.280   0.374   1.830
 4574SOL    HW214622   5.143   0.432   1.897
 4575SOL     OW14623   0.290   1.705   5.228
 4575SOL    HW114624   0.307   1.639   5.155
 4575SOL    HW214625   0.375   1.753   5.251
 4576SOL     OW14626   2.712   3.626   6.859
 4576SOL    HW114627   2.615   3.634   6.835
 4576SOL    HW214628   2.764   3.695   6.808
 4577SOL     OW14629   0.584   2.353   2.060
 4577SOL    HW114630   0.534   2.422   2.008
 4577SOL    HW214631   0.639   2.297   1.998
 4578SOL     OW14632   1.544   0.682   3.152
 4578SOL    HW114633   1.464   0.623   3.152
 4578SOL    HW214634   1.625   0.629   3.175
 4579SOL     OW14635   4.179   0.802   2.693
 4579SOL    HW114636   4.222   0.718   2.725
 4579SOL    HW214637   4.215   0.880   2.745
 4580SOL     OW14638   1.133   0.397   1.584
 4580SOL    HW114639   1.070   0.322   1.563
 4580SOL    HW214640   1.116   0.429   1.677
 4581SOL     OW14641   3.234   0.730   1.705
 4581SOL    HW114642   3.149   0.746   1.755
 4581SOL    HW214643   3.213   0.718   1.608
 4582SOL     OW14644   5.777   0.880   4.599
 4582SOL    HW114645   5.684   0.857   4.629
 4582SOL    HW214646   5.781   0.876   4.499
 4583SOL     OW14647   1.888   6.140   6.728
 4583SOL    HW114648   1.865   6.121   6.824
 4583SOL    HW214649   1.967   6.200   6.724
 4584SOL     OW14650   6.813   1.047   4.548
 4584SOL    HW114651   6.862   1.078   4.629
 4584SOL    HW214652   6.876   0.997   4.488
 4585SOL     OW14653   0.791   2.688   2.819
 4585SOL    HW114654   0.695   2.697   2.845
 4585SOL    HW214655   0.827   2.779   2.796
 4586SOL     OW14656   0.027   4.992   5.624
 4586SOL    HW114657   6.974   4.937   5.603
 4586SOL    HW214658   0.084   4.945   5.692
 4587SOL     OW14659   4.413   3.074   6.338
 4587SOL    HW114660   4.335   3.129   6.306
 4587SOL    HW214661   4.382   3.012   6.410
 4588SOL     OW14662   2.241   4.689   6.446
 4588SOL    HW114663   2.297   4.771   6.439
 4588SOL    HW214664   2.223   4.653   6.355
 4589SOL     OW14665   4.860   5.873   2.203
 4589SOL    HW114666   4.871   5.794   2.143
 4589SOL    HW214667   4.766   5.878   2.236
 4590SOL     OW14668   2.158   4.918   1.818
 4590SOL    HW114669   2.237   4.977   1.835
 4590SOL    HW214670   2.152   4.899   1.720
 4591SOL     OW14671   2.120   1.794   4.900
 4591SOL    HW114672   2.207   1.797   4.850
 4591SOL    HW214673   2.106   1.703   4.937
 4592SOL     OW14674   2.832   2.383   3.220
 4592SOL    HW114675   2.897   2.389   3.144
 4592SOL    HW214676   2.862   2.314   3.285
 4593SOL     OW14677   1.633   5.833   4.608
 4593SOL    HW114678   1.548   5.786   4.632
 4593SOL    HW214679   1.621   5.880   4.521
 4594SOL     OW14680   0.892   6.409   3.889
 4594SOL    HW114681   0.957   6.447   3.954
 4594SOL    HW214682   0.823   6.356   3.938
 4595SOL     OW14683   5.688   1.942   6.774
 4595SOL    HW114684   5.732   1.966   6.861
 4595SOL    HW214685   5.752   1.959   6.699
 4596SOL     OW14686   0.580   1.606   2.739
 4596SOL    HW114687   0.548   1.515   2.764
 4596SOL    HW214688   0.547   1.629   2.647
 4597SOL     OW14689   1.898   5.522   0.618
 4597SOL    HW114690   1.861   5.614   0.629
 4597SOL    HW214691   1.858   5.480   0.536
 4598SOL     OW14692   0.445   2.703   0.258
 4598SOL    HW114693   0.476   2.797   0.269
 4598SOL    HW214694   0.504   2.642   0.311
 4599SOL     OW14695   3.085   6.575   3.369
 4599SOL    HW114696   3.088   6.537   3.461
 4599SOL    HW214697   2.997   6.622   3.355
 4600SOL     OW14698   0.609   6.764   5.827
 4600SOL    HW114699   0.643   6.771   5.921
 4600SOL    HW214700   0.679   6.722   5.769
 4601SOL     OW14701   1.864   0.813   5.080
 4601SOL    HW114702   1.944   0.800   5.138
 4601SOL    HW214703   1.893   0.841   4.989
 4602SOL     OW14704   4.192   0.786   6.186
 4602SOL    HW114705   4.282   0.823   6.208
 4602SOL    HW214706   4.198   0.727   6.106
 4603SOL     OW14707   4.501   6.811   1.038
 4603SOL    HW114708   4.518   6.723   0.995
 4603SOL    HW214709   4.514   6.884   0.972
 4604SOL     OW14710   0.628   6.345   3.568
 4604SOL    HW114711   0.600   6.421   3.509
 4604SOL    HW214712   0.724   6.357   3.594
 4605SOL     OW14713   4.717   1.752   1.787
 4605SOL    HW114714   4.770   1.798   1.715
 4605SOL    HW214715   4.756   1.662   1.805
 4606SOL     OW14716   0.168   0.153   4.411
 4606SOL    HW114717   0.151   0.159   4.312
 4606SOL    HW214718   0.188   0.244   4.447
 4607SOL     OW14719   2.785   1.799   0.862
 4607SOL    HW114720   2.732   1.863   0.919
 4607SOL    HW214721   2.858   1.848   0.816
 4608SOL     OW14722   0.640   2.093   5.598
 4608SOL    HW114723   0.654   1.997   5.577
 4608SOL    HW214724   0.565   2.129   5.542
 4609SOL     OW14725   6.174   5.091   6.089
 4609SOL    HW114726   6.146   5.147   6.011
 4609SOL    HW214727   6.168   5.146   6.173
 4610SOL     OW14728   5.176   4.029   6.440
 4610SOL    HW114729   5.243   3.980   6.384
 4610SOL    HW214730   5.136   4.104   6.388
 4611SOL     OW14731   6.967   0.372   6.168
 4611SOL    HW114732   6.977   0.470   6.148
 4611SOL    HW214733   0.020   0.340   6.219
 4612SOL     OW14734   1.567   0.698   2.737
 4612SOL    HW114735   1.638   0.718   2.804
 4612SOL    HW214736   1.532   0.784   2.699
 4613SOL     OW14737   1.702   5.147   3.463
 4613SOL    HW114738   1.766   5.095   3.520
 4613SOL    HW214739   1.614   5.156   3.511
 4614SOL     OW14740   6.951   5.111   2.620
 4614SOL    HW114741   6.914   5.043   2.683
 4614SOL    HW214742   0.024   5.110   2.623
 4615SOL     OW14743   0.698   4.644   6.870
 4615SOL    HW114744   0.719   4.637   6.967
 4615SOL    HW214745   0.757   4.713   6.828
 4616SOL     OW14746   1.493   3.959   6.578
 4616SOL    HW114747   1.434   4.034   6.549
 4616SOL    HW214748   1.466   3.929   6.670
 4617SOL     OW14749   0.470   4.175   4.299
 4617SOL    HW114750   0.550   4.221   4.338
 4617SOL    HW214751   0.486   4.159   4.201
 4618SOL     OW14752   2.005   4.128   5.219
 4618SOL    HW114753   2.071   4.072   5.269
 4618SOL    HW214754   2.027   4.126   5.122
 4619SOL     OW14755   4.708   5.898   6.799
 4619SOL    HW114756   4.769   5.933   6.871
 4619SOL    HW214757   4.614   5.921   6.821
 4620SOL     OW14758   1.313   4.192   1.895
 4620SOL    HW114759   1.312   4.264   1.964
 4620SOL    HW214760   1.260   4.220   1.815
 4621SOL     OW14761   2.981   0.112   3.051
 4621SOL    HW114762   3.049   0.101   3.124
 4621SOL    HW214763   2.927   0.195   3.068
 4622SOL     OW14764   6.279   0.362   0.478
 4622SOL    HW114765   6.351   0.293   0.489
 4622SOL    HW214766   6.290   0.433   0.548
 4623SOL     OW14767   2.841   4.843   2.808
 4623SOL    HW114768   2.858   4.788   2.890
 4623SOL    HW214769   2.755   4.894   2.819
 4624SOL     OW14770   5.421   1.725   0.615
 4624SOL    HW114771   5.497   1.780   0.582
 4624SOL    HW214772   5.436   1.629   0.592
 4625SOL     OW14773   0.653   6.452   1.947
 4625SOL    HW114774   0.702   6.466   1.861
 4625SOL    HW214775   0.713   6.476   2.024
 4626SOL     OW14776   4.153   3.801   1.929
 4626SOL    HW114777   4.141   3.756   2.017
 4626SOL    HW214778   4.211   3.881   1.939
 4627SOL     OW14779   5.504   6.638   4.594
 4627SOL    HW114780   5.483   6.581   4.515
 4627SOL    HW214781   5.422   6.686   4.624
 4628SOL     OW14782   6.590   4.411   3.125
 4628SOL    HW114783   6.648   4.493   3.121
 4628SOL    HW214784   6.639   4.334   3.084
 4629SOL     OW14785   1.412   5.404   1.243
 4629SOL    HW114786   1.441   5.436   1.153
 4629SOL    HW214787   1.451   5.463   1.314
 4630SOL     OW14788   1.843   3.681   1.281
 4630SOL    HW114789   1.927   3.735   1.289
 4630SOL    HW214790   1.865   3.590   1.247
 4631SOL     OW14791   6.402   1.795   2.039
 4631SOL    HW114792   6.461   1.749   2.104
 4631SOL    HW214793   6.358   1.873   2.083
 4632SOL     OW14794   2.926   4.784   3.674
 4632SOL    HW114795   2.978   4.788   3.588
 4632SOL    HW214796   2.986   4.808   3.750
 4633SOL     OW14797   5.566   3.497   3.944
 4633SOL    HW114798   5.568   3.408   3.991
 4633SOL    HW214799   5.600   3.486   3.851
 4634SOL     OW14800   3.847   2.857   5.177
 4634SOL    HW114801   3.872   2.776   5.125
 4634SOL    HW214802   3.772   2.835   5.239
 4635SOL     OW14803   4.269   0.366   2.356
 4635SOL    HW114804   4.338   0.363   2.428
 4635SOL    HW214805   4.261   0.277   2.312
 4636SOL     OW14806   1.690   5.719   6.602
 4636SOL    HW114807   1.715   5.765   6.687
 4636SOL    HW214808   1.660   5.626   6.622
 4637SOL     OW14809   1.905   2.672   3.162
 4637SOL    HW114810   1.884   2.575   3.151
 4637SOL    HW214811   1.835   2.715   3.219
 4638SOL     OW14812   4.233   4.235   6.965
 4638SOL    HW114813   4.256   4.180   6.885
 4638SOL    HW214814   4.297   4.214   0.013
 4639SOL     OW14815   4.080   2.669   1.698
 4639SOL    HW114816   3.986   2.639   1.711
 4639SOL    HW214817   4.098   2.681   1.600
 4640SOL     OW14818   0.041   2.365   0.382
 4640SOL    HW114819   7.026   2.274   0.384
 4640SOL    HW214820   0.033   2.407   0.472
 4641SOL     OW14821   1.230   5.961   4.857
 4641SOL    HW114822   1.197   5.993   4.946
 4641SOL    HW214823   1.197   5.868   4.841
 4642SOL     OW14824   5.765   1.382   6.351
 4642SOL    HW114825   5.753   1.481   6.365
 4642SOL    HW214826   5.692   1.348   6.291
 4643SOL     OW14827   0.388   1.997   0.250
 4643SOL    HW114828   0.290   2.016   0.253
 4643SOL    HW214829   0.422   1.982   0.343
 4644SOL     OW14830   1.216   1.600   0.819
 4644SOL    HW114831   1.156   1.678   0.836
 4644SOL    HW214832   1.236   1.554   0.906
 4645SOL     OW14833   5.707   2.263   5.900
 4645SOL    HW114834   5.629   2.320   5.925
 4645SOL    HW214835   5.784   2.283   5.961
 4646SOL     OW14836   1.191   4.084   2.404
 4646SOL    HW114837   1.279   4.069   2.359
 4646SOL    HW214838   1.151   3.995   2.429
 4647SOL     OW14839   2.174   6.153   2.525
 4647SOL    HW114840   2.107   6.218   2.490
 4647SOL    HW214841   2.266   6.189   2.509
 4648SOL     OW14842   2.617   0.877   4.115
 4648SOL    HW114843   2.644   0.928   4.033
 4648SOL    HW214844   2.602   0.940   4.191
 4649SOL     OW14845   4.531   3.309   0.735
 4649SOL    HW114846   4.480   3.334   0.652
 4649SOL    HW214847   4.501   3.365   0.811
 4650SOL     OW14848   3.747   5.226   0.600
 4650SOL    HW114849   3.826   5.207   0.542
 4650SOL    HW214850   3.720   5.322   0.589
 4651SOL     OW14851   1.497   3.245   0.001
 4651SOL    HW114852   1.485   3.182   0.079
 4651SOL    HW214853   1.585   3.228   6.984
 4652SOL     OW14854   0.173   0.119   5.360
 4652SOL    HW114855   0.170   0.023   5.332
 4652SOL    HW214856   0.258   0.137   5.409
 4653SOL     OW14857   0.618   6.485   0.713
 4653SOL    HW114858   0.697   6.499   0.772
 4653SOL    HW214859   0.616   6.558   0.643
 4654SOL     OW14860   1.012   1.436   5.148
 4654SOL    HW114861   0.967   1.497   5.083
 4654SOL    HW214862   1.090   1.482   5.189
 4655SOL     OW14863   5.713   5.175   2.795
 4655SOL    HW114864   5.684   5.245   2.860
 4655SOL    HW214865   5.711   5.086   2.839
 4656SOL     OW14866   5.959   0.752   1.726
 4656SOL    HW114867   6.036   0.733   1.666
 4656SOL    HW214868   5.984   0.822   1.793
 4657SOL     OW14869   3.744   1.856   2.506
 4657SOL    HW114870   3.688   1.906   2.440
 4657SOL    HW214871   3.685   1.810   2.572
 4658SOL     OW14872   1.653   1.494   0.441
 4658SOL    HW114873   1.596   1.574   0.462
 4658SOL    HW214874   1.655   1.480   0.342
 4659SOL     OW14875   2.086   4.670   0.767
 4659SOL    HW114876   2.006   4.620   0.797
 4659SOL    HW214877   2.154   4.672   0.840
 4660SOL     OW14878   0.270   5.112   4.472
 4660SOL    HW114879   0.333   5.160   4.533
 4660SOL    HW214880   0.276   5.014   4.489
 4661SOL     OW14881   0.826   0.793   6.058
 4661SOL    HW114882   0.916   0.794   6.014
 4661SOL    HW214883   0.815   0.707   6.108
 4662SOL     OW14884   2.800   0.632   5.801
 4662SOL    HW114885   2.702   0.652   5.795
 4662SOL    HW214886   2.822   0.555   5.741
 4663SOL     OW14887   0.478   0.681   1.483
 4663SOL    HW114888   0.460   0.601   1.426
 4663SOL    HW214889   0.526   0.653   1.566
 4664SOL     OW14890   5.698   6.382   4.884
 4664SOL    HW114891   5.659   6.317   4.949
 4664SOL    HW214892   5.796   6.365   4.875
 4665SOL     OW14893   0.105   1.036   2.946
 4665SOL    HW114894   0.203   1.014   2.943
 4665SOL    HW214895   0.052   0.955   2.920
 4666SOL     OW14896   1.535   2.454   6.017
 4666SOL    HW114897   1.622   2.503   6.019
 4666SOL    HW214898   1.470   2.503   5.959
 4667SOL     OW14899   6.816   2.685   0.959
 4667SOL    HW114900   6.721   2.692   0.928
 4667SOL    HW214901   6.836   2.761   1.021
 4668SOL     OW14902   4.597   1.464   5.516
 4668SOL    HW114903   4.623   1.495   5.425
 4668SOL    HW214904   4.594   1.542   5.578
 4669SOL     OW14905   5.275   6.484   6.337
 4669SOL    HW114906   5.367   6.450   6.357
 4669SOL    HW214907   5.278   6.583   6.324
 4670SOL     OW14908   0.718   3.083   0.351
 4670SOL    HW114909   0.693   3.174   0.318
 4670SOL    HW214910   0.782   3.092   0.427
 4671SOL     OW14911   0.040   2.120   1.767
 4671SOL    HW114912   7.008   2.146   1.844
 4671SOL    HW214913   0.110   2.191   1.753
 4672SOL     OW14914   3.813   3.065   0.817
 4672SOL    HW114915   3.913   3.061   0.824
 4672SOL    HW214916   3.774   2.991   0.872
 4673SOL     OW14917   5.322   0.836   1.191
 4673SOL    HW114918   5.363   0.821   1.101
 4673SOL    HW214919   5.227   0.803   1.190
 4674SOL     OW14920   0.884   3.373   0.044
 4674SOL    HW114921   0.821   3.388   0.120
 4674SOL    HW214922   0.968   3.330   0.078
 4675SOL     OW14923   2.022   6.188   0.446
 4675SOL    HW114924   1.997   6.121   0.516
 4675SOL    HW214925   2.117   6.215   0.459
 4676SOL     OW14926   1.098   5.674   4.875
 4676SOL    HW114927   1.066   5.591   4.829
 4676SOL    HW214928   1.188   5.657   4.914
 4677SOL     OW14929   4.419   6.984   6.718
 4677SOL    HW114930   4.492   0.025   6.707
 4677SOL    HW214931   4.410   6.960   6.815
 4678SOL     OW14932   2.230   4.505   0.346
 4678SOL    HW114933   2.240   4.551   0.258
 4678SOL    HW214934   2.320   4.473   0.377
 4679SOL     OW14935   2.359   0.002   5.326
 4679SOL    HW114936   2.374   6.963   5.400
 4679SOL    HW214937   2.443   0.012   5.273
 4680SOL     OW14938   1.217   5.477   6.120
 4680SOL    HW114939   1.120   5.504   6.126
 4680SOL    HW214940   1.225   5.378   6.131
 4681SOL     OW14941   6.682   6.002   4.922
 4681SOL    HW114942   6.686   6.037   5.015
 4681SOL    HW214943   6.603   6.041   4.874
 4682SOL     OW14944   3.149   0.708   0.932
 4682SOL    HW114945   3.124   0.636   0.996
 4682SOL    HW214946   3.091   0.702   0.851
 4683SOL     OW14947   0.781   4.759   3.624
 4683SOL    HW114948   0.853   4.815   3.665
 4683SOL    HW214949   0.816   4.712   3.544
 4684SOL     OW14950   2.110   1.555   5.019
 4684SOL    HW114951   2.016   1.578   5.044
 4684SOL    HW214952   2.166   1.547   5.102
 4685SOL     OW14953   5.192   4.314   3.956
 4685SOL    HW114954   5.143   4.308   4.043
 4685SOL    HW214955   5.279   4.266   3.963
 4686SOL     OW14956   5.270   5.412   6.137
 4686SOL    HW114957   5.185   5.419   6.190
 4686SOL    HW214958   5.344   5.384   6.198
 4687SOL     OW14959   4.684   0.355   4.750
 4687SOL    HW114960   4.770   0.404   4.763
 4687SOL    HW214961   4.703   0.262   4.719
 4688SOL     OW14962   6.800   0.946   1.124
 4688SOL    HW114963   6.769   1.038   1.149
 4688SOL    HW214964   6.863   0.912   1.193
 4689SOL     OW14965   1.887   5.631   4.285
 4689SOL    HW114966   1.854   5.699   4.221
 4689SOL    HW214967   1.869   5.661   4.379
 4690SOL     OW14968   2.538   1.617   0.653
 4690SOL    HW114969   2.559   1.521   0.668
 4690SOL    HW214970   2.450   1.639   0.695
 4691SOL     OW14971   3.270   4.393   0.296
 4691SOL    HW114972   3.206   4.438   0.233
 4691SOL    HW214973   3.363   4.401   0.260
 4692SOL     OW14974   1.243   5.084   3.313
 4692SOL    HW114975   1.226   5.174   3.273
 4692SOL    HW214976   1.315   5.092   3.382
 4693SOL     OW14977   0.634   1.900   2.065
 4693SOL    HW114978   0.644   1.977   2.003
 4693SOL    HW214979   0.711   1.838   2.054
 4694SOL     OW14980   1.641   1.228   5.220
 4694SOL    HW114981   1.641   1.143   5.274
 4694SOL    HW214982   1.627   1.206   5.124
 4695SOL     OW14983   3.117   3.908   3.161
 4695SOL    HW114984   3.169   3.922   3.077
 4695SOL    HW214985   3.085   3.814   3.165
 4696SOL     OW14986   6.780   2.956   0.624
 4696SOL    HW114987   6.786   2.863   0.586
 4696SOL    HW214988   6.871   2.994   0.632
 4697SOL     OW14989   0.920   5.859   6.404
 4697SOL    HW114990   1.001   5.868   6.462
 4697SOL    HW214991   0.844   5.909   6.446
 4698SOL     OW14992   5.336   3.264   2.363
 4698SOL    HW114993   5.304   3.329   2.431
 4698SOL    HW214994   5.399   3.310   2.300
 4699SOL     OW14995   6.825   6.806   3.455
 4699SOL    HW114996   6.726   6.823   3.447
 4699SOL    HW214997   6.846   6.717   3.416
 4700SOL     OW14998   4.817   6.938   6.097
 4700SOL    HW114999   4.819   0.008   6.124
 4700SOL    HW215000   4.723   6.912   6.074
 4701SOL     OW15001   1.948   0.522   6.653
 4701SOL    HW115002   1.941   0.621   6.663
 4701SOL    HW215003   2.009   0.486   6.723
 4702SOL     OW15004   3.356   2.827   1.217
 4702SOL    HW115005   3.376   2.765   1.142
 4702SOL    HW215006   3.385   2.920   1.193
 4703SOL     OW15007   0.776   6.567   2.207
 4703SOL    HW115008   0.836   6.643   2.181
 4703SOL    HW215009   0.812   6.521   2.288
 4704SOL     OW15010   4.631   6.600   6.396
 4704SOL    HW115011   4.595   6.515   6.433
 4704SOL    HW215012   4.613   6.675   6.460
 4705SOL     OW15013   3.560   2.951   4.825
 4705SOL    HW115014   3.498   2.936   4.902
 4705SOL    HW215015   3.522   2.909   4.743
 4706SOL     OW15016   5.852   3.731   0.063
 4706SOL    HW115017   5.952   3.730   0.064
 4706SOL    HW215018   5.818   3.755   0.154
 4707SOL     OW15019   2.426   4.892   0.428
 4707SOL    HW115020   2.362   4.881   0.504
 4707SOL    HW215021   2.388   4.955   0.360
 4708SOL     OW15022   1.690   3.034   2.450
 4708SOL    HW115023   1.680   3.082   2.363
 4708SOL    HW215024   1.675   2.936   2.436
 4709SOL     OW15025   2.753   4.082   0.795
 4709SOL    HW115026   2.723   3.986   0.793
 4709SOL    HW215027   2.728   4.126   0.709
 4710SOL     OW15028   4.812   3.098   1.493
 4710SOL    HW115029   4.903   3.076   1.528
 4710SOL    HW215030   4.777   3.021   1.440
 4711SOL     OW15031   2.951   6.740   3.589
 4711SOL    HW115032   2.924   6.686   3.668
 4711SOL    HW215033   3.045   6.772   3.601
 4712SOL     OW15034   1.671   3.674   0.054
 4712SOL    HW115035   1.649   3.633   6.992
 4712SOL    HW215036   1.588   3.680   0.110
 4713SOL     OW15037   0.533   5.320   0.949
 4713SOL    HW115038   0.568   5.334   0.856
 4713SOL    HW215039   0.608   5.296   1.010
 4714SOL     OW15040   4.012   2.348   1.265
 4714SOL    HW115041   4.094   2.355   1.322
 4714SOL    HW215042   3.992   2.437   1.224
 4715SOL     OW15043   4.903   3.756   4.762
 4715SOL    HW115044   4.887   3.854   4.756
 4715SOL    HW215045   4.884   3.724   4.854
 4716SOL     OW15046   2.173   5.244   6.535
 4716SOL    HW115047   2.105   5.317   6.543
 4716SOL    HW215048   2.226   5.257   6.452
 4717SOL     OW15049   2.317   5.397   4.852
 4717SOL    HW115050   2.388   5.328   4.869
 4717SOL    HW215051   2.341   5.482   4.900
 4718SOL     OW15052   5.100   0.120   0.208
 4718SOL    HW115053   5.144   0.128   0.297
 4718SOL    HW215054   5.060   0.028   0.198
 4719SOL     OW15055   4.475   3.455   1.690
 4719SOL    HW115056   4.541   3.388   1.656
 4719SOL    HW215057   4.516   3.547   1.688
 4720SOL     OW15058   2.155   1.622   3.115
 4720SOL    HW115059   2.234   1.640   3.056
 4720SOL    HW215060   2.150   1.524   3.135
 4721SOL     OW15061   1.577   1.333   1.651
 4721SOL    HW115062   1.647   1.403   1.666
 4721SOL    HW215063   1.522   1.324   1.734
 4722SOL     OW15064   2.745   1.075   3.028
 4722SOL    HW115065   2.685   1.015   3.080
 4722SOL    HW215066   2.800   1.130   3.091
 4723SOL     OW15067   2.846   6.877   5.201
 4723SOL    HW115068   2.816   6.857   5.295
 4723SOL    HW215069   2.771   6.860   5.138
 4724SOL     OW15070   4.895   5.508   1.239
 4724SOL    HW115071   4.847   5.518   1.152
 4724SOL    HW215072   4.829   5.499   1.313
 4725SOL     OW15073   6.075   5.462   3.064
 4725SOL    HW115074   6.043   5.411   3.144
 4725SOL    HW215075   6.009   5.452   2.990
 4726SOL     OW15076   0.041   6.517   4.512
 4726SOL    HW115077   0.023   6.613   4.529
 4726SOL    HW215078   7.014   6.486   4.433
 4727SOL     OW15079   5.708   6.671   1.936
 4727SOL    HW115080   5.635   6.733   1.910
 4727SOL    HW215081   5.774   6.719   1.994
 4728SOL     OW15082   6.622   0.413   6.746
 4728SOL    HW115083   6.690   0.414   6.672
 4728SOL    HW215084   6.571   0.499   6.745
 4729SOL     OW15085   3.006   1.036   1.158
 4729SOL    HW115086   3.017   1.084   1.071
 4729SOL    HW215087   3.059   1.082   1.229
 4730SOL     OW15088   1.820   0.452   6.005
 4730SOL    HW115089   1.829   0.364   6.051
 4730SOL    HW215090   1.760   0.512   6.058
 4731SOL     OW15091   4.827   1.321   5.543
 4731SOL    HW115092   4.739   1.368   5.537
 4731SOL    HW215093   4.854   1.289   5.452
 4732SOL     OW15094   0.720   6.641   0.096
 4732SOL    HW115095   0.796   6.691   0.138
 4732SOL    HW215096   0.729   6.544   0.116
 4733SOL     OW15097   5.976   4.114   3.532
 4733SOL    HW115098   6.011   4.134   3.441
 4733SOL    HW215099   5.881   4.145   3.539
 4734SOL     OW15100   6.519   3.842   5.649
 4734SOL    HW115101   6.423   3.825   5.625
 4734SOL    HW215102   6.579   3.796   5.585
 4735SOL     OW15103   0.742   4.249   3.296
 4735SOL    HW115104   0.835   4.221   3.272
 4735SOL    HW215105   0.690   4.168   3.326
 4736SOL     OW15106   1.893   6.931   2.603
 4736SOL    HW115107   1.900   6.936   2.503
 4736SOL    HW215108   1.868   7.021   2.638
 4737SOL     OW15109   3.486   5.085   2.037
 4737SOL    HW115110   3.470   4.987   2.050
 4737SOL    HW215111   3.399   5.132   2.021
 4738SOL     OW15112   1.051   0.024   2.843
 4738SOL    HW115113   1.091   6.983   2.781
 4738SOL    HW215114   1.045   0.112   2.796
 4739SOL     OW15115   3.801   0.535   1.439
 4739SOL    HW115116   3.749   0.452   1.458
 4739SOL    HW215117   3.787   0.601   1.513
 4740SOL     OW15118   0.691   1.715   4.045
 4740SOL    HW115119   0.717   1.636   4.100
 4740SOL    HW215120   0.758   1.789   4.060
 4741SOL     OW15121   4.004   3.849   3.087
 4741SOL    HW115122   4.041   3.933   3.126
 4741SOL    HW215123   3.912   3.832   3.122
 4742SOL     OW15124   5.360   1.101   2.561
 4742SOL    HW115125   5.418   1.170   2.517
 4742SOL    HW215126   5.334   1.133   2.652
 4743SOL     OW15127   0.890   5.300   0.946
 4743SOL    HW115128   0.950   5.380   0.948
 4743SOL    HW215129   0.845   5.291   1.035
 4744SOL     OW15130   1.797   5.518   1.534
 4744SOL    HW115131   1.896   5.500   1.538
 4744SOL    HW215132   1.772   5.544   1.441
 4745SOL     OW15133   1.754   3.066   0.167
 4745SOL    HW115134   1.769   2.972   0.135
 4745SOL    HW215135   1.752   3.128   0.089
 4746SOL     OW15136   5.447   5.495   4.652
 4746SOL    HW115137   5.447   5.539   4.742
 4746SOL    HW215138   5.360   5.512   4.607
 4747SOL     OW15139   4.036   0.744   0.944
 4747SOL    HW115140   3.951   0.797   0.947
 4747SOL    HW215141   4.105   0.795   0.893
 4748SOL     OW15142   2.068   6.498   3.374
 4748SOL    HW115143   2.063   6.446   3.460
 4748SOL    HW215144   2.095   6.436   3.300
 4749SOL     OW15145   2.218   1.061   1.137
 4749SOL    HW115146   2.296   1.020   1.090
 4749SOL    HW215147   2.235   1.059   1.236
 4750SOL     OW15148   5.091   3.416   6.674
 4750SOL    HW115149   5.012   3.447   6.727
 4750SOL    HW215150   5.129   3.493   6.622
 4751SOL     OW15151   4.328   1.239   2.605
 4751SOL    HW115152   4.369   1.326   2.578
 4751SOL    HW215153   4.294   1.192   2.524
 4752SOL     OW15154   5.883   0.449   6.832
 4752SOL    HW115155   5.962   0.408   6.785
 4752SOL    HW215156   5.805   0.386   6.827
 4753SOL     OW15157   2.730   5.660   5.391
 4753SOL    HW115158   2.658   5.724   5.418
 4753SOL    HW215159   2.690   5.569   5.378
 4754SOL     OW15160   5.376   4.809   0.156
 4754SOL    HW115161   5.476   4.817   0.163
 4754SOL    HW215162   5.347   4.719   0.187
 4755SOL     OW15163   0.259   0.843   1.405
 4755SOL    HW115164   0.325   0.779   1.443
 4755SOL    HW215165   0.268   0.931   1.450
 4756SOL     OW15166   0.157   3.957   5.241
 4756SOL    HW115167   0.103   3.946   5.157
 4756SOL    HW215168   0.171   4.054   5.259
 4757SOL     OW15169   2.227   3.035   0.903
 4757SOL    HW115170   2.231   2.955   0.844
 4757SOL    HW215171   2.294   3.026   0.976
 4758SOL     OW15172   1.964   4.876   2.215
 4758SOL    HW115173   2.054   4.894   2.255
 4758SOL    HW215174   1.961   4.911   2.121
 4759SOL     OW15175   0.630   6.688   2.633
 4759SOL    HW115176   0.625   6.788   2.639
 4759SOL    HW215177   0.598   6.658   2.543
 4760SOL     OW15178   1.252   6.800   2.170
 4760SOL    HW115179   1.329   6.796   2.234
 4760SOL    HW215180   1.194   6.719   2.183
 4761SOL     OW15181   4.402   6.316   2.205
 4761SOL    HW115182   4.461   6.393   2.226
 4761SOL    HW215183   4.310   6.349   2.184
 4762SOL     OW15184   0.872   1.101   2.307
 4762SOL    HW115185   0.860   1.179   2.370
 4762SOL    HW215186   0.783   1.059   2.290
 4763SOL     OW15187   5.266   5.226   1.470
 4763SOL    HW115188   5.169   5.234   1.493
 4763SOL    HW215189   5.285   5.283   1.390
 4764SOL     OW15190   4.843   2.914   6.392
 4764SOL    HW115191   4.869   2.880   6.483
 4764SOL    HW215192   4.815   2.836   6.335
 4765SOL     OW15193   3.702   1.036   5.928
 4765SOL    HW115194   3.769   1.018   6.001
 4765SOL    HW215195   3.717   0.971   5.853
 4766SOL     OW15196   0.994   0.738   4.072
 4766SOL    HW115197   0.910   0.695   4.106
 4766SOL    HW215198   0.973   0.830   4.040
 4767SOL     OW15199   2.679   4.642   3.388
 4767SOL    HW115200   2.744   4.636   3.312
 4767SOL    HW215201   2.586   4.629   3.353
 4768SOL     OW15202   4.646   1.799   6.273
 4768SOL    HW115203   4.725   1.794   6.335
 4768SOL    HW215204   4.634   1.894   6.243
 4769SOL     OW15205   2.691   3.269   0.596
 4769SOL    HW115206   2.614   3.309   0.545
 4769SOL    HW215207   2.766   3.248   0.533
 4770SOL     OW15208   6.556   1.755   3.926
 4770SOL    HW115209   6.565   1.708   3.839
 4770SOL    HW215210   6.627   1.723   3.989
 4771SOL     OW15211   2.980   0.729   4.447
 4771SOL    HW115212   3.002   0.826   4.455
 4771SOL    HW215213   2.943   0.710   4.356
 4772SOL     OW15214   2.568   5.006   2.825
 4772SOL    HW115215   2.540   5.022   2.919
 4772SOL    HW215216   2.617   5.086   2.790
 4773SOL     OW15217   2.996   5.207   4.185
 4773SOL    HW115218   3.090   5.173   4.180
 4773SOL    HW215219   2.952   5.197   4.096
 4774SOL     OW15220   0.898   4.867   0.492
 4774SOL    HW115221   0.949   4.948   0.522
 4774SOL    HW215222   0.899   4.799   0.565
 4775SOL     OW15223   5.895   5.142   4.540
 4775SOL    HW115224   5.886   5.220   4.478
 4775SOL    HW215225   5.954   5.073   4.499
 4776SOL     OW15226   6.723   1.637   4.978
 4776SOL    HW115227   6.823   1.630   4.980
 4776SOL    HW215228   6.697   1.734   4.983
 4777SOL     OW15229   1.744   6.774   3.790
 4777SOL    HW115230   1.762   6.841   3.862
 4777SOL    HW215231   1.730   6.684   3.829
 4778SOL     OW15232   1.726   6.856   0.694
 4778SOL    HW115233   1.636   6.893   0.671
 4778SOL    HW215234   1.791   6.931   0.706
 4779SOL     OW15235   4.716   1.939   4.616
 4779SOL    HW115236   4.757   1.994   4.543
 4779SOL    HW215237   4.720   1.842   4.591
 4780SOL     OW15238   5.111   2.763   4.872
 4780SOL    HW115239   5.125   2.823   4.950
 4780SOL    HW215240   5.013   2.756   4.852
 4781SOL     OW15241   2.292   5.244   2.144
 4781SOL    HW115242   2.272   5.281   2.235
 4781SOL    HW215243   2.360   5.171   2.153
 4782SOL     OW15244   1.107   6.121   3.389
 4782SOL    HW115245   1.104   6.209   3.340
 4782SOL    HW215246   1.202   6.089   3.394
 4783SOL     OW15247   0.824   4.271   7.011
 4783SOL    HW115248   0.781   4.314   6.931
 4783SOL    HW215249   0.763   4.281   0.063
 4784SOL     OW15250   6.126   2.817   0.250
 4784SOL    HW115251   6.171   2.742   0.298
 4784SOL    HW215252   6.026   2.806   0.256
 4785SOL     OW15253   6.756   0.640   4.082
 4785SOL    HW115254   6.795   0.574   4.018
 4785SOL    HW215255   6.689   0.696   4.034
 4786SOL     OW15256   1.947   6.013   0.246
 4786SOL    HW115257   2.001   6.067   0.310
 4786SOL    HW215258   1.850   6.035   0.258
 4787SOL     OW15259   5.161   1.099   4.829
 4787SOL    HW115260   5.247   1.055   4.856
 4787SOL    HW215261   5.116   1.044   4.759
 4788SOL     OW15262   6.673   6.291   1.139
 4788SOL    HW115263   6.773   6.282   1.145
 4788SOL    HW215264   6.649   6.332   1.051
 4789SOL     OW15265   6.355   1.354   2.513
 4789SOL    HW115266   6.371   1.262   2.477
 4789SOL    HW215267   6.406   1.420   2.457
 4790SOL     OW15268   0.262   2.509   5.669
 4790SOL    HW115269   0.217   2.511   5.758
 4790SOL    HW215270   0.200   2.546   5.599
 4791SOL     OW15271   0.695   0.634   6.825
 4791SOL    HW115272   0.644   0.657   6.742
 4791SOL    HW215273   0.631   0.611   6.898
 4792SOL     OW15274   0.409   3.615   1.264
 4792SOL    HW115275   0.326   3.574   1.225
 4792SOL    HW215276   0.438   3.562   1.344
 4793SOL     OW15277   0.844   3.097   5.215
 4793SOL    HW115278   0.828   3.194   5.195
 4793SOL    HW215279   0.878   3.052   5.132
 4794SOL     OW15280   5.497   0.772   6.570
 4794SOL    HW115281   5.569   0.703   6.561
 4794SOL    HW215282   5.537   0.863   6.563
 4795SOL     OW15283   6.872   0.333   6.844
 4795SOL    HW115284   6.895   0.264   6.914
 4795SOL    HW215285   6.779   0.318   6.813
 4796SOL     OW15286   5.972   0.937   5.671
 4796SOL    HW115287   5.983   0.850   5.623
 4796SOL    HW215288   5.894   0.987   5.632
 4797SOL     OW15289   2.937   4.866   5.511
 4797SOL    HW115290   2.988   4.798   5.563
 4797SOL    HW215291   2.843   4.868   5.542
 4798SOL     OW15292   3.404   5.911   0.033
 4798SOL    HW115293   3.402   5.828   0.090
 4798SOL    HW215294   3.310   5.944   0.019
 4799SOL     OW15295   4.242   3.845   1.104
 4799SOL    HW115296   4.251   3.768   1.041
 4799SOL    HW215297   4.293   3.825   1.188
 4800SOL     OW15298   0.695   5.059   0.527
 4800SOL    HW115299   0.783   5.086   0.566
 4800SOL    HW215300   0.688   4.960   0.526
 4801SOL     OW15301   4.880   3.339   3.669
 4801SOL    HW115302   4.954   3.395   3.705
 4801SOL    HW215303   4.898   3.316   3.573
 4802SOL     OW15304   0.044   0.904   5.161
 4802SOL    HW115305   0.073   0.838   5.230
 4802SOL    HW215306   6.972   0.918   5.168
 4803SOL     OW15307   5.207   3.337   5.493
 4803SOL    HW115308   5.268   3.339   5.572
 4803SOL    HW215309   5.113   3.320   5.524
 4804SOL     OW15310   5.472   3.191   0.792
 4804SOL    HW115311   5.565   3.227   0.800
 4804SOL    HW215312   5.454   3.165   0.697
 4805SOL     OW15313   5.739   0.607   6.608
 4805SOL    HW115314   5.717   0.610   6.706
 4805SOL    HW215315   5.794   0.686   6.584
 4806SOL     OW15316   1.438   3.128   3.596
 4806SOL    HW115317   1.413   3.174   3.511
 4806SOL    HW215318   1.355   3.103   3.645
 4807SOL     OW15319   1.386   4.066   0.344
 4807SOL    HW115320   1.293   4.103   0.349
 4807SOL    HW215321   1.428   4.093   0.257
 4808SOL     OW15322   3.158   6.610   2.897
 4808SOL    HW115323   3.141   6.624   2.800
 4808SOL    HW215324   3.232   6.544   2.909
 4809SOL     OW15325   2.681   4.107   0.526
 4809SOL    HW115326   2.715   4.048   0.453
 4809SOL    HW215327   2.726   4.197   0.520
 4810SOL     OW15328   2.104   4.964   4.954
 4810SOL    HW115329   2.091   4.886   5.015
 4810SOL    HW215330   2.154   5.036   5.002
 4811SOL     OW15331   3.047   3.168   4.684
 4811SOL    HW115332   3.004   3.228   4.616
 4811SOL    HW215333   2.976   3.123   4.738
 4812SOL     OW15334   2.564   6.583   1.791
 4812SOL    HW115335   2.572   6.490   1.755
 4812SOL    HW215336   2.591   6.584   1.887
 4813SOL     OW15337   1.139   2.723   4.471
 4813SOL    HW115338   1.218   2.664   4.484
 4813SOL    HW215339   1.101   2.710   4.379
 4814SOL     OW15340   5.123   1.010   0.896
 4814SOL    HW115341   5.131   0.922   0.850
 4814SOL    HW215342   5.026   1.033   0.908
 4815SOL     OW15343   6.375   4.492   3.395
 4815SOL    HW115344   6.466   4.533   3.383
 4815SOL    HW215345   6.385   4.395   3.418
 4816SOL     OW15346   2.317   0.701   2.883
 4816SOL    HW115347   2.394   0.766   2.886
 4816SOL    HW215348   2.289   0.689   2.788
 4817SOL     OW15349   3.844   2.898   0.364
 4817SOL    HW115350   3.751   2.862   0.375
 4817SOL    HW215351   3.901   2.829   0.318
 4818SOL     OW15352   4.740   6.531   5.066
 4818SOL    HW115353   4.765   6.515   5.161
 4818SOL    HW215354   4.790   6.610   5.031
 4819SOL     OW15355   3.633   0.654   0.414
 4819SOL    HW115356   3.578   0.590   0.468
 4819SOL    HW215357   3.696   0.703   0.474
 4820SOL     OW15358   0.278   4.870   1.784
 4820SOL    HW115359   0.285   4.858   1.883
 4820SOL    HW215360   0.182   4.878   1.758
 4821SOL     OW15361   7.010   6.183   1.528
 4821SOL    HW115362   6.987   6.254   1.595
 4821SOL    HW215363   6.926   6.143   1.492
 4822SOL     OW15364   0.436   3.717   1.624
 4822SOL    HW115365   0.362   3.684   1.682
 4822SOL    HW215366   0.447   3.655   1.546
 4823SOL     OW15367   0.104   1.973   2.986
 4823SOL    HW115368   0.147   1.886   2.963
 4823SOL    HW215369   0.094   2.028   2.903
 4824SOL     OW15370   4.587   1.912   2.437
 4824SOL    HW115371   4.628   1.827   2.404
 4824SOL    HW215372   4.539   1.958   2.362
 4825SOL     OW15373   1.962   3.531   4.599
 4825SOL    HW115374   1.881   3.531   4.657
 4825SOL    HW215375   1.937   3.554   4.505
 4826SOL     OW15376   0.432   6.586   0.378
 4826SOL    HW115377   0.481   6.522   0.319
 4826SOL    HW215378   0.466   6.679   0.362
 4827SOL     OW15379   5.202   1.187   6.894
 4827SOL    HW115380   5.272   1.259   6.904
 4827SOL    HW215381   5.203   1.130   6.976
 4828SOL     OW15382   6.298   3.104   6.707
 4828SOL    HW115383   6.249   3.161   6.773
 4828SOL    HW215384   6.308   3.011   6.744
 4829SOL     OW15385   2.522   0.601   5.728
 4829SOL    HW115386   2.553   0.589   5.634
 4829SOL    HW215387   2.471   0.519   5.757
 4830SOL     OW15388   4.824   4.690   4.516
 4830SOL    HW115389   4.803   4.729   4.605
 4830SOL    HW215390   4.784   4.747   4.444
 4831SOL     OW15391   6.251   2.224   6.251
 4831SOL    HW115392   6.310   2.301   6.275
 4831SOL    HW215393   6.307   2.143   6.235
 4832SOL     OW15394   1.508   2.712   6.414
 4832SOL    HW115395   1.540   2.619   6.434
 4832SOL    HW215396   1.512   2.728   6.316
 4833SOL     OW15397   6.735   2.979   2.942
 4833SOL    HW115398   6.680   3.040   2.884
 4833SOL    HW215399   6.796   2.924   2.884
 4834SOL     OW15400   5.680   0.966   2.976
 4834SOL    HW115401   5.581   0.956   2.984
 4834SOL    HW215402   5.726   0.900   3.035
 4835SOL     OW15403   2.031   1.543   6.246
 4835SOL    HW115404   1.972   1.574   6.171
 4835SOL    HW215405   1.996   1.577   6.333
 4836SOL     OW15406   5.825   4.320   3.251
 4836SOL    HW115407   5.829   4.228   3.213
 4836SOL    HW215408   5.766   4.320   3.332
 4837SOL     OW15409   0.033   4.977   1.687
 4837SOL    HW115410   0.032   5.062   1.739
 4837SOL    HW215411   6.978   4.972   1.630
 4838SOL     OW15412   2.677   6.179   2.577
 4838SOL    HW115413   2.706   6.235   2.654
 4838SOL    HW215414   2.623   6.101   2.610
 4839SOL     OW15415   0.834   6.991   6.457
 4839SOL    HW115416   0.879   7.026   6.375
 4839SOL    HW215417   0.903   6.951   6.518
 4840SOL     OW15418   6.757   5.697   5.864
 4840SOL    HW115419   6.736   5.610   5.909
 4840SOL    HW215420   6.831   5.742   5.914
 4841SOL     OW15421   1.704   5.638   1.295
 4841SOL    HW115422   1.761   5.710   1.334
 4841SOL    HW215423   1.703   5.648   1.195
 4842SOL     OW15424   3.476   6.449   0.477
 4842SOL    HW115425   3.437   6.537   0.504
 4842SOL    HW215426   3.518   6.406   0.557
 4843SOL     OW15427   1.639   3.795   0.330
 4843SOL    HW115428   1.698   3.824   0.255
 4843SOL    HW215429   1.643   3.863   0.404
 4844SOL     OW15430   0.421   1.235   5.013
 4844SOL    HW115431   0.465   1.189   4.936
 4844SOL    HW215432   0.468   1.210   5.098
 4845SOL     OW15433   5.466   6.616   3.455
 4845SOL    HW115434   5.520   6.663   3.386
 4845SOL    HW215435   5.417   6.683   3.510
 4846SOL     OW15436   6.444   4.662   5.930
 4846SOL    HW115437   6.532   4.701   5.904
 4846SOL    HW215438   6.392   4.638   5.848
 4847SOL     OW15439   4.845   3.138   4.922
 4847SOL    HW115440   4.760   3.095   4.892
 4847SOL    HW215441   4.922   3.093   4.875
 4848SOL     OW15442   3.107   3.585   1.317
 4848SOL    HW115443   3.012   3.559   1.334
 4848SOL    HW215444   3.114   3.626   1.226
 4849SOL     OW15445   2.230   6.145   6.345
 4849SOL    HW115446   2.239   6.242   6.322
 4849SOL    HW215447   2.293   6.121   6.418
 4850SOL     OW15448   3.364   6.997   2.645
 4850SOL    HW115449   3.452   0.013   2.667
 4850SOL    HW215450   3.301   7.008   2.723
 4851SOL     OW15451   5.265   1.141   5.290
 4851SOL    HW115452   5.183   1.178   5.246
 4851SOL    HW215453   5.241   1.108   5.382
 4852SOL     OW15454   1.519   1.942   1.521
 4852SOL    HW115455   1.492   1.926   1.426
 4852SOL    HW215456   1.619   1.943   1.527
 4853SOL     OW15457   3.747   1.167   1.532
 4853SOL    HW115458   3.846   1.159   1.531
 4853SOL    HW215459   3.712   1.143   1.622
 4854SOL     OW15460   3.971   0.099   5.693
 4854SOL    HW115461   4.067   0.127   5.690
 4854SOL    HW215462   3.959   0.030   5.765
 4855SOL     OW15463   0.355   2.440   2.445
 4855SOL    HW115464   0.442   2.482   2.472
 4855SOL    HW215465   0.300   2.507   2.395
 4856SOL     OW15466   0.301   4.883   2.836
 4856SOL    HW115467   0.343   4.833   2.912
 4856SOL    HW215468   0.304   4.826   2.754
 4857SOL     OW15469   0.388   0.846   5.574
 4857SOL    HW115470   0.460   0.869   5.509
 4857SOL    HW215471   0.390   0.911   5.650
 4858SOL     OW15472   1.592   0.608   3.789
 4858SOL    HW115473   1.494   0.601   3.766
 4858SOL    HW215474   1.613   0.702   3.816
 4859SOL     OW15475   3.653   6.457   6.105
 4859SOL    HW115476   3.583   6.527   6.088
 4859SOL    HW215477   3.657   6.394   6.028
 4860SOL     OW15478   3.088   5.196   0.162
 4860SOL    HW115479   3.046   5.286   0.154
 4860SOL    HW215480   3.059   5.154   0.249
 4861SOL     OW15481   4.122   4.174   6.232
 4861SOL    HW115482   4.031   4.145   6.202
 4861SOL    HW215483   4.133   4.157   6.329
 4862SOL     OW15484   2.233   0.010   0.527
 4862SOL    HW115485   2.325   7.018   0.491
 4862SOL    HW215486   2.221   0.109   0.537
 4863SOL     OW15487   5.507   3.916   5.922
 4863SOL    HW115488   5.526   4.014   5.916
 4863SOL    HW215489   5.408   3.901   5.921
 4864SOL     OW15490   3.327   1.240   4.156
 4864SOL    HW115491   3.340   1.337   4.176
 4864SOL    HW215492   3.416   1.194   4.156
 4865SOL     OW15493   1.412   6.384   5.386
 4865SOL    HW115494   1.312   6.380   5.395
 4865SOL    HW215495   1.450   6.442   5.458
 4866SOL     OW15496   0.386   4.402   5.788
 4866SOL    HW115497   0.448   4.326   5.805
 4866SOL    HW215498   0.294   4.367   5.772
 4867SOL     OW15499   3.759   0.909   3.318
 4867SOL    HW115500   3.821   0.837   3.349
 4867SOL    HW215501   3.727   0.962   3.397
 4868SOL     OW15502   0.445   5.341   1.357
 4868SOL    HW115503   0.374   5.366   1.291
 4868SOL    HW215504   0.526   5.397   1.342
 4869SOL     OW15505   0.111   1.521   0.909
 4869SOL    HW115506   0.015   1.503   0.889
 4869SOL    HW215507   0.130   1.618   0.894
 4870SOL     OW15508   0.329   6.781   1.416
 4870SOL    HW115509   0.330   6.837   1.333
 4870SOL    HW215510   0.368   6.834   1.492
 4871SOL     OW15511   0.471   2.084   3.607
 4871SOL    HW115512   0.479   2.065   3.705
 4871SOL    HW215513   0.394   2.031   3.569
 4872SOL     OW15514   5.802   0.199   3.254
 4872SOL    HW115515   5.891   0.197   3.300
 4872SOL    HW215516   5.788   0.114   3.204
 4873SOL     OW15517   0.011   5.817   3.717
 4873SOL    HW115518   0.031   5.882   3.790
 4873SOL    HW215519   6.939   5.808   3.706
 4874SOL     OW15520   5.931   4.574   2.191
 4874SOL    HW115521   5.842   4.616   2.173
 4874SOL    HW215522   5.921   4.501   2.259
 4875SOL     OW15523   6.276   6.533   4.383
 4875SOL    HW115524   6.351   6.568   4.441
 4875SOL    HW215525   6.217   6.475   4.438
 4876SOL     OW15526   6.726   1.278   2.159
 4876SOL    HW115527   6.788   1.201   2.172
 4876SOL    HW215528   6.684   1.272   2.068
 4877SOL     OW15529   0.348   1.482   6.921
 4877SOL    HW115530   0.362   1.547   6.847
 4877SOL    HW215531   0.436   1.442   6.947
 4878SOL     OW15532   6.003   4.547   4.140
 4878SOL    HW115533   6.070   4.530   4.067
 4878SOL    HW215534   5.919   4.582   4.099
 4879SOL     OW15535   5.844   0.539   3.047
 4879SOL    HW115536   5.873   0.498   3.134
 4879SOL    HW215537   5.847   0.471   2.975
 4880SOL     OW15538   0.035   2.807   6.512
 4880SOL    HW115539   6.986   2.749   6.482
 4880SOL    HW215540   0.008   2.858   6.594
 4881SOL     OW15541   0.009   3.483   2.053
 4881SOL    HW115542   0.053   3.435   1.977
 4881SOL    HW215543   0.047   3.576   2.061
 4882SOL     OW15544   5.394   2.448   4.618
 4882SOL    HW115545   5.488   2.420   4.639
 4882SOL    HW215546   5.396   2.525   4.554
 4883SOL     OW15547   0.277   4.212   6.455
 4883SOL    HW115548   0.329   4.144   6.506
 4883SOL    HW215549   0.200   4.168   6.410
 4884SOL     OW15550   1.948   2.039   2.174
 4884SOL    HW115551   1.891   1.994   2.105
 4884SOL    HW215552   1.912   2.130   2.194
 4885SOL     OW15553   1.082   5.390   6.791
 4885SOL    HW115554   1.007   5.451   6.766
 4885SOL    HW215555   1.089   5.317   6.723
 4886SOL     OW15556   2.970   0.906   2.522
 4886SOL    HW115557   2.928   0.992   2.553
 4886SOL    HW215558   3.015   0.920   2.434
 4887SOL     OW15559   4.915   5.580   0.443
 4887SOL    HW115560   4.835   5.519   0.438
 4887SOL    HW215561   4.992   5.537   0.397
 4888SOL     OW15562   4.353   0.110   2.768
 4888SOL    HW115563   4.429   0.175   2.774
 4888SOL    HW215564   4.284   0.134   2.837
 4889SOL     OW15565   5.612   3.558   3.624
 4889SOL    HW115566   5.670   3.630   3.662
 4889SOL    HW215567   5.577   3.587   3.535
 4890SOL     OW15568   6.339   2.175   4.634
 4890SOL    HW115569   6.354   2.247   4.566
 4890SOL    HW215570   6.272   2.205   4.701
 4891SOL     OW15571   2.102   5.511   0.370
 4891SOL    HW115572   2.013   5.476   0.400
 4891SOL    HW215573   2.091   5.604   0.334
 4892SOL     OW15574   4.963   5.142   2.134
 4892SOL    HW115575   4.890   5.113   2.195
 4892SOL    HW215576   5.034   5.188   2.188
 4893SOL     OW15577   2.128   2.303   1.349
 4893SOL    HW115578   2.155   2.259   1.263
 4893SOL    HW215579   2.087   2.234   1.410
 4894SOL     OW15580   5.161   6.663   0.666
 4894SOL    HW115581   5.200   6.582   0.623
 4894SOL    HW215582   5.184   6.664   0.763
 4895SOL     OW15583   6.282   3.400   5.058
 4895SOL    HW115584   6.339   3.472   5.096
 4895SOL    HW215585   6.278   3.409   4.959
 4896SOL     OW15586   2.552   5.246   4.870
 4896SOL    HW115587   2.608   5.163   4.865
 4896SOL    HW215588   2.604   5.319   4.913
 4897SOL     OW15589   2.262   1.573   5.696
 4897SOL    HW115590   2.359   1.586   5.676
 4897SOL    HW215591   2.207   1.614   5.624
 4898SOL     OW15592   4.251   2.156   3.540
 4898SOL    HW115593   4.241   2.078   3.603
 4898SOL    HW215594   4.341   2.198   3.554
 4899SOL     OW15595   6.602   6.891   1.657
 4899SOL    HW115596   6.682   6.849   1.614
 4899SOL    HW215597   6.579   6.842   1.741
 4900SOL     OW15598   3.367   5.652   6.207
 4900SOL    HW115599   3.466   5.640   6.218
 4900SOL    HW215600   3.321   5.565   6.225
 4901SOL     OW15601   1.845   0.515   0.152
 4901SOL    HW115602   1.859   0.504   0.251
 4901SOL    HW215603   1.751   0.545   0.135
 4902SOL     OW15604   2.218   0.429   5.552
 4902SOL    HW115605   2.289   0.418   5.622
 4902SOL    HW215606   2.238   0.369   5.474
 4903SOL     OW15607   4.932   3.917   2.322
 4903SOL    HW115608   4.929   3.973   2.239
 4903SOL    HW215609   4.929   3.820   2.297
 4904SOL     OW15610   2.291   0.825   1.783
 4904SOL    HW115611   2.335   0.757   1.841
 4904SOL    HW215612   2.257   0.782   1.700
 4905SOL     OW15613   2.261   1.470   2.251
 4905SOL    HW115614   2.257   1.370   2.255
 4905SOL    HW215615   2.277   1.499   2.157
 4906SOL     OW15616   5.054   3.067   4.786
 4906SOL    HW115617   5.024   2.991   4.727
 4906SOL    HW215618   5.144   3.099   4.756
 4907SOL     OW15619   3.953   2.661   0.825
 4907SOL    HW115620   3.978   2.717   0.745
 4907SOL    HW215621   4.035   2.646   0.881
 4908SOL     OW15622   2.684   6.573   6.107
 4908SOL    HW115623   2.685   6.587   6.008
 4908SOL    HW215624   2.605   6.517   6.132
 4909SOL     OW15625   4.843   5.677   4.629
 4909SOL    HW115626   4.757   5.628   4.637
 4909SOL    HW215627   4.906   5.646   4.700
 4910SOL     OW15628   4.393   1.794   6.777
 4910SOL    HW115629   4.401   1.882   6.825
 4910SOL    HW215630   4.445   1.798   6.692
 4911SOL     OW15631   6.845   4.256   3.381
 4911SOL    HW115632   6.793   4.340   3.366
 4911SOL    HW215633   6.840   4.198   3.300
 4912SOL     OW15634   5.971   2.992   4.193
 4912SOL    HW115635   5.937   2.941   4.115
 4912SOL    HW215636   6.052   2.947   4.230
 4913SOL     OW15637   0.847   3.733   5.538
 4913SOL    HW115638   0.755   3.767   5.558
 4913SOL    HW215639   0.864   3.650   5.590
 4914SOL     OW15640   3.446   6.869   3.768
 4914SOL    HW115641   3.412   6.935   3.835
 4914SOL    HW215642   3.528   6.824   3.805
 4915SOL     OW15643   4.415   5.461   5.241
 4915SOL    HW115644   4.363   5.468   5.326
 4915SOL    HW215645   4.354   5.435   5.167
 4916SOL     OW15646   5.709   2.656   3.627
 4916SOL    HW115647   5.617   2.641   3.592
 4916SOL    HW215648   5.738   2.576   3.680
 4917SOL     OW15649   4.950   6.592   6.714
 4917SOL    HW115650   4.937   6.593   6.813
 4917SOL    HW215651   4.929   6.682   6.677
 4918SOL     OW15652   5.000   6.277   3.820
 4918SOL    HW115653   5.094   6.289   3.851
 4918SOL    HW215654   4.942   6.349   3.860
 4919SOL     OW15655   4.093   3.831   1.656
 4919SOL    HW115656   4.080   3.930   1.647
 4919SOL    HW215657   4.086   3.804   1.752
 4920SOL     OW15658   6.339   1.010   5.885
 4920SOL    HW115659   6.356   1.001   5.983
 4920SOL    HW215660   6.391   0.941   5.835
 4921SOL     OW15661   6.577   0.121   2.343
 4921SOL    HW115662   6.529   0.185   2.402
 4921SOL    HW215663   6.676   0.133   2.353
 4922SOL     OW15664   3.687   0.390   6.002
 4922SOL    HW115665   3.735   0.356   5.922
 4922SOL    HW215666   3.664   0.314   6.063
 4923SOL     OW15667   4.257   1.275   1.601
 4923SOL    HW115668   4.222   1.353   1.652
 4923SOL    HW215669   4.193   1.198   1.610
 4924SOL     OW15670   2.995   1.646   5.404
 4924SOL    HW115671   3.025   1.553   5.424
 4924SOL    HW215672   2.949   1.648   5.315
 4925SOL     OW15673   4.989   0.450   4.117
 4925SOL    HW115674   5.046   0.383   4.166
 4925SOL    HW215675   4.893   0.421   4.123
 4926SOL     OW15676   5.042   2.641   1.919
 4926SOL    HW115677   5.078   2.628   1.826
 4926SOL    HW215678   4.953   2.597   1.927
 4927SOL     OW15679   2.538   1.374   0.488
 4927SOL    HW115680   2.602   1.380   0.412
 4927SOL    HW215681   2.510   1.279   0.501
 4928SOL     OW15682   0.568   1.593   1.013
 4928SOL    HW115683   0.635   1.663   1.039
 4928SOL    HW215684   0.492   1.637   0.966
 4929SOL     OW15685   6.684   0.192   4.710
 4929SOL    HW115686   6.766   0.242   4.735
 4929SOL    HW215687   6.655   0.135   4.787
 4930SOL     OW15688   4.676   6.086   2.999
 4930SOL    HW115689   4.761   6.138   2.995
 4930SOL    HW215690   4.685   6.012   3.066
 4931SOL     OW15691   5.096   6.883   1.300
 4931SOL    HW115692   5.075   6.959   1.361
 4931SOL    HW215693   5.176   6.907   1.245
 4932SOL     OW15694   3.404   4.144   3.356
 4932SOL    HW115695   3.329   4.203   3.326
 4932SOL    HW215696   3.479   4.149   3.289
 4933SOL     OW15697   1.960   0.271   5.223
 4933SOL    HW115698   1.930   0.349   5.278
 4933SOL    HW215699   1.898   0.259   5.146
 4934SOL     OW15700   2.089   0.061   3.133
 4934SOL    HW115701   2.030   0.139   3.115
 4934SOL    HW215702   2.060   0.016   3.218
 4935SOL     OW15703   6.199   0.082   4.727
 4935SOL    HW115704   6.135   0.148   4.690
 4935SOL    HW215705   6.267   0.058   4.658
 4936SOL     OW15706   4.607   3.177   0.366
 4936SOL    HW115707   4.616   3.151   0.270
 4936SOL    HW215708   4.694   3.163   0.413
 4937SOL     OW15709   3.778   2.629   5.379
 4937SOL    HW115710   3.784   2.693   5.456
 4937SOL    HW215711   3.692   2.642   5.330
 4938SOL     OW15712   3.056   4.446   0.106
 4938SOL    HW115713   2.977   4.506   0.116
 4938SOL    HW215714   3.032   4.354   0.137
 4939SOL     OW15715   4.949   3.677   6.290
 4939SOL    HW115716   4.914   3.583   6.296
 4939SOL    HW215717   5.002   3.688   6.206
 4940SOL     OW15718   1.300   5.836   3.501
 4940SOL    HW115719   1.363   5.843   3.579
 4940SOL    HW215720   1.320   5.908   3.435
 4941SOL     OW15721   6.270   0.798   0.835
 4941SOL    HW115722   6.257   0.706   0.873
 4941SOL    HW215723   6.368   0.821   0.838
 4942SOL     OW15724   5.415   2.360   5.550
 4942SOL    HW115725   5.490   2.308   5.508
 4942SOL    HW215726   5.351   2.389   5.478
 4943SOL     OW15727   5.972   3.213   1.370
 4943SOL    HW115728   5.944   3.302   1.335
 4943SOL    HW215729   5.944   3.141   1.306
 4944SOL     OW15730   1.638   3.150   2.173
 4944SOL    HW115731   1.552   3.155   2.121
 4944SOL    HW215732   1.712   3.121   2.113
 4945SOL     OW15733   6.949   5.945   4.389
 4945SOL    HW115734   6.990   6.035   4.370
 4945SOL    HW215735   6.922   5.902   4.303
 4946SOL     OW15736   0.468   4.386   1.846
 4946SOL    HW115737   0.507   4.317   1.907
 4946SOL    HW215738   0.396   4.345   1.790
 4947SOL     OW15739   5.711   0.464   0.376
 4947SOL    HW115740   5.798   0.495   0.414
 4947SOL    HW215741   5.718   0.457   0.277
 4948SOL     OW15742   2.799   1.682   2.037
 4948SOL    HW115743   2.737   1.670   1.960
 4948SOL    HW215744   2.781   1.770   2.081
 4949SOL     OW15745   5.933   2.260   5.741
 4949SOL    HW115746   6.012   2.240   5.799
 4949SOL    HW215747   5.849   2.245   5.794
 4950SOL     OW15748   3.422   5.345   3.991
 4950SOL    HW115749   3.521   5.341   4.002
 4950SOL    HW215750   3.381   5.259   4.023
 4951SOL     OW15751   4.525   2.590   3.913
 4951SOL    HW115752   4.566   2.655   3.978
 4951SOL    HW215753   4.533   2.626   3.820
 4952SOL     OW15754   6.324   4.766   4.113
 4952SOL    HW115755   6.295   4.697   4.180
 4952SOL    HW215756   6.311   4.729   4.021
 4953SOL     OW15757   1.229   4.612   2.348
 4953SOL    HW115758   1.159   4.543   2.329
 4953SOL    HW215759   1.202   4.665   2.428
 4954SOL     OW15760   6.824   6.393   6.317
 4954SOL    HW115761   6.732   6.402   6.354
 4954SOL    HW215762   6.855   6.481   6.281
 4955SOL     OW15763   1.712   0.167   2.063
 4955SOL    HW115764   1.631   0.196   2.114
 4955SOL    HW215765   1.732   0.234   1.991
 4956SOL     OW15766   5.929   6.650   3.119
 4956SOL    HW115767   6.003   6.640   3.054
 4956SOL    HW215768   5.888   6.561   3.138
 4957SOL     OW15769   0.909   5.367   4.239
 4957SOL    HW115770   0.950   5.431   4.175
 4957SOL    HW215771   0.815   5.347   4.211
 4958SOL     OW15772   0.008   7.000   6.873
 4958SOL    HW115773   0.098   7.026   6.908
 4958SOL    HW215774   6.964   0.033   6.913
 4959SOL     OW15775   1.347   2.105   0.403
 4959SOL    HW115776   1.405   2.044   0.351
 4959SOL    HW215777   1.343   2.074   0.499
 4960SOL     OW15778   3.086   6.730   5.214
 4960SOL    HW115779   3.034   6.646   5.200
 4960SOL    HW215780   3.024   6.809   5.213
 4961SOL     OW15781   4.814   0.070   5.194
 4961SOL    HW115782   4.745   0.026   5.251
 4961SOL    HW215783   4.841   0.157   5.234
 4962SOL     OW15784   6.191   2.266   2.482
 4962SOL    HW115785   6.178   2.167   2.473
 4962SOL    HW215786   6.113   2.313   2.441
 4963SOL     OW15787   1.023   4.227   1.275
 4963SOL    HW115788   0.939   4.280   1.269
 4963SOL    HW215789   1.024   4.174   1.360
 4964SOL     OW15790   3.180   0.106   3.242
 4964SOL    HW115791   3.276   0.108   3.213
 4964SOL    HW215792   3.175   0.119   3.341
 4965SOL     OW15793   0.314   6.118   5.511
 4965SOL    HW115794   0.406   6.078   5.511
 4965SOL    HW215795   0.286   6.137   5.605
 4966SOL     OW15796   5.286   5.634   5.155
 4966SOL    HW115797   5.192   5.605   5.136
 4966SOL    HW215798   5.326   5.572   5.223
 4967SOL     OW15799   5.736   0.925   6.968
 4967SOL    HW115800   5.803   0.857   6.938
 4967SOL    HW215801   5.652   0.916   6.914
 4968SOL     OW15802   5.799   3.760   6.510
 4968SOL    HW115803   5.729   3.765   6.581
 4968SOL    HW215804   5.817   3.664   6.488
 4969SOL     OW15805   1.337   0.930   1.321
 4969SOL    HW115806   1.387   1.016   1.314
 4969SOL    HW215807   1.324   0.891   1.230
 4970SOL     OW15808   1.819   2.148   6.324
 4970SOL    HW115809   1.811   2.168   6.422
 4970SOL    HW215810   1.840   2.051   6.312
 4971SOL     OW15811   6.446   5.645   3.901
 4971SOL    HW115812   6.502   5.595   3.966
 4971SOL    HW215813   6.401   5.581   3.839
 4972SOL     OW15814   1.666   2.402   4.715
 4972SOL    HW115815   1.651   2.313   4.759
 4972SOL    HW215816   1.654   2.475   4.783
 4973SOL     OW15817   4.984   5.638   3.115
 4973SOL    HW115818   4.949   5.590   3.034
 4973SOL    HW215819   4.993   5.735   3.095
 4974SOL     OW15820   3.818   6.652   5.972
 4974SOL    HW115821   3.765   6.600   6.040
 4974SOL    HW215822   3.763   6.664   5.889
 4975SOL     OW15823   4.148   6.110   6.865
 4975SOL    HW115824   4.100   6.073   6.944
 4975SOL    HW215825   4.110   6.070   6.781
 4976SOL     OW15826   2.377   1.539   4.931
 4976SOL    HW115827   2.365   1.471   4.859
 4976SOL    HW215828   2.289   1.556   4.975
 4977SOL     OW15829   4.029   3.559   1.778
 4977SOL    HW115830   4.062   3.636   1.833
 4977SOL    HW215831   4.105   3.497   1.759
 4978SOL     OW15832   6.569   3.642   6.443
 4978SOL    HW115833   6.663   3.616   6.465
 4978SOL    HW215834   6.562   3.667   6.347
 4979SOL     OW15835   1.575   2.172   3.765
 4979SOL    HW115836   1.537   2.089   3.726
 4979SOL    HW215837   1.533   2.189   3.854
 4980SOL     OW15838   2.409   4.832   2.670
 4980SOL    HW115839   2.485   4.889   2.702
 4980SOL    HW215840   2.326   4.887   2.665
 4981SOL     OW15841   5.380   5.333   5.094
 4981SOL    HW115842   5.348   5.374   5.179
 4981SOL    HW215843   5.466   5.285   5.110
 4982SOL     OW15844   2.590   0.830   7.001
 4982SOL    HW115845   2.585   0.927   0.002
 4982SOL    HW215846   2.502   0.801   6.964
 4983SOL     OW15847   0.059   2.230   4.073
 4983SOL    HW115848   0.062   2.130   4.079
 4983SOL    HW215849   6.996   2.262   4.105
 4984SOL     OW15850   5.045   5.145   3.601
 4984SOL    HW115851   5.000   5.195   3.675
 4984SOL    HW215852   5.012   5.179   3.513
 4985SOL     OW15853   5.787   3.837   1.717
 4985SOL    HW115854   5.688   3.827   1.713
 4985SOL    HW215855   5.823   3.788   1.797
 4986SOL     OW15856   4.528   4.986   3.624
 4986SOL    HW115857   4.542   4.930   3.542
 4986SOL    HW215858   4.599   5.056   3.629
 4987SOL     OW15859   1.020   2.637   6.982
 4987SOL    HW115860   0.954   2.706   7.013
 4987SOL    HW215861   0.979   2.546   6.986
 4988SOL     OW15862   2.348   2.219   4.892
 4988SOL    HW115863   2.285   2.147   4.860
 4988SOL    HW215864   2.428   2.176   4.935
 4989SOL     OW15865   0.075   0.825   0.789
 4989SOL    HW115866   0.082   0.744   0.848
 4989SOL    HW215867   0.145   0.821   0.719
 4990SOL     OW15868   2.155   2.175   6.966
 4990SOL    HW115869   2.227   2.151   0.006
 4990SOL    HW215870   2.070   2.193   7.015
 4991SOL     OW15871   2.405   1.833   5.879
 4991SOL    HW115872   2.330   1.783   5.922
 4991SOL    HW215873   2.434   1.908   5.938
 4992SOL     OW15874   4.244   6.982   4.775
 4992SOL    HW115875   4.324   0.014   4.790
 4992SOL    HW215876   4.162   0.000   4.810
 4993SOL     OW15877   1.413   6.630   4.829
 4993SOL    HW115878   1.465   6.666   4.752
 4993SOL    HW215879   1.316   6.634   4.808
 4994SOL     OW15880   0.432   5.561   3.567
 4994SOL    HW115881   0.427   5.481   3.626
 4994SOL    HW215882   0.340   5.592   3.544
 4995SOL     OW15883   5.559   2.783   4.961
 4995SOL    HW115884   5.494   2.755   5.032
 4995SOL    HW215885   5.650   2.747   4.984
 4996SOL     OW15886   0.440   1.874   4.089
 4996SOL    HW115887   0.512   1.805   4.101
 4996SOL    HW215888   0.394   1.890   4.176
 4997SOL     OW15889   6.951   2.296   3.845
 4997SOL    HW115890   7.011   2.276   3.923
 4997SOL    HW215891   6.984   2.246   3.765
 4998SOL     OW15892   1.275   5.917   6.036
 4998SOL    HW115893   1.246   5.896   5.942
 4998SOL    HW215894   1.363   5.963   6.034
 4999SOL     OW15895   5.785   4.989   0.826
 4999SOL    HW115896   5.743   4.898   0.834
 4999SOL    HW215897   5.731   5.055   0.877
 5000SOL     OW15898   6.192   5.428   3.854
 5000SOL    HW115899   6.149   5.511   3.817
 5000SOL    HW215900   6.171   5.351   3.794
 5001SOL     OW15901   5.004   3.486   5.280
 5001SOL    HW115902   5.047   3.417   5.222
 5001SOL    HW215903   4.934   3.442   5.337
 5002SOL     OW15904   1.680   2.097   1.720
 5002SOL    HW115905   1.719   2.159   1.788
 5002SOL    HW215906   1.635   2.151   1.648
 5003SOL     OW15907   6.562   5.548   4.615
 5003SOL    HW115908   6.468   5.526   4.640
 5003SOL    HW215909   6.619   5.467   4.625
 5004SOL     OW15910   2.127   4.062   5.945
 5004SOL    HW115911   2.220   4.082   5.914
 5004SOL    HW215912   2.129   4.034   6.041
 5005SOL     OW15913   5.151   2.490   0.439
 5005SOL    HW115914   5.249   2.494   0.420
 5005SOL    HW215915   5.136   2.451   0.530
 5006SOL     OW15916   4.499   4.794   2.037
 5006SOL    HW115917   4.495   4.694   2.028
 5006SOL    HW215918   4.564   4.831   1.972
 5007SOL     OW15919   4.086   1.042   4.494
 5007SOL    HW115920   4.049   1.004   4.579
 5007SOL    HW215921   4.170   1.093   4.514
 5008SOL     OW15922   6.178   1.923   4.015
 5008SOL    HW115923   6.125   2.004   4.040
 5008SOL    HW215924   6.275   1.946   4.011
 5009SOL     OW15925   2.633   6.475   2.078
 5009SOL    HW115926   2.568   6.547   2.105
 5009SOL    HW215927   2.588   6.386   2.086
 5010SOL     OW15928   3.195   3.497   6.230
 5010SOL    HW115929   3.286   3.504   6.188
 5010SOL    HW215930   3.172   3.401   6.242
 5011SOL     OW15931   1.558   1.817   4.417
 5011SOL    HW115932   1.539   1.809   4.515
 5011SOL    HW215933   1.549   1.912   4.390
 5012SOL     OW15934   6.171   2.295   0.129
 5012SOL    HW115935   6.129   2.324   0.215
 5012SOL    HW215936   6.224   2.370   0.091
 5013SOL     OW15937   4.946   1.408   5.224
 5013SOL    HW115938   4.959   1.327   5.167
 5013SOL    HW215939   5.028   1.465   5.221
 5014SOL     OW15940   0.005   4.916   6.528
 5014SOL    HW115941   0.019   4.914   6.429
 5014SOL    HW215942   0.076   4.862   6.573
 5015SOL     OW15943   4.960   1.946   4.081
 5015SOL    HW115944   5.057   1.924   4.085
 5015SOL    HW215945   4.914   1.909   4.162
 5016SOL     OW15946   2.628   5.628   1.616
 5016SOL    HW115947   2.717   5.675   1.617
 5016SOL    HW215948   2.560   5.689   1.575
 5017SOL     OW15949   6.971   2.591   1.661
 5017SOL    HW115950   6.903   2.618   1.729
 5017SOL    HW215951   6.981   2.492   1.661
 5018SOL     OW15952   6.486   5.156   4.029
 5018SOL    HW115953   6.402   5.210   4.035
 5018SOL    HW215954   6.508   5.138   3.934
 5019SOL     OW15955   3.290   5.411   4.762
 5019SOL    HW115956   3.314   5.411   4.860
 5019SOL    HW215957   3.217   5.345   4.746
 5020SOL     OW15958   4.443   5.185   6.992
 5020SOL    HW115959   4.359   5.137   6.967
 5020SOL    HW215960   4.516   5.158   6.928
 5021SOL     OW15961   2.399   4.737   5.729
 5021SOL    HW115962   2.328   4.747   5.660
 5021SOL    HW215963   2.437   4.645   5.725
 5022SOL     OW15964   1.627   3.314   6.662
 5022SOL    HW115965   1.577   3.228   6.652
 5022SOL    HW215966   1.638   3.356   6.572
 5023SOL     OW15967   6.700   3.476   3.855
 5023SOL    HW115968   6.623   3.425   3.817
 5023SOL    HW215969   6.712   3.451   3.951
 5024SOL     OW15970   4.773   3.893   5.222
 5024SOL    HW115971   4.690   3.927   5.266
 5024SOL    HW215972   4.793   3.948   5.141
 5025SOL     OW15973   5.521   0.273   5.116
 5025SOL    HW115974   5.576   0.191   5.126
 5025SOL    HW215975   5.513   0.319   5.204
 5026SOL     OW15976   1.199   5.688   2.752
 5026SOL    HW115977   1.233   5.769   2.702
 5026SOL    HW215978   1.126   5.716   2.814
 5027SOL     OW15979   1.256   5.468   3.502
 5027SOL    HW115980   1.353   5.492   3.513
 5027SOL    HW215981   1.228   5.407   3.575
 5028SOL     OW15982   1.203   6.442   2.746
 5028SOL    HW115983   1.155   6.512   2.797
 5028SOL    HW215984   1.156   6.424   2.659
 5029SOL     OW15985   6.130   0.536   4.711
 5029SOL    HW115986   6.220   0.546   4.754
 5029SOL    HW215987   6.129   0.453   4.655
 5030SOL     OW15988   1.250   6.095   0.427
 5030SOL    HW115989   1.273   6.191   0.412
 5030SOL    HW215990   1.219   6.054   0.341
 5031SOL     OW15991   5.327   0.346   6.835
 5031SOL    HW115992   5.328   0.359   6.934
 5031SOL    HW215993   5.316   0.435   6.791
 5032SOL     OW15994   1.770   5.456   2.220
 5032SOL    HW115995   1.679   5.441   2.183
 5032SOL    HW215996   1.831   5.383   2.188
 5033SOL     OW15997   0.742   4.403   4.546
 5033SOL    HW115998   0.783   4.437   4.630
 5033SOL    HW215999   0.712   4.308   4.559
 5034SOL     OW16000   0.752   2.765   5.995
 5034SOL    HW116001   0.779   2.859   6.019
 5034SOL    HW216002   0.824   2.724   5.939
 5035SOL     OW16003   6.670   4.835   0.872
 5035SOL    HW116004   6.750   4.887   0.901
 5035SOL    HW216005   6.619   4.805   0.953
 5036SOL     OW16006   1.038   1.610   2.930
 5036SOL    HW116007   0.954   1.654   2.898
 5036SOL    HW216008   1.037   1.605   3.030
 5037SOL     OW16009   5.249   4.297   0.978
 5037SOL    HW116010   5.287   4.353   1.051
 5037SOL    HW216011   5.289   4.325   0.891
 5038SOL     OW16012   3.049   5.530   5.916
 5038SOL    HW116013   3.094   5.443   5.895
 5038SOL    HW216014   3.016   5.571   5.830
 5039SOL     OW16015   1.087   2.804   3.525
 5039SOL    HW116016   0.990   2.779   3.517
 5039SOL    HW216017   1.094   2.894   3.569
 5040SOL     OW16018   2.276   3.541   6.453
 5040SOL    HW116019   2.361   3.508   6.495
 5040SOL    HW216020   2.235   3.468   6.399
 5041SOL     OW16021   0.344   5.922   0.468
 5041SOL    HW116022   0.329   5.863   0.388
 5041SOL    HW216023   0.287   5.890   0.544
 5042SOL     OW16024   6.014   1.422   6.241
 5042SOL    HW116025   5.935   1.397   6.297
 5042SOL    HW216026   6.041   1.344   6.185
 5043SOL     OW16027   5.590   6.011   3.873
 5043SOL    HW116028   5.542   5.931   3.838
 5043SOL    HW216029   5.689   5.993   3.875
 5044SOL     OW16030   6.368   4.066   1.808
 5044SOL    HW116031   6.352   4.064   1.907
 5044SOL    HW216032   6.280   4.070   1.760
 5045SOL     OW16033   4.746   2.950   5.642
 5045SOL    HW116034   4.732   3.047   5.621
 5045SOL    HW216035   4.803   2.941   5.724
 5046SOL     OW16036   4.011   2.747   6.009
 5046SOL    HW116037   4.023   2.840   6.045
 5046SOL    HW216038   3.978   2.687   6.082
 5047SOL     OW16039   0.394   2.224   2.233
 5047SOL    HW116040   0.410   2.247   2.329
 5047SOL    HW216041   0.448   2.285   2.175
 5048SOL     OW16042   5.974   3.641   0.953
 5048SOL    HW116043   5.998   3.619   1.048
 5048SOL    HW216044   6.056   3.670   0.904
 5049SOL     OW16045   0.595   0.893   1.318
 5049SOL    HW116046   0.530   0.908   1.244
 5049SOL    HW216047   0.576   0.805   1.361
 5050SOL     OW16048   1.828   3.718   0.565
 5050SOL    HW116049   1.770   3.770   0.628
 5050SOL    HW216050   1.790   3.723   0.472
 5051SOL     OW16051   2.155   4.044   6.233
 5051SOL    HW116052   2.123   3.974   6.297
 5051SOL    HW216053   2.155   4.133   6.278
 5052SOL     OW16054   6.123   2.935   1.016
 5052SOL    HW116055   6.131   2.843   0.979
 5052SOL    HW216056   6.058   2.934   1.093
 5053SOL     OW16057   1.064   3.889   1.300
 5053SOL    HW116058   0.967   3.916   1.295
 5053SOL    HW216059   1.076   3.800   1.257
 5054SOL     OW16060   3.672   6.064   5.051
 5054SOL    HW116061   3.681   6.041   5.148
 5054SOL    HW216062   3.714   5.991   4.996
 5055SOL     OW16063   0.558   0.736   3.950
 5055SOL    HW116064   0.511   0.788   4.021
 5055SOL    HW216065   0.500   0.661   3.919
 5056SOL     OW16066   2.688   1.485   6.170
 5056SOL    HW116067   2.710   1.394   6.136
 5056SOL    HW216068   2.747   1.553   6.127
 5057SOL     OW16069   0.633   3.699   2.287
 5057SOL    HW116070   0.596   3.614   2.324
 5057SOL    HW216071   0.729   3.709   2.314
 5058SOL     OW16072   3.905   2.005   0.116
 5058SOL    HW116073   3.975   2.076   0.114
 5058SOL    HW216074   3.940   1.925   0.165
 5059SOL     OW16075   5.745   2.852   2.760
 5059SOL    HW116076   5.722   2.915   2.686
 5059SOL    HW216077   5.710   2.761   2.738
 5060SOL     OW16078   6.419   3.028   4.910
 5060SOL    HW116079   6.332   3.075   4.898
 5060SOL    HW216080   6.455   3.046   5.002
 5061SOL     OW16081   3.919   2.624   5.760
 5061SOL    HW116082   3.861   2.676   5.697
 5061SOL    HW216083   3.945   2.682   5.837
 5062SOL     OW16084   5.747   1.170   3.526
 5062SOL    HW116085   5.841   1.152   3.553
 5062SOL    HW216086   5.732   1.139   3.432
 5063SOL     OW16087   1.037   1.101   0.423
 5063SOL    HW116088   0.986   1.116   0.338
 5063SOL    HW216089   1.028   1.181   0.482
 5064SOL     OW16090   6.365   5.241   0.350
 5064SOL    HW116091   6.414   5.218   0.434
 5064SOL    HW216092   6.333   5.157   0.307
 5065SOL     OW16093   1.653   2.188   2.584
 5065SOL    HW116094   1.749   2.214   2.600
 5065SOL    HW216095   1.602   2.267   2.551
 5066SOL     OW16096   1.356   5.059   4.105
 5066SOL    HW116097   1.261   5.083   4.124
 5066SOL    HW216098   1.369   4.961   4.119
 5067SOL     OW16099   4.867   2.969   0.915
 5067SOL    HW116100   4.849   3.066   0.928
 5067SOL    HW216101   4.960   2.956   0.880
 5068SOL     OW16102   1.772   0.093   1.297
 5068SOL    HW116103   1.796   7.025   1.321
 5068SOL    HW216104   1.851   0.151   1.311
 5069SOL     OW16105   4.156   4.605   6.354
 5069SOL    HW116106   4.066   4.637   6.385
 5069SOL    HW216107   4.163   4.506   6.369
 5070SOL     OW16108   0.520   3.439   6.779
 5070SOL    HW116109   0.577   3.385   6.718
 5070SOL    HW216110   0.534   3.536   6.759
 5071SOL     OW16111   1.749   6.465   2.668
 5071SOL    HW116112   1.811   6.474   2.745
 5071SOL    HW216113   1.660   6.434   2.700
 5072SOL     OW16114   0.215   1.770   2.733
 5072SOL    HW116115   0.200   1.859   2.690
 5072SOL    HW216116   0.167   1.699   2.680
 5073SOL     OW16117   1.789   1.309   3.896
 5073SOL    HW116118   1.796   1.243   3.971
 5073SOL    HW216119   1.767   1.399   3.933
 5074SOL     OW16120   3.775   1.971   1.321
 5074SOL    HW116121   3.853   2.014   1.277
 5074SOL    HW216122   3.713   2.042   1.356
 5075SOL     OW16123   5.991   2.205   6.954
 5075SOL    HW116124   6.055   2.241   7.022
 5075SOL    HW216125   6.016   2.112   6.930
 5076SOL     OW16126   0.333   1.184   6.227
 5076SOL    HW116127   0.234   1.176   6.232
 5076SOL    HW216128   0.369   1.207   6.317
 5077SOL     OW16129   0.470   4.462   4.736
 5077SOL    HW116130   0.387   4.429   4.691
 5077SOL    HW216131   0.513   4.387   4.787
 5078SOL     OW16132   6.332   1.682   3.002
 5078SOL    HW116133   6.260   1.621   3.035
 5078SOL    HW216134   6.290   1.758   2.952
 5079SOL     OW16135   1.616   3.745   5.578
 5079SOL    HW116136   1.708   3.709   5.566
 5079SOL    HW216137   1.558   3.676   5.621
 5080SOL     OW16138   6.351   5.825   6.662
 5080SOL    HW116139   6.258   5.858   6.678
 5080SOL    HW216140   6.357   5.782   6.572
 5081SOL     OW16141   3.116   4.710   5.655
 5081SOL    HW116142   3.103   4.673   5.747
 5081SOL    HW216143   3.207   4.751   5.649
 5082SOL     OW16144   5.663   7.013   2.637
 5082SOL    HW116145   5.759   6.994   2.619
 5082SOL    HW216146   5.645   0.084   2.621
 5083SOL     OW16147   0.588   0.323   3.479
 5083SOL    HW116148   0.616   0.375   3.560
 5083SOL    HW216149   0.629   0.232   3.482
 5084SOL     OW16150   3.510   5.638   5.831
 5084SOL    HW116151   3.503   5.553   5.883
 5084SOL    HW216152   3.472   5.625   5.740
 5085SOL     OW16153   0.670   4.016   6.663
 5085SOL    HW116154   0.572   4.034   6.657
 5085SOL    HW216155   0.700   4.022   6.758
 5086SOL     OW16156   1.123   4.370   2.140
 5086SOL    HW116157   1.084   4.282   2.113
 5086SOL    HW216158   1.095   4.440   2.073
 5087SOL     OW16159   6.570   5.337   1.614
 5087SOL    HW116160   6.585   5.352   1.516
 5087SOL    HW216161   6.655   5.308   1.657
 5088SOL     OW16162   4.241   4.788   2.109
 5088SOL    HW116163   4.341   4.785   2.101
 5088SOL    HW216164   4.215   4.768   2.204
 5089SOL     OW16165   5.245   6.037   5.767
 5089SOL    HW116166   5.237   6.122   5.818
 5089SOL    HW216167   5.202   5.963   5.817
 5090SOL     OW16168   2.241   6.640   4.314
 5090SOL    HW116169   2.335   6.664   4.336
 5090SOL    HW216170   2.186   6.641   4.397
 5091SOL     OW16171   6.575   5.805   5.710
 5091SOL    HW116172   6.641   5.763   5.771
 5091SOL    HW216173   6.483   5.772   5.732
 5092SOL     OW16174   3.929   3.063   4.673
 5092SOL    HW116175   4.005   3.020   4.721
 5092SOL    HW216176   3.875   2.993   4.628
 5093SOL     OW16177   3.395   2.055   3.530
 5093SOL    HW116178   3.347   2.076   3.445
 5093SOL    HW216179   3.428   1.960   3.527
 5094SOL     OW16180   2.425   5.596   4.989
 5094SOL    HW116181   2.374   5.651   5.056
 5094SOL    HW216182   2.477   5.657   4.929
 5095SOL     OW16183   5.974   2.096   3.131
 5095SOL    HW116184   5.993   2.127   3.224
 5095SOL    HW216185   5.966   2.175   3.071
 5096SOL     OW16186   5.566   2.575   5.656
 5096SOL    HW116187   5.524   2.626   5.731
 5096SOL    HW216188   5.511   2.494   5.637
 5097SOL     OW16189   0.921   0.474   5.619
 5097SOL    HW116190   0.917   0.402   5.688
 5097SOL    HW216191   1.005   0.527   5.629
 5098SOL     OW16192   2.740   2.021   1.019
 5098SOL    HW116193   2.774   2.105   0.976
 5098SOL    HW216194   2.748   2.030   1.118
 5099SOL     OW16195   1.892   5.453   1.892
 5099SOL    HW116196   1.912   5.551   1.894
 5099SOL    HW216197   1.794   5.438   1.904
 5100SOL     OW16198   6.296   3.774   1.132
 5100SOL    HW116199   6.328   3.684   1.104
 5100SOL    HW216200   6.332   3.797   1.222
 5101SOL     OW16201   3.752   1.777   5.385
 5101SOL    HW116202   3.691   1.821   5.319
 5101SOL    HW216203   3.767   1.839   5.462
 5102SOL     OW16204   5.423   4.442   5.330
 5102SOL    HW116205   5.426   4.353   5.284
 5102SOL    HW216206   5.513   4.485   5.323
 5103SOL     OW16207   0.556   0.306   5.505
 5103SOL    HW116208   0.640   0.260   5.535
 5103SOL    HW216209   0.560   0.403   5.529
 5104SOL     OW16210   3.685   3.380   3.765
 5104SOL    HW116211   3.752   3.330   3.711
 5104SOL    HW216212   3.728   3.461   3.805
 5105SOL     OW16213   4.413   2.714   0.001
 5105SOL    HW116214   4.321   2.741   0.029
 5105SOL    HW216215   4.426   2.617   0.018
 5106SOL     OW16216   4.307   0.944   1.263
 5106SOL    HW116217   4.246   0.865   1.257
 5106SOL    HW216218   4.326   0.964   1.359
 5107SOL     OW16219   6.331   4.854   6.577
 5107SOL    HW116220   6.347   4.759   6.606
 5107SOL    HW216221   6.370   4.868   6.486
 5108SOL     OW16222   3.907   4.118   0.800
 5108SOL    HW116223   3.958   4.054   0.857
 5108SOL    HW216224   3.959   4.203   0.792
 5109SOL     OW16225   2.143   2.411   2.362
 5109SOL    HW116226   2.106   2.330   2.406
 5109SOL    HW216227   2.215   2.450   2.419
 5110SOL     OW16228   3.450   6.262   4.737
 5110SOL    HW116229   3.464   6.357   4.708
 5110SOL    HW216230   3.354   6.237   4.725
 5111SOL     OW16231   2.361   5.651   6.360
 5111SOL    HW116232   2.338   5.602   6.276
 5111SOL    HW216233   2.401   5.739   6.337
 5112SOL     OW16234   0.961   4.465   2.537
 5112SOL    HW116235   0.906   4.467   2.454
 5112SOL    HW216236   1.050   4.424   2.517
 5113SOL     OW16237   2.416   4.313   1.094
 5113SOL    HW116238   2.409   4.234   1.156
 5113SOL    HW216239   2.468   4.287   1.013
 5114SOL     OW16240   4.679   5.060   1.602
 5114SOL    HW116241   4.636   5.103   1.523
 5114SOL    HW216242   4.726   5.129   1.656
 5115SOL     OW16243   1.589   4.322   0.170
 5115SOL    HW116244   1.550   4.231   0.150
 5115SOL    HW216245   1.633   4.358   0.088
 5116SOL     OW16246   0.153   6.905   5.643
 5116SOL    HW116247   0.084   6.968   5.677
 5116SOL    HW216248   0.242   6.927   5.683
 5117SOL     OW16249   0.227   4.025   4.401
 5117SOL    HW116250   0.160   4.052   4.471
 5117SOL    HW216251   0.283   4.104   4.376
 5118SOL     OW16252   4.615   5.011   0.145
 5118SOL    HW116253   4.565   5.065   0.077
 5118SOL    HW216254   4.634   4.920   0.108
 5119SOL     OW16255   5.252   1.483   0.728
 5119SOL    HW116256   5.282   1.576   0.706
 5119SOL    HW216257   5.323   1.436   0.780
 5120SOL     OW16258   6.051   6.280   6.471
 5120SOL    HW116259   6.009   6.297   6.560
 5120SOL    HW216260   6.053   6.364   6.418
 5121SOL     OW16261   2.046   3.243   6.989
 5121SOL    HW116262   2.081   3.329   6.952
 5121SOL    HW216263   1.971   3.210   6.932
 5122SOL     OW16264   5.102   5.487   3.583
 5122SOL    HW116265   5.021   5.542   3.562
 5122SOL    HW216266   5.093   5.450   3.675
 5123SOL     OW16267   4.711   2.149   1.332
 5123SOL    HW116268   4.768   2.231   1.332
 5123SOL    HW216269   4.688   2.125   1.427
 5124SOL     OW16270   0.478   5.609   4.454
 5124SOL    HW116271   0.394   5.617   4.508
 5124SOL    HW216272   0.557   5.625   4.514
 5125SOL     OW16273   5.289   2.562   3.810
 5125SOL    HW116274   5.365   2.518   3.858
 5125SOL    HW216275   5.236   2.493   3.762
 5126SOL     OW16276   2.613   0.879   1.969
 5126SOL    HW116277   2.575   0.971   1.959
 5126SOL    HW216278   2.631   0.861   2.065
 5127SOL     OW16279   2.419   6.545   0.732
 5127SOL    HW116280   2.337   6.510   0.687
 5127SOL    HW216281   2.398   6.566   0.828
 5128SOL     OW16282   4.274   0.323   1.876
 5128SOL    HW116283   4.366   0.346   1.843
 5128SOL    HW216284   4.209   0.391   1.842
 5129SOL     OW16285   6.131   5.798   0.185
 5129SOL    HW116286   6.075   5.727   0.141
 5129SOL    HW216287   6.225   5.791   0.152
 5130SOL     OW16288   5.967   4.936   2.052
 5130SOL    HW116289   5.937   5.027   2.080
 5130SOL    HW216290   5.887   4.878   2.036
 5131SOL     OW16291   2.530   2.077   2.178
 5131SOL    HW116292   2.596   2.092   2.105
 5131SOL    HW216293   2.462   2.151   2.177
 5132SOL     OW16294   2.441   6.174   5.427
 5132SOL    HW116295   2.353   6.188   5.381
 5132SOL    HW216296   2.428   6.113   5.505
 5133SOL     OW16297   3.496   6.275   5.027
 5133SOL    HW116298   3.552   6.197   5.056
 5133SOL    HW216299   3.486   6.273   4.928
 5134SOL     OW16300   0.970   3.126   6.632
 5134SOL    HW116301   0.976   3.029   6.652
 5134SOL    HW216302   0.928   3.174   6.709
 5135SOL     OW16303   6.322   2.146   3.802
 5135SOL    HW116304   6.244   2.208   3.806
 5135SOL    HW216305   6.345   2.128   3.706
 5136SOL     OW16306   3.257   2.084   6.143
 5136SOL    HW116307   3.179   2.083   6.206
 5136SOL    HW216308   3.248   2.009   6.078
 5137SOL     OW16309   3.855   3.357   0.050
 5137SOL    HW116310   3.918   3.426   0.087
 5137SOL    HW216311   3.811   3.309   0.126
 5138SOL     OW16312   2.500   2.923   6.159
 5138SOL    HW116313   2.523   2.932   6.062
 5138SOL    HW216314   2.402   2.937   6.171
 5139SOL     OW16315   0.748   6.901   3.870
 5139SOL    HW116316   0.767   6.980   3.929
 5139SOL    HW216317   0.774   6.817   3.918
 5140SOL     OW16318   3.534   3.130   2.143
 5140SOL    HW116319   3.584   3.071   2.207
 5140SOL    HW216320   3.439   3.137   2.171
 5141SOL     OW16321   0.913   3.543   5.726
 5141SOL    HW116322   0.835   3.489   5.695
 5141SOL    HW216323   0.922   3.535   5.825
 5142SOL     OW16324   5.262   3.599   1.912
 5142SOL    HW116325   5.185   3.617   1.851
 5142SOL    HW216326   5.307   3.514   1.886
 5143SOL     OW16327   0.149   5.051   6.062
 5143SOL    HW116328   0.144   5.149   6.078
 5143SOL    HW216329   0.243   5.020   6.074
 5144SOL     OW16330   1.857   1.564   5.126
 5144SOL    HW116331   1.880   1.491   5.190
 5144SOL    HW216332   1.792   1.530   5.058
 5145SOL     OW16333   3.701   5.375   6.297
 5145SOL    HW116334   3.659   5.285   6.290
 5145SOL    HW216335   3.642   5.443   6.253
 5146SOL     OW16336   3.357   5.207   1.146
 5146SOL    HW116337   3.436   5.250   1.190
 5146SOL    HW216338   3.365   5.216   1.047
 5147SOL     OW16339   0.379   4.869   6.347
 5147SOL    HW116340   0.352   4.965   6.337
 5147SOL    HW216341   0.407   4.832   6.258
 5148SOL     OW16342   6.894   0.436   1.638
 5148SOL    HW116343   6.879   0.450   1.540
 5148SOL    HW216344   6.896   0.337   1.657
 5149SOL     OW16345   0.118   0.892   5.838
 5149SOL    HW116346   0.156   0.959   5.774
 5149SOL    HW216347   0.162   0.803   5.824
 5150SOL     OW16348   2.680   5.116   5.661
 5150SOL    HW116349   2.772   5.148   5.638
 5150SOL    HW216350   2.670   5.021   5.631
 5151SOL     OW16351   4.758   0.644   6.062
 5151SOL    HW116352   4.826   0.571   6.057
 5151SOL    HW216353   4.667   0.606   6.045
 5152SOL     OW16354   6.775   4.916   6.723
 5152SOL    HW116355   6.803   4.923   6.627
 5152SOL    HW216356   6.855   4.926   6.782
 5153SOL     OW16357   2.857   3.313   1.068
 5153SOL    HW116358   2.760   3.311   1.094
 5153SOL    HW216359   2.902   3.231   1.104
 5154SOL     OW16360   1.098   4.636   5.234
 5154SOL    HW116361   1.155   4.554   5.230
 5154SOL    HW216362   1.028   4.631   5.163
 5155SOL     OW16363   4.118   0.832   1.756
 5155SOL    HW116364   4.090   0.743   1.722
 5155SOL    HW216365   4.186   0.820   1.828
 5156SOL     OW16366   5.389   3.176   5.683
 5156SOL    HW116367   5.300   3.132   5.667
 5156SOL    HW216368   5.460   3.127   5.633
 5157SOL     OW16369   6.392   2.298   3.332
 5157SOL    HW116370   6.396   2.230   3.259
 5157SOL    HW216371   6.462   2.368   3.316
 5158SOL     OW16372   3.423   0.514   1.740
 5158SOL    HW116373   3.394   0.433   1.790
 5158SOL    HW216374   3.354   0.586   1.748
 5159SOL     OW16375   1.960   3.007   5.098
 5159SOL    HW116376   1.960   2.962   5.187
 5159SOL    HW216377   2.043   3.060   5.087
 5160SOL     OW16378   2.909   2.265   3.681
 5160SOL    HW116379   2.824   2.317   3.693
 5160SOL    HW216380   2.952   2.251   3.770
 5161SOL     OW16381   1.740   3.189   6.907
 5161SOL    HW116382   1.763   3.095   6.881
 5161SOL    HW216383   1.732   3.245   6.824
 5162SOL     OW16384   6.386   5.931   4.687
 5162SOL    HW116385   6.305   5.883   4.653
 5162SOL    HW216386   6.468   5.884   4.656
 5163SOL     OW16387   5.941   4.109   0.587
 5163SOL    HW116388   5.870   4.084   0.520
 5163SOL    HW216389   6.002   4.178   0.547
 5164SOL     OW16390   6.941   6.375   4.727
 5164SOL    HW116391   6.883   6.447   4.766
 5164SOL    HW216392   6.997   6.414   4.653
 5165SOL     OW16393   5.653   4.439   5.713
 5165SOL    HW116394   5.686   4.412   5.623
 5165SOL    HW216395   5.573   4.385   5.738
 5166SOL     OW16396   0.585   7.011   2.962
 5166SOL    HW116397   0.579   6.997   3.061
 5166SOL    HW216398   0.666   6.965   2.926
 5167SOL     OW16399   1.873   0.498   5.352
 5167SOL    HW116400   1.946   0.558   5.387
 5167SOL    HW216401   1.792   0.554   5.331
 5168SOL     OW16402   3.296   2.096   2.432
 5168SOL    HW116403   3.395   2.092   2.440
 5168SOL    HW216404   3.270   2.172   2.372
 5169SOL     OW16405   3.734   5.151   6.751
 5169SOL    HW116406   3.786   5.199   6.680
 5169SOL    HW216407   3.790   5.077   6.790
 5170SOL     OW16408   4.048   5.384   4.475
 5170SOL    HW116409   4.104   5.386   4.393
 5170SOL    HW216410   3.958   5.347   4.453
 5171SOL     OW16411   2.652   4.798   5.165
 5171SOL    HW116412   2.719   4.731   5.132
 5171SOL    HW216413   2.599   4.832   5.088
 5172SOL     OW16414   1.765   3.844   6.347
 5172SOL    HW116415   1.703   3.914   6.313
 5172SOL    HW216416   1.837   3.886   6.402
 5173SOL     OW16417   0.118   2.372   4.298
 5173SOL    HW116418   0.106   2.325   4.211
 5173SOL    HW216419   0.171   2.456   4.284
 5174SOL     OW16420   2.805   4.770   6.879
 5174SOL    HW116421   2.827   4.714   6.958
 5174SOL    HW216422   2.707   4.788   6.877
 5175SOL     OW16423   0.738   5.207   6.621
 5175SOL    HW116424   0.805   5.234   6.552
 5175SOL    HW216425   0.666   5.277   6.626
 5176SOL     OW16426   5.622   3.393   6.631
 5176SOL    HW116427   5.599   3.444   6.714
 5176SOL    HW216428   5.552   3.408   6.562
 5177SOL     OW16429   4.685   4.762   6.525
 5177SOL    HW116430   4.776   4.722   6.542
 5177SOL    HW216431   4.635   4.767   6.611
 5178SOL     OW16432   3.600   4.557   0.512
 5178SOL    HW116433   3.565   4.468   0.483
 5178SOL    HW216434   3.523   4.619   0.529
 5179SOL     OW16435   2.837   6.336   5.346
 5179SOL    HW116436   2.883   6.252   5.378
 5179SOL    HW216437   2.738   6.321   5.347
 5180SOL     OW16438   4.711   1.680   6.830
 5180SOL    HW116439   4.746   1.764   6.870
 5180SOL    HW216440   4.667   1.701   6.742
 5181SOL     OW16441   3.214   6.444   2.395
 5181SOL    HW116442   3.164   6.363   2.365
 5181SOL    HW216443   3.312   6.424   2.399
 5182SOL     OW16444   4.834   4.116   1.108
 5182SOL    HW116445   4.879   4.205   1.118
 5182SOL    HW216446   4.816   4.077   1.198
 5183SOL     OW16447   3.542   0.470   3.742
 5183SOL    HW116448   3.558   0.554   3.690
 5183SOL    HW216449   3.571   0.485   3.837
 5184SOL     OW16450   0.743   1.985   2.924
 5184SOL    HW116451   0.755   2.041   3.006
 5184SOL    HW216452   0.650   1.997   2.889
 5185SOL     OW16453   3.601   0.187   2.034
 5185SOL    HW116454   3.546   0.268   2.051
 5185SOL    HW216455   3.634   0.150   2.121
 5186SOL     OW16456   5.618   4.043   6.820
 5186SOL    HW116457   5.708   4.075   6.848
 5186SOL    HW216458   5.628   3.972   6.751
 5187SOL     OW16459   5.216   3.699   4.426
 5187SOL    HW116460   5.245   3.773   4.365
 5187SOL    HW216461   5.122   3.673   4.404
 5188SOL     OW16462   6.863   1.115   3.450
 5188SOL    HW116463   6.926   1.191   3.461
 5188SOL    HW216464   6.914   1.032   3.426
 5189SOL     OW16465   5.006   5.241   6.095
 5189SOL    HW116466   5.015   5.314   6.027
 5189SOL    HW216467   4.993   5.281   6.186
 5190SOL     OW16468   2.367   2.052   2.788
 5190SOL    HW116469   2.446   2.093   2.742
 5190SOL    HW216470   2.328   1.979   2.731
 5191SOL     OW16471   5.339   1.052   2.139
 5191SOL    HW116472   5.263   1.094   2.089
 5191SOL    HW216473   5.403   1.011   2.074
 5192SOL     OW16474   6.821   4.341   1.402
 5192SOL    HW116475   6.807   4.250   1.440
 5192SOL    HW216476   6.755   4.357   1.328
 5193SOL     OW16477   3.770   4.928   2.819
 5193SOL    HW116478   3.759   4.921   2.720
 5193SOL    HW216479   3.733   5.015   2.851
 5194SOL     OW16480   4.891   0.977   0.105
 5194SOL    HW116481   4.885   0.909   0.178
 5194SOL    HW216482   4.858   1.065   0.139
 5195SOL     OW16483   0.560   5.626   5.380
 5195SOL    HW116484   0.462   5.647   5.373
 5195SOL    HW216485   0.605   5.649   5.294
 5196SOL     OW16486   0.906   3.143   3.600
 5196SOL    HW116487   0.876   3.065   3.656
 5196SOL    HW216488   0.832   3.168   3.537
 5197SOL     OW16489   3.634   6.024   5.310
 5197SOL    HW116490   3.548   5.974   5.317
 5197SOL    HW216491   3.633   6.101   5.373
 5198SOL     OW16492   4.251   0.848   5.592
 5198SOL    HW116493   4.315   0.925   5.587
 5198SOL    HW216494   4.157   0.883   5.584
 5199SOL     OW16495   0.335   6.050   2.119
 5199SOL    HW116496   0.384   6.087   2.040
 5199SOL    HW216497   0.349   6.110   2.198
 5200SOL     OW16498   5.730   6.528   5.620
 5200SOL    HW116499   5.705   6.463   5.548
 5200SOL    HW216500   5.653   6.588   5.640
 5201SOL     OW16501   0.015   3.905   5.463
 5201SOL    HW116502   0.081   3.906   5.388
 5201SOL    HW216503   6.953   3.875   5.429
 5202SOL     OW16504   3.786   2.103   5.933
 5202SOL    HW116505   3.836   2.152   5.862
 5202SOL    HW216506   3.770   2.164   6.010
 5203SOL     OW16507   0.860   0.497   6.025
 5203SOL    HW116508   0.903   0.547   5.950
 5203SOL    HW216509   0.922   0.424   6.055
 5204SOL     OW16510   2.338   0.692   2.266
 5204SOL    HW116511   2.428   0.653   2.284
 5204SOL    HW216512   2.310   0.669   2.173
 5205SOL     OW16513   6.919   7.006   1.900
 5205SOL    HW116514   6.917   0.025   1.988
 5205SOL    HW216515   6.857   6.928   1.901
 5206SOL     OW16516   1.226   5.298   4.903
 5206SOL    HW116517   1.184   5.210   4.927
 5206SOL    HW216518   1.314   5.307   4.949
 5207SOL     OW16519   4.722   1.685   4.561
 5207SOL    HW116520   4.642   1.629   4.584
 5207SOL    HW216521   4.738   1.682   4.463
 5208SOL     OW16522   6.572   1.587   0.193
 5208SOL    HW116523   6.660   1.546   0.170
 5208SOL    HW216524   6.587   1.673   0.242
 5209SOL     OW16525   5.388   5.982   2.272
 5209SOL    HW116526   5.359   6.041   2.197
 5209SOL    HW216527   5.328   5.996   2.351
 5210SOL     OW16528   6.284   4.351   1.603
 5210SOL    HW116529   6.220   4.361   1.679
 5210SOL    HW216530   6.274   4.429   1.541
 5211SOL     OW16531   4.850   2.822   4.767
 5211SOL    HW116532   4.847   2.876   4.683
 5211SOL    HW216533   4.769   2.763   4.772
 5212SOL     OW16534   6.139   3.723   0.083
 5212SOL    HW116535   6.220   3.711   0.025
 5212SOL    HW216536   6.162   3.783   0.160
 5213SOL     OW16537   3.756   3.332   4.070
 5213SOL    HW116538   3.711   3.416   4.039
 5213SOL    HW216539   3.687   3.268   4.103
 5214SOL     OW16540   6.306   2.617   5.552
 5214SOL    HW116541   6.303   2.614   5.652
 5214SOL    HW216542   6.394   2.654   5.522
 5215SOL     OW16543   0.447   4.757   4.936
 5215SOL    HW116544   0.400   4.845   4.948
 5215SOL    HW216545   0.389   4.684   4.973
 5216SOL     OW16546   6.582   4.498   0.382
 5216SOL    HW116547   6.635   4.416   0.357
 5216SOL    HW216548   6.642   4.565   0.425
 5217SOL     OW16549   3.145   0.644   2.502
 5217SOL    HW116550   3.079   0.718   2.492
 5217SOL    HW216551   3.154   0.620   2.599
 5218SOL     OW16552   5.913   0.083   0.744
 5218SOL    HW116553   5.998   0.112   0.699
 5218SOL    HW216554   5.887   0.150   0.813
 5219SOL     OW16555   4.435   1.956   4.896
 5219SOL    HW116556   4.408   2.052   4.897
 5219SOL    HW216557   4.359   1.899   4.928
 5220SOL     OW16558   1.946   4.030   4.443
 5220SOL    HW116559   1.882   3.958   4.415
 5220SOL    HW216560   2.027   3.989   4.484
 5221SOL     OW16561   4.045   6.384   0.840
 5221SOL    HW116562   3.996   6.366   0.925
 5221SOL    HW216563   4.018   6.317   0.771
 5222SOL     OW16564   5.866   3.223   2.436
 5222SOL    HW116565   5.894   3.274   2.354
 5222SOL    HW216566   5.773   3.188   2.422
 5223SOL     OW16567   6.691   2.061   0.636
 5223SOL    HW116568   6.767   2.028   0.692
 5223SOL    HW216569   6.609   2.006   0.656
 5224SOL     OW16570   1.982   1.773   4.602
 5224SOL    HW116571   1.958   1.780   4.698
 5224SOL    HW216572   1.900   1.751   4.548
 5225SOL     OW16573   6.742   2.256   6.119
 5225SOL    HW116574   6.734   2.223   6.213
 5225SOL    HW216575   6.660   2.232   6.068
 5226SOL     OW16576   0.208   7.016   4.150
 5226SOL    HW116577   0.296   6.974   4.172
 5226SOL    HW216578   0.138   6.979   4.211
 5227SOL     OW16579   2.223   2.571   6.410
 5227SOL    HW116580   2.286   2.607   6.479
 5227SOL    HW216581   2.172   2.646   6.368
 5228SOL     OW16582   0.767   2.429   5.189
 5228SOL    HW116583   0.845   2.381   5.147
 5228SOL    HW216584   0.760   2.402   5.285
 5229SOL     OW16585   4.060   1.551   0.410
 5229SOL    HW116586   4.110   1.492   0.347
 5229SOL    HW216587   4.026   1.497   0.487
 5230SOL     OW16588   6.485   0.449   2.003
 5230SOL    HW116589   6.564   0.398   1.968
 5230SOL    HW216590   6.448   0.401   2.083
 5231SOL     OW16591   6.582   3.955   1.651
 5231SOL    HW116592   6.492   3.958   1.694
 5231SOL    HW216593   6.621   3.863   1.661
 5232SOL     OW16594   1.493   1.566   5.866
 5232SOL    HW116595   1.451   1.655   5.855
 5232SOL    HW216596   1.528   1.534   5.778
 5233SOL     OW16597   2.317   6.893   3.489
 5233SOL    HW116598   2.396   6.954   3.490
 5233SOL    HW216599   2.272   6.894   3.579
 5234SOL     OW16600   3.660   2.277   6.283
 5234SOL    HW116601   3.561   2.277   6.271
 5234SOL    HW216602   3.684   2.324   6.368
 5235SOL     OW16603   2.358   3.050   1.414
 5235SOL    HW116604   2.338   2.989   1.337
 5235SOL    HW216605   2.398   3.135   1.379
 5236SOL     OW16606   2.985   4.976   1.799
 5236SOL    HW116607   2.960   5.007   1.707
 5236SOL    HW216608   3.062   4.913   1.793
 5237SOL     OW16609   1.496   1.180   1.440
 5237SOL    HW116610   1.564   1.111   1.416
 5237SOL    HW216611   1.527   1.230   1.521
 5238SOL     OW16612   6.095   0.731   3.310
 5238SOL    HW116613   6.072   0.773   3.222
 5238SOL    HW216614   6.059   0.788   3.385
 5239SOL     OW16615   2.361   3.965   0.053
 5239SOL    HW116616   2.315   3.879   0.074
 5239SOL    HW216617   2.369   4.020   0.137
 5240SOL     OW16618   1.804   3.971   5.490
 5240SOL    HW116619   1.897   4.005   5.505
 5240SOL    HW216620   1.806   3.871   5.484
 5241SOL     OW16621   2.082   5.359   3.664
 5241SOL    HW116622   2.064   5.334   3.569
 5241SOL    HW216623   2.181   5.373   3.675
 5242SOL     OW16624   4.189   5.910   5.711
 5242SOL    HW116625   4.190   5.810   5.706
 5242SOL    HW216626   4.205   5.938   5.806
 5243SOL     OW16627   2.050   5.415   4.239
 5243SOL    HW116628   2.000   5.470   4.306
 5243SOL    HW216629   2.021   5.441   4.147
 5244SOL     OW16630   5.451   0.498   6.415
 5244SOL    HW116631   5.476   0.511   6.319
 5244SOL    HW216632   5.430   0.587   6.456
 5245SOL     OW16633   3.233   3.823   1.678
 5245SOL    HW116634   3.188   3.746   1.724
 5245SOL    HW216635   3.332   3.818   1.695
 5246SOL     OW16636   6.565   2.703   5.540
 5246SOL    HW116637   6.557   2.637   5.614
 5246SOL    HW216638   6.565   2.796   5.578
 5247SOL     OW16639   4.635   0.991   5.417
 5247SOL    HW116640   4.689   1.068   5.382
 5247SOL    HW216641   4.583   0.950   5.342
 5248SOL     OW16642   4.224   1.051   2.095
 5248SOL    HW116643   4.193   1.121   2.030
 5248SOL    HW216644   4.235   0.964   2.047
 5249SOL     OW16645   6.747   5.994   2.076
 5249SOL    HW116646   6.777   5.900   2.095
 5249SOL    HW216647   6.824   6.056   2.090
 5250SOL     OW16648   1.102   5.137   7.004
 5250SOL    HW116649   1.010   5.152   6.970
 5250SOL    HW216650   1.136   5.220   0.021
 5251SOL     OW16651   1.311   4.143   6.461
 5251SOL    HW116652   1.259   4.128   6.377
 5251SOL    HW216653   1.346   4.236   6.462
 5252SOL     OW16654   4.258   6.296   3.304
 5252SOL    HW116655   4.169   6.257   3.328
 5252SOL    HW216656   4.331   6.242   3.347
 5253SOL     OW16657   0.600   6.112   4.777
 5253SOL    HW116658   0.608   6.103   4.678
 5253SOL    HW216659   0.691   6.113   4.818
 5254SOL     OW16660   4.282   6.014   2.210
 5254SOL    HW116661   4.331   6.079   2.269
 5254SOL    HW216662   4.220   6.064   2.150
 5255SOL     OW16663   0.551   1.581   6.481
 5255SOL    HW116664   0.619   1.649   6.453
 5255SOL    HW216665   0.566   1.496   6.430
 5256SOL     OW16666   4.244   1.554   2.621
 5256SOL    HW116667   4.295   1.636   2.599
 5256SOL    HW216668   4.146   1.571   2.607
 5257SOL     OW16669   5.632   1.129   0.149
 5257SOL    HW116670   5.645   1.073   0.067
 5257SOL    HW216671   5.721   1.161   0.183
 5258SOL     OW16672   5.828   1.916   5.301
 5258SOL    HW116673   5.887   1.846   5.261
 5258SOL    HW216674   5.774   1.877   5.375
 5259SOL     OW16675   4.367   6.013   4.568
 5259SOL    HW116676   4.436   6.045   4.633
 5259SOL    HW216677   4.301   6.086   4.550
 5260SOL     OW16678   1.601   6.701   2.115
 5260SOL    HW116679   1.670   6.629   2.110
 5260SOL    HW216680   1.603   6.755   2.031
 5261SOL     OW16681   6.374   4.315   0.346
 5261SOL    HW116682   6.350   4.335   0.251
 5261SOL    HW216683   6.458   4.363   0.370
 5262SOL     OW16684   2.256   2.166   2.177
 5262SOL    HW116685   2.222   2.245   2.228
 5262SOL    HW216686   2.208   2.160   2.090
 5263SOL     OW16687   0.477   6.168   2.601
 5263SOL    HW116688   0.394   6.127   2.564
 5263SOL    HW216689   0.483   6.148   2.699
 5264SOL     OW16690   6.640   2.410   2.134
 5264SOL    HW116691   6.545   2.402   2.163
 5264SOL    HW216692   6.697   2.431   2.214
 5265SOL     OW16693   0.987   5.914   5.611
 5265SOL    HW116694   0.928   5.847   5.567
 5265SOL    HW216695   0.936   5.963   5.681
 5266SOL     OW16696   1.007   6.992   6.234
 5266SOL    HW116697   1.101   6.981   6.265
 5266SOL    HW216698   1.007   7.005   6.134
 5267SOL     OW16699   6.222   1.142   4.941
 5267SOL    HW116700   6.224   1.231   4.987
 5267SOL    HW216701   6.190   1.154   4.847
 5268SOL     OW16702   5.677   0.168   6.001
 5268SOL    HW116703   5.592   0.221   6.005
 5268SOL    HW216704   5.723   0.172   6.090
 5269SOL     OW16705   1.268   0.489   4.431
 5269SOL    HW116706   1.363   0.497   4.458
 5269SOL    HW216707   1.256   0.524   4.339
 5270SOL     OW16708   1.289   1.813   6.874
 5270SOL    HW116709   1.323   1.723   6.849
 5270SOL    HW216710   1.361   1.865   6.920
 5271SOL     OW16711   1.399   6.134   6.262
 5271SOL    HW116712   1.325   6.095   6.207
 5271SOL    HW216713   1.423   6.070   6.335
 5272SOL     OW16714   4.208   0.302   5.877
 5272SOL    HW116715   4.256   0.234   5.822
 5272SOL    HW216716   4.156   0.363   5.818
 5273SOL     OW16717   2.181   1.520   3.619
 5273SOL    HW116718   2.146   1.610   3.647
 5273SOL    HW216719   2.149   1.500   3.526
 5274SOL     OW16720   6.173   4.626   1.050
 5274SOL    HW116721   6.175   4.715   1.094
 5274SOL    HW216722   6.081   4.606   1.017
 5275SOL     OW16723   5.643   0.728   6.234
 5275SOL    HW116724   5.561   0.670   6.224
 5275SOL    HW216725   5.712   0.699   6.167
 5276SOL     OW16726   3.468   6.172   1.650
 5276SOL    HW116727   3.389   6.196   1.706
 5276SOL    HW216728   3.452   6.201   1.556
 5277SOL     OW16729   1.534   3.195   1.782
 5277SOL    HW116730   1.556   3.287   1.749
 5277SOL    HW216731   1.615   3.138   1.777
 5278SOL     OW16732   3.995   3.822   3.440
 5278SOL    HW116733   4.006   3.728   3.474
 5278SOL    HW216734   4.060   3.882   3.487
 5279SOL     OW16735   1.478   6.750   3.170
 5279SOL    HW116736   1.538   6.829   3.159
 5279SOL    HW216737   1.455   6.713   3.080
 5280SOL     OW16738   3.810   0.377   3.913
 5280SOL    HW116739   3.891   0.340   3.958
 5280SOL    HW216740   3.728   0.341   3.958
 5281SOL     OW16741   6.784   3.011   3.541
 5281SOL    HW116742   6.820   2.920   3.517
 5281SOL    HW216743   6.686   3.014   3.522
 5282SOL     OW16744   5.474   2.617   1.279
 5282SOL    HW116745   5.558   2.638   1.228
 5282SOL    HW216746   5.414   2.562   1.222
 5283SOL     OW16747   4.971   5.187   5.218
 5283SOL    HW116748   5.012   5.180   5.308
 5283SOL    HW216749   4.970   5.097   5.175
 5284SOL     OW16750   5.612   2.844   4.367
 5284SOL    HW116751   5.541   2.860   4.298
 5284SOL    HW216752   5.569   2.820   4.454
 5285SOL     OW16753   4.243   6.092   2.764
 5285SOL    HW116754   4.250   6.137   2.676
 5285SOL    HW216755   4.252   6.160   2.837
 5286SOL     OW16756   1.859   4.657   2.327
 5286SOL    HW116757   1.878   4.688   2.421
 5286SOL    HW216758   1.906   4.717   2.262
 5287SOL     OW16759   0.476   0.535   2.744
 5287SOL    HW116760   0.480   0.485   2.657
 5287SOL    HW216761   0.562   0.521   2.793
 5288SOL     OW16762   3.475   0.418   1.024
 5288SOL    HW116763   3.567   0.388   0.999
 5288SOL    HW216764   3.480   0.470   1.110
 5289SOL     OW16765   1.626   6.853   1.879
 5289SOL    HW116766   1.609   6.897   1.791
 5289SOL    HW216767   1.715   6.882   1.914
 5290SOL     OW16768   6.021   6.584   6.700
 5290SOL    HW116769   5.928   6.549   6.686
 5290SOL    HW216770   6.063   6.602   6.612
 5291SOL     OW16771   1.227   5.577   6.951
 5291SOL    HW116772   1.327   5.586   6.954
 5291SOL    HW216773   1.203   5.488   6.914
 5292SOL     OW16774   5.646   1.530   1.548
 5292SOL    HW116775   5.620   1.448   1.599
 5292SOL    HW216776   5.746   1.536   1.542
 5293SOL     OW16777   2.151   1.270   4.142
 5293SOL    HW116778   2.162   1.357   4.190
 5293SOL    HW216779   2.179   1.281   4.047
 5294SOL     OW16780   3.585   2.039   6.671
 5294SOL    HW116781   3.644   2.087   6.606
 5294SOL    HW216782   3.640   1.977   6.726
 5295SOL     OW16783   0.336   1.458   3.256
 5295SOL    HW116784   0.406   1.479   3.188
 5295SOL    HW216785   0.363   1.494   3.345
 5296SOL     OW16786   0.270   2.903   6.407
 5296SOL    HW116787   0.181   2.863   6.430
 5296SOL    HW216788   0.260   2.961   6.326
 5297SOL     OW16789   0.758   1.861   1.722
 5297SOL    HW116790   0.847   1.836   1.760
 5297SOL    HW216791   0.757   1.958   1.701
 5298SOL     OW16792   0.898   3.868   2.064
 5298SOL    HW116793   0.926   3.776   2.091
 5298SOL    HW216794   0.798   3.872   2.057
 5299SOL     OW16795   4.074   0.175   0.121
 5299SOL    HW116796   4.101   0.265   0.087
 5299SOL    HW216797   4.054   0.114   0.044
 5300SOL     OW16798   6.901   5.045   4.811
 5300SOL    HW116799   6.814   5.047   4.861
 5300SOL    HW216800   6.883   5.031   4.714
 5301SOL     OW16801   5.200   0.310   6.520
 5301SOL    HW116802   5.223   0.330   6.615
 5301SOL    HW216803   5.270   0.350   6.460
 5302SOL     OW16804   0.331   3.813   2.942
 5302SOL    HW116805   0.277   3.775   3.017
 5302SOL    HW216806   0.308   3.765   2.857
 5303SOL     OW16807   2.436   4.452   2.318
 5303SOL    HW116808   2.443   4.551   2.325
 5303SOL    HW216809   2.382   4.428   2.237
 5304SOL     OW16810   4.665   1.671   5.691
 5304SOL    HW116811   4.620   1.672   5.781
 5304SOL    HW216812   4.734   1.743   5.687
 5305SOL     OW16813   4.076   1.574   4.699
 5305SOL    HW116814   4.156   1.598   4.643
 5305SOL    HW216815   4.026   1.657   4.724
 5306SOL     OW16816   2.565   6.977   2.936
 5306SOL    HW116817   2.624   6.950   3.012
 5306SOL    HW216818   2.485   7.025   2.971
 5307SOL     OW16819   4.816   6.345   6.724
 5307SOL    HW116820   4.724   6.377   6.746
 5307SOL    HW216821   4.873   6.423   6.699
 5308SOL     OW16822   6.765   1.553   1.461
 5308SOL    HW116823   6.851   1.567   1.413
 5308SOL    HW216824   6.766   1.607   1.546
 5309SOL     OW16825   3.706   3.912   5.928
 5309SOL    HW116826   3.735   3.822   5.895
 5309SOL    HW216827   3.610   3.909   5.953
 5310SOL     OW16828   5.004   2.875   0.550
 5310SOL    HW116829   4.906   2.864   0.569
 5310SOL    HW216830   5.030   2.813   0.476
 5311SOL     OW16831   6.740   5.865   0.229
 5311SOL    HW116832   6.745   5.887   0.132
 5311SOL    HW216833   6.678   5.788   0.244
 5312SOL     OW16834   0.804   3.954   1.699
 5312SOL    HW116835   0.779   4.027   1.763
 5312SOL    HW216836   0.896   3.921   1.720
 5313SOL     OW16837   0.599   5.903   6.800
 5313SOL    HW116838   0.649   5.818   6.818
 5313SOL    HW216839   0.502   5.883   6.788
 5314SOL     OW16840   3.919   4.707   0.761
 5314SOL    HW116841   3.844   4.764   0.794
 5314SOL    HW216842   3.887   4.613   0.749
 5315SOL     OW16843   5.609   1.162   2.715
 5315SOL    HW116844   5.531   1.173   2.777
 5315SOL    HW216845   5.594   1.082   2.657
 5316SOL     OW16846   5.505   5.038   4.684
 5316SOL    HW116847   5.488   5.094   4.603
 5316SOL    HW216848   5.469   4.946   4.670
 5317SOL     OW16849   0.151   4.828   1.430
 5317SOL    HW116850   0.239   4.859   1.468
 5317SOL    HW216851   0.097   4.906   1.401
 5318SOL     OW16852   6.509   2.711   3.664
 5318SOL    HW116853   6.481   2.640   3.729
 5318SOL    HW216854   6.439   2.783   3.662
 5319SOL     OW16855   2.785   6.476   2.663
 5319SOL    HW116856   2.736   6.551   2.707
 5319SOL    HW216857   2.816   6.506   2.573
 5320SOL     OW16858   6.179   1.973   6.928
 5320SOL    HW116859   6.230   1.927   6.855
 5320SOL    HW216860   6.234   1.975   7.011
 5321SOL     OW16861   2.943   5.121   6.950
 5321SOL    HW116862   2.886   5.181   6.895
 5321SOL    HW216863   2.994   5.175   7.017
 5322SOL     OW16864   3.044   6.207   0.261
 5322SOL    HW116865   3.059   6.197   0.162
 5322SOL    HW216866   3.125   6.177   0.310
 5323SOL     OW16867   6.558   3.115   0.562
 5323SOL    HW116868   6.634   3.056   0.588
 5323SOL    HW216869   6.506   3.140   0.644
 5324SOL     OW16870   4.192   3.404   2.585
 5324SOL    HW116871   4.269   3.446   2.538
 5324SOL    HW216872   4.175   3.313   2.546
 5325SOL     OW16873   3.270   7.023   5.863
 5325SOL    HW116874   3.286   0.014   5.960
 5325SOL    HW216875   3.173   0.001   5.843
 5326SOL     OW16876   5.981   0.901   4.014
 5326SOL    HW116877   5.893   0.948   4.025
 5326SOL    HW216878   6.035   0.910   4.098
 5327SOL     OW16879   6.117   6.743   4.242
 5327SOL    HW116880   6.177   6.676   4.285
 5327SOL    HW216881   6.116   6.728   4.143
 5328SOL     OW16882   2.548   4.888   6.250
 5328SOL    HW116883   2.520   4.943   6.171
 5328SOL    HW216884   2.519   4.935   6.334
 5329SOL     OW16885   0.118   6.734   6.133
 5329SOL    HW116886   0.026   6.772   6.132
 5329SOL    HW216887   0.140   6.702   6.225
 5330SOL     OW16888   4.692   4.392   0.436
 5330SOL    HW116889   4.640   4.342   0.368
 5330SOL    HW216890   4.790   4.389   0.414
 5331SOL     OW16891   6.095   1.167   6.962
 5331SOL    HW116892   6.015   1.215   6.997
 5331SOL    HW216893   6.109   1.191   6.866
 5332SOL     OW16894   6.454   3.453   0.190
 5332SOL    HW116895   6.357   3.474   0.198
 5332SOL    HW216896   6.496   3.513   0.121
 5333SOL     OW16897   0.048   6.839   4.324
 5333SOL    HW116898   0.061   6.752   4.276
 5333SOL    HW216899   0.064   6.825   4.422
 5334SOL     OW16900   2.946   5.879   1.039
 5334SOL    HW116901   2.954   5.966   0.989
 5334SOL    HW216902   3.001   5.884   1.122
 5335SOL     OW16903   6.899   5.701   1.943
 5335SOL    HW116904   6.983   5.701   1.889
 5335SOL    HW216905   6.896   5.618   2.000
 5336SOL     OW16906   1.130   3.185   5.317
 5336SOL    HW116907   1.031   3.198   5.312
 5336SOL    HW216908   1.175   3.245   5.251
 5337SOL     OW16909   6.327   2.290   1.147
 5337SOL    HW116910   6.306   2.300   1.244
 5337SOL    HW216911   6.425   2.303   1.132
 5338SOL     OW16912   6.996   3.168   1.643
 5338SOL    HW116913   6.934   3.225   1.590
 5338SOL    HW216914   6.999   3.076   1.604
 5339SOL     OW16915   4.762   4.038   3.016
 5339SOL    HW116916   4.856   4.056   2.987
 5339SOL    HW216917   4.705   4.117   2.995
 5340SOL     OW16918   5.688   3.842   1.119
 5340SOL    HW116919   5.759   3.865   1.185
 5340SOL    HW216920   5.673   3.743   1.118
 5341SOL     OW16921   4.854   5.487   3.312
 5341SOL    HW116922   4.912   5.540   3.250
 5341SOL    HW216923   4.856   5.527   3.403
 5342SOL     OW16924   6.089   5.051   4.800
 5342SOL    HW116925   5.990   5.058   4.785
 5342SOL    HW216926   6.113   5.092   4.888
 5343SOL     OW16927   3.496   3.699   0.088
 5343SOL    HW116928   3.397   3.694   0.072
 5343SOL    HW216929   3.540   3.618   0.051
 5344SOL     OW16930   5.686   1.743   0.113
 5344SOL    HW116931   5.626   1.774   0.187
 5344SOL    HW216932   5.745   1.819   0.084
 5345SOL     OW16933   3.716   0.831   6.758
 5345SOL    HW116934   3.655   0.841   6.837
 5345SOL    HW216935   3.701   0.906   6.694
 5346SOL     OW16936   2.269   5.982   3.000
 5346SOL    HW116937   2.222   6.014   2.917
 5346SOL    HW216938   2.303   5.889   2.985
 5347SOL     OW16939   6.075   2.332   5.127
 5347SOL    HW116940   6.032   2.421   5.144
 5347SOL    HW216941   6.055   2.271   5.204
 5348SOL     OW16942   4.865   2.622   5.431
 5348SOL    HW116943   4.848   2.716   5.400
 5348SOL    HW216944   4.779   2.572   5.432
 5349SOL     OW16945   0.798   3.816   0.476
 5349SOL    HW116946   0.781   3.905   0.517
 5349SOL    HW216947   0.896   3.803   0.462
 5350SOL     OW16948   1.257   0.101   6.657
 5350SOL    HW116949   1.166   0.118   6.694
 5350SOL    HW216950   1.265   0.144   6.567
 5351SOL     OW16951   0.703   5.509   3.800
 5351SOL    HW116952   0.738   5.505   3.706
 5351SOL    HW216953   0.707   5.604   3.832
 5352SOL     OW16954   0.525   2.674   5.880
 5352SOL    HW116955   0.491   2.602   5.941
 5352SOL    HW216956   0.615   2.705   5.913
 5353SOL     OW16957   2.107   6.458   2.896
 5353SOL    HW116958   2.118   6.398   2.817
 5353SOL    HW216959   2.155   6.544   2.878
 5354SOL     OW16960   3.247   6.020   2.056
 5354SOL    HW116961   3.256   6.083   1.978
 5354SOL    HW216962   3.324   6.033   2.118
 5355SOL     OW16963   4.975   4.271   5.642
 5355SOL    HW116964   5.042   4.272   5.716
 5355SOL    HW216965   4.907   4.200   5.660
 5356SOL     OW16966   0.073   6.910   1.715
 5356SOL    HW116967   0.011   6.837   1.687
 5356SOL    HW216968   0.031   6.962   1.789
 5357SOL     OW16969   6.143   3.608   2.524
 5357SOL    HW116970   6.171   3.600   2.619
 5357SOL    HW216971   6.108   3.701   2.507
 5358SOL     OW16972   5.729   6.845   6.506
 5358SOL    HW116973   5.810   6.787   6.508
 5358SOL    HW216974   5.738   6.918   6.574
 5359SOL     OW16975   3.486   1.950   0.146
 5359SOL    HW116976   3.453   1.857   0.165
 5359SOL    HW216977   3.486   2.003   0.231
 5360SOL     OW16978   5.372   5.904   3.017
 5360SOL    HW116979   5.444   5.945   3.073
 5360SOL    HW216980   5.392   5.920   2.920
 5361SOL     OW16981   1.500   4.234   2.716
 5361SOL    HW116982   1.400   4.227   2.725
 5361SOL    HW216983   1.538   4.274   2.799
 5362SOL     OW16984   5.838   1.959   3.922
 5362SOL    HW116985   5.848   1.874   3.974
 5362SOL    HW216986   5.909   1.964   3.852
 5363SOL     OW16987   6.545   4.728   6.164
 5363SOL    HW116988   6.495   4.691   6.086
 5363SOL    HW216989   6.482   4.778   6.223
 5364SOL     OW16990   4.978   2.853   1.530
 5364SOL    HW116991   4.934   2.888   1.613
 5364SOL    HW216992   4.984   2.926   1.462
 5365SOL     OW16993   3.469   3.391   6.117
 5365SOL    HW116994   3.548   3.452   6.125
 5365SOL    HW216995   3.474   3.342   6.029
 5366SOL     OW16996   6.886   4.485   4.020
 5366SOL    HW116997   6.956   4.481   4.092
 5366SOL    HW216998   6.854   4.393   3.999
 5367SOL     OW16999   5.860   6.098   0.795
 5367SOL    HW117000   5.953   6.082   0.828
 5367SOL    HW217001   5.803   6.132   0.870
 5368SOL     OW17002   0.069   6.052   5.358
 5368SOL    HW117003   0.141   6.090   5.416
 5368SOL    HW217004   0.026   5.974   5.404
 5369SOL     OW17005   3.342   0.429   2.648
 5369SOL    HW117006   3.292   0.371   2.583
 5369SOL    HW217007   3.278   0.493   2.692
 5370SOL     OW17008   2.512   1.732   0.267
 5370SOL    HW117009   2.587   1.670   0.289
 5370SOL    HW217010   2.544   1.826   0.270
 5371SOL     OW17011   6.255   5.121   3.369
 5371SOL    HW117012   6.332   5.066   3.338
 5371SOL    HW217013   6.280   5.170   3.452
 5372SOL     OW17014   0.202   0.841   4.078
 5372SOL    HW117015   0.196   0.775   4.153
 5372SOL    HW217016   0.167   0.799   3.994
 5373SOL     OW17017   3.765   7.014   0.639
 5373SOL    HW117018   3.794   6.966   0.722
 5373SOL    HW217019   3.674   6.982   0.613
 5374SOL     OW17020   1.591   3.753   1.112
 5374SOL    HW117021   1.514   3.779   1.169
 5374SOL    HW217022   1.669   3.729   1.170
 5375SOL     OW17023   3.054   5.262   4.710
 5375SOL    HW117024   2.978   5.325   4.729
 5375SOL    HW217025   3.051   5.236   4.613
 5376SOL     OW17026   0.158   6.765   2.454
 5376SOL    HW117027   0.117   6.774   2.545
 5376SOL    HW217028   0.212   6.846   2.433
 5377SOL     OW17029   0.810   2.527   1.472
 5377SOL    HW117030   0.807   2.502   1.375
 5377SOL    HW217031   0.869   2.464   1.521
 5378SOL     OW17032   4.790   0.094   3.893
 5378SOL    HW117033   4.701   0.100   3.848
 5378SOL    HW217034   4.777   0.089   3.992
 5379SOL     OW17035   3.323   2.105   4.186
 5379SOL    HW117036   3.294   2.144   4.274
 5379SOL    HW217037   3.422   2.114   4.176
 5380SOL     OW17038   4.604   0.086   1.541
 5380SOL    HW117039   4.528   0.058   1.601
 5380SOL    HW217040   4.599   0.035   1.455
 5381SOL     OW17041   2.754   1.831   2.807
 5381SOL    HW117042   2.777   1.848   2.903
 5381SOL    HW217043   2.838   1.813   2.755
 5382SOL     OW17044   4.516   0.537   2.840
 5382SOL    HW117045   4.539   0.625   2.799
 5382SOL    HW217046   4.418   0.531   2.854
 5383SOL     OW17047   2.430   4.240   5.355
 5383SOL    HW117048   2.414   4.168   5.288
 5383SOL    HW217049   2.455   4.325   5.308
 5384SOL     OW17050   5.288   6.261   5.904
 5384SOL    HW117051   5.343   6.315   5.840
 5384SOL    HW217052   5.349   6.206   5.961
 5385SOL     OW17053   3.215   3.972   0.810
 5385SOL    HW117054   3.184   3.896   0.867
 5385SOL    HW217055   3.206   3.947   0.714
 5386SOL     OW17056   4.252   4.945   3.222
 5386SOL    HW117057   4.273   4.866   3.280
 5386SOL    HW217058   4.236   5.025   3.280
 5387SOL     OW17059   0.725   2.688   5.128
 5387SOL    HW117060   0.754   2.596   5.152
 5387SOL    HW217061   0.713   2.743   5.211
 5388SOL     OW17062   6.540   6.811   3.374
 5388SOL    HW117063   6.536   6.718   3.410
 5388SOL    HW217064   6.505   6.812   3.280
 5389SOL     OW17065   6.226   1.651   4.553
 5389SOL    HW117066   6.221   1.552   4.537
 5389SOL    HW217067   6.299   1.671   4.618
 5390SOL     OW17068   5.650   3.250   2.906
 5390SOL    HW117069   5.712   3.325   2.932
 5390SOL    HW217070   5.699   3.163   2.912
 5391SOL     OW17071   4.760   3.331   1.136
 5391SOL    HW117072   4.788   3.249   1.086
 5391SOL    HW217073   4.802   3.330   1.227
 5392SOL     OW17074   5.150   0.978   4.117
 5392SOL    HW117075   5.178   0.960   4.211
 5392SOL    HW217076   5.183   1.068   4.090
 5393SOL     OW17077   4.929   3.444   2.635
 5393SOL    HW117078   4.884   3.514   2.692
 5393SOL    HW217079   4.938   3.359   2.687
 5394SOL     OW17080   0.540   2.905   3.083
 5394SOL    HW117081   0.602   2.860   3.020
 5394SOL    HW217082   0.533   3.002   3.059
 5395SOL     OW17083   0.608   0.593   1.710
 5395SOL    HW117084   0.572   0.500   1.716
 5395SOL    HW217085   0.611   0.633   1.801
 5396SOL     OW17086   3.924   2.048   0.409
 5396SOL    HW117087   3.963   2.116   0.471
 5396SOL    HW217088   3.981   1.965   0.411
 5397SOL     OW17089   0.819   6.545   3.301
 5397SOL    HW117090   0.793   6.623   3.358
 5397SOL    HW217091   0.773   6.552   3.212
 5398SOL     OW17092   5.171   2.277   3.111
 5398SOL    HW117093   5.237   2.209   3.140
 5398SOL    HW217094   5.084   2.262   3.157
 5399SOL     OW17095   2.668   2.496   0.428
 5399SOL    HW117096   2.744   2.550   0.393
 5399SOL    HW217097   2.702   2.407   0.459
 5400SOL     OW17098   4.712   2.944   0.645
 5400SOL    HW117099   4.613   2.928   0.639
 5400SOL    HW217100   4.739   2.944   0.741
 5401SOL     OW17101   4.941   4.363   1.103
 5401SOL    HW117102   5.027   4.404   1.072
 5401SOL    HW217103   4.864   4.417   1.070
 5402SOL     OW17104   2.365   5.323   1.860
 5402SOL    HW117105   2.281   5.333   1.807
 5402SOL    HW217106   2.353   5.363   1.950
 5403SOL     OW17107   6.235   2.562   5.299
 5403SOL    HW117108   6.254   2.602   5.389
 5403SOL    HW217109   6.141   2.582   5.273
 5404SOL     OW17110   4.893   6.566   0.391
 5404SOL    HW117111   4.981   6.593   0.429
 5404SOL    HW217112   4.839   6.520   0.461
 5405SOL     OW17113   6.437   5.062   6.069
 5405SOL    HW117114   6.462   5.072   5.972
 5405SOL    HW217115   6.338   5.073   6.079
 5406SOL     OW17116   1.542   1.247   5.526
 5406SOL    HW117117   1.641   1.253   5.539
 5406SOL    HW217118   1.511   1.325   5.471
 5407SOL     OW17119   2.043   1.603   2.822
 5407SOL    HW117120   2.111   1.636   2.887
 5407SOL    HW217121   1.983   1.678   2.794
 5408SOL     OW17122   2.161   2.686   4.190
 5408SOL    HW117123   2.120   2.634   4.265
 5408SOL    HW217124   2.246   2.728   4.220
 5409SOL     OW17125   0.143   4.431   3.448
 5409SOL    HW117126   0.225   4.460   3.498
 5409SOL    HW217127   0.062   4.456   3.501
 5410SOL     OW17128   5.946   1.351   0.060
 5410SOL    HW117129   5.959   1.310   0.150
 5410SOL    HW217130   6.001   1.434   0.052
 5411SOL     OW17131   3.248   6.238   1.845
 5411SOL    HW117132   3.263   6.293   1.927
 5411SOL    HW217133   3.155   6.251   1.812
 5412SOL     OW17134   2.147   2.010   5.865
 5412SOL    HW117135   2.096   2.035   5.947
 5412SOL    HW217136   2.142   1.911   5.852
 5413SOL     OW17137   6.960   5.454   5.486
 5413SOL    HW117138   6.918   5.363   5.480
 5413SOL    HW217139   6.987   5.472   5.580
 5414SOL     OW17140   6.011   5.805   5.556
 5414SOL    HW117141   6.068   5.825   5.636
 5414SOL    HW217142   6.042   5.720   5.513
 5415SOL     OW17143   2.218   0.676   0.652
 5415SOL    HW117144   2.205   0.584   0.689
 5415SOL    HW217145   2.169   0.742   0.710
 5416SOL     OW17146   4.140   4.975   6.179
 5416SOL    HW117147   4.135   4.880   6.149
 5416SOL    HW217148   4.099   4.984   6.270
 5417SOL     OW17149   5.445   0.514   1.171
 5417SOL    HW117150   5.364   0.525   1.229
 5417SOL    HW217151   5.423   0.451   1.096
 5418SOL     OW17152   0.127   2.658   5.448
 5418SOL    HW117153   0.118   2.752   5.416
 5418SOL    HW217154   0.063   2.599   5.397
 5419SOL     OW17155   4.197   2.402   5.932
 5419SOL    HW117156   4.133   2.360   5.995
 5419SOL    HW217157   4.280   2.346   5.925
 5420SOL     OW17158   1.622   1.677   1.221
 5420SOL    HW117159   1.618   1.702   1.124
 5420SOL    HW217160   1.577   1.588   1.234
 5421SOL     OW17161   3.986   5.809   1.175
 5421SOL    HW117162   3.897   5.841   1.207
 5421SOL    HW217163   4.041   5.780   1.253
 5422SOL     OW17164   2.408   6.546   3.147
 5422SOL    HW117165   2.497   6.521   3.183
 5422SOL    HW217166   2.371   6.623   3.199
 5423SOL     OW17167   4.086   6.761   2.750
 5423SOL    HW117168   4.150   6.700   2.797
 5423SOL    HW217169   4.004   6.710   2.725
 5424SOL     OW17170   4.002   3.660   5.751
 5424SOL    HW117171   3.996   3.652   5.851
 5424SOL    HW217172   4.084   3.611   5.719
 5425SOL     OW17173   1.976   5.521   5.093
 5425SOL    HW117174   1.956   5.564   5.005
 5425SOL    HW217175   1.959   5.423   5.087
 5426SOL     OW17176   1.632   3.907   6.921
 5426SOL    HW117177   1.711   3.935   6.866
 5426SOL    HW217178   1.658   3.834   6.984
 5427SOL     OW17179   4.891   1.717   0.572
 5427SOL    HW117180   4.814   1.777   0.596
 5427SOL    HW217181   4.965   1.731   0.637
 5428SOL     OW17182   4.618   5.806   2.607
 5428SOL    HW117183   4.712   5.797   2.641
 5428SOL    HW217184   4.569   5.873   2.662
 5429SOL     OW17185   2.416   6.365   3.395
 5429SOL    HW117186   2.355   6.381   3.318
 5429SOL    HW217187   2.482   6.293   3.371
 5430SOL     OW17188   0.889   3.612   5.305
 5430SOL    HW117189   0.803   3.563   5.314
 5430SOL    HW217190   0.898   3.677   5.381
 5431SOL     OW17191   5.682   4.717   0.461
 5431SOL    HW117192   5.585   4.703   0.476
 5431SOL    HW217193   5.728   4.628   0.454
 5432SOL     OW17194   2.051   5.468   5.870
 5432SOL    HW117195   2.048   5.490   5.967
 5432SOL    HW217196   1.961   5.486   5.829
 5433SOL     OW17197   2.417   6.825   1.455
 5433SOL    HW117198   2.337   6.765   1.455
 5433SOL    HW217199   2.473   6.805   1.375
 5434SOL     OW17200   5.410   5.777   4.404
 5434SOL    HW117201   5.344   5.704   4.420
 5434SOL    HW217202   5.500   5.749   4.437
 5435SOL     OW17203   0.488   3.264   0.232
 5435SOL    HW117204   0.461   3.168   0.236
 5435SOL    HW217205   0.442   3.308   0.155
 5436SOL     OW17206   0.938   4.584   0.881
 5436SOL    HW117207   1.030   4.559   0.911
 5436SOL    HW217208   0.881   4.503   0.877
 5437SOL     OW17209   2.964   6.711   5.914
 5437SOL    HW117210   2.964   6.624   5.865
 5437SOL    HW217211   3.050   6.722   5.964
 5438SOL     OW17212   5.023   6.627   2.760
 5438SOL    HW117213   5.100   6.586   2.809
 5438SOL    HW217214   4.956   6.660   2.827
 5439SOL     OW17215   1.232   3.604   2.011
 5439SOL    HW117216   1.158   3.666   1.985
 5439SOL    HW217217   1.204   3.509   1.997
 5440SOL     OW17218   5.494   6.264   3.062
 5440SOL    HW117219   5.585   6.256   3.023
 5440SOL    HW217220   5.486   6.351   3.110
 5441SOL     OW17221   5.659   0.002   5.239
 5441SOL    HW117222   5.641   6.961   5.168
 5441SOL    HW217223   5.722   6.990   5.306
 5442SOL     OW17224   2.733   6.465   0.148
 5442SOL    HW117225   2.710   6.409   0.228
 5442SOL    HW217226   2.823   6.439   0.114
 5443SOL     OW17227   5.899   1.428   3.539
 5443SOL    HW117228   5.877   1.331   3.535
 5443SOL    HW217229   5.923   1.461   3.448
 5444SOL     OW17230   1.639   1.616   6.313
 5444SOL    HW117231   1.690   1.693   6.274
 5444SOL    HW217232   1.641   1.539   6.249
 5445SOL     OW17233   5.951   6.347   4.880
 5445SOL    HW117234   6.004   6.420   4.838
 5445SOL    HW217235   5.989   6.258   4.852
 5446SOL     OW17236   2.377   3.988   0.324
 5446SOL    HW117237   2.408   3.896   0.348
 5446SOL    HW217238   2.278   3.994   0.340
 5447SOL     OW17239   5.526   2.368   1.703
 5447SOL    HW117240   5.426   2.364   1.711
 5447SOL    HW217241   5.555   2.463   1.694
 5448SOL     OW17242   5.779   5.500   1.250
 5448SOL    HW117243   5.858   5.552   1.283
 5448SOL    HW217244   5.738   5.450   1.325
 5449SOL     OW17245   1.984   0.242   2.551
 5449SOL    HW117246   1.942   0.247   2.460
 5449SOL    HW217247   1.919   0.275   2.620
 5450SOL     OW17248   4.184   4.554   1.778
 5450SOL    HW117249   4.085   4.561   1.791
 5450SOL    HW217250   4.205   4.473   1.723
 5451SOL     OW17251   0.827   5.710   3.633
 5451SOL    HW117252   0.894   5.711   3.559
 5451SOL    HW217253   0.844   5.786   3.695
 5452SOL     OW17254   2.207   3.824   3.343
 5452SOL    HW117255   2.163   3.805   3.255
 5452SOL    HW217256   2.227   3.921   3.350
 5453SOL     OW17257   6.053   5.591   4.133
 5453SOL    HW117258   5.959   5.606   4.103
 5453SOL    HW217259   6.116   5.628   4.064
 5454SOL     OW17260   6.604   3.688   1.743
 5454SOL    HW117261   6.690   3.668   1.791
 5454SOL    HW217262   6.532   3.705   1.810
 5455SOL     OW17263   2.151   2.638   2.815
 5455SOL    HW117264   2.121   2.556   2.863
 5455SOL    HW217265   2.250   2.649   2.826
 5456SOL     OW17266   5.261   2.822   0.113
 5456SOL    HW117267   5.264   2.821   0.213
 5456SOL    HW217268   5.216   2.740   0.080
 5457SOL     OW17269   5.716   1.195   0.553
 5457SOL    HW117270   5.642   1.202   0.621
 5457SOL    HW217271   5.751   1.286   0.533
 5458SOL     OW17272   6.693   4.393   6.109
 5458SOL    HW117273   6.741   4.458   6.049
 5458SOL    HW217274   6.729   4.402   6.202
 5459SOL     OW17275   2.318   3.688   5.743
 5459SOL    HW117276   2.302   3.591   5.761
 5459SOL    HW217277   2.367   3.728   5.820
 5460SOL     OW17278   6.746   1.199   1.268
 5460SOL    HW117279   6.760   1.276   1.206
 5460SOL    HW217280   6.699   1.230   1.350
 5461SOL     OW17281   5.852   0.424   6.416
 5461SOL    HW117282   5.906   0.479   6.352
 5461SOL    HW217283   5.798   0.484   6.475
 5462SOL     OW17284   5.373   4.945   6.926
 5462SOL    HW117285   5.359   4.899   7.013
 5462SOL    HW217286   5.375   5.044   6.940
 5463SOL     OW17287   2.847   4.627   0.105
 5463SOL    HW117288   2.778   4.602   0.173
 5463SOL    HW217289   2.897   4.708   0.136
 5464SOL     OW17290   2.384   5.612   4.314
 5464SOL    HW117291   2.381   5.711   4.327
 5464SOL    HW217292   2.477   5.585   4.290
 5465SOL     OW17293   0.806   1.242   4.929
 5465SOL    HW117294   0.894   1.225   4.974
 5465SOL    HW217295   0.735   1.185   4.970
 5466SOL     OW17296   5.154   2.435   4.791
 5466SOL    HW117297   5.080   2.485   4.746
 5466SOL    HW217298   5.233   2.430   4.730
 5467SOL     OW17299   5.264   4.297   3.622
 5467SOL    HW117300   5.202   4.373   3.604
 5467SOL    HW217301   5.250   4.264   3.715
 5468SOL     OW17302   0.431   2.424   1.457
 5468SOL    HW117303   0.382   2.388   1.536
 5468SOL    HW217304   0.420   2.362   1.379
 5469SOL     OW17305   4.650   1.050   3.101
 5469SOL    HW117306   4.653   1.042   3.002
 5469SOL    HW217307   4.555   1.060   3.131
 5470SOL     OW17308   2.686   4.664   3.668
 5470SOL    HW117309   2.673   4.649   3.571
 5470SOL    HW217310   2.783   4.682   3.687
 5471SOL     OW17311   5.156   0.587   3.968
 5471SOL    HW117312   5.105   0.533   4.035
 5471SOL    HW217313   5.103   0.667   3.943
 5472SOL     OW17314   2.648   3.907   0.090
 5472SOL    HW117315   2.558   3.926   0.053
 5472SOL    HW217316   2.711   3.883   0.016
 5473SOL     OW17317   3.140   4.747   1.865
 5473SOL    HW117318   3.063   4.710   1.917
 5473SOL    HW217319   3.213   4.772   1.928
 5474SOL     OW17320   1.003   5.225   2.069
 5474SOL    HW117321   0.939   5.167   2.018
 5474SOL    HW217322   1.072   5.262   2.007
 5475SOL     OW17323   0.861   0.927   5.609
 5475SOL    HW117324   0.779   0.982   5.621
 5475SOL    HW217325   0.837   0.838   5.570
 5476SOL     OW17326   2.960   1.173   4.637
 5476SOL    HW117327   2.875   1.176   4.689
 5476SOL    HW217328   3.025   1.239   4.676
 5477SOL     OW17329   2.181   4.095   3.314
 5477SOL    HW117330   2.173   4.130   3.221
 5477SOL    HW217331   2.104   4.035   3.335
 5478SOL     OW17332   6.446   3.356   5.752
 5478SOL    HW117333   6.434   3.450   5.784
 5478SOL    HW217334   6.488   3.302   5.825
 5479SOL     OW17335   5.433   3.793   4.636
 5479SOL    HW117336   5.360   3.771   4.700
 5479SOL    HW217337   5.411   3.878   4.589
 5480SOL     OW17338   1.727   2.687   6.097
 5480SOL    HW117339   1.750   2.740   6.178
 5480SOL    HW217340   1.760   2.735   6.015
 5481SOL     OW17341   3.988   1.113   0.690
 5481SOL    HW117342   3.933   1.146   0.767
 5481SOL    HW217343   4.063   1.057   0.725
 5482SOL     OW17344   5.143   4.730   2.141
 5482SOL    HW117345   5.190   4.785   2.209
 5482SOL    HW217346   5.209   4.702   2.070
 5483SOL     OW17347   5.560   1.482   0.566
 5483SOL    HW117348   5.503   1.471   0.485
 5483SOL    HW217349   5.656   1.489   0.539
 5484SOL     OW17350   5.887   0.145   5.818
 5484SOL    HW117351   5.877   0.242   5.792
 5484SOL    HW217352   5.821   0.123   5.890
 5485SOL     OW17353   2.789   1.024   3.939
 5485SOL    HW117354   2.814   1.080   4.018
 5485SOL    HW217355   2.870   0.975   3.906
 5486SOL     OW17356   6.836   0.478   3.842
 5486SOL    HW117357   6.913   0.532   3.807
 5486SOL    HW217358   6.823   0.398   3.784
 5487SOL     OW17359   4.060   5.342   1.338
 5487SOL    HW117360   4.110   5.260   1.308
 5487SOL    HW217361   4.044   5.402   1.260
 5488SOL     OW17362   4.686   0.761   6.315
 5488SOL    HW117363   4.706   0.722   6.225
 5488SOL    HW217364   4.664   0.688   6.379
 5489SOL     OW17365   6.745   4.141   2.597
 5489SOL    HW117366   6.715   4.231   2.566
 5489SOL    HW217367   6.666   4.086   2.622
 5490SOL     OW17368   2.758   0.874   6.759
 5490SOL    HW117369   2.698   0.822   6.698
 5490SOL    HW217370   2.718   0.875   6.851
 5491SOL     OW17371   6.388   6.576   1.359
 5491SOL    HW117372   6.342   6.574   1.448
 5491SOL    HW217373   6.475   6.529   1.365
 5492SOL     OW17374   1.633   1.725   4.927
 5492SOL    HW117375   1.616   1.780   5.009
 5492SOL    HW217376   1.627   1.628   4.951
 5493SOL     OW17377   4.160   1.062   0.218
 5493SOL    HW117378   4.237   1.119   0.248
 5493SOL    HW217379   4.095   1.051   0.294
 5494SOL     OW17380   5.191   3.495   2.512
 5494SOL    HW117381   5.179   3.524   2.417
 5494SOL    HW217382   5.103   3.498   2.559
 5495SOL     OW17383   3.312   3.276   4.624
 5495SOL    HW117384   3.394   3.297   4.676
 5495SOL    HW217385   3.248   3.224   4.682
 5496SOL     OW17386   4.348   5.056   2.444
 5496SOL    HW117387   4.248   5.059   2.439
 5496SOL    HW217388   4.383   5.144   2.476
 5497SOL     OW17389   5.218   0.041   6.997
 5497SOL    HW117390   5.228   0.133   0.010
 5497SOL    HW217391   5.137   7.024   0.007
 5498SOL     OW17392   4.229   1.178   4.130
 5498SOL    HW117393   4.158   1.124   4.085
 5498SOL    HW217394   4.186   1.243   4.193
 5499SOL     OW17395   0.167   0.334   5.067
 5499SOL    HW117396   0.244   0.371   5.119
 5499SOL    HW217397   0.150   0.240   5.097
 5500SOL     OW17398   2.174   6.406   0.695
 5500SOL    HW117399   2.227   6.343   0.638
 5500SOL    HW217400   2.116   6.353   0.757
 5501SOL     OW17401   2.515   1.121   2.010
 5501SOL    HW117402   2.439   1.137   1.948
 5501SOL    HW217403   2.498   1.167   2.097
 5502SOL     OW17404   5.287   4.564   0.237
 5502SOL    HW117405   5.339   4.526   0.313
 5502SOL    HW217406   5.288   4.500   0.160
 5503SOL     OW17407   6.548   0.461   3.908
 5503SOL    HW117408   6.645   0.451   3.930
 5503SOL    HW217409   6.533   0.549   3.863
 5504SOL     OW17410   2.668   2.401   4.635
 5504SOL    HW117411   2.645   2.493   4.603
 5504SOL    HW217412   2.587   2.342   4.630
 5505SOL     OW17413   3.381   4.863   0.640
 5505SOL    HW117414   3.467   4.915   0.637
 5505SOL    HW217415   3.383   4.801   0.718
 5506SOL     OW17416   1.045   6.780   4.949
 5506SOL    HW117417   0.952   6.810   4.973
 5506SOL    HW217418   1.098   6.858   4.916
 5507SOL     OW17419   2.691   5.469   5.020
 5507SOL    HW117420   2.699   5.400   5.093
 5507SOL    HW217421   2.600   5.511   5.025
 5508SOL     OW17422   2.264   1.162   5.184
 5508SOL    HW117423   2.177   1.150   5.232
 5508SOL    HW217424   2.316   1.235   5.230
 5509SOL     OW17425   6.995   0.390   5.766
 5509SOL    HW117426   6.948   0.335   5.834
 5509SOL    HW217427   0.008   0.330   5.696
 5510SOL     OW17428   0.561   6.932   5.085
 5510SOL    HW117429   0.600   6.990   5.157
 5510SOL    HW217430   0.467   6.961   5.066
 5511SOL     OW17431   0.325   2.385   1.204
 5511SOL    HW117432   0.259   2.444   1.251
 5511SOL    HW217433   0.387   2.440   1.148
 5512SOL     OW17434   6.422   0.106   0.472
 5512SOL    HW117435   6.473   0.046   0.534
 5512SOL    HW217436   6.470   0.112   0.385
 5513SOL     OW17437   2.971   5.851   4.534
 5513SOL    HW117438   3.067   5.847   4.564
 5513SOL    HW217439   2.954   5.777   4.469
 5514SOL     OW17440   5.829   5.675   3.250
 5514SOL    HW117441   5.916   5.633   3.274
 5514SOL    HW217442   5.762   5.654   3.321
 5515SOL     OW17443   0.582   4.057   3.445
 5515SOL    HW117444   0.547   4.073   3.537
 5515SOL    HW217445   0.662   3.997   3.448
 5516SOL     OW17446   2.066   2.816   6.981
 5516SOL    HW117447   2.055   2.724   6.943
 5516SOL    HW217448   2.007   2.827   0.035
 5517SOL     OW17449   3.146   0.793   2.119
 5517SOL    HW117450   3.062   0.794   2.064
 5517SOL    HW217451   3.148   0.873   2.180
 5518SOL     OW17452   5.773   3.469   6.064
 5518SOL    HW117453   5.747   3.421   5.980
 5518SOL    HW217454   5.699   3.530   6.092
 5519SOL     OW17455   5.856   4.818   2.484
 5519SOL    HW117456   5.839   4.778   2.574
 5519SOL    HW217457   5.833   4.916   2.487
 5520SOL     OW17458   1.560   2.797   0.902
 5520SOL    HW117459   1.482   2.775   0.842
 5520SOL    HW217460   1.551   2.747   0.988
 5521SOL     OW17461   5.640   4.144   6.044
 5521SOL    HW117462   5.658   4.181   5.953
 5521SOL    HW217463   5.718   4.089   6.074
 5522SOL     OW17464   1.494   2.684   1.652
 5522SOL    HW117465   1.441   2.767   1.635
 5522SOL    HW217466   1.560   2.700   1.725
 5523SOL     OW17467   3.015   5.972   1.828
 5523SOL    HW117468   3.106   5.969   1.788
 5523SOL    HW217469   2.978   6.065   1.820
 5524SOL     OW17470   6.230   6.534   5.768
 5524SOL    HW117471   6.156   6.558   5.705
 5524SOL    HW217472   6.192   6.491   5.850
 5525SOL     OW17473   6.471   6.307   3.385
 5525SOL    HW117474   6.518   6.246   3.448
 5525SOL    HW217475   6.496   6.283   3.291
 5526SOL     OW17476   5.691   3.129   4.651
 5526SOL    HW117477   5.758   3.073   4.603
 5526SOL    HW217478   5.737   3.203   4.699
 5527SOL     OW17479   2.938   3.252   0.170
 5527SOL    HW117480   2.864   3.186   0.157
 5527SOL    HW217481   2.918   3.335   0.119
 5528SOL     OW17482   6.535   3.063   2.527
 5528SOL    HW117483   6.446   3.049   2.484
 5528SOL    HW217484   6.601   3.092   2.458
 5529SOL     OW17485   1.454   0.709   4.091
 5529SOL    HW117486   1.522   0.743   4.027
 5529SOL    HW217487   1.494   0.637   4.148
 5530SOL     OW17488   6.719   3.069   6.753
 5530SOL    HW117489   6.746   3.012   6.830
 5530SOL    HW217490   6.698   3.162   6.785
 5531SOL     OW17491   2.907   3.216   0.434
 5531SOL    HW117492   2.933   3.221   0.337
 5531SOL    HW217493   2.990   3.210   0.490
 5532SOL     OW17494   2.620   2.502   1.833
 5532SOL    HW117495   2.562   2.421   1.846
 5532SOL    HW217496   2.711   2.484   1.869
 5533SOL     OW17497   2.928   0.547   1.167
 5533SOL    HW117498   2.935   0.635   1.215
 5533SOL    HW217499   2.911   0.474   1.232
 5534SOL     OW17500   0.579   3.293   5.123
 5534SOL    HW117501   0.521   3.212   5.139
 5534SOL    HW217502   0.656   3.267   5.065
 5535SOL     OW17503   4.926   4.412   3.938
 5535SOL    HW117504   4.934   4.445   4.032
 5535SOL    HW217505   5.003   4.350   3.919
 5536SOL     OW17506   2.364   1.267   4.479
 5536SOL    HW117507   2.395   1.172   4.484
 5536SOL    HW217508   2.264   1.271   4.490
 5537SOL     OW17509   3.594   1.109   3.519
 5537SOL    HW117510   3.505   1.071   3.494
 5537SOL    HW217511   3.581   1.196   3.566
 5538SOL     OW17512   4.910   2.397   2.171
 5538SOL    HW117513   4.848   2.414   2.095
 5538SOL    HW217514   4.859   2.354   2.246
 5539SOL     OW17515   1.571   0.544   6.415
 5539SOL    HW117516   1.634   0.482   6.463
 5539SOL    HW217517   1.581   0.532   6.317
 5540SOL     OW17518   5.034   6.944   5.124
 5540SOL    HW117519   4.953   6.999   5.148
 5540SOL    HW217520   5.110   6.968   5.184
 5541SOL     OW17521   4.241   2.830   5.695
 5541SOL    HW117522   4.336   2.861   5.697
 5541SOL    HW217523   4.238   2.731   5.680
 5542SOL     OW17524   4.979   4.381   6.411
 5542SOL    HW117525   4.977   4.328   6.495
 5542SOL    HW217526   5.038   4.336   6.344
 5543SOL     OW17527   0.507   0.198   6.223
 5543SOL    HW117528   0.411   0.215   6.248
 5543SOL    HW217529   0.556   0.163   6.303
 5544SOL     OW17530   3.351   5.135   0.227
 5544SOL    HW117531   3.379   5.082   0.147
 5544SOL    HW217532   3.255   5.162   0.217
 5545SOL     OW17533   5.650   1.837   2.986
 5545SOL    HW117534   5.603   1.779   2.919
 5545SOL    HW217535   5.737   1.796   3.010
 5546SOL     OW17536   0.615   6.049   4.507
 5546SOL    HW117537   0.520   6.030   4.530
 5546SOL    HW217538   0.640   6.000   4.424
 5547SOL     OW17539   5.225   1.588   4.470
 5547SOL    HW117540   5.191   1.677   4.503
 5547SOL    HW217541   5.310   1.566   4.517
 5548SOL     OW17542   0.941   3.362   5.166
 5548SOL    HW117543   0.889   3.428   5.220
 5548SOL    HW217544   0.978   3.408   5.085
 5549SOL     OW17545   4.044   2.765   0.583
 5549SOL    HW117546   4.132   2.773   0.629
 5549SOL    HW217547   4.053   2.795   0.488
 5550SOL     OW17548   2.677   3.743   1.744
 5550SOL    HW117549   2.614   3.820   1.757
 5550SOL    HW217550   2.762   3.776   1.703
 5551SOL     OW17551   1.455   4.535   2.563
 5551SOL    HW117552   1.444   4.582   2.476
 5551SOL    HW217553   1.539   4.481   2.561
 5552SOL     OW17554   0.859   0.697   0.139
 5552SOL    HW117555   0.925   0.724   0.208
 5552SOL    HW217556   0.856   0.597   0.133
 5553SOL     OW17557   5.516   6.154   0.766
 5553SOL    HW117558   5.557   6.132   0.678
 5553SOL    HW217559   5.578   6.212   0.819
 5554SOL     OW17560   6.441   2.583   1.717
 5554SOL    HW117561   6.375   2.657   1.727
 5554SOL    HW217562   6.508   2.607   1.646
 5555SOL     OW17563   1.525   4.895   2.447
 5555SOL    HW117564   1.609   4.905   2.499
 5555SOL    HW217565   1.546   4.854   2.358
 5556SOL     OW17566   0.100   1.445   4.773
 5556SOL    HW117567   0.173   1.478   4.713
 5556SOL    HW217568   0.036   1.389   4.721
 5557SOL     OW17569   3.441   6.966   2.997
 5557SOL    HW117570   3.407   6.996   3.086
 5557SOL    HW217571   3.379   6.999   2.925
 5558SOL     OW17572   4.155   3.244   6.328
 5558SOL    HW117573   4.172   3.328   6.276
 5558SOL    HW217574   4.099   3.265   6.408
 5559SOL     OW17575   3.600   0.613   3.038
 5559SOL    HW117576   3.631   0.524   3.071
 5559SOL    HW217577   3.630   0.625   2.943
 5560SOL     OW17578   0.198   5.771   3.486
 5560SOL    HW117579   0.142   5.694   3.455
 5560SOL    HW217580   0.159   5.809   3.570
 5561SOL     OW17581   3.385   0.510   3.401
 5561SOL    HW117582   3.370   0.575   3.327
 5561SOL    HW217583   3.401   0.419   3.364
 5562SOL     OW17584   4.414   3.339   0.482
 5562SOL    HW117585   4.471   3.277   0.429
 5562SOL    HW217586   4.408   3.427   0.435
 5563SOL     OW17587   2.294   4.332   2.107
 5563SOL    HW117588   2.198   4.309   2.090
 5563SOL    HW217589   2.342   4.251   2.141
 5564SOL     OW17590   4.485   6.882   6.333
 5564SOL    HW117591   4.534   6.859   6.249
 5564SOL    HW217592   4.414   6.949   6.313
 5565SOL     OW17593   3.550   1.436   6.209
 5565SOL    HW117594   3.460   1.480   6.201
 5565SOL    HW217595   3.544   1.343   6.174
 5566SOL     OW17596   1.738   5.274   5.668
 5566SOL    HW117597   1.722   5.237   5.577
 5566SOL    HW217598   1.675   5.232   5.733
 5567SOL     OW17599   0.943   4.954   6.488
 5567SOL    HW117600   0.920   4.938   6.392
 5567SOL    HW217601   0.859   4.951   6.543
 5568SOL     OW17602   5.171   5.341   2.222
 5568SOL    HW117603   5.144   5.437   2.234
 5568SOL    HW217604   5.231   5.334   2.143
 5569SOL     OW17605   2.127   1.875   2.659
 5569SOL    HW117606   2.177   1.788   2.657
 5569SOL    HW217607   2.113   1.906   2.565
 5570SOL     OW17608   6.827   4.094   1.530
 5570SOL    HW117609   6.875   4.107   1.617
 5570SOL    HW217610   6.745   4.040   1.546
 5571SOL     OW17611   0.061   4.837   6.874
 5571SOL    HW117612   0.156   4.842   6.844
 5571SOL    HW217613   0.036   4.922   6.921
 5572SOL     OW17614   1.239   4.388   5.277
 5572SOL    HW117615   1.174   4.312   5.270
 5572SOL    HW217616   1.307   4.368   5.347
 5573SOL     OW17617   3.652   4.905   3.541
 5573SOL    HW117618   3.651   4.869   3.634
 5573SOL    HW217619   3.742   4.891   3.500
 5574SOL     OW17620   0.968   1.045   6.212
 5574SOL    HW117621   0.915   1.059   6.129
 5574SOL    HW217622   1.010   0.955   6.211
 5575SOL     OW17623   0.213   0.424   2.098
 5575SOL    HW117624   0.254   0.333   2.090
 5575SOL    HW217625   0.269   0.490   2.048
 5576SOL     OW17626   1.749   4.736   3.613
 5576SOL    HW117627   1.714   4.799   3.683
 5576SOL    HW217628   1.797   4.787   3.543
 5577SOL     OW17629   2.521   2.499   6.390
 5577SOL    HW117630   2.498   2.403   6.375
 5577SOL    HW217631   2.620   2.512   6.379
 5578SOL     OW17632   3.655   4.142   4.110
 5578SOL    HW117633   3.594   4.220   4.121
 5578SOL    HW217634   3.679   4.132   4.014
 5579SOL     OW17635   6.103   3.093   1.774
 5579SOL    HW117636   6.137   3.011   1.820
 5579SOL    HW217637   6.146   3.102   1.685
 5580SOL     OW17638   5.571   2.093   5.707
 5580SOL    HW117639   5.527   2.164   5.653
 5580SOL    HW217640   5.631   2.134   5.775
 5581SOL     OW17641   1.289   1.040   6.359
 5581SOL    HW117642   1.298   1.105   6.434
 5581SOL    HW217643   1.289   1.090   6.272
 5582SOL     OW17644   2.692   2.345   5.915
 5582SOL    HW117645   2.717   2.251   5.891
 5582SOL    HW217646   2.765   2.386   5.970
 5583SOL     OW17647   6.181   6.384   0.626
 5583SOL    HW117648   6.163   6.464   0.684
 5583SOL    HW217649   6.095   6.338   0.604
 5584SOL     OW17650   1.533   3.123   5.055
 5584SOL    HW117651   1.627   3.096   5.033
 5584SOL    HW217652   1.527   3.222   5.057
 5585SOL     OW17653   5.798   4.829   1.207
 5585SOL    HW117654   5.707   4.870   1.206
 5585SOL    HW217655   5.855   4.875   1.274
 5586SOL     OW17656   0.999   5.853   1.622
 5586SOL    HW117657   1.089   5.840   1.662
 5586SOL    HW217658   0.949   5.766   1.623
 5587SOL     OW17659   5.834   0.393   5.374
 5587SOL    HW117660   5.874   0.304   5.354
 5587SOL    HW217661   5.753   0.382   5.432
 5588SOL     OW17662   3.011   0.108   0.644
 5588SOL    HW117663   2.952   0.186   0.664
 5588SOL    HW217664   3.103   0.141   0.622
 5589SOL     OW17665   0.010   4.347   5.891
 5589SOL    HW117666   6.986   4.272   5.932
 5589SOL    HW217667   0.036   4.323   5.797
 5590SOL     OW17668   5.730   5.286   3.400
 5590SOL    HW117669   5.651   5.335   3.364
 5590SOL    HW217670   5.715   5.188   3.391
 5591SOL     OW17671   5.321   1.464   2.873
 5591SOL    HW117672   5.241   1.506   2.916
 5591SOL    HW217673   5.402   1.520   2.893
 5592SOL     OW17674   0.139   5.259   4.072
 5592SOL    HW117675   0.064   5.199   4.043
 5592SOL    HW217676   0.144   5.338   4.010
 5593SOL     OW17677   1.753   3.974   0.743
 5593SOL    HW117678   1.699   3.995   0.662
 5593SOL    HW217679   1.758   4.055   0.802
 5594SOL     OW17680   6.301   1.275   5.774
 5594SOL    HW117681   6.277   1.183   5.804
 5594SOL    HW217682   6.354   1.321   5.845
 5595SOL     OW17683   0.192   2.046   0.814
 5595SOL    HW117684   0.193   1.986   0.734
 5595SOL    HW217685   0.249   2.006   0.886
 5596SOL     OW17686   4.084   6.009   3.190
 5596SOL    HW117687   4.096   6.075   3.264
 5596SOL    HW217688   4.010   5.946   3.212
 5597SOL     OW17689   5.115   3.295   2.078
 5597SOL    HW117690   5.053   3.370   2.057
 5597SOL    HW217691   5.098   3.262   2.171
 5598SOL     OW17692   3.607   0.574   4.023
 5598SOL    HW117693   3.560   0.544   4.106
 5598SOL    HW217694   3.704   0.552   4.029
 5599SOL     OW17695   0.849   1.272   3.306
 5599SOL    HW117696   0.927   1.329   3.280
 5599SOL    HW217697   0.804   1.311   3.386
 5600SOL     OW17698   2.665   2.797   5.324
 5600SOL    HW117699   2.626   2.876   5.276
 5600SOL    HW217700   2.756   2.820   5.357
 5601SOL     OW17701   1.996   0.519   6.406
 5601SOL    HW117702   1.943   0.449   6.359
 5601SOL    HW217703   1.994   0.502   6.505
 5602SOL     OW17704   1.988   0.954   6.922
 5602SOL    HW117705   1.926   0.961   7.000
 5602SOL    HW217706   2.081   0.938   6.954
 5603SOL     OW17707   6.455   3.670   5.072
 5603SOL    HW117708   6.478   3.725   4.992
 5603SOL    HW217709   6.537   3.657   5.127
 5604SOL     OW17710   5.128   0.933   6.105
 5604SOL    HW117711   5.206   0.980   6.147
 5604SOL    HW217712   5.067   1.001   6.063
 5605SOL     OW17713   0.828   1.780   6.593
 5605SOL    HW117714   0.819   1.761   6.495
 5605SOL    HW217715   0.858   1.698   6.641
 5606SOL     OW17716   5.688   0.251   2.977
 5606SOL    HW117717   5.682   0.165   3.027
 5606SOL    HW217718   5.603   0.303   2.990
 5607SOL     OW17719   5.077   0.666   1.224
 5607SOL    HW117720   4.981   0.639   1.232
 5607SOL    HW217721   5.133   0.599   1.273
 5608SOL     OW17722   3.701   6.488   4.933
 5608SOL    HW117723   3.697   6.463   5.030
 5608SOL    HW217724   3.787   6.455   4.894
 5609SOL     OW17725   1.300   6.327   5.128
 5609SOL    HW117726   1.371   6.330   5.199
 5609SOL    HW217727   1.213   6.358   5.167
 5610SOL     OW17728   4.490   0.304   6.489
 5610SOL    HW117729   4.503   0.281   6.586
 5610SOL    HW217730   4.421   0.375   6.481
 5611SOL     OW17731   1.792   4.263   4.496
 5611SOL    HW117732   1.794   4.333   4.424
 5611SOL    HW217733   1.869   4.200   4.484
 5612SOL     OW17734   3.297   6.119   4.464
 5612SOL    HW117735   3.364   6.046   4.463
 5612SOL    HW217736   3.220   6.096   4.404
 5613SOL     OW17737   3.017   5.080   2.063
 5613SOL    HW117738   2.944   5.055   2.126
 5613SOL    HW217739   2.982   5.079   1.969
 5614SOL     OW17740   5.259   2.221   4.491
 5614SOL    HW117741   5.334   2.191   4.432
 5614SOL    HW217742   5.285   2.305   4.538
 5615SOL     OW17743   0.816   1.608   1.788
 5615SOL    HW117744   0.822   1.545   1.711
 5615SOL    HW217745   0.765   1.690   1.761
 5616SOL     OW17746   2.335   6.701   4.901
 5616SOL    HW117747   2.368   6.724   4.809
 5616SOL    HW217748   2.341   6.602   4.914
 5617SOL     OW17749   0.717   1.234   6.084
 5617SOL    HW117750   0.689   1.141   6.110
 5617SOL    HW217751   0.714   1.244   5.985
 5618SOL     OW17752   6.061   4.853   3.358
 5618SOL    HW117753   6.075   4.841   3.457
 5618SOL    HW217754   6.118   4.929   3.326
 5619SOL     OW17755   2.255   3.708   5.243
 5619SOL    HW117756   2.330   3.687   5.180
 5619SOL    HW217757   2.181   3.753   5.192
 5620SOL     OW17758   5.000   1.837   6.708
 5620SOL    HW117759   5.002   1.737   6.706
 5620SOL    HW217760   5.093   1.872   6.703
 5621SOL     OW17761   2.320   1.813   6.711
 5621SOL    HW117762   2.389   1.788   6.643
 5621SOL    HW217763   2.310   1.912   6.713
 5622SOL     OW17764   5.719   0.117   5.597
 5622SOL    HW117765   5.741   0.041   5.536
 5622SOL    HW217766   5.770   0.108   5.682
 5623SOL     OW17767   0.073   5.856   6.852
 5623SOL    HW117768   0.006   5.924   6.824
 5623SOL    HW217769   0.029   5.789   6.912
 5624SOL     OW17770   0.847   4.532   2.287
 5624SOL    HW117771   0.853   4.480   2.202
 5624SOL    HW217772   0.812   4.624   2.268
 5625SOL     OW17773   6.700   1.828   5.270
 5625SOL    HW117774   6.605   1.858   5.280
 5625SOL    HW217775   6.705   1.729   5.285
 5626SOL     OW17776   5.825   6.926   5.465
 5626SOL    HW117777   5.915   6.891   5.437
 5626SOL    HW217778   5.779   6.857   5.521
 5627SOL     OW17779   1.575   0.420   1.152
 5627SOL    HW117780   1.498   0.483   1.148
 5627SOL    HW217781   1.542   0.326   1.148
 5628SOL     OW17782   1.809   1.707   4.401
 5628SOL    HW117783   1.862   1.766   4.340
 5628SOL    HW217784   1.711   1.721   4.383
 5629SOL     OW17785   3.769   3.210   3.542
 5629SOL    HW117786   3.787   3.137   3.607
 5629SOL    HW217787   3.702   3.178   3.474
 5630SOL     OW17788   6.621   3.791   0.716
 5630SOL    HW117789   6.546   3.823   0.775
 5630SOL    HW217790   6.673   3.870   0.684
 5631SOL     OW17791   5.733   1.152   6.113
 5631SOL    HW117792   5.730   1.200   6.025
 5631SOL    HW217793   5.828   1.150   6.146
 5632SOL     OW17794   3.216   2.135   0.550
 5632SOL    HW117795   3.233   2.110   0.645
 5632SOL    HW217796   3.212   2.234   0.542
 5633SOL     OW17797   0.048   2.844   5.290
 5633SOL    HW117798   0.017   2.934   5.322
 5633SOL    HW217799   7.001   2.800   5.238
 5634SOL     OW17800   4.498   6.315   4.872
 5634SOL    HW117801   4.596   6.330   4.883
 5634SOL    HW217802   4.483   6.244   4.802
 5635SOL     OW17803   3.097   1.598   6.101
 5635SOL    HW117804   3.026   1.540   6.141
 5635SOL    HW217805   3.112   1.572   6.005
 5636SOL     OW17806   4.581   6.696   4.363
 5636SOL    HW117807   4.622   6.725   4.449
 5636SOL    HW217808   4.643   6.635   4.315
 5637SOL     OW17809   5.759   7.005   3.089
 5637SOL    HW117810   5.855   6.994   3.065
 5637SOL    HW217811   5.702   6.973   3.014
 5638SOL     OW17812   0.316   3.613   6.871
 5638SOL    HW117813   0.379   3.661   6.933
 5638SOL    HW217814   0.357   3.527   6.842
 5639SOL     OW17815   4.319   6.608   0.005
 5639SOL    HW117816   4.369   6.635   0.087
 5639SOL    HW217817   4.275   6.688   6.992
 5640SOL     OW17818   1.547   6.987   3.495
 5640SOL    HW117819   1.561   0.027   3.421
 5640SOL    HW217820   1.560   0.006   3.583
 5641SOL     OW17821   0.049   5.283   4.684
 5641SOL    HW117822   0.065   5.381   4.696
 5641SOL    HW217823   0.080   5.234   4.765
 5642SOL     OW17824   1.672   1.074   0.611
 5642SOL    HW117825   1.683   1.118   0.522
 5642SOL    HW217826   1.611   1.129   0.668
 5643SOL     OW17827   5.492   2.145   6.161
 5643SOL    HW117828   5.411   2.147   6.103
 5643SOL    HW217829   5.539   2.233   6.156
 5644SOL     OW17830   2.922   0.512   5.479
 5644SOL    HW117831   2.822   0.523   5.479
 5644SOL    HW217832   2.947   0.441   5.545
 5645SOL     OW17833   5.779   3.746   4.024
 5645SOL    HW117834   5.703   3.801   3.989
 5645SOL    HW217835   5.744   3.658   4.057
 5646SOL     OW17836   0.483   4.222   2.536
 5646SOL    HW117837   0.550   4.292   2.511
 5646SOL    HW217838   0.481   4.151   2.464
 5647SOL     OW17839   5.125   6.030   2.803
 5647SOL    HW117840   5.062   6.065   2.734
 5647SOL    HW217841   5.176   6.106   2.843
 5648SOL     OW17842   5.312   6.302   3.337
 5648SOL    HW117843   5.363   6.388   3.325
 5648SOL    HW217844   5.225   6.321   3.383
 5649SOL     OW17845   0.366   0.317   4.780
 5649SOL    HW117846   0.444   0.368   4.816
 5649SOL    HW217847   0.330   0.363   4.699
 5650SOL     OW17848   0.134   3.358   6.319
 5650SOL    HW117849   0.234   3.348   6.312
 5650SOL    HW217850   0.107   3.360   6.415
 5651SOL     OW17851   2.773   1.303   1.037
 5651SOL    HW117852   2.735   1.259   1.118
 5651SOL    HW217853   2.727   1.268   0.955
 5652SOL     OW17854   0.481   6.103   2.891
 5652SOL    HW117855   0.537   6.095   2.974
 5652SOL    HW217856   0.424   6.185   2.897
 5653SOL     OW17857   6.937   0.658   2.697
 5653SOL    HW117858   7.018   0.666   2.638
 5653SOL    HW217859   6.865   0.610   2.648
 5654SOL     OW17860   3.547   6.054   5.611
 5654SOL    HW117861   3.507   6.094   5.694
 5654SOL    HW217862   3.644   6.080   5.605
 5655SOL     OW17863   5.619   3.406   4.321
 5655SOL    HW117864   5.537   3.445   4.362
 5655SOL    HW217865   5.616   3.306   4.326
 5656SOL     OW17866   0.541   4.051   1.051
 5656SOL    HW117867   0.637   4.076   1.059
 5656SOL    HW217868   0.513   3.999   1.131
 5657SOL     OW17869   5.781   6.032   4.936
 5657SOL    HW117870   5.846   6.066   4.868
 5657SOL    HW217871   5.804   5.938   4.961
 5658SOL     OW17872   2.441   2.430   5.973
 5658SOL    HW117873   2.538   2.412   5.957
 5658SOL    HW217874   2.431   2.499   6.044
 5659SOL     OW17875   2.278   4.405   6.452
 5659SOL    HW117876   2.254   4.502   6.460
 5659SOL    HW217877   2.206   4.356   6.403
 5660SOL     OW17878   3.558   0.211   4.299
 5660SOL    HW117879   3.599   0.179   4.385
 5660SOL    HW217880   3.459   0.209   4.307
 5661SOL     OW17881   0.758   5.534   6.000
 5661SOL    HW117882   0.662   5.561   5.996
 5661SOL    HW217883   0.799   5.540   5.909
 5662SOL     OW17884   2.667   6.147   0.936
 5662SOL    HW117885   2.625   6.207   0.869
 5662SOL    HW217886   2.767   6.149   0.926
 5663SOL     OW17887   3.368   2.287   6.591
 5663SOL    HW117888   3.386   2.200   6.637
 5663SOL    HW217889   3.404   2.362   6.646
 5664SOL     OW17890   5.314   5.244   4.565
 5664SOL    HW117891   5.276   5.291   4.645
 5664SOL    HW217892   5.400   5.289   4.539
 5665SOL     OW17893   2.055   0.763   0.876
 5665SOL    HW117894   2.010   0.841   0.921
 5665SOL    HW217895   1.986   0.695   0.852
 5666SOL     OW17896   6.144   3.095   4.562
 5666SOL    HW117897   6.052   3.058   4.549
 5666SOL    HW217898   6.154   3.180   4.509
 5667SOL     OW17899   2.892   4.768   4.061
 5667SOL    HW117900   2.829   4.739   3.989
 5667SOL    HW217901   2.851   4.751   4.151
 5668SOL     OW17902   4.418   4.619   3.887
 5668SOL    HW117903   4.358   4.660   3.818
 5668SOL    HW217904   4.393   4.653   3.978
 5669SOL     OW17905   5.943   3.977   5.615
 5669SOL    HW117906   5.875   3.911   5.646
 5669SOL    HW217907   5.990   3.942   5.535
 5670SOL     OW17908   1.221   2.991   4.461
 5670SOL    HW117909   1.221   2.892   4.473
 5670SOL    HW217910   1.311   3.021   4.428
 5671SOL     OW17911   6.168   5.909   2.627
 5671SOL    HW117912   6.141   6.004   2.639
 5671SOL    HW217913   6.235   5.902   2.553
 5672SOL     OW17914   5.303   3.142   4.713
 5672SOL    HW117915   5.365   3.075   4.753
 5672SOL    HW217916   5.290   3.218   4.777
 5673SOL     OW17917   0.025   1.913   0.339
 5673SOL    HW117918   0.058   1.928   0.246
 5673SOL    HW217919   6.952   1.922   0.341
 5674SOL     OW17920   2.470   5.414   5.747
 5674SOL    HW117921   2.402   5.392   5.816
 5674SOL    HW217922   2.502   5.331   5.702
 5675SOL     OW17923   3.089   2.233   1.005
 5675SOL    HW117924   2.996   2.257   1.031
 5675SOL    HW217925   3.139   2.201   1.086
 5676SOL     OW17926   4.024   1.506   1.632
 5676SOL    HW117927   4.044   1.494   1.535
 5676SOL    HW217928   3.926   1.524   1.644
 5677SOL     OW17929   1.087   1.530   6.263
 5677SOL    HW117930   1.171   1.543   6.316
 5677SOL    HW217931   1.028   1.464   6.308
 5678SOL     OW17932   3.939   1.871   1.950
 5678SOL    HW117933   4.031   1.833   1.939
 5678SOL    HW217934   3.895   1.830   2.029
 5679SOL     OW17935   0.389   3.590   6.142
 5679SOL    HW117936   0.324   3.636   6.082
 5679SOL    HW217937   0.430   3.512   6.094
 5680SOL     OW17938   0.786   5.530   5.108
 5680SOL    HW117939   0.731   5.612   5.093
 5680SOL    HW217940   0.793   5.478   5.023
 5681SOL     OW17941   1.128   3.418   2.963
 5681SOL    HW117942   1.191   3.477   2.913
 5681SOL    HW217943   1.049   3.396   2.906
 5682SOL     OW17944   1.808   4.869   0.800
 5682SOL    HW117945   1.779   4.963   0.783
 5682SOL    HW217946   1.776   4.810   0.725
 5683SOL     OW17947   6.989   0.041   5.749
 5683SOL    HW117948   7.009   0.098   5.669
 5683SOL    HW217949   6.958   0.099   5.824
 5684SOL     OW17950   1.786   3.127   4.897
 5684SOL    HW117951   1.848   3.097   4.969
 5684SOL    HW217952   1.829   3.115   4.808
 5685SOL     OW17953   1.783   1.872   2.028
 5685SOL    HW117954   1.731   1.836   2.105
 5685SOL    HW217955   1.733   1.854   1.943
 5686SOL     OW17956   6.009   5.551   5.415
 5686SOL    HW117957   5.929   5.548   5.355
 5686SOL    HW217958   6.016   5.466   5.466
 5687SOL     OW17959   1.331   6.838   6.695
 5687SOL    HW117960   1.290   6.926   6.669
 5687SOL    HW217961   1.343   6.835   6.794
 5688SOL     OW17962   1.439   2.300   2.933
 5688SOL    HW117963   1.405   2.228   2.872
 5688SOL    HW217964   1.536   2.287   2.949
 5689SOL     OW17965   6.778   2.155   0.932
 5689SOL    HW117966   6.821   2.240   0.963
 5689SOL    HW217967   6.828   2.119   0.854
 5690SOL     OW17968   2.956   5.429   0.117
 5690SOL    HW117969   3.009   5.509   0.088
 5690SOL    HW217970   2.911   5.448   0.204
 5691SOL     OW17971   4.866   3.001   3.592
 5691SOL    HW117972   4.892   3.069   3.660
 5691SOL    HW217973   4.784   3.031   3.544
 5692SOL     OW17974   6.497   5.041   1.524
 5692SOL    HW117975   6.537   4.952   1.501
 5692SOL    HW217976   6.539   5.112   1.467
 5693SOL     OW17977   3.205   1.238   2.746
 5693SOL    HW117978   3.298   1.274   2.742
 5693SOL    HW217979   3.207   1.139   2.730
 5694SOL     OW17980   7.007   0.101   1.086
 5694SOL    HW117981   6.947   0.050   1.024
 5694SOL    HW217982   7.024   0.047   1.169
 5695SOL     OW17983   2.055   1.261   1.795
 5695SOL    HW117984   2.139   1.236   1.843
 5695SOL    HW217985   1.994   1.182   1.789
 5696SOL     OW17986   6.899   0.265   3.636
 5696SOL    HW117987   6.999   0.261   3.644
 5696SOL    HW217988   6.873   0.309   3.550
 5697SOL     OW17989   6.084   1.833   0.685
 5697SOL    HW117990   6.109   1.923   0.651
 5697SOL    HW217991   6.134   1.814   0.770
 5698SOL     OW17992   3.210   2.071   3.276
 5698SOL    HW117993   3.202   1.976   3.305
 5698SOL    HW217994   3.165   2.082   3.187
 5699SOL     OW17995   2.578   2.402   2.504
 5699SOL    HW117996   2.630   2.404   2.419
 5699SOL    HW217997   2.592   2.314   2.550
 5700SOL     OW17998   5.525   6.915   2.256
 5700SOL    HW117999   5.427   6.903   2.239
 5700SOL    HW218000   5.544   6.902   2.353
 5701SOL     OW18001   1.909   0.323   0.766
 5701SOL    HW118002   1.882   0.331   0.862
 5701SOL    HW218003   1.893   0.229   0.735
 5702SOL     OW18004   1.335   6.679   5.099
 5702SOL    HW118005   1.380   6.692   5.010
 5702SOL    HW218006   1.263   6.610   5.090
 5703SOL     OW18007   1.285   2.814   6.525
 5703SOL    HW118008   1.365   2.770   6.484
 5703SOL    HW218009   1.266   2.900   6.478
 5704SOL     OW18010   4.083   5.889   4.429
 5704SOL    HW118011   4.159   5.945   4.461
 5704SOL    HW218012   4.032   5.854   4.508
 5705SOL     OW18013   5.821   0.896   4.858
 5705SOL    HW118014   5.903   0.850   4.892
 5705SOL    HW218015   5.817   0.888   4.758
 5706SOL     OW18016   5.351   1.339   1.191
 5706SOL    HW118017   5.303   1.290   1.264
 5706SOL    HW218018   5.395   1.273   1.131
 5707SOL     OW18019   5.765   5.831   1.298
 5707SOL    HW118020   5.836   5.831   1.227
 5707SOL    HW218021   5.679   5.798   1.260
 5708SOL     OW18022   4.938   6.597   2.277
 5708SOL    HW118023   4.967   6.586   2.372
 5708SOL    HW218024   4.886   6.517   2.248
 5709SOL     OW18025   0.477   2.769   2.201
 5709SOL    HW118026   0.577   2.769   2.192
 5709SOL    HW218027   0.436   2.796   2.114
 5710SOL     OW18028   5.428   1.480   0.947
 5710SOL    HW118029   5.463   1.562   0.992
 5710SOL    HW218030   5.385   1.421   1.015
 5711SOL     OW18031   4.484   1.336   2.172
 5711SOL    HW118032   4.577   1.357   2.140
 5711SOL    HW218033   4.489   1.267   2.244
 5712SOL     OW18034   6.682   6.384   6.778
 5712SOL    HW118035   6.760   6.444   6.797
 5712SOL    HW218036   6.619   6.387   6.855
 5713SOL     OW18037   1.118   1.710   0.447
 5713SOL    HW118038   1.051   1.784   0.460
 5713SOL    HW218039   1.120   1.653   0.528
 5714SOL     OW18040   5.516   0.041   1.000
 5714SOL    HW118041   5.523   6.969   0.984
 5714SOL    HW218042   5.595   0.072   1.053
 5715SOL     OW18043   7.003   6.500   1.318
 5715SOL    HW118044   6.921   6.500   1.374
 5715SOL    HW218045   6.996   6.572   1.249
 5716SOL     OW18046   0.523   4.959   5.725
 5716SOL    HW118047   0.558   4.942   5.817
 5716SOL    HW218048   0.597   4.951   5.658
 5717SOL     OW18049   0.205   5.750   3.068
 5717SOL    HW118050   0.303   5.730   3.069
 5717SOL    HW218051   0.155   5.671   3.033
 5718SOL     OW18052   0.951   4.161   0.487
 5718SOL    HW118053   0.989   4.215   0.562
 5718SOL    HW218054   0.854   4.145   0.505
 5719SOL     OW18055   3.175   3.334   0.737
 5719SOL    HW118056   3.082   3.357   0.767
 5719SOL    HW218057   3.171   3.261   0.669
 5720SOL     OW18058   3.059   4.611   6.462
 5720SOL    HW118059   3.003   4.647   6.537
 5720SOL    HW218060   3.054   4.511   6.462
 5721SOL     OW18061   0.869   3.101   0.570
 5721SOL    HW118062   0.964   3.069   0.569
 5721SOL    HW218063   0.864   3.187   0.621
 5722SOL     OW18064   1.450   0.361   5.943
 5722SOL    HW118065   1.467   0.336   6.039
 5722SOL    HW218066   1.502   0.301   5.883
 5723SOL     OW18067   4.080   3.314   0.306
 5723SOL    HW118068   4.044   3.237   0.360
 5723SOL    HW218069   4.092   3.393   0.366
 5724SOL     OW18070   6.385   1.740   6.039
 5724SOL    HW118071   6.440   1.705   6.115
 5724SOL    HW218072   6.306   1.679   6.026
 5725SOL     OW18073   0.184   4.548   4.734
 5725SOL    HW118074   0.268   4.572   4.685
 5725SOL    HW218075   0.113   4.614   4.712
 5726SOL     OW18076   3.983   4.765   1.989
 5726SOL    HW118077   4.075   4.757   2.028
 5726SOL    HW218078   3.967   4.689   1.926
 5727SOL     OW18079   1.269   3.244   5.595
 5727SOL    HW118080   1.262   3.228   5.496
 5727SOL    HW218081   1.259   3.342   5.614
 5728SOL     OW18082   2.849   6.366   4.594
 5728SOL    HW118083   2.775   6.299   4.604
 5728SOL    HW218084   2.878   6.397   4.685
 5729SOL     OW18085   2.910   1.874   4.799
 5729SOL    HW118086   2.833   1.836   4.746
 5729SOL    HW218087   2.892   1.971   4.818
 5730SOL     OW18088   6.672   4.352   5.139
 5730SOL    HW118089   6.680   4.325   5.043
 5730SOL    HW218090   6.660   4.451   5.145
 5731SOL     OW18091   0.274   6.531   2.696
 5731SOL    HW118092   0.245   6.571   2.609
 5731SOL    HW218093   0.370   6.502   2.689
 5732SOL     OW18094   5.433   0.776   3.331
 5732SOL    HW118095   5.505   0.708   3.316
 5732SOL    HW218096   5.449   0.822   3.418
 5733SOL     OW18097   2.893   1.258   4.990
 5733SOL    HW118098   2.935   1.348   4.979
 5733SOL    HW218099   2.836   1.239   4.910
 5734SOL     OW18100   1.905   6.619   4.095
 5734SOL    HW118101   1.970   6.642   4.022
 5734SOL    HW218102   1.953   6.615   4.182
 5735SOL     OW18103   2.685   1.149   1.266
 5735SOL    HW118104   2.734   1.100   1.338
 5735SOL    HW218105   2.587   1.142   1.282
 5736SOL     OW18106   1.571   5.039   0.827
 5736SOL    HW118107   1.578   5.113   0.894
 5736SOL    HW218108   1.542   4.955   0.873
 5737SOL     OW18109   6.062   4.049   7.007
 5737SOL    HW118110   6.130   4.095   6.949
 5737SOL    HW218111   6.087   4.061   0.077
 5738SOL     OW18112   0.363   5.208   4.228
 5738SOL    HW118113   0.334   5.187   4.321
 5738SOL    HW218114   0.284   5.238   4.174
 5739SOL     OW18115   0.548   2.651   0.843
 5739SOL    HW118116   0.637   2.610   0.864
 5739SOL    HW218117   0.485   2.634   0.919
 5740SOL     OW18118   3.962   5.450   0.357
 5740SOL    HW118119   3.991   5.373   0.414
 5740SOL    HW218120   3.879   5.425   0.306
 5741SOL     OW18121   0.053   2.844   2.294
 5741SOL    HW118122   6.995   2.875   2.336
 5741SOL    HW218123   0.095   2.919   2.242
 5742SOL     OW18124   0.567   5.185   3.468
 5742SOL    HW118125   0.647   5.177   3.527
 5742SOL    HW218126   0.579   5.263   3.406
 5743SOL     OW18127   0.613   7.007   5.379
 5743SOL    HW118128   0.702   7.025   5.420
 5743SOL    HW218129   0.555   0.061   5.388
 5744SOL     OW18130   6.305   0.184   1.786
 5744SOL    HW118131   6.303   0.282   1.805
 5744SOL    HW218132   6.394   0.147   1.813
 5745SOL     OW18133   6.795   3.515   2.418
 5745SOL    HW118134   6.738   3.433   2.421
 5745SOL    HW218135   6.746   3.591   2.462
 5746SOL     OW18136   0.082   4.035   6.374
 5746SOL    HW118137   0.071   4.011   6.471
 5746SOL    HW218138   0.094   3.952   6.320
 5747SOL     OW18139   0.099   6.104   3.787
 5747SOL    HW118140   0.096   6.177   3.719
 5747SOL    HW218141   0.194   6.072   3.797
 5748SOL     OW18142   1.349   0.815   4.433
 5748SOL    HW118143   1.304   0.757   4.365
 5748SOL    HW218144   1.432   0.854   4.394
 5749SOL     OW18145   0.462   0.777   3.255
 5749SOL    HW118146   0.466   0.848   3.325
 5749SOL    HW218147   0.554   0.759   3.220
 5750SOL     OW18148   5.167   6.737   2.188
 5750SOL    HW118149   5.091   6.692   2.236
 5750SOL    HW218150   5.208   6.805   2.249
 5751SOL     OW18151   0.782   2.147   0.103
 5751SOL    HW118152   0.845   2.087   0.150
 5751SOL    HW218153   0.718   2.187   0.169
 5752SOL     OW18154   1.657   0.817   6.508
 5752SOL    HW118155   1.611   0.905   6.496
 5752SOL    HW218156   1.613   0.766   6.582
 5753SOL     OW18157   4.315   1.498   0.124
 5753SOL    HW118158   4.385   1.569   0.127
 5753SOL    HW218159   4.339   1.431   0.055
 5754SOL     OW18160   6.276   5.739   0.665
 5754SOL    HW118161   6.359   5.744   0.720
 5754SOL    HW218162   6.196   5.744   0.726
 5755SOL     OW18163   3.468   3.661   1.648
 5755SOL    HW118164   3.480   3.646   1.746
 5755SOL    HW218165   3.435   3.577   1.605
 5756SOL     OW18166   6.394   0.028   4.359
 5756SOL    HW118167   6.354   7.004   4.435
 5756SOL    HW218168   6.331   0.027   4.281
 5757SOL     OW18169   6.514   6.327   1.626
 5757SOL    HW118170   6.476   6.235   1.617
 5757SOL    HW218171   6.523   6.369   1.536
 5758SOL     OW18172   3.402   0.626   5.404
 5758SOL    HW118173   3.380   0.532   5.378
 5758SOL    HW218174   3.355   0.649   5.489
 5759SOL     OW18175   0.949   1.051   5.903
 5759SOL    HW118176   1.047   1.059   5.884
 5759SOL    HW218177   0.918   0.959   5.883
 5760SOL     OW18178   6.753   6.057   1.432
 5760SOL    HW118179   6.750   5.958   1.428
 5760SOL    HW218180   6.669   6.095   1.393
 5761SOL     OW18181   4.349   0.430   4.376
 5761SOL    HW118182   4.326   0.424   4.279
 5761SOL    HW218183   4.367   0.526   4.400
 5762SOL     OW18184   4.817   6.487   1.162
 5762SOL    HW118185   4.729   6.530   1.181
 5762SOL    HW218186   4.810   6.388   1.175
 5763SOL     OW18187   3.481   0.886   0.336
 5763SOL    HW118188   3.529   0.964   0.376
 5763SOL    HW218189   3.548   0.817   0.309
 5764SOL     OW18190   3.319   2.860   6.899
 5764SOL    HW118191   3.336   2.898   6.808
 5764SOL    HW218192   3.379   2.904   6.966
 5765SOL     OW18193   6.762   5.355   6.412
 5765SOL    HW118194   6.819   5.312   6.342
 5765SOL    HW218195   6.706   5.285   6.456
 5766SOL     OW18196   2.354   1.638   2.942
 5766SOL    HW118197   2.412   1.712   2.975
 5766SOL    HW218198   2.376   1.618   2.847
 5767SOL     OW18199   5.279   6.514   0.350
 5767SOL    HW118200   5.256   6.481   0.442
 5767SOL    HW218201   5.379   6.519   0.341
 5768SOL     OW18202   6.212   6.603   1.646
 5768SOL    HW118203   6.279   6.572   1.714
 5768SOL    HW218204   6.154   6.527   1.620
 5769SOL     OW18205   0.338   4.634   2.977
 5769SOL    HW118206   0.330   4.616   3.075
 5769SOL    HW218207   0.247   4.640   2.937
 5770SOL     OW18208   4.897   2.363   1.498
 5770SOL    HW118209   4.948   2.435   1.451
 5770SOL    HW218210   4.828   2.405   1.557
 5771SOL     OW18211   1.323   0.599   1.693
 5771SOL    HW118212   1.275   0.615   1.779
 5771SOL    HW218213   1.279   0.522   1.646
 5772SOL     OW18214   6.501   5.417   5.602
 5772SOL    HW118215   6.542   5.328   5.619
 5772SOL    HW218216   6.571   5.480   5.569
 5773SOL     OW18217   5.563   6.333   4.656
 5773SOL    HW118218   5.609   6.361   4.740
 5773SOL    HW218219   5.631   6.309   4.587
 5774SOL     OW18220   1.791   5.056   2.371
 5774SOL    HW118221   1.790   5.041   2.470
 5774SOL    HW218222   1.847   4.987   2.327
 5775SOL     OW18223   0.758   0.688   0.945
 5775SOL    HW118224   0.784   0.783   0.929
 5775SOL    HW218225   0.814   0.628   0.888
 5776SOL     OW18226   5.156   1.120   5.536
 5776SOL    HW118227   5.061   1.092   5.547
 5776SOL    HW218228   5.202   1.121   5.625
 5777SOL     OW18229   5.768   6.669   4.511
 5777SOL    HW118230   5.678   6.689   4.550
 5777SOL    HW218231   5.829   6.636   4.583
 5778SOL     OW18232   2.630   6.698   3.933
 5778SOL    HW118233   2.725   6.729   3.935
 5778SOL    HW218234   2.597   6.685   4.026
 5779SOL     OW18235   3.935   6.964   2.241
 5779SOL    HW118236   3.892   0.017   2.198
 5779SOL    HW218237   3.871   6.922   2.304
 5780SOL     OW18238   6.856   4.432   6.940
 5780SOL    HW118239   6.838   4.345   6.893
 5780SOL    HW218240   6.810   4.506   6.892
 5781SOL     OW18241   4.274   4.675   5.861
 5781SOL    HW118242   4.247   4.579   5.853
 5781SOL    HW218243   4.269   4.704   5.957
 5782SOL     OW18244   4.963   1.696   2.784
 5782SOL    HW118245   4.946   1.611   2.734
 5782SOL    HW218246   4.911   1.770   2.742
 5783SOL     OW18247   3.099   6.426   3.126
 5783SOL    HW118248   3.050   6.489   3.065
 5783SOL    HW218249   3.108   6.467   3.216
 5784SOL     OW18250   0.959   6.750   2.099
 5784SOL    HW118251   1.031   6.793   2.044
 5784SOL    HW218252   0.989   6.748   2.195
 5785SOL     OW18253   2.450   1.311   6.664
 5785SOL    HW118254   2.537   1.272   6.634
 5785SOL    HW218255   2.444   1.305   6.763
 5786SOL     OW18256   1.998   1.653   6.523
 5786SOL    HW118257   2.014   1.750   6.506
 5786SOL    HW218258   2.036   1.629   6.613
 5787SOL     OW18259   0.823   1.866   5.991
 5787SOL    HW118260   0.849   1.938   5.927
 5787SOL    HW218261   0.892   1.860   6.064
 5788SOL     OW18262   0.652   2.623   1.657
 5788SOL    HW118263   0.705   2.603   1.575
 5788SOL    HW218264   0.577   2.557   1.665
 5789SOL     OW18265   3.169   0.398   0.627
 5789SOL    HW118266   3.104   0.424   0.556
 5789SOL    HW218267   3.262   0.408   0.592
 5790SOL     OW18268   6.623   6.036   2.336
 5790SOL    HW118269   6.688   6.083   2.396
 5790SOL    HW218270   6.667   6.016   2.248
 5791SOL     OW18271   3.807   0.907   0.976
 5791SOL    HW118272   3.743   0.928   1.050
 5791SOL    HW218273   3.774   0.829   0.924
 5792SOL     OW18274   4.193   1.987   2.867
 5792SOL    HW118275   4.207   2.072   2.816
 5792SOL    HW218276   4.127   1.930   2.818
 5793SOL     OW18277   4.742   2.282   0.925
 5793SOL    HW118278   4.788   2.244   0.845
 5793SOL    HW218279   4.721   2.208   0.990
 5794SOL     OW18280   3.277   6.271   6.735
 5794SOL    HW118281   3.331   6.268   6.820
 5794SOL    HW218282   3.274   6.365   6.701
 5795SOL     OW18283   1.058   1.088   1.688
 5795SOL    HW118284   1.130   1.154   1.666
 5795SOL    HW218285   1.076   1.002   1.641
 5796SOL     OW18286   4.746   0.844   5.854
 5796SOL    HW118287   4.721   0.801   5.941
 5796SOL    HW218288   4.838   0.817   5.828
 5797SOL     OW18289   5.774   1.463   0.373
 5797SOL    HW118290   5.726   1.522   0.308
 5797SOL    HW218291   5.817   1.387   0.324
 5798SOL     OW18292   1.921   2.892   4.712
 5798SOL    HW118293   1.993   2.957   4.733
 5798SOL    HW218294   1.939   2.806   4.759
 5799SOL     OW18295   2.744   0.474   3.716
 5799SOL    HW118296   2.738   0.375   3.731
 5799SOL    HW218297   2.730   0.521   3.803
 5800SOL     OW18298   1.855   6.085   1.672
 5800SOL    HW118299   1.826   5.990   1.655
 5800SOL    HW218300   1.857   6.103   1.770
 5801SOL     OW18301   1.387   2.689   3.223
 5801SOL    HW118302   1.390   2.651   3.130
 5801SOL    HW218303   1.373   2.614   3.288
 5802SOL     OW18304   0.190   6.887   2.900
 5802SOL    HW118305   0.179   6.981   2.932
 5802SOL    HW218306   0.282   6.855   2.922
 5803SOL     OW18307   0.305   6.473   4.430
 5803SOL    HW118308   0.302   6.412   4.350
 5803SOL    HW218309   0.212   6.488   4.463
 5804SOL     OW18310   5.678   2.448   3.232
 5804SOL    HW118311   5.732   2.396   3.166
 5804SOL    HW218312   5.688   2.408   3.323
 5805SOL     OW18313   0.993   2.581   1.211
 5805SOL    HW118314   1.075   2.626   1.176
 5805SOL    HW218315   0.992   2.485   1.183
 5806SOL     OW18316   6.555   4.321   1.284
 5806SOL    HW118317   6.538   4.266   1.366
 5806SOL    HW218318   6.545   4.264   1.203
 5807SOL     OW18319   0.686   0.510   2.921
 5807SOL    HW118320   0.670   0.608   2.912
 5807SOL    HW218321   0.627   0.473   2.993
 5808SOL     OW18322   6.716   5.603   5.560
 5808SOL    HW118323   6.701   5.684   5.617
 5808SOL    HW218324   6.809   5.568   5.575
 5809SOL     OW18325   6.727   3.458   4.559
 5809SOL    HW118326   6.822   3.469   4.589
 5809SOL    HW218327   6.716   3.370   4.513
 5810SOL     OW18328   1.016   6.518   5.026
 5810SOL    HW118329   1.039   6.533   5.122
 5810SOL    HW218330   1.030   6.603   4.975
 5811SOL     OW18331   3.251   4.852   0.380
 5811SOL    HW118332   3.301   4.894   0.456
 5811SOL    HW218333   3.159   4.892   0.376
 5812SOL     OW18334   6.390   1.993   6.155
 5812SOL    HW118335   6.323   1.936   6.107
 5812SOL    HW218336   6.427   2.061   6.092
 5813SOL     OW18337   6.170   5.783   0.978
 5813SOL    HW118338   6.268   5.801   0.983
 5813SOL    HW218339   6.154   5.700   0.924
 5814SOL     OW18340   4.737   1.665   2.408
 5814SOL    HW118341   4.807   1.687   2.340
 5814SOL    HW218342   4.746   1.569   2.436
 5815SOL     OW18343   0.006   4.542   5.051
 5815SOL    HW118344   7.002   4.510   5.141
 5815SOL    HW218345   0.045   4.634   5.061
 5816SOL     OW18346   6.999   4.138   1.134
 5816SOL    HW118347   0.051   4.084   1.165
 5816SOL    HW218348   6.971   4.199   1.208
 5817SOL     OW18349   6.239   2.848   3.854
 5817SOL    HW118350   6.184   2.907   3.795
 5817SOL    HW218351   6.316   2.901   3.891
 5818SOL     OW18352   2.563   0.649   4.248
 5818SOL    HW118353   2.566   0.703   4.164
 5818SOL    HW218354   2.478   0.596   4.251
 5819SOL     OW18355   4.084   4.026   1.360
 5819SOL    HW118356   4.030   4.025   1.277
 5819SOL    HW218357   4.172   3.980   1.344
 5820SOL     OW18358   0.299   6.552   2.376
 5820SOL    HW118359   0.390   6.593   2.378
 5820SOL    HW218360   0.231   6.621   2.400
 5821SOL     OW18361   4.994   6.090   2.055
 5821SOL    HW118362   4.954   6.175   2.021
 5821SOL    HW218363   4.936   6.052   2.127
 5822SOL     OW18364   1.003   3.784   3.821
 5822SOL    HW118365   1.096   3.819   3.829
 5822SOL    HW218366   0.954   3.837   3.751
 5823SOL     OW18367   2.817   6.380   4.871
 5823SOL    HW118368   2.722   6.348   4.872
 5823SOL    HW218369   2.823   6.471   4.912
 5824SOL     OW18370   2.418   5.673   2.266
 5824SOL    HW118371   2.494   5.609   2.254
 5824SOL    HW218372   2.335   5.623   2.289
 5825SOL     OW18373   3.590   2.055   4.475
 5825SOL    HW118374   3.672   2.080   4.526
 5825SOL    HW218375   3.509   2.070   4.533
 5826SOL     OW18376   1.620   6.008   5.638
 5826SOL    HW118377   1.679   5.995   5.559
 5826SOL    HW218378   1.618   6.105   5.663
 5827SOL     OW18379   2.183   4.226   3.943
 5827SOL    HW118380   2.240   4.264   3.870
 5827SOL    HW218381   2.223   4.141   3.976
 5828SOL     OW18382   4.590   0.257   5.277
 5828SOL    HW118383   4.569   0.163   5.249
 5828SOL    HW218384   4.525   0.286   5.347
 5829SOL     OW18385   1.843   1.408   2.798
 5829SOL    HW118386   1.747   1.433   2.789
 5829SOL    HW218387   1.900   1.490   2.791
 5830SOL     OW18388   5.200   4.837   4.732
 5830SOL    HW118389   5.234   4.751   4.694
 5830SOL    HW218390   5.222   4.842   4.830
 5831SOL     OW18391   2.769   1.836   4.328
 5831SOL    HW118392   2.709   1.916   4.326
 5831SOL    HW218393   2.862   1.864   4.305
 5832SOL     OW18394   2.792   4.929   3.353
 5832SOL    HW118395   2.750   4.839   3.341
 5832SOL    HW218396   2.790   4.955   3.450
 5833SOL     OW18397   2.183   4.832   1.533
 5833SOL    HW118398   2.217   4.742   1.560
 5833SOL    HW218399   2.252   4.877   1.476
 5834SOL     OW18400   5.706   2.000   6.266
 5834SOL    HW118401   5.716   2.019   6.364
 5834SOL    HW218402   5.639   2.063   6.227
 5835SOL     OW18403   3.841   0.711   3.588
 5835SOL    HW118404   3.835   0.656   3.505
 5835SOL    HW218405   3.909   0.783   3.576
 5836SOL     OW18406   5.433   4.728   1.006
 5836SOL    HW118407   5.484   4.790   1.066
 5836SOL    HW218408   5.336   4.728   1.034
 5837SOL     OW18409   1.863   3.971   0.224
 5837SOL    HW118410   1.945   3.934   0.266
 5837SOL    HW218411   1.844   4.062   0.261
 5838SOL     OW18412   2.859   3.008   0.704
 5838SOL    HW118413   2.862   3.108   0.711
 5838SOL    HW218414   2.887   2.980   0.612
 5839SOL     OW18415   2.669   1.585   1.156
 5839SOL    HW118416   2.607   1.654   1.119
 5839SOL    HW218417   2.710   1.534   1.080
 5840SOL     OW18418   6.102   4.146   2.419
 5840SOL    HW118419   6.022   4.154   2.359
 5840SOL    HW218420   6.185   4.147   2.363
 5841SOL     OW18421   4.974   1.954   0.791
 5841SOL    HW118422   5.028   1.974   0.873
 5841SOL    HW218423   4.949   2.040   0.746
 5842SOL     OW18424   3.723   1.975   2.194
 5842SOL    HW118425   3.668   1.894   2.216
 5842SOL    HW218426   3.690   2.015   2.108
 5843SOL     OW18427   3.050   2.537   1.196
 5843SOL    HW118428   3.118   2.498   1.134
 5843SOL    HW218429   3.081   2.627   1.226
 5844SOL     OW18430   6.654   5.426   5.274
 5844SOL    HW118431   6.714   5.428   5.355
 5844SOL    HW218432   6.673   5.344   5.221
 5845SOL     OW18433   2.104   6.005   2.764
 5845SOL    HW118434   2.005   6.002   2.775
 5845SOL    HW218435   2.127   6.059   2.683
 5846SOL     OW18436   0.915   4.346   5.184
 5846SOL    HW118437   0.953   4.270   5.237
 5846SOL    HW218438   0.817   4.353   5.203
 5847SOL     OW18439   2.393   3.921   5.604
 5847SOL    HW118440   2.458   3.921   5.529
 5847SOL    HW218441   2.390   3.831   5.647
 5848SOL     OW18442   3.146   6.582   1.397
 5848SOL    HW118443   3.070   6.529   1.361
 5848SOL    HW218444   3.213   6.597   1.325
 5849SOL     OW18445   2.616   5.810   6.517
 5849SOL    HW118446   2.600   5.830   6.421
 5849SOL    HW218447   2.679   5.733   6.525
 5850SOL     OW18448   5.445   2.116   1.227
 5850SOL    HW118449   5.416   2.143   1.319
 5850SOL    HW218450   5.411   2.024   1.207
 5851SOL     OW18451   1.118   2.738   5.640
 5851SOL    HW118452   1.127   2.800   5.717
 5851SOL    HW218453   1.197   2.749   5.579
 5852SOL     OW18454   4.191   5.136   3.397
 5852SOL    HW118455   4.103   5.158   3.439
 5852SOL    HW218456   4.265   5.157   3.461
 5853SOL     OW18457   4.160   4.513   6.794
 5853SOL    HW118458   4.228   4.585   6.808
 5853SOL    HW218459   4.190   4.429   6.839
 5854SOL     OW18460   2.695   4.509   5.326
 5854SOL    HW118461   2.617   4.527   5.267
 5854SOL    HW218462   2.780   4.519   5.274
 5855SOL     OW18463   1.667   2.243   4.487
 5855SOL    HW118464   1.652   2.291   4.573
 5855SOL    HW218465   1.710   2.154   4.505
 5856SOL     OW18466   0.580   0.841   1.974
 5856SOL    HW118467   0.646   0.866   1.903
 5856SOL    HW218468   0.494   0.812   1.931
 5857SOL     OW18469   6.379   5.586   6.460
 5857SOL    HW118470   6.443   5.522   6.419
 5857SOL    HW218471   6.287   5.567   6.427
 5858SOL     OW18472   2.822   1.409   1.759
 5858SOL    HW118473   2.874   1.492   1.736
 5858SOL    HW218474   2.884   1.339   1.795
 5859SOL     OW18475   6.073   5.212   1.548
 5859SOL    HW118476   5.973   5.215   1.551
 5859SOL    HW218477   6.110   5.284   1.606
 5860SOL     OW18478   1.826   2.961   2.048
 5860SOL    HW118479   1.922   2.941   2.031
 5860SOL    HW218480   1.784   2.885   2.099
 5861SOL     OW18481   5.654   0.153   4.708
 5861SOL    HW118482   5.634   0.184   4.801
 5861SOL    HW218483   5.668   0.232   4.649
 5862SOL     OW18484   0.376   4.903   1.524
 5862SOL    HW118485   0.351   4.992   1.485
 5862SOL    HW218486   0.341   4.897   1.618
 5863SOL     OW18487   4.244   6.865   6.033
 5863SOL    HW118488   4.163   6.910   5.994
 5863SOL    HW218489   4.216   6.800   6.103
 5864SOL     OW18490   3.565   3.517   3.158
 5864SOL    HW118491   3.553   3.608   3.198
 5864SOL    HW218492   3.482   3.463   3.173
 5865SOL     OW18493   6.628   6.454   1.370
 5865SOL    HW118494   6.640   6.411   1.281
 5865SOL    HW218495   6.714   6.452   1.420
 5866SOL     OW18496   2.974   3.323   4.474
 5866SOL    HW118497   2.981   3.264   4.394
 5866SOL    HW218498   2.894   3.382   4.465
 5867SOL     OW18499   4.762   0.844   0.875
 5867SOL    HW118500   4.683   0.796   0.912
 5867SOL    HW218501   4.762   0.837   0.775
 5868SOL     OW18502   1.958   0.992   0.957
 5868SOL    HW118503   2.000   1.034   1.038
 5868SOL    HW218504   1.893   1.057   0.916
 5869SOL     OW18505   2.252   4.917   4.203
 5869SOL    HW118506   2.311   4.959   4.272
 5869SOL    HW218507   2.160   4.907   4.239
 5870SOL     OW18508   3.963   6.517   3.540
 5870SOL    HW118509   3.940   6.567   3.623
 5870SOL    HW218510   3.897   6.443   3.526
 5871SOL     OW18511   3.544   3.010   3.123
 5871SOL    HW118512   3.596   2.935   3.164
 5871SOL    HW218513   3.559   3.012   3.025
 5872SOL     OW18514   3.642   5.107   1.449
 5872SOL    HW118515   3.729   5.144   1.482
 5872SOL    HW218516   3.568   5.168   1.477
 5873SOL     OW18517   4.073   0.001   2.664
 5873SOL    HW118518   4.157   0.052   2.685
 5873SOL    HW218519   4.085   6.932   2.691
 5874SOL     OW18520   0.228   4.101   4.785
 5874SOL    HW118521   0.218   4.005   4.758
 5874SOL    HW218522   0.260   4.155   4.706
 5875SOL     OW18523   4.682   2.874   1.394
 5875SOL    HW118524   4.698   2.790   1.445
 5875SOL    HW218525   4.585   2.900   1.404
 5876SOL     OW18526   3.463   3.388   2.632
 5876SOL    HW118527   3.411   3.382   2.717
 5876SOL    HW218528   3.433   3.468   2.580
 5877SOL     OW18529   4.746   4.287   1.584
 5877SOL    HW118530   4.762   4.279   1.682
 5877SOL    HW218531   4.656   4.327   1.568
 5878SOL     OW18532   0.490   3.494   1.491
 5878SOL    HW118533   0.577   3.448   1.472
 5878SOL    HW218534   0.428   3.431   1.537
 5879SOL     OW18535   1.838   4.441   5.026
 5879SOL    HW118536   1.882   4.396   4.949
 5879SOL    HW218537   1.898   4.513   5.061
 5880SOL     OW18538   2.315   5.063   0.229
 5880SOL    HW118539   2.322   5.021   0.139
 5880SOL    HW218540   2.386   5.133   0.239
 5881SOL     OW18541   1.630   6.394   4.326
 5881SOL    HW118542   1.593   6.393   4.233
 5881SOL    HW218543   1.599   6.477   4.373
 5882SOL     OW18544   4.912   1.031   3.242
 5882SOL    HW118545   4.826   1.064   3.204
 5882SOL    HW218546   4.914   0.931   3.237
 5883SOL     OW18547   1.001   3.090   5.562
 5883SOL    HW118548   1.055   3.036   5.628
 5883SOL    HW218549   1.052   3.098   5.476
 5884SOL     OW18550   6.854   1.148   3.779
 5884SOL    HW118551   6.865   1.140   3.878
 5884SOL    HW218552   6.934   1.109   3.733
 5885SOL     OW18553   5.901   6.327   0.607
 5885SOL    HW118554   5.834   6.337   0.533
 5885SOL    HW218555   5.888   6.238   0.651
 5886SOL     OW18556   5.661   1.844   5.491
 5886SOL    HW118557   5.647   1.913   5.562
 5886SOL    HW218558   5.581   1.784   5.487
 5887SOL     OW18559   3.005   6.873   2.761
 5887SOL    HW118560   2.959   6.837   2.680
 5887SOL    HW218561   2.956   6.846   2.843
 5888SOL     OW18562   6.229   6.209   1.833
 5888SOL    HW118563   6.261   6.174   1.745
 5888SOL    HW218564   6.144   6.259   1.820
 5889SOL     OW18565   3.064   6.878   0.577
 5889SOL    HW118566   3.031   6.968   0.603
 5889SOL    HW218567   3.144   6.888   0.518
 5890SOL     OW18568   4.327   5.113   5.999
 5890SOL    HW118569   4.420   5.135   6.029
 5890SOL    HW218570   4.271   5.090   6.079
 5891SOL     OW18571   2.074   2.970   6.580
 5891SOL    HW118572   2.101   3.057   6.619
 5891SOL    HW218573   2.120   2.956   6.492
 5892SOL     OW18574   3.016   5.738   1.977
 5892SOL    HW118575   2.927   5.730   1.933
 5892SOL    HW218576   3.047   5.833   1.972
 5893SOL     OW18577   0.970   3.036   2.301
 5893SOL    HW118578   1.021   2.960   2.341
 5893SOL    HW218579   1.019   3.122   2.316
 5894SOL     OW18580   1.803   3.776   3.682
 5894SOL    HW118581   1.867   3.711   3.722
 5894SOL    HW218582   1.822   3.868   3.718
 5895SOL     OW18583   5.300   5.143   2.749
 5895SOL    HW118584   5.260   5.178   2.834
 5895SOL    HW218585   5.250   5.062   2.719
 5896SOL     OW18586   5.584   1.544   5.485
 5896SOL    HW118587   5.664   1.566   5.542
 5896SOL    HW218588   5.615   1.500   5.401
 5897SOL     OW18589   4.461   4.015   0.984
 5897SOL    HW118590   4.403   3.934   0.992
 5897SOL    HW218591   4.403   4.097   0.985
 5898SOL     OW18592   1.430   5.870   3.138
 5898SOL    HW118593   1.365   5.872   3.062
 5898SOL    HW218594   1.523   5.869   3.102
 5899SOL     OW18595   5.131   0.863   3.588
 5899SOL    HW118596   5.049   0.811   3.565
 5899SOL    HW218597   5.157   0.844   3.682
 5900SOL     OW18598   3.783   5.040   1.835
 5900SOL    HW118599   3.802   4.999   1.924
 5900SOL    HW218600   3.755   5.135   1.846
 5901SOL     OW18601   3.136   6.060   3.496
 5901SOL    HW118602   3.052   6.010   3.473
 5901SOL    HW218603   3.206   6.041   3.427
 5902SOL     OW18604   5.813   2.516   0.323
 5902SOL    HW118605   5.736   2.494   0.382
 5902SOL    HW218606   5.824   2.615   0.317
 5903SOL     OW18607   0.438   1.952   6.763
 5903SOL    HW118608   0.523   1.956   6.711
 5903SOL    HW218609   0.452   1.993   6.853
 5904SOL     OW18610   0.955   2.989   1.839
 5904SOL    HW118611   0.902   2.945   1.767
 5904SOL    HW218612   1.030   2.928   1.867
 5905SOL     OW18613   6.657   3.813   2.079
 5905SOL    HW118614   6.730   3.848   2.138
 5905SOL    HW218615   6.634   3.882   2.010
 5906SOL     OW18616   6.415   1.282   3.251
 5906SOL    HW118617   6.459   1.372   3.264
 5906SOL    HW218618   6.476   1.224   3.197
 5907SOL     OW18619   1.423   0.913   2.647
 5907SOL    HW118620   1.434   1.002   2.602
 5907SOL    HW218621   1.330   0.905   2.683
 5908SOL     OW18622   0.729   2.735   5.408
 5908SOL    HW118623   0.682   2.670   5.468
 5908SOL    HW218624   0.698   2.828   5.429
 5909SOL     OW18625   6.765   4.596   6.344
 5909SOL    HW118626   6.697   4.652   6.296
 5909SOL    HW218627   6.831   4.560   6.278
 5910SOL     OW18628   1.637   1.853   3.451
 5910SOL    HW118629   1.544   1.818   3.440
 5910SOL    HW218630   1.648   1.937   3.396
 5911SOL     OW18631   6.137   5.514   6.393
 5911SOL    HW118632   6.118   5.577   6.318
 5911SOL    HW218633   6.056   5.504   6.450
 5912SOL     OW18634   0.991   1.598   2.394
 5912SOL    HW118635   0.999   1.679   2.453
 5912SOL    HW218636   1.061   1.602   2.322
 5913SOL     OW18637   6.924   3.369   1.179
 5913SOL    HW118638   6.870   3.453   1.183
 5913SOL    HW218639   7.003   3.377   1.239
 5914SOL     OW18640   1.329   6.607   0.812
 5914SOL    HW118641   1.398   6.677   0.792
 5914SOL    HW218642   1.288   6.624   0.901
 5915SOL     OW18643   4.306   0.618   5.111
 5915SOL    HW118644   4.399   0.651   5.124
 5915SOL    HW218645   4.308   0.521   5.087
 5916SOL     OW18646   0.786   0.203   2.701
 5916SOL    HW118647   0.795   0.250   2.613
 5916SOL    HW218648   0.874   0.205   2.749
 5917SOL     OW18649   3.301   3.296   0.338
 5917SOL    HW118650   3.345   3.351   0.408
 5917SOL    HW218651   3.359   3.218   0.315
 5918SOL     OW18652   3.479   6.544   4.686
 5918SOL    HW118653   3.433   6.633   4.683
 5918SOL    HW218654   3.521   6.531   4.775
 5919SOL     OW18655   3.026   3.862   4.920
 5919SOL    HW118656   3.001   3.892   4.828
 5919SOL    HW218657   3.090   3.927   4.960
 5920SOL     OW18658   1.208   0.401   5.277
 5920SOL    HW118659   1.175   0.327   5.219
 5920SOL    HW218660   1.200   0.488   5.228
 5921SOL     OW18661   2.305   4.699   0.939
 5921SOL    HW118662   2.342   4.791   0.951
 5921SOL    HW218663   2.271   4.665   1.027
 5922SOL     OW18664   4.865   2.725   2.353
 5922SOL    HW118665   4.908   2.778   2.280
 5922SOL    HW218666   4.926   2.649   2.379
 5923SOL     OW18667   6.013   1.041   2.534
 5923SOL    HW118668   5.937   0.988   2.572
 5923SOL    HW218669   5.977   1.114   2.475
 5924SOL     OW18670   0.229   6.264   3.341
 5924SOL    HW118671   0.224   6.174   3.386
 5924SOL    HW218672   0.324   6.283   3.316
 5925SOL     OW18673   4.545   0.698   1.005
 5925SOL    HW118674   4.469   0.638   0.979
 5925SOL    HW218675   4.591   0.660   1.085
 5926SOL     OW18676   4.903   3.305   3.384
 5926SOL    HW118677   4.921   3.373   3.313
 5926SOL    HW218678   4.855   3.227   3.344
 5927SOL     OW18679   1.558   0.170   1.487
 5927SOL    HW118680   1.621   0.164   1.409
 5927SOL    HW218681   1.480   0.227   1.462
 5928SOL     OW18682   2.740   0.246   0.240
 5928SOL    HW118683   2.674   0.318   0.260
 5928SOL    HW218684   2.749   0.235   0.141
 5929SOL     OW18685   0.865   1.286   1.362
 5929SOL    HW118686   0.767   1.301   1.353
 5929SOL    HW218687   0.888   1.194   1.331
 5930SOL     OW18688   0.743   4.743   2.073
 5930SOL    HW118689   0.813   4.677   2.045
 5930SOL    HW218690   0.653   4.711   2.046
 5931SOL     OW18691   5.114   0.095   4.600
 5931SOL    HW118692   5.174   0.097   4.520
 5931SOL    HW218693   5.136   0.015   4.656
 5932SOL     OW18694   3.347   5.769   0.475
 5932SOL    HW118695   3.257   5.813   0.470
 5932SOL    HW218696   3.339   5.673   0.450
 5933SOL     OW18697   6.625   5.791   4.328
 5933SOL    HW118698   6.642   5.759   4.422
 5933SOL    HW218699   6.558   5.730   4.284
 5934SOL     OW18700   3.249   4.398   6.954
 5934SOL    HW118701   3.160   4.412   6.998
 5934SOL    HW218702   3.258   4.302   6.927
 5935SOL     OW18703   1.698   0.917   5.476
 5935SOL    HW118704   1.628   0.935   5.407
 5935SOL    HW218705   1.688   0.823   5.509
 5936SOL     OW18706   3.905   3.016   2.256
 5936SOL    HW118707   3.882   3.089   2.192
 5936SOL    HW218708   3.935   2.935   2.205
 5937SOL     OW18709   1.239   2.797   0.344
 5937SOL    HW118710   1.227   2.699   0.333
 5937SOL    HW218711   1.255   2.839   0.255
 5938SOL     OW18712   0.345   3.372   4.383
 5938SOL    HW118713   0.320   3.440   4.314
 5938SOL    HW218714   0.263   3.339   4.429
 5939SOL     OW18715   4.645   1.220   6.116
 5939SOL    HW118716   4.675   1.136   6.161
 5939SOL    HW218717   4.698   1.234   6.032
 5940SOL     OW18718   5.076   5.076   1.087
 5940SOL    HW118719   5.024   5.034   1.013
 5940SOL    HW218720   5.152   5.129   1.049
 5941SOL     OW18721   1.322   1.486   3.341
 5941SOL    HW118722   1.293   1.553   3.410
 5941SOL    HW218723   1.407   1.443   3.370
 5942SOL     OW18724   4.906   2.226   6.100
 5942SOL    HW118725   4.997   2.219   6.140
 5942SOL    HW218726   4.874   2.136   6.071
 5943SOL     OW18727   2.116   4.364   2.368
 5943SOL    HW118728   2.213   4.366   2.344
 5943SOL    HW218729   2.061   4.367   2.285
 5944SOL     OW18730   6.927   3.838   6.084
 5944SOL    HW118731   6.970   3.847   5.994
 5944SOL    HW218732   6.966   3.760   6.133
 5945SOL     OW18733   0.172   6.815   3.919
 5945SOL    HW118734   0.146   6.836   4.014
 5945SOL    HW218735   0.268   6.786   3.917
 5946SOL     OW18736   3.095   2.955   6.259
 5946SOL    HW118737   3.088   2.971   6.358
 5946SOL    HW218738   3.020   3.002   6.213
 5947SOL     OW18739   3.527   3.714   5.341
 5947SOL    HW118740   3.434   3.745   5.325
 5947SOL    HW218741   3.564   3.760   5.422
 5948SOL     OW18742   4.792   3.993   1.808
 5948SOL    HW118743   4.831   3.925   1.747
 5948SOL    HW218744   4.702   4.022   1.773
 5949SOL     OW18745   1.498   4.550   4.114
 5949SOL    HW118746   1.523   4.566   4.209
 5949SOL    HW218747   1.580   4.532   4.060
 5950SOL     OW18748   1.860   6.862   4.968
 5950SOL    HW118749   1.957   6.855   4.947
 5950SOL    HW218750   1.838   6.805   5.047
 5951SOL     OW18751   0.097   2.872   6.830
 5951SOL    HW118752   0.007   2.886   6.871
 5951SOL    HW218753   0.118   2.774   6.829
 5952SOL     OW18754   3.767   4.166   1.909
 5952SOL    HW118755   3.823   4.091   1.943
 5952SOL    HW218756   3.791   4.251   1.956
 5953SOL     OW18757   6.604   2.781   7.022
 5953SOL    HW118758   6.578   2.762   0.091
 5953SOL    HW218759   6.619   2.694   6.974
 5954SOL     OW18760   2.632   4.916   3.638
 5954SOL    HW118761   2.693   4.842   3.668
 5954SOL    HW218762   2.584   4.887   3.555
 5955SOL     OW18763   4.127   2.500   0.552
 5955SOL    HW118764   4.050   2.457   0.505
 5955SOL    HW218765   4.103   2.594   0.575
 5956SOL     OW18766   3.922   2.758   6.842
 5956SOL    HW118767   3.926   2.837   6.903
 5956SOL    HW218768   3.911   2.789   6.748
 5957SOL     OW18769   6.748   2.562   3.576
 5957SOL    HW118770   6.768   2.657   3.550
 5957SOL    HW218771   6.650   2.545   3.566
 5958SOL     OW18772   2.435   6.175   2.413
 5958SOL    HW118773   2.441   6.090   2.360
 5958SOL    HW218774   2.527   6.203   2.441
 5959SOL     OW18775   4.893   4.487   3.144
 5959SOL    HW118776   4.987   4.457   3.158
 5959SOL    HW218777   4.884   4.527   3.053
 5960SOL     OW18778   6.010   6.904   6.682
 5960SOL    HW118779   6.053   6.952   6.758
 5960SOL    HW218780   5.967   6.820   6.716
 5961SOL     OW18781   1.681   2.082   3.309
 5961SOL    HW118782   1.637   2.159   3.263
 5961SOL    HW218783   1.771   2.111   3.343
 5962SOL     OW18784   5.137   5.089   0.244
 5962SOL    HW118785   5.180   5.179   0.237
 5962SOL    HW218786   5.192   5.030   0.302
 5963SOL     OW18787   2.049   3.916   1.078
 5963SOL    HW118788   2.050   3.897   1.176
 5963SOL    HW218789   2.045   3.829   1.028
 5964SOL     OW18790   1.642   6.734   3.519
 5964SOL    HW118791   1.595   6.819   3.497
 5964SOL    HW218792   1.679   6.739   3.612
 5965SOL     OW18793   2.265   0.191   1.240
 5965SOL    HW118794   2.179   0.220   1.197
 5965SOL    HW218795   2.306   0.117   1.187
 5966SOL     OW18796   3.055   1.843   5.722
 5966SOL    HW118797   3.106   1.775   5.774
 5966SOL    HW218798   2.963   1.809   5.702
 5967SOL     OW18799   4.652   2.133   5.555
 5967SOL    HW118800   4.679   2.200   5.486
 5967SOL    HW218801   4.627   2.180   5.640
 5968SOL     OW18802   6.358   2.035   3.094
 5968SOL    HW118803   6.300   2.068   3.020
 5968SOL    HW218804   6.443   1.998   3.056
 5969SOL     OW18805   4.991   6.555   1.591
 5969SOL    HW118806   4.900   6.518   1.573
 5969SOL    HW218807   5.004   6.563   1.690
 5970SOL     OW18808   5.650   1.899   0.527
 5970SOL    HW118809   5.673   1.980   0.581
 5970SOL    HW218810   5.724   1.832   0.534
 5971SOL     OW18811   6.773   5.274   3.636
 5971SOL    HW118812   6.797   5.215   3.559
 5971SOL    HW218813   6.855   5.288   3.693
 5972SOL     OW18814   6.008   5.179   0.460
 5972SOL    HW118815   6.055   5.111   0.404
 5972SOL    HW218816   5.930   5.137   0.505
 5973SOL     OW18817   3.662   1.190   2.231
 5973SOL    HW118818   3.604   1.109   2.232
 5973SOL    HW218819   3.749   1.169   2.275
 5974SOL     OW18820   5.248   1.424   4.269
 5974SOL    HW118821   5.347   1.417   4.254
 5974SOL    HW218822   5.231   1.480   4.349
 5975SOL     OW18823   3.915   4.815   0.455
 5975SOL    HW118824   3.936   4.815   0.553
 5975SOL    HW218825   3.899   4.722   0.424
 5976SOL     OW18826   0.816   2.023   6.353
 5976SOL    HW118827   0.818   2.086   6.432
 5976SOL    HW218828   0.907   1.982   6.342
 5977SOL     OW18829   0.691   5.766   1.719
 5977SOL    HW118830   0.701   5.752   1.817
 5977SOL    HW218831   0.699   5.678   1.672
 5978SOL     OW18832   2.943   3.834   6.130
 5978SOL    HW118833   2.920   3.737   6.123
 5978SOL    HW218834   3.028   3.845   6.181
 5979SOL     OW18835   5.750   0.857   1.493
 5979SOL    HW118836   5.769   0.838   1.589
 5979SOL    HW218837   5.667   0.807   1.465
 5980SOL     OW18838   3.675   2.613   0.776
 5980SOL    HW118839   3.643   2.520   0.757
 5980SOL    HW218840   3.763   2.608   0.824
 5981SOL     OW18841   4.179   2.195   1.032
 5981SOL    HW118842   4.232   2.128   0.981
 5981SOL    HW218843   4.232   2.225   1.112
 5982SOL     OW18844   5.680   2.936   1.372
 5982SOL    HW118845   5.590   2.893   1.366
 5982SOL    HW218846   5.670   3.033   1.393
 5983SOL     OW18847   6.708   1.396   3.754
 5983SOL    HW118848   6.729   1.301   3.728
 5983SOL    HW218849   6.751   1.415   3.842
 5984SOL     OW18850   5.967   6.280   1.716
 5984SOL    HW118851   5.900   6.207   1.726
 5984SOL    HW218852   5.920   6.368   1.715
 5985SOL     OW18853   0.091   4.605   2.827
 5985SOL    HW118854   0.062   4.513   2.856
 5985SOL    HW218855   0.067   4.619   2.731
 5986SOL     OW18856   3.844   3.106   3.156
 5986SOL    HW118857   3.756   3.130   3.114
 5986SOL    HW218858   3.839   3.012   3.191
 5987SOL     OW18859   0.037   6.189   4.347
 5987SOL    HW118860   7.011   6.262   4.305
 5987SOL    HW218861   0.116   6.168   4.289
 5988SOL     OW18862   1.734   2.511   0.448
 5988SOL    HW118863   1.814   2.457   0.471
 5988SOL    HW218864   1.657   2.451   0.426
 5989SOL     OW18865   2.557   6.962   5.793
 5989SOL    HW118866   2.584   6.894   5.725
 5989SOL    HW218867   2.586   6.932   5.883
 5990SOL     OW18868   2.170   3.902   1.722
 5990SOL    HW118869   2.258   3.941   1.750
 5990SOL    HW218870   2.114   3.973   1.679
 5991SOL     OW18871   5.279   1.110   0.451
 5991SOL    HW118872   5.363   1.119   0.398
 5991SOL    HW218873   5.291   1.155   0.539
 5992SOL     OW18874   2.714   4.655   3.119
 5992SOL    HW118875   2.668   4.654   3.030
 5992SOL    HW218876   2.796   4.711   3.114
 5993SOL     OW18877   5.266   1.737   0.247
 5993SOL    HW118878   5.279   1.762   0.151
 5993SOL    HW218879   5.168   1.729   0.267
 5994SOL     OW18880   0.605   4.451   1.062
 5994SOL    HW118881   0.602   4.544   1.097
 5994SOL    HW218882   0.650   4.450   0.973
 5995SOL     OW18883   5.484   4.130   0.790
 5995SOL    HW118884   5.501   4.112   0.887
 5995SOL    HW218885   5.400   4.085   0.762
 5996SOL     OW18886   2.157   0.495   1.821
 5996SOL    HW118887   2.207   0.409   1.809
 5996SOL    HW218888   2.165   0.550   1.738
 5997SOL     OW18889   6.416   0.255   4.652
 5997SOL    HW118890   6.508   0.224   4.675
 5997SOL    HW218891   6.380   0.310   4.727
 5998SOL     OW18892   6.140   6.566   6.975
 5998SOL    HW118893   6.087   6.593   6.895
 5998SOL    HW218894   6.082   6.570   0.030
 5999SOL     OW18895   5.610   3.866   0.814
 5999SOL    HW118896   5.519   3.880   0.775
 5999SOL    HW218897   5.615   3.911   0.904
 6000SOL     OW18898   0.931   5.039   1.856
 6000SOL    HW118899   0.980   4.965   1.901
 6000SOL    HW218900   0.836   5.012   1.839
 6001SOL     OW18901   0.255   6.136   5.767
 6001SOL    HW118902   0.165   6.099   5.789
 6001SOL    HW218903   0.269   6.221   5.818
 6002SOL     OW18904   5.861   4.806   5.224
 6002SOL    HW118905   5.812   4.725   5.194
 6002SOL    HW218906   5.874   4.868   5.147
 6003SOL     OW18907   2.553   1.448   5.134
 6003SOL    HW118908   2.508   1.497   5.208
 6003SOL    HW218909   2.520   1.483   5.046
 6004SOL     OW18910   5.513   3.051   5.130
 6004SOL    HW118911   5.469   2.963   5.146
 6004SOL    HW218912   5.512   3.071   5.032
 6005SOL     OW18913   3.991   4.231   0.114
 6005SOL    HW118914   4.070   4.234   0.052
 6005SOL    HW218915   3.991   4.143   0.161
 6006SOL     OW18916   2.808   6.137   6.275
 6006SOL    HW118917   2.813   6.227   6.231
 6006SOL    HW218918   2.818   6.065   6.207
 6007SOL     OW18919   3.103   6.793   4.292
 6007SOL    HW118920   3.153   6.842   4.220
 6007SOL    HW218921   3.167   6.734   4.341
 6008SOL     OW18922   2.225   4.104   6.904
 6008SOL    HW118923   2.142   4.052   6.923
 6008SOL    HW218924   2.304   4.052   6.937
 6009SOL     OW18925   2.572   5.352   2.495
 6009SOL    HW118926   2.579   5.393   2.404
 6009SOL    HW218927   2.500   5.397   2.547
 6010SOL     OW18928   0.177   5.340   6.066
 6010SOL    HW118929   0.188   5.420   6.124
 6010SOL    HW218930   0.131   5.365   5.981
 6011SOL     OW18931   5.908   1.812   3.157
 6011SOL    HW118932   5.934   1.907   3.138
 6011SOL    HW218933   5.963   1.777   3.233
 6012SOL     OW18934   6.461   0.824   5.738
 6012SOL    HW118935   6.403   0.847   5.660
 6012SOL    HW218936   6.408   0.772   5.805
 6013SOL     OW18937   5.837   1.506   2.507
 6013SOL    HW118938   5.910   1.495   2.439
 6013SOL    HW218939   5.838   1.428   2.570
 6014SOL     OW18940   4.157   3.504   4.311
 6014SOL    HW118941   4.148   3.408   4.287
 6014SOL    HW218942   4.250   3.534   4.291
 6015SOL     OW18943   6.492   0.134   3.362
 6015SOL    HW118944   6.525   0.083   3.441
 6015SOL    HW218945   6.401   0.171   3.382
 6016SOL     OW18946   4.232   1.968   4.486
 6016SOL    HW118947   4.201   1.973   4.391
 6016SOL    HW218948   4.324   2.008   4.493
 6017SOL     OW18949   1.248   2.308   5.198
 6017SOL    HW118950   1.302   2.225   5.184
 6017SOL    HW218951   1.309   2.382   5.228
 6018SOL     OW18952   2.376   0.586   3.785
 6018SOL    HW118953   2.386   0.626   3.694
 6018SOL    HW218954   2.392   0.487   3.780
 6019SOL     OW18955   6.743   3.361   6.328
 6019SOL    HW118956   6.749   3.280   6.387
 6019SOL    HW218957   6.650   3.369   6.292
 6020SOL     OW18958   0.684   5.727   4.562
 6020SOL    HW118959   0.761   5.708   4.501
 6020SOL    HW218960   0.715   5.784   4.638
 6021SOL     OW18961   4.979   0.439   3.619
 6021SOL    HW118962   4.930   0.400   3.696
 6021SOL    HW218963   5.078   0.427   3.633
 6022SOL     OW18964   6.557   4.108   0.897
 6022SOL    HW118965   6.502   4.182   0.935
 6022SOL    HW218966   6.579   4.128   0.802
 6023SOL     OW18967   4.178   0.162   2.961
 6023SOL    HW118968   4.209   0.106   3.039
 6023SOL    HW218969   4.090   0.127   2.929
 6024SOL     OW18970   0.433   6.544   0.037
 6024SOL    HW118971   0.519   6.591   0.022
 6024SOL    HW218972   0.427   6.465   7.001
 6025SOL     OW18973   3.491   0.560   5.919
 6025SOL    HW118974   3.423   0.525   5.984
 6025SOL    HW218975   3.582   0.529   5.947
 6026SOL     OW18976   5.413   6.003   3.548
 6026SOL    HW118977   5.511   5.984   3.541
 6026SOL    HW218978   5.398   6.101   3.558
 6027SOL     OW18979   6.491   4.054   5.431
 6027SOL    HW118980   6.426   4.130   5.433
 6027SOL    HW218981   6.454   3.976   5.481
 6028SOL     OW18982   5.904   5.555   6.542
 6028SOL    HW118983   5.939   5.480   6.598
 6028SOL    HW218984   5.807   5.541   6.523
 6029SOL     OW18985   2.438   1.609   2.681
 6029SOL    HW118986   2.402   1.631   2.589
 6029SOL    HW218987   2.538   1.611   2.679
 6030SOL     OW18988   6.307   3.382   4.800
 6030SOL    HW118989   6.258   3.297   4.819
 6030SOL    HW218990   6.354   3.376   4.712
 6031SOL     OW18991   6.883   0.067   3.800
 6031SOL    HW118992   6.956   0.075   3.868
 6031SOL    HW218993   6.880   0.150   3.744
 6032SOL     OW18994   2.932   6.688   3.059
 6032SOL    HW118995   2.906   6.782   3.082
 6032SOL    HW218996   3.017   6.689   3.007
 6033SOL     OW18997   0.844   1.420   2.731
 6033SOL    HW118998   0.830   1.516   2.756
 6033SOL    HW218999   0.920   1.413   2.666
 6034SOL     OW19000   0.485   0.799   0.993
 6034SOL    HW119001   0.568   0.763   0.951
 6034SOL    HW219002   0.451   0.877   0.940
 6035SOL     OW19003   1.500   1.452   2.531
 6035SOL    HW119004   1.514   1.473   2.628
 6035SOL    HW219005   1.586   1.468   2.481
 6036SOL     OW19006   6.953   3.932   0.458
 6036SOL    HW119007   0.004   3.871   0.475
 6036SOL    HW219008   6.901   3.945   0.543
 6037SOL     OW19009   4.406   0.672   6.468
 6037SOL    HW119010   4.353   0.589   6.451
 6037SOL    HW219011   4.346   0.742   6.508
 6038SOL     OW19012   2.143   1.411   6.926
 6038SOL    HW119013   2.150   1.324   6.877
 6038SOL    HW219014   2.062   1.409   6.985
 6039SOL     OW19015   3.802   2.897   4.523
 6039SOL    HW119016   3.815   2.856   4.432
 6039SOL    HW219017   3.704   2.912   4.539
 6040SOL     OW19018   6.614   1.224   0.621
 6040SOL    HW119019   6.702   1.178   0.632
 6040SOL    HW219020   6.627   1.323   0.628
 6041SOL     OW19021   0.467   3.051   4.679
 6041SOL    HW119022   0.476   3.072   4.582
 6041SOL    HW219023   0.557   3.027   4.716
 6042SOL     OW19024   2.631   6.099   3.656
 6042SOL    HW119025   2.687   6.143   3.587
 6042SOL    HW219026   2.630   6.000   3.641
 6043SOL     OW19027   2.083   5.510   1.554
 6043SOL    HW119028   2.084   5.469   1.646
 6043SOL    HW219029   2.160   5.475   1.501
 6044SOL     OW19030   6.780   3.732   0.318
 6044SOL    HW119031   6.813   3.643   0.349
 6044SOL    HW219032   6.818   3.804   0.375
 6045SOL     OW19033   4.931   1.552   4.253
 6045SOL    HW119034   4.922   1.649   4.276
 6045SOL    HW219035   4.987   1.507   4.322
 6046SOL     OW19036   3.373   4.143   2.287
 6046SOL    HW119037   3.458   4.174   2.328
 6046SOL    HW219038   3.380   4.148   2.187
 6047SOL     OW19039   6.903   1.343   6.884
 6047SOL    HW119040   6.861   1.426   6.919
 6047SOL    HW219041   6.928   1.284   6.961
 6048SOL     OW19042   6.446   5.677   3.545
 6048SOL    HW119043   6.427   5.765   3.500
 6048SOL    HW219044   6.527   5.686   3.602
 6049SOL     OW19045   5.186   4.586   6.780
 6049SOL    HW119046   5.274   4.599   6.826
 6049SOL    HW219047   5.183   4.646   6.699
 6050SOL     OW19048   2.015   5.236   3.160
 6050SOL    HW119049   1.934   5.282   3.123
 6050SOL    HW219050   2.037   5.157   3.104
 6051SOL     OW19051   0.683   1.534   2.353
 6051SOL    HW119052   0.680   1.450   2.408
 6051SOL    HW219053   0.777   1.553   2.326
 6052SOL     OW19054   5.464   5.697   6.537
 6052SOL    HW119055   5.525   5.755   6.591
 6052SOL    HW219056   5.390   5.664   6.595
 6053SOL     OW19057   3.755   1.991   5.608
 6053SOL    HW119058   3.677   1.947   5.652
 6053SOL    HW219059   3.838   1.969   5.658
 6054SOL     OW19060   4.288   3.842   0.037
 6054SOL    HW119061   4.376   3.801   0.014
 6054SOL    HW219062   4.221   3.821   6.992
 6055SOL     OW19063   2.712   4.494   1.340
 6055SOL    HW119064   2.751   4.415   1.293
 6055SOL    HW219065   2.728   4.485   1.438
 6056SOL     OW19066   5.288   6.547   2.868
 6056SOL    HW119067   5.371   6.519   2.820
 6056SOL    HW219068   5.312   6.580   2.959
 6057SOL     OW19069   5.948   1.351   4.004
 6057SOL    HW119070   5.860   1.305   4.009
 6057SOL    HW219071   6.001   1.313   3.928
 6058SOL     OW19072   6.973   3.057   5.935
 6058SOL    HW119073   6.875   3.077   5.935
 6058SOL    HW219074   7.025   3.140   5.956
 6059SOL     OW19075   4.540   2.375   6.475
 6059SOL    HW119076   4.504   2.332   6.392
 6059SOL    HW219077   4.640   2.382   6.468
 6060SOL     OW19078   2.112   1.960   1.180
 6060SOL    HW119079   2.073   1.900   1.110
 6060SOL    HW219080   2.163   2.033   1.136
 6061SOL     OW19081   2.552   4.789   6.832
 6061SOL    HW119082   2.510   4.868   6.787
 6061SOL    HW219083   2.489   4.712   6.828
 6062SOL     OW19084   2.059   2.515   5.538
 6062SOL    HW119085   2.071   2.502   5.440
 6062SOL    HW219086   2.113   2.446   5.587
 6063SOL     OW19087   4.615   3.769   6.601
 6063SOL    HW119088   4.523   3.803   6.620
 6063SOL    HW219089   4.637   3.784   6.504
 6064SOL     OW19090   5.834   5.944   0.375
 6064SOL    HW119091   5.865   6.031   0.339
 6064SOL    HW219092   5.913   5.892   0.408
 6065SOL     OW19093   1.803   5.876   1.358
 6065SOL    HW119094   1.896   5.897   1.330
 6065SOL    HW219095   1.750   5.962   1.365
 6066SOL     OW19096   5.783   5.759   2.149
 6066SOL    HW119097   5.710   5.766   2.216
 6066SOL    HW219098   5.822   5.667   2.152
 6067SOL     OW19099   6.835   4.837   5.554
 6067SOL    HW119100   6.751   4.833   5.500
 6067SOL    HW219101   6.820   4.789   5.641
 6068SOL     OW19102   4.014   2.173   3.796
 6068SOL    HW119103   4.043   2.193   3.889
 6068SOL    HW219104   4.072   2.222   3.731
 6069SOL     OW19105   0.508   5.255   5.399
 6069SOL    HW119106   0.585   5.315   5.379
 6069SOL    HW219107   0.511   5.228   5.495
 6070SOL     OW19108   2.642   0.904   0.798
 6070SOL    HW119109   2.618   0.818   0.754
 6070SOL    HW219110   2.740   0.921   0.787
 6071SOL     OW19111   6.118   0.263   6.125
 6071SOL    HW119112   6.032   0.213   6.132
 6071SOL    HW219113   6.159   0.272   6.215
 6072SOL     OW19114   6.485   2.738   0.232
 6072SOL    HW119115   6.408   2.712   0.290
 6072SOL    HW219116   6.504   2.835   0.244
 6073SOL     OW19117   4.465   4.061   0.390
 6073SOL    HW119118   4.426   4.018   0.471
 6073SOL    HW219119   4.394   4.069   0.320
 6074SOL     OW19120   1.263   5.947   2.928
 6074SOL    HW119121   1.326   6.023   2.948
 6074SOL    HW219122   1.239   5.948   2.831
 6075SOL     OW19123   6.320   0.320   6.690
 6075SOL    HW119124   6.304   0.408   6.645
 6075SOL    HW219125   6.371   0.335   6.775
 6076SOL     OW19126   0.089   6.479   3.216
 6076SOL    HW119127   0.117   6.384   3.230
 6076SOL    HW219128   0.098   6.502   3.120
 6077SOL     OW19129   5.127   6.267   2.585
 6077SOL    HW119130   5.196   6.201   2.616
 6077SOL    HW219131   5.173   6.340   2.535
 6078SOL     OW19132   5.755   4.620   0.003
 6078SOL    HW119133   5.827   4.565   6.987
 6078SOL    HW219134   5.729   4.695   6.968
 6079SOL     OW19135   3.599   1.655   0.160
 6079SOL    HW119136   3.666   1.679   0.089
 6079SOL    HW219137   3.553   1.570   0.136
 6080SOL     OW19138   6.652   3.715   5.469
 6080SOL    HW119139   6.646   3.639   5.405
 6080SOL    HW219140   6.705   3.790   5.428
 6081SOL     OW19141   2.176   3.882   4.535
 6081SOL    HW119142   2.190   3.839   4.445
 6081SOL    HW219143   2.181   3.812   4.606
 6082SOL     OW19144   4.199   0.931   0.824
 6082SOL    HW119145   4.271   0.966   0.883
 6082SOL    HW219146   4.240   0.877   0.750
 6083SOL     OW19147   5.022   0.769   5.784
 6083SOL    HW119148   5.099   0.824   5.752
 6083SOL    HW219149   5.053   0.704   5.853
 6084SOL     OW19150   6.452   4.939   3.288
 6084SOL    HW119151   6.472   4.842   3.276
 6084SOL    HW219152   6.453   4.985   3.200
 6085SOL     OW19153   0.560   6.386   1.034
 6085SOL    HW119154   0.519   6.418   0.949
 6085SOL    HW219155   0.547   6.287   1.043
 6086SOL     OW19156   4.271   3.632   0.908
 6086SOL    HW119157   4.264   3.573   0.989
 6086SOL    HW219158   4.181   3.642   0.866
 6087SOL     OW19159   4.067   0.447   0.678
 6087SOL    HW119160   4.133   0.391   0.628
 6087SOL    HW219161   4.012   0.499   0.612
 6088SOL     OW19162   3.965   5.973   2.522
 6088SOL    HW119163   3.984   5.970   2.621
 6088SOL    HW219164   3.998   5.889   2.480
 6089SOL     OW19165   6.342   5.397   3.154
 6089SOL    HW119166   6.245   5.402   3.131
 6089SOL    HW219167   6.355   5.424   3.250
 6090SOL     OW19168   3.646   6.077   4.681
 6090SOL    HW119169   3.648   6.012   4.757
 6090SOL    HW219170   3.578   6.147   4.700
 6091SOL     OW19171   0.477   2.852   2.465
 6091SOL    HW119172   0.440   2.829   2.375
 6091SOL    HW219173   0.561   2.904   2.454
 6092SOL     OW19174   2.046   6.665   0.957
 6092SOL    HW119175   2.045   6.655   0.858
 6092SOL    HW219176   1.959   6.705   0.987
 6093SOL     OW19177   3.236   3.194   2.186
 6093SOL    HW119178   3.141   3.186   2.215
 6093SOL    HW219179   3.254   3.134   2.109
 6094SOL     OW19180   0.943   0.270   5.782
 6094SOL    HW119181   1.041   0.248   5.778
 6094SOL    HW219182   0.891   0.188   5.807
 6095SOL     OW19183   4.651   5.274   2.312
 6095SOL    HW119184   4.683   5.180   2.298
 6095SOL    HW219185   4.664   5.299   2.408
 6096SOL     OW19186   5.289   6.017   2.514
 6096SOL    HW119187   5.199   5.974   2.524
 6096SOL    HW219188   5.354   5.971   2.574
 6097SOL     OW19189   2.307   5.186   1.545
 6097SOL    HW119190   2.355   5.186   1.633
 6097SOL    HW219191   2.210   5.209   1.560
 6098SOL     OW19192   6.062   1.378   5.192
 6098SOL    HW119193   6.087   1.437   5.269
 6098SOL    HW219194   6.119   1.399   5.113
 6099SOL     OW19195   3.483   6.886   5.123
 6099SOL    HW119196   3.429   6.834   5.189
 6099SOL    HW219197   3.536   6.823   5.067
 6100SOL     OW19198   0.319   5.518   5.706
 6100SOL    HW119199   0.386   5.515   5.632
 6100SOL    HW219200   0.258   5.438   5.699
 6101SOL     OW19201   0.858   2.905   0.894
 6101SOL    HW119202   0.899   2.989   0.930
 6101SOL    HW219203   0.769   2.926   0.855
 6102SOL     OW19204   2.854   0.363   3.122
 6102SOL    HW119205   2.952   0.381   3.119
 6102SOL    HW219206   2.830   0.328   3.213
 6103SOL     OW19207   5.842   0.532   2.147
 6103SOL    HW119208   5.894   0.561   2.227
 6103SOL    HW219209   5.750   0.506   2.175
 6104SOL     OW19210   6.238   0.743   5.219
 6104SOL    HW119211   6.142   0.759   5.244
 6104SOL    HW219212   6.277   0.827   5.182
 6105SOL     OW19213   3.844   4.821   6.425
 6105SOL    HW119214   3.838   4.779   6.516
 6105SOL    HW219215   3.897   4.906   6.431
 6106SOL     OW19216   6.767   3.975   5.309
 6106SOL    HW119217   6.674   4.008   5.328
 6106SOL    HW219218   6.815   4.042   5.253
 6107SOL     OW19219   6.041   5.128   5.074
 6107SOL    HW119220   6.019   5.156   5.167
 6107SOL    HW219221   5.966   5.073   5.037
 6108SOL     OW19222   3.380   0.812   6.203
 6108SOL    HW119223   3.324   0.731   6.190
 6108SOL    HW219224   3.416   0.813   6.296
 6109SOL     OW19225   6.808   6.766   4.071
 6109SOL    HW119226   6.788   6.803   3.981
 6109SOL    HW219227   6.770   6.826   4.141
 6110SOL     OW19228   1.049   2.155   3.742
 6110SOL    HW119229   1.039   2.232   3.806
 6110SOL    HW219230   0.983   2.083   3.766
 6111SOL     OW19231   2.938   2.701   0.762
 6111SOL    HW119232   2.906   2.756   0.686
 6111SOL    HW219233   2.877   2.712   0.840
 6112SOL     OW19234   4.843   6.682   3.645
 6112SOL    HW119235   4.840   6.675   3.546
 6112SOL    HW219236   4.928   6.642   3.679
 6113SOL     OW19237   2.954   5.260   1.336
 6113SOL    HW119238   3.017   5.293   1.406
 6113SOL    HW219239   2.969   5.312   1.251
 6114SOL     OW19240   4.960   3.817   1.641
 6114SOL    HW119241   5.023   3.846   1.570
 6114SOL    HW219242   5.005   3.823   1.730
 6115SOL     OW19243   6.343   0.971   5.111
 6115SOL    HW119244   6.438   0.947   5.093
 6115SOL    HW219245   6.313   1.042   5.047
 6116SOL     OW19246   6.345   2.884   0.471
 6116SOL    HW119247   6.343   2.974   0.428
 6116SOL    HW219248   6.433   2.840   0.450
 6117SOL     OW19249   2.042   2.394   0.922
 6117SOL    HW119250   2.053   2.338   0.840
 6117SOL    HW219251   2.108   2.469   0.922
 6118SOL     OW19252   6.214   0.747   1.551
 6118SOL    HW119253   6.169   0.711   1.469
 6118SOL    HW219254   6.268   0.828   1.526
 6119SOL     OW19255   0.287   0.957   6.423
 6119SOL    HW119256   0.308   0.863   6.448
 6119SOL    HW219257   0.371   1.002   6.390
 6120SOL     OW19258   3.113   1.210   3.692
 6120SOL    HW119259   3.025   1.217   3.740
 6120SOL    HW219260   3.096   1.198   3.594
 6121SOL     OW19261   3.222   1.229   5.403
 6121SOL    HW119262   3.209   1.233   5.304
 6121SOL    HW219263   3.315   1.200   5.424
 6122SOL     OW19264   4.682   4.730   5.010
 6122SOL    HW119265   4.635   4.673   5.078
 6122SOL    HW219266   4.780   4.717   5.018
 6123SOL     OW19267   6.359   1.692   5.155
 6123SOL    HW119268   6.404   1.741   5.230
 6123SOL    HW219269   6.332   1.757   5.084
 6124SOL     OW19270   2.374   5.877   4.337
 6124SOL    HW119271   2.423   5.940   4.277
 6124SOL    HW219272   2.307   5.928   4.391
 6125SOL     OW19273   3.485   1.103   5.663
 6125SOL    HW119274   3.442   1.192   5.650
 6125SOL    HW219275   3.527   1.098   5.753
 6126SOL     OW19276   5.956   2.923   6.729
 6126SOL    HW119277   5.953   3.017   6.763
 6126SOL    HW219278   5.991   2.923   6.635
 6127SOL     OW19279   4.605   2.018   2.711
 6127SOL    HW119280   4.574   1.943   2.769
 6127SOL    HW219281   4.570   2.005   2.618
 6128SOL     OW19282   5.819   5.747   4.966
 6128SOL    HW119283   5.796   5.650   4.971
 6128SOL    HW219284   5.914   5.761   4.993
 6129SOL     OW19285   2.068   5.776   3.044
 6129SOL    HW119286   2.077   5.834   3.125
 6129SOL    HW219287   2.156   5.733   3.024
 6130SOL     OW19288   6.211   2.757   7.025
 6130SOL    HW119289   6.126   2.756   6.971
 6130SOL    HW219290   6.192   2.794   0.089
 6131SOL     OW19291   5.992   3.049   2.608
 6131SOL    HW119292   5.957   2.963   2.570
 6131SOL    HW219293   5.968   3.124   2.545
 6132SOL     OW19294   4.340   6.194   6.216
 6132SOL    HW119295   4.321   6.150   6.304
 6132SOL    HW219296   4.352   6.125   6.146
 6133SOL     OW19297   0.647   2.461   3.917
 6133SOL    HW119298   0.705   2.542   3.911
 6133SOL    HW219299   0.683   2.389   3.857
 6134SOL     OW19300   0.139   6.856   5.372
 6134SOL    HW119301   0.138   6.895   5.464
 6134SOL    HW219302   0.220   6.797   5.362
 6135SOL     OW19303   6.134   6.078   0.565
 6135SOL    HW119304   6.152   5.982   0.543
 6135SOL    HW219305   6.100   6.125   0.484
 6136SOL     OW19306   1.118   2.157   3.472
 6136SOL    HW119307   1.198   2.142   3.414
 6136SOL    HW219308   1.137   2.123   3.564
 6137SOL     OW19309   0.007   5.029   1.034
 6137SOL    HW119310   7.023   5.104   0.969
 6137SOL    HW219311   0.057   4.954   0.990
 6138SOL     OW19312   5.619   0.777   2.067
 6138SOL    HW119313   5.630   0.697   2.008
 6138SOL    HW219314   5.563   0.845   2.019
 6139SOL     OW19315   2.035   2.053   5.417
 6139SOL    HW119316   2.070   2.122   5.481
 6139SOL    HW219317   1.960   2.091   5.364
 6140SOL     OW19318   2.351   6.900   4.057
 6140SOL    HW119319   2.409   6.829   4.097
 6140SOL    HW219320   2.255   6.881   4.077
 6141SOL     OW19321   1.056   0.156   0.701
 6141SOL    HW119322   1.063   0.085   0.631
 6141SOL    HW219323   1.143   0.166   0.748
 6142SOL     OW19324   0.519   0.047   1.851
 6142SOL    HW119325   0.534   0.104   1.932
 6142SOL    HW219326   0.493   6.982   1.880
 6143SOL     OW19327   0.738   3.016   5.442
 6143SOL    HW119328   0.784   3.079   5.505
 6143SOL    HW219329   0.770   3.034   5.349
 6144SOL     OW19330   3.324   5.928   2.686
 6144SOL    HW119331   3.283   6.012   2.651
 6144SOL    HW219332   3.391   5.893   2.621
 6145SOL     OW19333   5.560   3.229   4.017
 6145SOL    HW119334   5.495   3.216   3.943
 6145SOL    HW219335   5.540   3.165   4.091
 6146SOL     OW19336   5.689   1.354   5.288
 6146SOL    HW119337   5.655   1.263   5.262
 6146SOL    HW219338   5.710   1.406   5.205
 6147SOL     OW19339   1.381   1.820   5.899
 6147SOL    HW119340   1.341   1.854   5.814
 6147SOL    HW219341   1.336   1.865   5.977
 6148SOL     OW19342   4.193   5.056   6.912
 6148SOL    HW119343   4.195   4.974   6.969
 6148SOL    HW219344   4.108   5.060   6.860
 6149SOL     OW19345   3.973   1.810   1.547
 6149SOL    HW119346   3.901   1.848   1.605
 6149SOL    HW219347   3.978   1.711   1.560
 6150SOL     OW19348   0.831   4.810   4.239
 6150SOL    HW119349   0.911   4.775   4.287
 6150SOL    HW219350   0.794   4.889   4.288
 6151SOL     OW19351   4.180   5.576   3.253
 6151SOL    HW119352   4.093   5.534   3.227
 6151SOL    HW219353   4.254   5.534   3.201
 6152SOL     OW19354   0.416   4.232   3.042
 6152SOL    HW119355   0.352   4.223   3.119
 6152SOL    HW219356   0.435   4.142   3.004
 6153SOL     OW19357   5.692   6.258   0.967
 6153SOL    HW119358   5.728   6.351   0.972
 6153SOL    HW219359   5.680   6.223   1.060
 6154SOL     OW19360   4.191   4.727   2.817
 6154SOL    HW119361   4.139   4.738   2.901
 6154SOL    HW219362   4.143   4.771   2.741
 6155SOL     OW19363   1.992   1.659   3.976
 6155SOL    HW119364   1.984   1.725   3.901
 6155SOL    HW219365   1.904   1.614   3.991
 6156SOL     OW19366   4.670   4.201   2.554
 6156SOL    HW119367   4.718   4.124   2.596
 6156SOL    HW219368   4.717   4.228   2.470
 6157SOL     OW19369   0.447   2.664   1.107
 6157SOL    HW119370   0.403   2.656   1.196
 6157SOL    HW219371   0.528   2.722   1.114
 6158SOL     OW19372   3.263   0.763   5.828
 6158SOL    HW119373   3.312   0.815   5.899
 6158SOL    HW219374   3.308   0.778   5.740
 6159SOL     OW19375   5.764   1.884   0.981
 6159SOL    HW119376   5.799   1.908   0.891
 6159SOL    HW219377   5.753   1.968   1.035
 6160SOL     OW19378   0.998   6.995   1.153
 6160SOL    HW119379   0.985   6.918   1.091
 6160SOL    HW219380   0.985   0.054   1.103
 6161SOL     OW19381   5.446   4.117   0.015
 6161SOL    HW119382   5.522   4.153   0.069
 6161SOL    HW219383   5.482   4.056   6.970
 6162SOL     OW19384   6.071   6.126   1.180
 6162SOL    HW119385   6.060   6.143   1.278
 6162SOL    HW219386   6.034   6.203   1.128
 6163SOL     OW19387   5.964   6.022   3.028
 6163SOL    HW119388   5.899   6.085   2.985
 6163SOL    HW219389   5.998   5.957   2.959
 6164SOL     OW19390   3.191   3.595   4.483
 6164SOL    HW119391   3.109   3.651   4.478
 6164SOL    HW219392   3.166   3.498   4.485
 6165SOL     OW19393   3.187   0.589   0.190
 6165SOL    HW119394   3.232   0.541   0.265
 6165SOL    HW219395   3.233   0.677   0.175
 6166SOL     OW19396   3.548   1.182   6.115
 6166SOL    HW119397   3.456   1.143   6.115
 6166SOL    HW219398   3.609   1.124   6.062
 6167SOL     OW19399   1.392   3.405   2.767
 6167SOL    HW119400   1.466   3.369   2.710
 6167SOL    HW219401   1.394   3.505   2.764
 6168SOL     OW19402   0.792   3.305   4.302
 6168SOL    HW119403   0.858   3.259   4.361
 6168SOL    HW219404   0.839   3.373   4.246
 6169SOL     OW19405   2.670   0.987   0.363
 6169SOL    HW119406   2.601   1.021   0.426
 6169SOL    HW219407   2.757   0.975   0.412
 6170SOL     OW19408   2.590   4.781   1.128
 6170SOL    HW119409   2.596   4.837   1.211
 6170SOL    HW219410   2.546   4.694   1.151
 6171SOL     OW19411   2.215   4.301   1.631
 6171SOL    HW119412   2.145   4.310   1.560
 6171SOL    HW219413   2.259   4.389   1.646
 6172SOL     OW19414   2.692   4.969   1.300
 6172SOL    HW119415   2.777   4.968   1.246
 6172SOL    HW219416   2.711   5.005   1.391
 6173SOL     OW19417   1.394   5.656   2.333
 6173SOL    HW119418   1.306   5.700   2.318
 6173SOL    HW219419   1.467   5.722   2.314
 6174SOL     OW19420   5.943   4.869   1.441
 6174SOL    HW119421   6.043   4.865   1.431
 6174SOL    HW219422   5.917   4.834   1.530
 6175SOL     OW19423   5.378   0.245   4.020
 6175SOL    HW119424   5.377   0.146   4.026
 6175SOL    HW219425   5.403   0.284   4.110
 6176SOL     OW19426   5.901   3.183   0.325
 6176SOL    HW119427   5.913   3.160   0.229
 6176SOL    HW219428   5.973   3.140   0.379
 6177SOL     OW19429   6.145   2.648   2.649
 6177SOL    HW119430   6.216   2.601   2.596
 6177SOL    HW219431   6.089   2.702   2.587
 6178SOL     OW19432   6.585   3.322   1.216
 6178SOL    HW119433   6.635   3.406   1.197
 6178SOL    HW219434   6.492   3.330   1.180
 6179SOL     OW19435   0.693   1.440   5.269
 6179SOL    HW119436   0.699   1.461   5.171
 6179SOL    HW219437   0.721   1.520   5.321
 6180SOL     OW19438   2.699   0.668   6.054
 6180SOL    HW119439   2.765   0.680   5.979
 6180SOL    HW219440   2.681   0.756   6.097
 6181SOL     OW19441   4.243   6.039   6.526
 6181SOL    HW119442   4.204   6.129   6.547
 6181SOL    HW219443   4.180   5.967   6.557
 6182SOL     OW19444   4.950   6.762   5.399
 6182SOL    HW119445   4.883   6.692   5.378
 6182SOL    HW219446   4.991   6.797   5.315
 6183SOL     OW19447   2.913   0.459   2.762
 6183SOL    HW119448   2.858   0.452   2.679
 6183SOL    HW219449   2.860   0.425   2.840
 6184SOL     OW19450   6.740   0.730   5.700
 6184SOL    HW119451   6.646   0.763   5.712
 6184SOL    HW219452   6.802   0.788   5.753
 6185SOL     OW19453   2.563   2.695   6.797
 6185SOL    HW119454   2.625   2.771   6.818
 6185SOL    HW219455   2.583   2.618   6.856
 6186SOL     OW19456   4.478   1.114   4.216
 6186SOL    HW119457   4.405   1.123   4.149
 6186SOL    HW219458   4.495   1.017   4.233
 6187SOL     OW19459   3.272   4.898   4.269
 6187SOL    HW119460   3.182   4.885   4.309
 6187SOL    HW219461   3.333   4.826   4.300
 6188SOL     OW19462   2.874   0.062   2.230
 6188SOL    HW119463   2.874   6.989   2.230
 6188SOL    HW219464   2.968   0.096   2.235
 6189SOL     OW19465   5.153   5.074   2.978
 6189SOL    HW119466   5.170   4.977   2.961
 6189SOL    HW219467   5.115   5.086   3.069
 6190SOL     OW19468   5.157   2.562   5.781
 6190SOL    HW119469   5.125   2.642   5.731
 6190SOL    HW219470   5.216   2.507   5.722
 6191SOL     OW19471   6.669   1.786   6.706
 6191SOL    HW119472   6.589   1.754   6.757
 6191SOL    HW219473   6.698   1.714   6.642
 6192SOL     OW19474   3.502   2.096   0.396
 6192SOL    HW119475   3.409   2.112   0.430
 6192SOL    HW219476   3.551   2.036   0.459
 6193SOL     OW19477   6.730   0.389   1.840
 6193SOL    HW119478   6.747   0.425   1.749
 6193SOL    HW219479   6.693   0.296   1.833
 6194SOL     OW19480   2.676   0.173   0.570
 6194SOL    HW119481   2.741   0.184   0.646
 6194SOL    HW219482   2.694   0.086   0.524
 6195SOL     OW19483   2.659   0.560   5.488
 6195SOL    HW119484   2.642   0.633   5.422
 6195SOL    HW219485   2.598   0.483   5.469
 6196SOL     OW19486   0.959   1.762   5.699
 6196SOL    HW119487   0.992   1.797   5.611
 6196SOL    HW219488   0.860   1.774   5.705
 6197SOL     OW19489   2.738   2.766   1.374
 6197SOL    HW119490   2.712   2.688   1.431
 6197SOL    HW219491   2.678   2.770   1.294
 6198SOL     OW19492   3.677   5.271   2.919
 6198SOL    HW119493   3.643   5.335   2.850
 6198SOL    HW219494   3.774   5.252   2.903
 6199SOL     OW19495   0.537   0.337   6.802
 6199SOL    HW119496   0.519   0.395   6.881
 6199SOL    HW219497   0.457   0.282   6.781
 6200SOL     OW19498   4.059   0.490   5.750
 6200SOL    HW119499   3.971   0.456   5.781
 6200SOL    HW219500   4.047   0.577   5.703
 6201SOL     OW19501   2.079   5.004   4.532
 6201SOL    HW119502   1.989   5.030   4.496
 6201SOL    HW219503   2.067   4.956   4.620
 6202SOL     OW19504   1.918   2.085   1.468
 6202SOL    HW119505   1.898   2.078   1.566
 6202SOL    HW219506   1.993   2.023   1.445
 6203SOL     OW19507   5.725   2.403   3.821
 6203SOL    HW119508   5.702   2.313   3.785
 6203SOL    HW219509   5.790   2.393   3.897
 6204SOL     OW19510   1.171   6.687   5.509
 6204SOL    HW119511   1.102   6.615   5.511
 6204SOL    HW219512   1.160   6.747   5.589
 6205SOL     OW19513   4.956   6.575   6.995
 6205SOL    HW119514   4.943   6.673   7.011
 6205SOL    HW219515   5.039   6.544   0.015
 6206SOL     OW19516   4.981   0.137   3.538
 6206SOL    HW119517   4.972   0.236   3.525
 6206SOL    HW219518   4.942   0.111   3.626
 6207SOL     OW19519   2.109   4.252   4.295
 6207SOL    HW119520   2.065   4.163   4.309
 6207SOL    HW219521   2.079   4.290   4.208
 6208SOL     OW19522   5.550   4.824   5.394
 6208SOL    HW119523   5.480   4.881   5.437
 6208SOL    HW219524   5.632   4.824   5.451
 6209SOL     OW19525   2.084   5.322   0.922
 6209SOL    HW119526   2.173   5.280   0.936
 6209SOL    HW219527   2.014   5.271   0.973
 6210SOL     OW19528   6.773   4.257   2.904
 6210SOL    HW119529   6.710   4.181   2.890
 6210SOL    HW219530   6.744   4.334   2.848
 6211SOL     OW19531   2.777   1.390   5.447
 6211SOL    HW119532   2.779   1.405   5.349
 6211SOL    HW219533   2.691   1.344   5.472
 6212SOL     OW19534   6.531   0.334   3.622
 6212SOL    HW119535   6.539   0.386   3.706
 6212SOL    HW219536   6.478   0.386   3.555
 6213SOL     OW19537   6.827   0.085   7.003
 6213SOL    HW119538   6.827   0.094   0.076
 6213SOL    HW219539   6.745   0.126   6.965
 6214SOL     OW19540   5.082   4.728   1.647
 6214SOL    HW119541   5.056   4.792   1.575
 6214SOL    HW219542   5.000   4.695   1.693
 6215SOL     OW19543   2.895   4.735   1.423
 6215SOL    HW119544   2.807   4.700   1.391
 6215SOL    HW219545   2.922   4.687   1.506
 6216SOL     OW19546   6.707   2.853   2.608
 6216SOL    HW119547   6.762   2.887   2.684
 6216SOL    HW219548   6.624   2.908   2.600
 6217SOL     OW19549   4.369   1.551   1.576
 6217SOL    HW119550   4.425   1.469   1.565
 6217SOL    HW219551   4.302   1.536   1.648
 6218SOL     OW19552   4.767   5.507   4.177
 6218SOL    HW119553   4.782   5.493   4.079
 6218SOL    HW219554   4.751   5.604   4.194
 6219SOL     OW19555   0.126   1.099   4.175
 6219SOL    HW119556   0.130   1.003   4.149
 6219SOL    HW219557   0.165   1.110   4.266
 6220SOL     OW19558   1.482   3.586   5.218
 6220SOL    HW119559   1.537   3.646   5.158
 6220SOL    HW219560   1.533   3.568   5.302
 6221SOL     OW19561   4.327   4.672   4.516
 6221SOL    HW119562   4.396   4.666   4.588
 6221SOL    HW219563   4.364   4.637   4.430
 6222SOL     OW19564   6.680   1.877   1.278
 6222SOL    HW119565   6.641   1.934   1.206
 6222SOL    HW219566   6.629   1.791   1.284
 6223SOL     OW19567   5.218   4.337   4.255
 6223SOL    HW119568   5.307   4.303   4.284
 6223SOL    HW219569   5.228   4.427   4.212
 6224SOL     OW19570   2.607   0.023   4.516
 6224SOL    HW119571   2.554   0.106   4.502
 6224SOL    HW219572   2.678   0.040   4.585
 6225SOL     OW19573   3.916   1.910   6.531
 6225SOL    HW119574   3.852   1.939   6.460
 6225SOL    HW219575   3.904   1.967   6.612
 6226SOL     OW19576   6.924   6.482   4.286
 6226SOL    HW119577   6.832   6.505   4.315
 6226SOL    HW219578   6.938   6.513   4.192
 6227SOL     OW19579   2.650   4.245   6.563
 6227SOL    HW119580   2.712   4.259   6.486
 6227SOL    HW219581   2.604   4.332   6.584
 6228SOL     OW19582   6.769   2.084   2.554
 6228SOL    HW119583   6.756   1.995   2.596
 6228SOL    HW219584   6.801   2.149   2.624
 6229SOL     OW19585   1.378   1.960   1.827
 6229SOL    HW119586   1.424   1.873   1.848
 6229SOL    HW219587   1.442   2.019   1.777
 6230SOL     OW19588   2.355   2.153   3.724
 6230SOL    HW119589   2.325   2.058   3.727
 6230SOL    HW219590   2.314   2.198   3.645
 6231SOL     OW19591   6.402   5.085   1.775
 6231SOL    HW119592   6.314   5.119   1.742
 6231SOL    HW219593   6.461   5.065   1.697
 6232SOL     OW19594   1.185   0.710   0.205
 6232SOL    HW119595   1.147   0.779   0.143
 6232SOL    HW219596   1.281   0.694   0.182
 6233SOL     OW19597   4.035   0.967   6.668
 6233SOL    HW119598   4.085   0.944   6.585
 6233SOL    HW219599   4.021   0.885   6.724
 6234SOL     OW19600   2.526   2.061   4.053
 6234SOL    HW119601   2.559   2.012   3.972
 6234SOL    HW219602   2.428   2.077   4.045
 6235SOL     OW19603   2.290   5.598   1.969
 6235SOL    HW119604   2.228   5.667   1.931
 6235SOL    HW219605   2.237   5.518   1.998
 6236SOL     OW19606   0.105   4.049   0.044
 6236SOL    HW119607   0.091   3.993   0.126
 6236SOL    HW219608   0.054   4.134   0.053
 6237SOL     OW19609   3.833   5.868   6.543
 6237SOL    HW119610   3.859   5.870   6.447
 6237SOL    HW219611   3.761   5.800   6.557
 6238SOL     OW19612   5.265   3.701   0.866
 6238SOL    HW119613   5.266   3.796   0.837
 6238SOL    HW219614   5.318   3.645   0.802
 6239SOL     OW19615   3.426   6.264   3.274
 6239SOL    HW119616   3.489   6.308   3.211
 6239SOL    HW219617   3.416   6.320   3.357
 6240SOL     OW19618   2.943   3.610   0.222
 6240SOL    HW119619   2.977   3.700   0.196
 6240SOL    HW219620   2.938   3.551   0.142
 6241SOL     OW19621   4.805   7.022   2.128
 6241SOL    HW119622   4.893   0.008   2.174
 6241SOL    HW219623   4.780   6.925   2.128
 6242SOL     OW19624   3.678   2.045   2.848
 6242SOL    HW119625   3.672   1.974   2.918
 6242SOL    HW219626   3.765   2.094   2.858
 6243SOL     OW19627   6.467   5.660   3.209
 6243SOL    HW119628   6.388   5.715   3.235
 6243SOL    HW219629   6.438   5.589   3.145
 6244SOL     OW19630   1.333   1.649   1.871
 6244SOL    HW119631   1.361   1.651   1.967
 6244SOL    HW219632   1.301   1.557   1.848
 6245SOL     OW19633   2.454   3.692   0.406
 6245SOL    HW119634   2.377   3.694   0.470
 6245SOL    HW219635   2.539   3.713   0.455
 6246SOL     OW19636   4.480   6.728   0.211
 6246SOL    HW119637   4.454   6.757   0.303
 6246SOL    HW219638   4.562   6.671   0.215
 6247SOL     OW19639   6.803   6.791   2.804
 6247SOL    HW119640   6.781   6.887   2.820
 6247SOL    HW219641   6.846   6.753   2.885
 6248SOL     OW19642   0.696   5.955   0.901
 6248SOL    HW119643   0.722   5.924   0.810
 6248SOL    HW219644   0.673   6.052   0.898
 6249SOL     OW19645   6.097   3.066   5.949
 6249SOL    HW119646   6.176   3.019   5.910
 6249SOL    HW219647   6.107   3.165   5.937
 6250SOL     OW19648   6.853   4.543   5.948
 6250SOL    HW119649   6.937   4.492   5.927
 6250SOL    HW219650   6.789   4.535   5.872
 6251SOL     OW19651   4.413   1.265   0.716
 6251SOL    HW119652   4.346   1.337   0.702
 6251SOL    HW219653   4.384   1.207   0.793
 6252SOL     OW19654   1.675   6.479   4.795
 6252SOL    HW119655   1.703   6.573   4.773
 6252SOL    HW219656   1.744   6.415   4.761
 6253SOL     OW19657   2.741   3.418   1.620
 6253SOL    HW119658   2.659   3.475   1.612
 6253SOL    HW219659   2.714   3.326   1.650
 6254SOL     OW19660   5.171   0.443   0.235
 6254SOL    HW119661   5.081   0.435   0.278
 6254SOL    HW219662   5.211   0.532   0.259
 6255SOL     OW19663   0.372   3.180   3.138
 6255SOL    HW119664   0.465   3.214   3.133
 6255SOL    HW219665   0.371   3.089   3.180
 6256SOL     OW19666   3.796   5.287   4.494
 6256SOL    HW119667   3.749   5.265   4.408
 6256SOL    HW219668   3.815   5.203   4.544
 6257SOL     OW19669   4.186   2.914   6.700
 6257SOL    HW119670   4.107   2.888   6.645
 6257SOL    HW219671   4.270   2.899   6.647
 6258SOL     OW19672   4.450   2.124   3.027
 6258SOL    HW119673   4.428   2.094   3.120
 6258SOL    HW219674   4.441   2.046   2.964
 6259SOL     OW19675   3.435   2.248   1.695
 6259SOL    HW119676   3.373   2.227   1.771
 6259SOL    HW219677   3.515   2.298   1.729
 6260SOL     OW19678   3.277   4.433   1.261
 6260SOL    HW119679   3.222   4.390   1.189
 6260SOL    HW219680   3.224   4.506   1.304
 6261SOL     OW19681   4.944   6.701   6.223
 6261SOL    HW119682   4.996   6.750   6.293
 6261SOL    HW219683   4.890   6.766   6.170
 6262SOL     OW19684   0.304   6.038   5.090
 6262SOL    HW119685   0.344   6.055   5.181
 6262SOL    HW219686   0.207   6.017   5.100
 6263SOL     OW19687   6.558   0.996   1.394
 6263SOL    HW119688   6.652   0.963   1.403
 6263SOL    HW219689   6.547   1.041   1.306
 6264SOL     OW19690   2.735   1.366   0.308
 6264SOL    HW119691   2.780   1.279   0.330
 6264SOL    HW219692   2.702   1.365   0.214
 6265SOL     OW19693   5.826   3.719   0.354
 6265SOL    HW119694   5.801   3.622   0.347
 6265SOL    HW219695   5.910   3.728   0.407
 6266SOL     OW19696   2.409   0.308   2.524
 6266SOL    HW119697   2.420   0.302   2.623
 6266SOL    HW219698   2.435   0.221   2.482
 6267SOL     OW19699   2.822   6.384   0.415
 6267SOL    HW119700   2.905   6.348   0.372
 6267SOL    HW219701   2.833   6.482   0.432
 6268SOL     OW19702   1.879   6.010   2.362
 6268SOL    HW119703   1.874   5.933   2.298
 6268SOL    HW219704   1.940   6.080   2.324
 6269SOL     OW19705   6.663   4.502   6.572
 6269SOL    HW119706   6.675   4.403   6.576
 6269SOL    HW219707   6.703   4.537   6.487
 6270SOL     OW19708   0.233   1.165   3.886
 6270SOL    HW119709   0.186   1.127   3.966
 6270SOL    HW219710   0.244   1.264   3.897
 6271SOL     OW19711   6.135   1.773   1.400
 6271SOL    HW119712   6.098   1.737   1.313
 6271SOL    HW219713   6.230   1.745   1.410
 6272SOL     OW19714   2.572   2.536   3.599
 6272SOL    HW119715   2.563   2.474   3.677
 6272SOL    HW219716   2.533   2.625   3.624
 6273SOL     OW19717   3.978   0.809   2.497
 6273SOL    HW119718   4.022   0.820   2.408
 6273SOL    HW219719   4.041   0.837   2.570
 6274SOL     OW19720   2.644   5.914   6.762
 6274SOL    HW119721   2.738   5.948   6.767
 6274SOL    HW219722   2.625   5.882   6.669
 6275SOL     OW19723   3.348   1.065   4.785
 6275SOL    HW119724   3.396   1.080   4.871
 6275SOL    HW219725   3.415   1.044   4.713
 6276SOL     OW19726   1.478   5.103   3.854
 6276SOL    HW119727   1.578   5.097   3.858
 6276SOL    HW219728   1.440   5.070   3.941
 6277SOL     OW19729   6.352   3.174   4.151
 6277SOL    HW119730   6.265   3.178   4.200
 6277SOL    HW219731   6.351   3.239   4.075
 6278SOL     OW19732   4.357   1.299   3.417
 6278SOL    HW119733   4.270   1.325   3.376
 6278SOL    HW219734   4.431   1.346   3.369
 6279SOL     OW19735   4.361   1.841   6.126
 6279SOL    HW119736   4.444   1.792   6.152
 6279SOL    HW219737   4.283   1.805   6.178
 6280SOL     OW19738   1.396   5.428   5.862
 6280SOL    HW119739   1.434   5.460   5.949
 6280SOL    HW219740   1.433   5.337   5.842
 6281SOL     OW19741   3.221   5.823   4.639
 6281SOL    HW119742   3.292   5.804   4.571
 6281SOL    HW219743   3.258   5.885   4.709
 6282SOL     OW19744   0.726   0.069   4.071
 6282SOL    HW119745   0.803   0.131   4.062
 6282SOL    HW219746   0.740   0.009   4.150
 6283SOL     OW19747   1.006   2.768   4.921
 6283SOL    HW119748   0.974   2.697   4.984
 6283SOL    HW219749   1.099   2.745   4.891
 6284SOL     OW19750   2.415   4.907   0.041
 6284SOL    HW119751   2.330   4.893   7.017
 6284SOL    HW219752   2.490   4.862   7.019
 6285SOL     OW19753   1.887   3.793   2.175
 6285SOL    HW119754   1.845   3.786   2.265
 6285SOL    HW219755   1.839   3.863   2.121
 6286SOL     OW19756   6.308   6.176   4.592
 6286SOL    HW119757   6.325   6.249   4.658
 6286SOL    HW219758   6.346   6.090   4.627
 6287SOL     OW19759   3.743   4.917   2.485
 6287SOL    HW119760   3.646   4.929   2.465
 6287SOL    HW219761   3.781   4.848   2.424
 6288SOL     OW19762   5.995   3.200   0.603
 6288SOL    HW119763   5.930   3.277   0.596
 6288SOL    HW219764   6.088   3.235   0.591
 6289SOL     OW19765   0.766   6.485   2.785
 6289SOL    HW119766   0.694   6.537   2.739
 6289SOL    HW219767   0.851   6.495   2.735
 6290SOL     OW19768   5.979   4.040   3.798
 6290SOL    HW119769   5.948   4.055   3.704
 6290SOL    HW219770   5.981   4.127   3.846
 6291SOL     OW19771   3.677   4.093   3.845
 6291SOL    HW119772   3.729   4.045   3.774
 6291SOL    HW219773   3.580   4.092   3.821
 6292SOL     OW19774   0.126   0.750   1.661
 6292SOL    HW119775   0.030   0.757   1.688
 6292SOL    HW219776   0.139   0.789   1.570
 6293SOL     OW19777   6.082   5.244   5.865
 6293SOL    HW119778   6.128   5.185   5.798
 6293SOL    HW219779   6.068   5.335   5.825
 6294SOL     OW19780   3.573   6.365   1.809
 6294SOL    HW119781   3.554   6.292   1.743
 6294SOL    HW219782   3.591   6.324   1.899
 6295SOL     OW19783   6.992   5.769   5.988
 6295SOL    HW119784   0.053   5.733   5.953
 6295SOL    HW219785   6.988   5.757   6.087
 6296SOL     OW19786   6.032   1.466   3.275
 6296SOL    HW119787   6.083   1.440   3.193
 6296SOL    HW219788   6.081   1.539   3.323
 6297SOL     OW19789   5.895   1.284   5.812
 6297SOL    HW119790   5.939   1.197   5.834
 6297SOL    HW219791   5.898   1.299   5.713
 6298SOL     OW19792   6.633   2.519   4.345
 6298SOL    HW119793   6.675   2.607   4.323
 6298SOL    HW219794   6.537   2.520   4.315
 6299SOL     OW19795   6.910   2.701   0.513
 6299SOL    HW119796   6.885   2.626   0.452
 6299SOL    HW219797   7.002   2.733   0.490
 6300SOL     OW19798   5.177   1.280   3.591
 6300SOL    HW119799   5.217   1.353   3.535
 6300SOL    HW219800   5.102   1.237   3.541
 6301SOL     OW19801   3.387   0.827   1.056
 6301SOL    HW119802   3.419   0.830   0.962
 6301SOL    HW219803   3.288   0.831   1.058
 6302SOL     OW19804   6.324   0.156   2.652
 6302SOL    HW119805   6.375   0.120   2.730
 6302SOL    HW219806   6.378   0.226   2.605
 6303SOL     OW19807   2.734   5.473   4.544
 6303SOL    HW119808   2.778   5.474   4.454
 6303SOL    HW219809   2.784   5.535   4.605
 6304SOL     OW19810   4.094   0.602   4.588
 6304SOL    HW119811   4.150   0.682   4.568
 6304SOL    HW219812   4.114   0.570   4.681
 6305SOL     OW19813   5.648   0.716   2.374
 6305SOL    HW119814   5.621   0.649   2.304
 6305SOL    HW219815   5.590   0.797   2.367
 6306SOL     OW19816   6.012   2.685   3.853
 6306SOL    HW119817   6.076   2.748   3.896
 6306SOL    HW219818   5.976   2.726   3.768
 6307SOL     OW19819   1.855   4.819   0.246
 6307SOL    HW119820   1.769   4.856   0.280
 6307SOL    HW219821   1.931   4.874   0.281
 6308SOL     OW19822   4.179   2.311   6.254
 6308SOL    HW119823   4.113   2.385   6.267
 6308SOL    HW219824   4.164   2.240   6.324
 6309SOL     OW19825   5.994   2.144   5.306
 6309SOL    HW119826   5.948   2.185   5.384
 6309SOL    HW219827   5.948   2.059   5.280
 6310SOL     OW19828   0.067   5.555   4.445
 6310SOL    HW119829   0.111   5.468   4.469
 6310SOL    HW219830   0.032   5.598   4.528
 6311SOL     OW19831   6.224   6.876   4.526
 6311SOL    HW119832   6.180   6.826   4.601
 6311SOL    HW219833   6.179   6.852   4.440
 6312SOL     OW19834   5.695   3.851   5.706
 6312SOL    HW119835   5.614   3.855   5.764
 6312SOL    HW219836   5.710   3.756   5.676
 6313SOL     OW19837   2.464   5.260   4.374
 6313SOL    HW119838   2.438   5.284   4.281
 6313SOL    HW219839   2.554   5.298   4.395
 6314SOL     OW19840   1.325   0.243   3.646
 6314SOL    HW119841   1.362   0.320   3.699
 6314SOL    HW219842   1.297   0.275   3.555
 6315SOL     OW19843   2.236   3.100   0.065
 6315SOL    HW119844   2.211   3.013   0.024
 6315SOL    HW219845   2.168   3.170   0.041
 6316SOL     OW19846   4.006   1.147   4.940
 6316SOL    HW119847   3.979   1.217   4.873
 6316SOL    HW219848   4.103   1.158   4.962
 6317SOL     OW19849   6.768   5.354   4.681
 6317SOL    HW119850   6.859   5.313   4.682
 6317SOL    HW219851   6.699   5.283   4.668
 6318SOL     OW19852   1.968   2.063   4.005
 6318SOL    HW119853   1.887   2.007   3.983
 6318SOL    HW219854   1.962   2.150   3.956
 6319SOL     OW19855   1.036   1.890   3.138
 6319SOL    HW119856   1.042   1.927   3.045
 6319SOL    HW219857   1.116   1.834   3.157
 6320SOL     OW19858   0.350   2.116   2.685
 6320SOL    HW119859   0.262   2.123   2.638
 6320SOL    HW219860   0.423   2.148   2.624
 6321SOL     OW19861   1.876   3.738   5.958
 6321SOL    HW119862   1.950   3.726   6.024
 6321SOL    HW219863   1.838   3.830   5.966
 6322SOL     OW19864   2.470   6.930   6.814
 6322SOL    HW119865   2.537   6.861   6.787
 6322SOL    HW219866   2.517   7.018   6.827
 6323SOL     OW19867   4.759   1.880   2.024
 6323SOL    HW119868   4.674   1.860   2.073
 6323SOL    HW219869   4.747   1.857   1.928
 6324SOL     OW19870   3.214   1.534   0.553
 6324SOL    HW119871   3.229   1.460   0.619
 6324SOL    HW219872   3.132   1.586   0.579
 6325SOL     OW19873   1.584   3.094   3.281
 6325SOL    HW119874   1.580   2.995   3.291
 6325SOL    HW219875   1.624   3.117   3.192
 6326SOL     OW19876   4.276   6.760   1.393
 6326SOL    HW119877   4.374   6.776   1.390
 6326SOL    HW219878   4.231   6.833   1.445
 6327SOL     OW19879   3.952   5.072   5.312
 6327SOL    HW119880   4.006   5.151   5.341
 6327SOL    HW219881   3.958   5.000   5.382
 6328SOL     OW19882   2.557   4.447   6.764
 6328SOL    HW119883   2.494   4.500   6.820
 6328SOL    HW219884   2.562   4.354   6.799
 6329SOL     OW19885   0.751   1.749   3.492
 6329SOL    HW119886   0.840   1.708   3.472
 6329SOL    HW219887   0.703   1.695   3.560
 6330SOL     OW19888   3.263   0.498   6.853
 6330SOL    HW119889   3.213   0.411   6.853
 6330SOL    HW219890   3.200   0.573   6.876
 6331SOL     OW19891   5.157   3.364   1.700
 6331SOL    HW119892   5.069   3.390   1.738
 6331SOL    HW219893   5.224   3.353   1.773
 6332SOL     OW19894   4.634   6.210   2.528
 6332SOL    HW119895   4.568   6.269   2.481
 6332SOL    HW219896   4.614   6.209   2.626
 6333SOL     OW19897   2.729   5.213   2.697
 6333SOL    HW119898   2.788   5.280   2.742
 6333SOL    HW219899   2.679   5.257   2.623
 6334SOL     OW19900   2.224   0.910   2.129
 6334SOL    HW119901   2.250   0.847   2.203
 6334SOL    HW219902   2.256   0.873   2.042
 6335SOL     OW19903   6.627   0.806   6.983
 6335SOL    HW119904   6.695   0.880   6.981
 6335SOL    HW219905   6.635   0.751   6.900
 6336SOL     OW19906   1.384   2.544   5.264
 6336SOL    HW119907   1.311   2.603   5.231
 6336SOL    HW219908   1.409   2.571   5.357
 6337SOL     OW19909   0.647   4.568   4.980
 6337SOL    HW119910   0.729   4.623   4.963
 6337SOL    HW219911   0.566   4.621   4.956
 6338SOL     OW19912   3.402   1.576   4.801
 6338SOL    HW119913   3.498   1.595   4.777
 6338SOL    HW219914   3.348   1.570   4.717
 6339SOL     OW19915   6.923   2.627   4.068
 6339SOL    HW119916   7.009   2.663   4.030
 6339SOL    HW219917   6.858   2.612   3.994
 6340SOL     OW19918   2.843   5.492   3.455
 6340SOL    HW119919   2.907   5.503   3.531
 6340SOL    HW219920   2.893   5.463   3.373
 6341SOL     OW19921   5.945   5.530   2.303
 6341SOL    HW119922   6.029   5.523   2.250
 6341SOL    HW219923   5.958   5.596   2.377
 6342SOL     OW19924   1.014   3.484   0.449
 6342SOL    HW119925   1.025   3.573   0.492
 6342SOL    HW219926   1.097   3.462   0.397
 6343SOL     OW19927   4.276   1.273   0.406
 6343SOL    HW119928   4.359   1.315   0.369
 6343SOL    HW219929   4.244   1.325   0.485
 6344SOL     OW19930   6.292   4.868   4.769
 6344SOL    HW119931   6.289   4.829   4.677
 6344SOL    HW219932   6.206   4.914   4.788
 6345SOL     OW19933   1.751   2.098   1.209
 6345SOL    HW119934   1.817   2.101   1.284
 6345SOL    HW219935   1.799   2.081   1.123
 6346SOL     OW19936   0.637   5.238   3.906
 6346SOL    HW119937   0.683   5.326   3.894
 6346SOL    HW219938   0.617   5.224   4.003
 6347SOL     OW19939   2.983   0.693   0.718
 6347SOL    HW119940   3.022   0.626   0.655
 6347SOL    HW219941   2.894   0.662   0.749
 6348SOL     OW19942   0.302   2.509   4.100
 6348SOL    HW119943   0.334   2.517   4.005
 6348SOL    HW219944   0.380   2.491   4.160
 6349SOL     OW19945   1.304   0.860   0.646
 6349SOL    HW119946   1.280   0.884   0.552
 6349SOL    HW219947   1.230   0.887   0.707
 6350SOL     OW19948   6.813   5.873   3.298
 6350SOL    HW119949   6.811   5.792   3.356
 6350SOL    HW219950   6.906   5.889   3.265
 6351SOL     OW19951   0.143   2.218   3.123
 6351SOL    HW119952   0.210   2.172   3.181
 6351SOL    HW219953   0.092   2.149   3.071
 6352SOL     OW19954   6.670   4.480   2.772
 6352SOL    HW119955   6.589   4.532   2.796
 6352SOL    HW219956   6.661   4.445   2.679
 6353SOL     OW19957   6.741   6.802   2.029
 6353SOL    HW119958   6.699   6.805   2.119
 6353SOL    HW219959   6.704   6.724   1.977
 6354SOL     OW19960   6.583   6.998   4.540
 6354SOL    HW119961   6.527   7.026   4.462
 6354SOL    HW219962   6.597   0.049   4.602
 6355SOL     OW19963   1.401   1.906   1.267
 6355SOL    HW119964   1.481   1.847   1.273
 6355SOL    HW219965   1.322   1.853   1.236
 6356SOL     OW19966   3.338   3.669   1.134
 6356SOL    HW119967   3.430   3.652   1.098
 6356SOL    HW219968   3.339   3.747   1.196
 6357SOL     OW19969   4.886   1.773   1.241
 6357SOL    HW119970   4.932   1.854   1.277
 6357SOL    HW219971   4.837   1.797   1.157
 6358SOL     OW19972   0.993   2.770   5.385
 6358SOL    HW119973   0.895   2.749   5.384
 6358SOL    HW219974   1.023   2.791   5.478
 6359SOL     OW19975   6.870   0.931   6.654
 6359SOL    HW119976   6.812   1.002   6.693
 6359SOL    HW219977   6.962   0.938   6.692
 6360SOL     OW19978   2.389   5.015   4.462
 6360SOL    HW119979   2.405   5.111   4.439
 6360SOL    HW219980   2.308   5.008   4.520
 6361SOL     OW19981   2.658   6.605   5.236
 6361SOL    HW119982   2.640   6.507   5.229
 6361SOL    HW219983   2.587   6.648   5.291
 6362SOL     OW19984   6.894   5.131   5.950
 6362SOL    HW119985   6.982   5.088   5.972
 6362SOL    HW219986   6.901   5.230   5.967
 6363SOL     OW19987   0.795   5.153   3.704
 6363SOL    HW119988   0.730   5.189   3.771
 6363SOL    HW219989   0.822   5.226   3.641
 6364SOL     OW19990   2.528   1.641   6.335
 6364SOL    HW119991   2.431   1.645   6.312
 6364SOL    HW219992   2.580   1.605   6.258
 6365SOL     OW19993   3.993   5.572   2.886
 6365SOL    HW119994   4.074   5.625   2.860
 6365SOL    HW219995   3.922   5.583   2.817
 6366SOL     OW19996   1.125   4.130   5.328
 6366SOL    HW119997   1.091   4.162   5.416
 6366SOL    HW219998   1.216   4.091   5.340
 6367SOL     OW19999   5.491   5.542   1.936
 6367SOL    HW120000   5.471   5.631   1.976
 6367SOL    HW220001   5.484   5.547   1.836
 6368SOL     OW20002   2.865   1.445   2.483
 6368SOL    HW120003   2.827   1.491   2.562
 6368SOL    HW220004   2.800   1.447   2.407
 6369SOL     OW20005   1.963   6.209   5.199
 6369SOL    HW120006   2.027   6.276   5.161
 6369SOL    HW220007   1.882   6.204   5.141
 6370SOL     OW20008   5.548   2.908   2.159
 6370SOL    HW120009   5.469   2.909   2.220
 6370SOL    HW220010   5.540   2.831   2.096
 6371SOL     OW20011   4.092   1.197   3.722
 6371SOL    HW120012   4.165   1.145   3.677
 6371SOL    HW220013   4.060   1.146   3.802
 6372SOL     OW20014   2.548   0.270   2.768
 6372SOL    HW120015   2.581   0.364   2.771
 6372SOL    HW220016   2.626   0.207   2.772
 6373SOL     OW20017   3.519   4.423   0.107
 6373SOL    HW120018   3.606   4.397   0.064
 6373SOL    HW220019   3.444   4.380   0.057
 6374SOL     OW20020   3.290   3.021   3.998
 6374SOL    HW120021   3.293   2.960   3.919
 6374SOL    HW220022   3.279   3.116   3.968
 6375SOL     OW20023   2.360   5.941   1.879
 6375SOL    HW120024   2.319   5.850   1.886
 6375SOL    HW220025   2.301   5.999   1.822
 6376SOL     OW20026   1.310   1.642   5.225
 6376SOL    HW120027   1.308   1.616   5.128
 6376SOL    HW220028   1.256   1.725   5.238
 6377SOL     OW20029   0.958   2.392   3.888
 6377SOL    HW120030   0.879   2.333   3.873
 6377SOL    HW220031   0.933   2.487   3.867
 6378SOL     OW20032   4.222   4.973   4.008
 6378SOL    HW120033   4.176   4.916   4.076
 6378SOL    HW220034   4.183   4.955   3.918
 6379SOL     OW20035   2.565   4.585   1.754
 6379SOL    HW120036   2.629   4.661   1.765
 6379SOL    HW220037   2.616   4.503   1.726
 6380SOL     OW20038   1.474   0.866   6.243
 6380SOL    HW120039   1.442   0.928   6.315
 6380SOL    HW220040   1.549   0.811   6.279
 6381SOL     OW20041   3.626   3.182   2.515
 6381SOL    HW120042   3.588   3.271   2.541
 6381SOL    HW220043   3.690   3.194   2.439
 6382SOL     OW20044   1.379   4.981   4.723
 6382SOL    HW120045   1.383   4.917   4.799
 6382SOL    HW220046   1.284   4.990   4.692
 6383SOL     OW20047   3.744   1.578   4.248
 6383SOL    HW120048   3.741   1.631   4.163
 6383SOL    HW220049   3.747   1.641   4.325
 6384SOL     OW20050   6.936   4.171   1.759
 6384SOL    HW120051   6.942   4.271   1.758
 6384SOL    HW220052   6.966   4.138   1.849
 6385SOL     OW20053   1.201   5.838   5.765
 6385SOL    HW120054   1.167   5.745   5.747
 6385SOL    HW220055   1.142   5.905   5.721
 6386SOL     OW20056   2.075   5.394   2.543
 6386SOL    HW120057   2.023   5.463   2.593
 6386SOL    HW220058   2.051   5.303   2.575
 6387SOL     OW20059   6.036   0.845   5.027
 6387SOL    HW120060   6.117   0.903   5.018
 6387SOL    HW220061   5.974   0.885   5.094
 6388SOL     OW20062   2.300   4.582   2.681
 6388SOL    HW120063   2.341   4.673   2.677
 6388SOL    HW220064   2.218   4.584   2.738
 6389SOL     OW20065   1.537   4.196   1.118
 6389SOL    HW120066   1.611   4.171   1.056
 6389SOL    HW220067   1.468   4.248   1.067
 6390SOL     OW20068   0.318   3.257   4.746
 6390SOL    HW120069   0.382   3.188   4.714
 6390SOL    HW220070   0.263   3.289   4.669
 6391SOL     OW20071   3.916   0.477   0.388
 6391SOL    HW120072   3.915   0.389   0.435
 6391SOL    HW220073   3.832   0.487   0.335
 6392SOL     OW20074   1.571   5.947   4.365
 6392SOL    HW120075   1.607   5.890   4.291
 6392SOL    HW220076   1.475   5.967   4.348
 6393SOL     OW20077   4.717   1.232   6.906
 6393SOL    HW120078   4.674   1.238   6.996
 6393SOL    HW220079   4.677   1.156   6.855
 6394SOL     OW20080   4.026   5.614   1.906
 6394SOL    HW120081   3.966   5.636   1.983
 6394SOL    HW220082   4.119   5.601   1.939
 6395SOL     OW20083   5.349   2.041   0.195
 6395SOL    HW120084   5.329   2.044   0.097
 6395SOL    HW220085   5.417   1.970   0.214
 6396SOL     OW20086   6.289   2.748   6.589
 6396SOL    HW120087   6.258   2.656   6.609
 6396SOL    HW220088   6.326   2.790   6.672
 6397SOL     OW20089   6.520   0.860   0.713
 6397SOL    HW120090   6.543   0.944   0.663
 6397SOL    HW220091   6.536   0.781   0.653
 6398SOL     OW20092   4.326   0.658   1.546
 6398SOL    HW120093   4.354   0.753   1.562
 6398SOL    HW220094   4.362   0.627   1.458
 6399SOL     OW20095   1.040   6.409   6.393
 6399SOL    HW120096   1.041   6.313   6.422
 6399SOL    HW220097   0.949   6.433   6.358
 6400SOL     OW20098   2.799   4.796   4.622
 6400SOL    HW120099   2.897   4.777   4.632
 6400SOL    HW220100   2.749   4.742   4.689
 6401SOL     OW20101   0.372   5.186   5.771
 6401SOL    HW120102   0.407   5.107   5.721
 6401SOL    HW220103   0.447   5.248   5.794
 6402SOL     OW20104   2.045   3.171   3.198
 6402SOL    HW120105   2.017   3.128   3.112
 6402SOL    HW220106   2.106   3.109   3.247
 6403SOL     OW20107   0.372   6.263   1.869
 6403SOL    HW120108   0.408   6.282   1.777
 6403SOL    HW220109   0.409   6.330   1.933
 6404SOL     OW20110   5.079   0.878   2.462
 6404SOL    HW120111   5.168   0.876   2.416
 6404SOL    HW220112   5.021   0.805   2.427
 6405SOL     OW20113   3.605   0.353   1.536
 6405SOL    HW120114   3.615   0.264   1.579
 6405SOL    HW220115   3.520   0.395   1.565
 6406SOL     OW20116   2.507   1.866   3.300
 6406SOL    HW120117   2.585   1.928   3.311
 6406SOL    HW220118   2.488   1.852   3.203
 6407SOL     OW20119   4.563   6.363   6.822
 6407SOL    HW120120   4.564   6.428   6.899
 6407SOL    HW220121   4.533   6.274   6.855
 6408SOL     OW20122   5.632   2.413   1.014
 6408SOL    HW120123   5.626   2.365   1.101
 6408SOL    HW220124   5.563   2.378   0.951
 6409SOL     OW20125   0.978   5.182   1.599
 6409SOL    HW120126   0.954   5.144   1.688
 6409SOL    HW220127   1.000   5.279   1.608
 6410SOL     OW20128   0.349   0.224   1.578
 6410SOL    HW120129   0.442   0.190   1.592
 6410SOL    HW220130   0.352   0.307   1.523
 6411SOL     OW20131   1.214   1.671   3.165
 6411SOL    HW120132   1.291   1.728   3.139
 6411SOL    HW220133   1.245   1.596   3.223
 6412SOL     OW20134   5.997   2.250   4.711
 6412SOL    HW120135   5.993   2.189   4.632
 6412SOL    HW220136   5.907   2.254   4.755
 6413SOL     OW20137   0.481   5.023   1.146
 6413SOL    HW120138   0.406   5.086   1.166
 6413SOL    HW220139   0.487   5.010   1.047
 6414SOL     OW20140   5.960   0.469   3.262
 6414SOL    HW120141   5.973   0.529   3.341
 6414SOL    HW220142   6.047   0.426   3.239
 6415SOL     OW20143   1.188   1.439   1.800
 6415SOL    HW120144   1.228   1.372   1.737
 6415SOL    HW220145   1.111   1.397   1.849
 6416SOL     OW20146   2.714   6.253   6.523
 6416SOL    HW120147   2.663   6.190   6.582
 6416SOL    HW220148   2.770   6.200   6.459
 6417SOL     OW20149   0.165   5.644   4.207
 6417SOL    HW120150   0.084   5.681   4.160
 6417SOL    HW220151   0.144   5.631   4.304
 6418SOL     OW20152   6.900   5.100   2.195
 6418SOL    HW120153   6.869   5.067   2.284
 6418SOL    HW220154   6.823   5.098   2.131
 6419SOL     OW20155   2.432   2.513   0.317
 6419SOL    HW120156   2.520   2.501   0.363
 6419SOL    HW220157   2.438   2.587   0.251
 6420SOL     OW20158   0.515   2.262   0.206
 6420SOL    HW120159   0.483   2.309   0.124
 6420SOL    HW220160   0.464   2.177   0.217
 6421SOL     OW20161   5.417   1.516   0.324
 6421SOL    HW120162   5.362   1.600   0.319
 6421SOL    HW220163   5.423   1.474   0.233
 6422SOL     OW20164   5.559   2.626   2.787
 6422SOL    HW120165   5.572   2.526   2.782
 6422SOL    HW220166   5.469   2.650   2.752
 6423SOL     OW20167   5.252   3.966   0.771
 6423SOL    HW120168   5.208   3.954   0.682
 6423SOL    HW220169   5.182   3.971   0.842
 6424SOL     OW20170   6.034   3.449   5.103
 6424SOL    HW120171   6.007   3.475   5.010
 6424SOL    HW220172   6.131   3.426   5.104
 6425SOL     OW20173   0.518   5.852   1.058
 6425SOL    HW120174   0.589   5.896   1.003
 6425SOL    HW220175   0.444   5.821   0.997
 6426SOL     OW20176   6.223   3.192   3.059
 6426SOL    HW120177   6.221   3.290   3.039
 6426SOL    HW220178   6.144   3.148   3.017
 6427SOL     OW20179   0.568   3.438   5.979
 6427SOL    HW120180   0.652   3.437   6.033
 6427SOL    HW220181   0.589   3.462   5.884
 6428SOL     OW20182   6.191   3.862   4.890
 6428SOL    HW120183   6.261   3.801   4.854
 6428SOL    HW220184   6.106   3.852   4.837
 6429SOL     OW20185   1.140   1.619   5.453
 6429SOL    HW120186   1.053   1.649   5.414
 6429SOL    HW220187   1.215   1.650   5.394
 6430SOL     OW20188   6.290   2.574   0.376
 6430SOL    HW120189   6.249   2.489   0.344
 6430SOL    HW220190   6.366   2.553   0.438
 6431SOL     OW20191   5.931   1.133   2.234
 6431SOL    HW120192   5.955   1.058   2.172
 6431SOL    HW220193   5.835   1.125   2.260
 6432SOL     OW20194   6.094   3.894   0.580
 6432SOL    HW120195   6.030   3.971   0.581
 6432SOL    HW220196   6.096   3.851   0.671
 6433SOL     OW20197   2.007   3.514   1.601
 6433SOL    HW120198   1.995   3.551   1.508
 6433SOL    HW220199   2.067   3.434   1.597
 6434SOL     OW20200   1.614   6.176   0.532
 6434SOL    HW120201   1.633   6.204   0.626
 6434SOL    HW220202   1.571   6.086   0.533
 6435SOL     OW20203   5.402   3.519   1.099
 6435SOL    HW120204   5.374   3.590   1.035
 6435SOL    HW220205   5.324   3.461   1.121
 6436SOL     OW20206   2.199   2.183   1.076
 6436SOL    HW120207   2.288   2.160   1.035
 6436SOL    HW220208   2.159   2.260   1.027
 6437SOL     OW20209   0.264   1.373   1.137
 6437SOL    HW120210   0.217   1.396   1.052
 6437SOL    HW220211   0.361   1.399   1.129
 6438SOL     OW20212   0.762   3.196   4.946
 6438SOL    HW120213   0.731   3.237   4.860
 6438SOL    HW220214   0.786   3.100   4.931
 6439SOL     OW20215   0.078   6.236   2.691
 6439SOL    HW120216   0.032   6.324   2.690
 6439SOL    HW220217   0.152   6.237   2.759
 6440SOL     OW20218   0.562   0.474   2.100
 6440SOL    HW120219   0.600   0.554   2.145
 6440SOL    HW220220   0.505   0.503   2.023
 6441SOL     OW20221   5.156   1.734   3.455
 6441SOL    HW120222   5.194   1.825   3.468
 6441SOL    HW220223   5.067   1.729   3.501
 6442SOL     OW20224   1.717   1.656   3.763
 6442SOL    HW120225   1.622   1.682   3.778
 6442SOL    HW220226   1.729   1.628   3.668
 6443SOL     OW20227   2.263   0.382   0.986
 6443SOL    HW120228   2.242   0.293   1.027
 6443SOL    HW220229   2.232   0.382   0.891
 6444SOL     OW20230   1.037   1.379   2.539
 6444SOL    HW120231   1.133   1.353   2.550
 6444SOL    HW220232   1.030   1.452   2.470
 6445SOL     OW20233   3.288   4.717   6.242
 6445SOL    HW120234   3.208   4.696   6.298
 6445SOL    HW220235   3.258   4.759   6.156
 6446SOL     OW20236   0.151   1.119   0.835
 6446SOL    HW120237   0.122   1.025   0.814
 6446SOL    HW220238   0.098   1.154   0.913
 6447SOL     OW20239   1.827   1.056   3.506
 6447SOL    HW120240   1.906   1.088   3.558
 6447SOL    HW220241   1.826   0.956   3.504
 6448SOL     OW20242   6.504   2.598   2.873
 6448SOL    HW120243   6.501   2.655   2.955
 6448SOL    HW220244   6.421   2.613   2.819
 6449SOL     OW20245   4.191   2.188   0.540
 6449SOL    HW120246   4.239   2.266   0.579
 6449SOL    HW220247   4.227   2.169   0.449
 6450SOL     OW20248   6.551   2.456   0.250
 6450SOL    HW120249   6.557   2.373   0.195
 6450SOL    HW220250   6.501   2.526   0.200
 6451SOL     OW20251   2.727   6.105   4.184
 6451SOL    HW120252   2.736   6.048   4.265
 6451SOL    HW220253   2.633   6.099   4.149
 6452SOL     OW20254   3.288   6.381   4.140
 6452SOL    HW120255   3.385   6.372   4.116
 6452SOL    HW220256   3.239   6.422   4.063
 6453SOL     OW20257   2.144   4.887   6.955
 6453SOL    HW120258   2.118   4.798   6.917
 6453SOL    HW220259   2.133   4.957   6.885
 6454SOL     OW20260   3.849   0.820   4.615
 6454SOL    HW120261   3.894   0.736   4.584
 6454SOL    HW220262   3.911   0.871   4.674
 6455SOL     OW20263   6.613   3.488   0.448
 6455SOL    HW120264   6.544   3.467   0.379
 6455SOL    HW220265   6.683   3.416   0.448
 6456SOL     OW20266   6.319   1.836   4.356
 6456SOL    HW120267   6.291   1.744   4.385
 6456SOL    HW220268   6.242   1.881   4.311
 6457SOL     OW20269   5.448   3.420   2.169
 6457SOL    HW120270   5.428   3.513   2.199
 6457SOL    HW220271   5.462   3.419   2.070
 6458SOL     OW20272   1.213   5.905   3.742
 6458SOL    HW120273   1.217   5.874   3.647
 6458SOL    HW220274   1.122   5.888   3.779
 6459SOL     OW20275   6.001   4.476   6.997
 6459SOL    HW120276   6.068   4.433   0.031
 6459SOL    HW220277   6.008   4.437   6.906
 6460SOL     OW20278   3.667   4.859   1.554
 6460SOL    HW120279   3.721   4.800   1.494
 6460SOL    HW220280   3.644   4.944   1.507
 6461SOL     OW20281   3.321   5.645   5.219
 6461SOL    HW120282   3.361   5.733   5.245
 6461SOL    HW220283   3.236   5.660   5.169
 6462SOL     OW20284   2.146   3.798   2.452
 6462SOL    HW120285   2.183   3.849   2.530
 6462SOL    HW220286   2.218   3.743   2.411
 6463SOL     OW20287   1.787   3.196   6.098
 6463SOL    HW120288   1.734   3.243   6.028
 6463SOL    HW220289   1.789   3.251   6.182
 6464SOL     OW20290   1.087   4.847   2.001
 6464SOL    HW120291   1.148   4.768   1.999
 6464SOL    HW220292   1.070   4.874   2.096
 6465SOL     OW20293   6.432   0.573   2.681
 6465SOL    HW120294   6.353   0.543   2.627
 6465SOL    HW220295   6.410   0.568   2.778
 6466SOL     OW20296   6.425   2.761   4.163
 6466SOL    HW120297   6.482   2.766   4.246
 6466SOL    HW220298   6.414   2.666   4.135
 6467SOL     OW20299   3.601   0.183   6.172
 6467SOL    HW120300   3.582   0.159   6.076
 6467SOL    HW220301   3.529   0.145   6.230
 6468SOL     OW20302   6.370   4.681   1.850
 6468SOL    HW120303   6.433   4.608   1.877
 6468SOL    HW220304   6.311   4.705   1.927
 6469SOL     OW20305   6.131   1.935   5.942
 6469SOL    HW120306   6.048   1.945   5.997
 6469SOL    HW220307   6.151   1.837   5.930
 6470SOL     OW20308   6.645   6.298   4.678
 6470SOL    HW120309   6.615   6.279   4.584
 6470SOL    HW220310   6.571   6.342   4.728
 6471SOL     OW20311   6.316   6.442   5.089
 6471SOL    HW120312   6.305   6.343   5.100
 6471SOL    HW220313   6.314   6.486   5.179
 6472SOL     OW20314   1.616   6.556   1.788
 6472SOL    HW120315   1.625   6.653   1.813
 6472SOL    HW220316   1.589   6.549   1.692
 6473SOL     OW20317   2.207   1.200   5.608
 6473SOL    HW120318   2.117   1.185   5.648
 6473SOL    HW220319   2.277   1.187   5.678
 6474SOL     OW20320   1.894   3.328   6.449
 6474SOL    HW120321   1.977   3.354   6.400
 6474SOL    HW220322   1.820   3.390   6.424
 6475SOL     OW20323   4.163   5.246   4.034
 6475SOL    HW120324   4.086   5.251   4.098
 6475SOL    HW220325   4.162   5.157   3.988
 6476SOL     OW20326   5.018   5.912   3.083
 6476SOL    HW120327   4.997   5.976   3.010
 6476SOL    HW220328   5.111   5.927   3.115
 6477SOL     OW20329   6.541   6.243   7.015
 6477SOL    HW120330   6.586   6.157   0.015
 6477SOL    HW220331   6.486   6.276   0.065
 6478SOL     OW20332   4.153   6.078   1.148
 6478SOL    HW120333   4.135   6.021   1.068
 6478SOL    HW220334   4.244   6.058   1.184
 6479SOL     OW20335   2.839   5.729   2.911
 6479SOL    HW120336   2.936   5.745   2.895
 6479SOL    HW220337   2.794   5.814   2.937
 6480SOL     OW20338   2.512   0.657   0.467
 6480SOL    HW120339   2.438   0.701   0.418
 6480SOL    HW220340   2.507   0.558   0.454
 6481SOL     OW20341   4.727   0.663   1.370
 6481SOL    HW120342   4.665   0.593   1.405
 6481SOL    HW220343   4.741   0.650   1.272
 6482SOL     OW20344   0.315   0.174   5.583
 6482SOL    HW120345   0.395   0.231   5.562
 6482SOL    HW220346   0.318   0.147   5.679
 6483SOL     OW20347   1.512   4.976   1.896
 6483SOL    HW120348   1.514   4.881   1.866
 6483SOL    HW220349   1.546   4.983   1.990
 6484SOL     OW20350   4.527   0.038   3.053
 6484SOL    HW120351   4.545   0.075   2.962
 6484SOL    HW220352   4.428   0.035   3.068
 6485SOL     OW20353   0.335   2.886   2.680
 6485SOL    HW120354   0.377   2.887   2.589
 6485SOL    HW220355   0.290   2.798   2.695
 6486SOL     OW20356   1.259   2.881   2.983
 6486SOL    HW120357   1.242   2.894   3.081
 6486SOL    HW220358   1.208   2.801   2.951
 6487SOL     OW20359   6.062   5.534   3.362
 6487SOL    HW120360   6.099   5.541   3.270
 6487SOL    HW220361   6.135   5.544   3.429
 6488SOL     OW20362   3.282   5.152   4.160
 6488SOL    HW120363   3.281   5.060   4.197
 6488SOL    HW220364   3.302   5.217   4.234
 6489SOL     OW20365   2.557   1.728   6.582
 6489SOL    HW120366   2.599   1.686   6.662
 6489SOL    HW220367   2.574   1.670   6.502
 6490SOL     OW20368   5.007   1.678   0.293
 6490SOL    HW120369   4.940   1.625   0.241
 6490SOL    HW220370   4.972   1.695   0.385
 6491SOL     OW20371   5.585   1.146   5.694
 6491SOL    HW120372   5.613   1.071   5.634
 6491SOL    HW220373   5.611   1.233   5.653
 6492SOL     OW20374   6.393   5.737   6.040
 6492SOL    HW120375   6.429   5.701   6.126
 6492SOL    HW220376   6.383   5.837   6.048
 6493SOL     OW20377   0.231   7.007   5.043
 6493SOL    HW120378   0.216   6.928   4.982
 6493SOL    HW220379   0.145   0.030   5.055
 6494SOL     OW20380   0.309   2.321   2.876
 6494SOL    HW120381   0.228   2.310   2.933
 6494SOL    HW220382   0.319   2.243   2.815
 6495SOL     OW20383   5.360   4.794   1.757
 6495SOL    HW120384   5.398   4.870   1.703
 6495SOL    HW220385   5.262   4.787   1.738
 6496SOL     OW20386   0.483   6.356   3.164
 6496SOL    HW120387   0.443   6.436   3.120
 6496SOL    HW220388   0.509   6.289   3.095
 6497SOL     OW20389   0.573   6.597   1.491
 6497SOL    HW120390   0.538   6.678   1.538
 6497SOL    HW220391   0.579   6.616   1.393
 6498SOL     OW20392   1.491   3.496   4.321
 6498SOL    HW120393   1.587   3.503   4.294
 6498SOL    HW220394   1.485   3.470   4.417
 6499SOL     OW20395   6.547   1.514   3.394
 6499SOL    HW120396   6.472   1.575   3.421
 6499SOL    HW220397   6.623   1.568   3.359
 6500SOL     OW20398   5.693   4.716   2.287
 6500SOL    HW120399   5.763   4.722   2.358
 6500SOL    HW220400   5.638   4.799   2.287
 6501SOL     OW20401   6.660   4.319   0.705
 6501SOL    HW120402   6.674   4.405   0.754
 6501SOL    HW220403   6.564   4.290   0.714
 6502SOL     OW20404   0.653   5.509   1.321
 6502SOL    HW120405   0.720   5.515   1.394
 6502SOL    HW220406   0.666   5.585   1.256
 6503SOL     OW20407   4.390   0.600   3.952
 6503SOL    HW120408   4.340   0.584   3.867
 6503SOL    HW220409   4.390   0.698   3.973
 6504SOL     OW20410   2.262   2.103   0.516
 6504SOL    HW120411   2.330   2.031   0.502
 6504SOL    HW220412   2.239   2.146   0.429
 6505SOL     OW20413   5.628   5.392   0.778
 6505SOL    HW120414   5.654   5.488   0.774
 6505SOL    HW220415   5.663   5.352   0.863
 6506SOL     OW20416   2.113   1.019   1.434
 6506SOL    HW120417   2.174   1.039   1.511
 6506SOL    HW220418   2.043   1.090   1.428
 6507SOL     OW20419   2.985   1.084   1.822
 6507SOL    HW120420   3.013   1.155   1.887
 6507SOL    HW220421   3.062   1.062   1.762
 6508SOL     OW20422   1.663   2.559   1.920
 6508SOL    HW120423   1.680   2.515   1.831
 6508SOL    HW220424   1.749   2.568   1.969
 6509SOL     OW20425   1.420   3.082   3.895
 6509SOL    HW120426   1.408   3.175   3.931
 6509SOL    HW220427   1.481   3.085   3.817
 6510SOL     OW20428   6.331   4.394   6.311
 6510SOL    HW120429   6.286   4.460   6.251
 6510SOL    HW220430   6.422   4.428   6.335
 6511SOL     OW20431   0.138   6.651   5.852
 6511SOL    HW120432   0.126   6.738   5.804
 6511SOL    HW220433   0.138   6.667   5.950
 6512SOL     OW20434   5.244   6.188   3.915
 6512SOL    HW120435   5.290   6.203   3.827
 6512SOL    HW220436   5.276   6.103   3.955
 6513SOL     OW20437   1.180   6.718   3.302
 6513SOL    HW120438   1.160   6.727   3.204
 6513SOL    HW220439   1.277   6.734   3.317
 6514SOL     OW20440   3.009   0.521   3.573
 6514SOL    HW120441   2.912   0.499   3.583
 6514SOL    HW220442   3.057   0.494   3.657
 6515SOL     OW20443   1.242   0.805   3.659
 6515SOL    HW120444   1.154   0.810   3.612
 6515SOL    HW220445   1.316   0.827   3.594
 6516SOL     OW20446   1.418   0.992   5.535
 6516SOL    HW120447   1.390   0.952   5.622
 6516SOL    HW220448   1.471   1.075   5.552
 6517SOL     OW20449   2.476   2.155   1.040
 6517SOL    HW120450   2.556   2.100   1.016
 6517SOL    HW220451   2.458   2.147   1.138
 6518SOL     OW20452   6.024   6.404   1.039
 6518SOL    HW120453   6.071   6.360   0.962
 6518SOL    HW220454   5.937   6.443   1.007
 6519SOL     OW20455   0.882   1.904   3.764
 6519SOL    HW120456   0.871   1.912   3.665
 6519SOL    HW220457   0.899   1.808   3.788
 6520SOL     OW20458   5.707   5.240   0.985
 6520SOL    HW120459   5.629   5.192   1.025
 6520SOL    HW220460   5.760   5.284   1.058
 6521SOL     OW20461   1.260   2.417   5.618
 6521SOL    HW120462   1.260   2.343   5.685
 6521SOL    HW220463   1.322   2.394   5.543
 6522SOL     OW20464   2.533   4.777   4.425
 6522SOL    HW120465   2.475   4.855   4.449
 6522SOL    HW220466   2.542   4.716   4.504
 6523SOL     OW20467   2.080   2.280   0.663
 6523SOL    HW120468   2.080   2.377   0.638
 6523SOL    HW220469   2.128   2.228   0.592
 6524SOL     OW20470   4.034   2.551   5.482
 6524SOL    HW120471   3.941   2.550   5.445
 6524SOL    HW220472   4.033   2.599   5.570
 6525SOL     OW20473   0.878   2.440   4.217
 6525SOL    HW120474   0.850   2.367   4.279
 6525SOL    HW220475   0.804   2.461   4.154
 6526SOL     OW20476   1.591   6.050   3.471
 6526SOL    HW120477   1.627   5.958   3.488
 6526SOL    HW220478   1.598   6.105   3.554
 6527SOL     OW20479   2.085   1.284   4.516
 6527SOL    HW120480   2.090   1.302   4.614
 6527SOL    HW220481   1.998   1.316   4.481
 6528SOL     OW20482   0.243   0.671   3.417
 6528SOL    HW120483   0.287   0.601   3.473
 6528SOL    HW220484   0.310   0.709   3.353
 6529SOL     OW20485   6.268   3.031   2.480
 6529SOL    HW120486   6.235   3.084   2.402
 6529SOL    HW220487   6.192   3.014   2.543
 6530SOL     OW20488   0.156   1.300   0.065
 6530SOL    HW120489   0.171   1.350   7.005
 6530SOL    HW220490   0.068   1.254   0.062
 6531SOL     OW20491   5.228   2.196   5.699
 6531SOL    HW120492   5.240   2.131   5.625
 6531SOL    HW220493   5.299   2.266   5.695
 6532SOL     OW20494   1.379   1.558   6.893
 6532SOL    HW120495   1.460   1.539   6.839
 6532SOL    HW220496   1.325   1.475   6.903
 6533SOL     OW20497   5.026   0.054   0.675
 6533SOL    HW120498   4.937   0.079   0.636
 6533SOL    HW220499   5.056   0.125   0.737
 6534SOL     OW20500   3.277   2.583   6.960
 6534SOL    HW120501   3.276   2.671   6.912
 6534SOL    HW220502   3.270   2.599   0.032
 6535SOL     OW20503   2.133   3.400   5.257
 6535SOL    HW120504   2.179   3.478   5.214
 6535SOL    HW220505   2.195   3.357   5.323
 6536SOL     OW20506   0.288   1.460   0.231
 6536SOL    HW120507   0.241   1.396   0.170
 6536SOL    HW220508   0.226   1.489   0.304
 6537SOL     OW20509   0.340   0.676   6.471
 6537SOL    HW120510   0.336   0.674   6.371
 6537SOL    HW220511   0.327   0.583   6.506
 6538SOL     OW20512   2.940   2.620   5.594
 6538SOL    HW120513   2.973   2.563   5.519
 6538SOL    HW220514   2.852   2.584   5.627
 6539SOL     OW20515   3.219   1.187   6.808
 6539SOL    HW120516   3.120   1.171   6.808
 6539SOL    HW220517   3.266   1.100   6.792
 6540SOL     OW20518   3.913   2.186   2.865
 6540SOL    HW120519   4.006   2.173   2.830
 6540SOL    HW220520   3.915   2.241   2.948
 6541SOL     OW20521   2.864   2.300   5.192
 6541SOL    HW120522   2.786   2.315   5.131
 6541SOL    HW220523   2.949   2.320   5.143
 6542SOL     OW20524   4.759   4.563   2.605
 6542SOL    HW120525   4.827   4.513   2.553
 6542SOL    HW220526   4.671   4.516   2.599
 6543SOL     OW20527   1.480   6.338   5.895
 6543SOL    HW120528   1.480   6.301   5.988
 6543SOL    HW220529   1.461   6.264   5.830
 6544SOL     OW20530   0.111   5.853   2.769
 6544SOL    HW120531   0.078   5.797   2.693
 6544SOL    HW220532   0.034   5.891   2.820
 6545SOL     OW20533   6.093   2.910   6.462
 6545SOL    HW120534   6.121   2.939   6.370
 6545SOL    HW220535   6.170   2.865   6.508
 6546SOL     OW20536   3.461   4.879   6.659
 6546SOL    HW120537   3.374   4.915   6.626
 6546SOL    HW220538   3.528   4.878   6.584
 6547SOL     OW20539   4.321   1.203   6.363
 6547SOL    HW120540   4.388   1.190   6.436
 6547SOL    HW220541   4.369   1.215   6.276
 6548SOL     OW20542   4.995   4.072   6.036
 6548SOL    HW120543   4.948   4.148   5.991
 6548SOL    HW220544   4.955   4.058   6.127
 6549SOL     OW20545   2.626   2.143   2.614
 6549SOL    HW120546   2.592   2.053   2.586
 6549SOL    HW220547   2.705   2.132   2.675
 6550SOL     OW20548   0.949   5.988   2.474
 6550SOL    HW120549   0.854   6.009   2.499
 6550SOL    HW220550   0.965   6.015   2.379
 6551SOL     OW20551   3.678   5.292   1.985
 6551SOL    HW120552   3.626   5.212   2.017
 6551SOL    HW220553   3.645   5.374   2.032
 6552SOL     OW20554   4.628   4.855   5.716
 6552SOL    HW120555   4.706   4.905   5.678
 6552SOL    HW220556   4.635   4.855   5.816
 6553SOL     OW20557   0.288   3.407   3.310
 6553SOL    HW120558   0.331   3.332   3.259
 6553SOL    HW220559   0.357   3.453   3.366
 6554SOL     OW20560   6.925   3.833   4.642
 6554SOL    HW120561   6.831   3.799   4.639
 6554SOL    HW220562   6.974   3.800   4.561
 6555SOL     OW20563   0.845   1.643   1.125
 6555SOL    HW120564   0.935   1.643   1.167
 6555SOL    HW220565   0.830   1.557   1.077
 6556SOL     OW20566   3.746   6.936   3.312
 6556SOL    HW120567   3.752   6.986   3.398
 6556SOL    HW220568   3.812   6.974   3.246
 6557SOL     OW20569   5.101   5.613   1.030
 6557SOL    HW120570   5.006   5.589   1.006
 6557SOL    HW220571   5.109   5.619   1.129
 6558SOL     OW20572   6.803   6.753   5.669
 6558SOL    HW120573   6.782   6.675   5.728
 6558SOL    HW220574   6.902   6.760   5.659
 6559SOL     OW20575   2.821   3.872   1.250
 6559SOL    HW120576   2.831   3.884   1.151
 6559SOL    HW220577   2.912   3.871   1.292
 6560SOL     OW20578   4.230   1.563   0.999
 6560SOL    HW120579   4.306   1.539   1.060
 6560SOL    HW220580   4.212   1.661   1.006
 6561SOL     OW20581   3.586   3.885   4.483
 6561SOL    HW120582   3.643   3.949   4.430
 6561SOL    HW220583   3.615   3.791   4.464
 6562SOL     OW20584   0.640   4.450   5.226
 6562SOL    HW120585   0.656   4.495   5.138
 6562SOL    HW220586   0.602   4.517   5.290
 6563SOL     OW20587   0.910   5.676   2.278
 6563SOL    HW120588   0.883   5.745   2.211
 6563SOL    HW220589   1.009   5.664   2.276
 6564SOL     OW20590   1.810   5.017   3.170
 6564SOL    HW120591   1.855   5.100   3.204
 6564SOL    HW220592   1.771   4.967   3.247
 6565SOL     OW20593   6.783   3.563   4.954
 6565SOL    HW120594   6.745   3.476   4.923
 6565SOL    HW220595   6.736   3.639   4.909
 6566SOL     OW20596   4.050   1.355   0.586
 6566SOL    HW120597   4.036   1.280   0.651
 6566SOL    HW220598   4.106   1.426   0.629
 6567SOL     OW20599   6.290   2.382   0.703
 6567SOL    HW120600   6.371   2.417   0.656
 6567SOL    HW220601   6.297   2.404   0.801
 6568SOL     OW20602   5.333   3.768   1.287
 6568SOL    HW120603   5.337   3.790   1.189
 6568SOL    HW220604   5.333   3.669   1.299
 6569SOL     OW20605   1.426   4.078   5.343
 6569SOL    HW120606   1.523   4.102   5.330
 6569SOL    HW220607   1.413   4.046   5.437
 6570SOL     OW20608   0.021   4.025   1.959
 6570SOL    HW120609   0.013   3.940   2.012
 6570SOL    HW220610   0.103   4.021   1.902
 6571SOL     OW20611   1.972   5.406   3.925
 6571SOL    HW120612   2.002   5.373   3.835
 6571SOL    HW220613   1.872   5.410   3.928
 6572SOL     OW20614   2.077   3.808   5.712
 6572SOL    HW120615   2.033   3.818   5.801
 6572SOL    HW220616   2.165   3.761   5.723
 6573SOL     OW20617   1.734   1.828   1.730
 6573SOL    HW120618   1.732   1.927   1.715
 6573SOL    HW220619   1.794   1.786   1.662
 6574SOL     OW20620   2.071   4.560   4.650
 6574SOL    HW120621   2.153   4.577   4.704
 6574SOL    HW220622   2.060   4.461   4.636
 6575SOL     OW20623   1.611   1.878   2.531
 6575SOL    HW120624   1.608   1.977   2.516
 6575SOL    HW220625   1.561   1.855   2.614
 6576SOL     OW20626   0.218   6.177   4.135
 6576SOL    HW120627   0.256   6.088   4.107
 6576SOL    HW220628   0.293   6.241   4.153
 6577SOL     OW20629   0.274   3.757   5.964
 6577SOL    HW120630   0.339   3.761   5.889
 6577SOL    HW220631   0.187   3.797   5.935
 6578SOL     OW20632   6.181   5.770   3.929
 6578SOL    HW120633   6.131   5.732   3.852
 6578SOL    HW220634   6.278   5.746   3.922
 6579SOL     OW20635   0.415   3.781   4.052
 6579SOL    HW120636   0.387   3.869   4.088
 6579SOL    HW220637   0.469   3.732   4.120
 6580SOL     OW20638   5.717   2.141   0.654
 6580SOL    HW120639   5.737   2.190   0.569
 6580SOL    HW220640   5.789   2.158   0.721
 6581SOL     OW20641   2.767   2.281   5.447
 6581SOL    HW120642   2.746   2.357   5.387
 6581SOL    HW220643   2.838   2.224   5.406
 6582SOL     OW20644   6.549   0.662   2.436
 6582SOL    HW120645   6.467   0.657   2.495
 6582SOL    HW220646   6.532   0.727   2.362
 6583SOL     OW20647   6.823   0.968   6.380
 6583SOL    HW120648   6.906   0.957   6.326
 6583SOL    HW220649   6.843   0.953   6.477
 6584SOL     OW20650   5.721   2.455   0.617
 6584SOL    HW120651   5.800   2.488   0.668
 6584SOL    HW220652   5.657   2.531   0.603
 6585SOL     OW20653   2.769   0.715   2.553
 6585SOL    HW120654   2.803   0.628   2.518
 6585SOL    HW220655   2.834   0.788   2.531
 6586SOL     OW20656   5.901   1.932   0.004
 6586SOL    HW120657   5.980   1.920   6.971
 6586SOL    HW220658   5.932   1.966   0.093
 6587SOL     OW20659   1.296   5.688   1.986
 6587SOL    HW120660   1.394   5.701   1.973
 6587SOL    HW220661   1.280   5.612   2.049
 6588SOL     OW20662   3.332   2.716   0.457
 6588SOL    HW120663   3.281   2.782   0.513
 6588SOL    HW220664   3.427   2.713   0.486
 6589SOL     OW20665   5.203   1.224   5.775
 6589SOL    HW120666   5.209   1.203   5.872
 6589SOL    HW220667   5.278   1.285   5.749
 6590SOL     OW20668   6.247   1.943   5.577
 6590SOL    HW120669   6.172   1.918   5.516
 6590SOL    HW220670   6.222   1.920   5.671
 6591SOL     OW20671   4.968   0.593   2.717
 6591SOL    HW120672   4.931   0.622   2.629
 6591SOL    HW220673   5.061   0.630   2.728
 6592SOL     OW20674   5.966   4.774   5.473
 6592SOL    HW120675   5.958   4.783   5.374
 6592SOL    HW220676   5.984   4.679   5.497
 6593SOL     OW20677   5.387   1.163   3.214
 6593SOL    HW120678   5.329   1.243   3.195
 6593SOL    HW220679   5.411   1.162   3.311
 6594SOL     OW20680   5.479   0.904   6.852
 6594SOL    HW120681   5.443   0.973   6.789
 6594SOL    HW220682   5.414   0.889   6.926
 6595SOL     OW20683   3.574   2.591   6.321
 6595SOL    HW120684   3.505   2.601   6.393
 6595SOL    HW220685   3.533   2.545   6.242
 6596SOL     OW20686   2.450   6.000   4.932
 6596SOL    HW120687   2.491   5.982   5.021
 6596SOL    HW220688   2.350   6.002   4.941
 6597SOL     OW20689   0.367   4.072   6.682
 6597SOL    HW120690   0.428   4.123   6.742
 6597SOL    HW220691   0.272   4.086   6.711
 6598SOL     OW20692   2.865   6.303   4.111
 6598SOL    HW120693   2.961   6.280   4.126
 6598SOL    HW220694   2.807   6.225   4.138
 6599SOL     OW20695   4.200   3.625   6.627
 6599SOL    HW120696   4.178   3.685   6.705
 6599SOL    HW220697   4.250   3.545   6.660
 6600SOL     OW20698   4.104   4.790   5.143
 6600SOL    HW120699   4.123   4.793   5.045
 6600SOL    HW220700   4.006   4.791   5.159
 6601SOL     OW20701   1.029   1.246   1.909
 6601SOL    HW120702   1.038   1.212   2.003
 6601SOL    HW220703   1.032   1.170   1.845
 6602SOL     OW20704   5.799   1.435   1.143
 6602SOL    HW120705   5.726   1.461   1.206
 6602SOL    HW220706   5.819   1.337   1.154
 6603SOL     OW20707   2.691   1.922   1.394
 6603SOL    HW120708   2.741   2.005   1.369
 6603SOL    HW220709   2.697   1.908   1.493
 6604SOL     OW20710   3.857   5.752   5.197
 6604SOL    HW120711   3.837   5.784   5.290
 6604SOL    HW220712   3.944   5.790   5.166
 6605SOL     OW20713   5.320   6.275   0.961
 6605SOL    HW120714   5.363   6.220   0.889
 6605SOL    HW220715   5.334   6.231   1.049
 6606SOL     OW20716   0.479   2.326   3.100
 6606SOL    HW120717   0.453   2.321   3.004
 6606SOL    HW220718   0.464   2.419   3.134
 6607SOL     OW20719   1.376   3.159   2.513
 6607SOL    HW120720   1.413   3.146   2.605
 6607SOL    HW220721   1.432   3.108   2.447
 6608SOL     OW20722   5.022   4.393   4.808
 6608SOL    HW120723   4.928   4.422   4.787
 6608SOL    HW220724   5.065   4.358   4.726
 6609SOL     OW20725   5.118   2.307   6.725
 6609SOL    HW120726   5.075   2.273   6.809
 6609SOL    HW220727   5.050   2.313   6.652
 6610SOL     OW20728   3.452   1.549   0.825
 6610SOL    HW120729   3.539   1.597   0.836
 6610SOL    HW220730   3.380   1.616   0.807
 6611SOL     OW20731   5.138   3.825   2.642
 6611SOL    HW120732   5.043   3.819   2.612
 6611SOL    HW220733   5.148   3.776   2.729
 6612SOL     OW20734   0.703   5.793   6.213
 6612SOL    HW120735   0.792   5.823   6.247
 6612SOL    HW220736   0.716   5.729   6.138
 6613SOL     OW20737   6.040   4.818   0.706
 6613SOL    HW120738   6.112   4.872   0.748
 6613SOL    HW220739   5.956   4.826   0.759
 6614SOL     OW20740   6.000   4.278   6.008
 6614SOL    HW120741   6.095   4.245   6.007
 6614SOL    HW220742   5.975   4.308   5.916
 6615SOL     OW20743   0.062   3.650   5.081
 6615SOL    HW120744   0.158   3.673   5.065
 6615SOL    HW220745   0.037   3.570   5.026
 6616SOL     OW20746   4.793   1.183   4.023
 6616SOL    HW120747   4.785   1.119   4.099
 6616SOL    HW220748   4.702   1.213   3.995
 6617SOL     OW20749   4.487   6.977   4.480
 6617SOL    HW120750   4.452   0.044   4.467
 6617SOL    HW220751   4.411   6.913   4.479
 6618SOL     OW20752   0.327   4.474   0.801
 6618SOL    HW120753   0.339   4.569   0.830
 6618SOL    HW220754   0.249   4.433   0.848
 6619SOL     OW20755   6.920   6.181   2.116
 6619SOL    HW120756   6.882   6.270   2.139
 6619SOL    HW220757   7.017   6.189   2.097
 6620SOL     OW20758   4.718   3.230   5.572
 6620SOL    HW120759   4.621   3.229   5.595
 6620SOL    HW220760   4.732   3.286   5.490
 6621SOL     OW20761   3.150   2.890   0.606
 6621SOL    HW120762   3.077   2.838   0.562
 6621SOL    HW220763   3.133   2.895   0.704
 6622SOL     OW20764   5.832   5.429   0.215
 6622SOL    HW120765   5.841   5.350   0.154
 6622SOL    HW220766   5.772   5.405   0.292
 6623SOL     OW20767   3.373   4.173   2.591
 6623SOL    HW120768   3.299   4.107   2.576
 6623SOL    HW220769   3.382   4.232   2.511
 6624SOL     OW20770   4.788   5.202   4.228
 6624SOL    HW120771   4.875   5.165   4.195
 6624SOL    HW220772   4.791   5.302   4.226
 6625SOL     OW20773   5.520   6.644   6.922
 6625SOL    HW120774   5.606   6.694   6.931
 6625SOL    HW220775   5.455   6.677   6.991
 6626SOL     OW20776   2.713   5.065   3.943
 6626SOL    HW120777   2.683   5.025   4.030
 6626SOL    HW220778   2.700   4.999   3.869
 6627SOL     OW20779   1.169   0.902   1.521
 6627SOL    HW120780   1.121   0.822   1.484
 6627SOL    HW220781   1.239   0.932   1.456
 6628SOL     OW20782   4.165   6.145   3.638
 6628SOL    HW120783   4.263   6.132   3.652
 6628SOL    HW220784   4.134   6.225   3.689
 6629SOL     OW20785   2.820   3.977   0.297
 6629SOL    HW120786   2.759   3.967   0.218
 6629SOL    HW220787   2.904   3.926   0.280
 6630SOL     OW20788   3.883   1.003   6.125
 6630SOL    HW120789   3.944   1.082   6.136
 6630SOL    HW220790   3.860   0.965   6.215
 6631SOL     OW20791   3.433   0.029   1.129
 6631SOL    HW120792   3.365   0.014   1.201
 6631SOL    HW220793   3.387   0.035   1.040
 6632SOL     OW20794   6.002   3.459   2.117
 6632SOL    HW120795   5.933   3.387   2.106
 6632SOL    HW220796   6.059   3.439   2.196
 6633SOL     OW20797   1.092   6.186   2.824
 6633SOL    HW120798   1.166   6.244   2.858
 6633SOL    HW220799   1.004   6.223   2.854
 6634SOL     OW20800   6.583   1.930   5.872
 6634SOL    HW120801   6.559   2.007   5.931
 6634SOL    HW220802   6.511   1.861   5.876
 6635SOL     OW20803   4.717   5.187   3.615
 6635SOL    HW120804   4.715   5.282   3.647
 6635SOL    HW220805   4.787   5.177   3.544
 6636SOL     OW20806   1.718   3.493   3.102
 6636SOL    HW120807   1.697   3.494   3.004
 6636SOL    HW220808   1.673   3.570   3.146
 6637SOL     OW20809   6.780   3.141   1.212
 6637SOL    HW120810   6.694   3.191   1.222
 6637SOL    HW220811   6.846   3.199   1.164
 6638SOL     OW20812   1.872   0.776   6.731
 6638SOL    HW120813   1.842   0.790   6.637
 6638SOL    HW220814   1.928   0.854   6.760
 6639SOL     OW20815   3.982   5.325   6.190
 6639SOL    HW120816   3.892   5.348   6.227
 6639SOL    HW220817   4.020   5.247   6.239
 6640SOL     OW20818   5.946   4.177   2.950
 6640SOL    HW120819   5.921   4.164   3.046
 6640SOL    HW220820   6.037   4.139   2.934
 6641SOL     OW20821   2.274   5.677   6.638
 6641SOL    HW120822   2.297   5.666   6.541
 6641SOL    HW220823   2.280   5.588   6.683
 6642SOL     OW20824   6.886   6.293   5.826
 6642SOL    HW120825   6.964   6.292   5.888
 6642SOL    HW220826   6.814   6.233   5.862
 6643SOL     OW20827   4.182   5.529   0.155
 6643SOL    HW120828   4.128   5.486   0.227
 6643SOL    HW220829   4.126   5.596   0.107
 6644SOL     OW20830   0.915   3.569   1.555
 6644SOL    HW120831   0.854   3.506   1.604
 6644SOL    HW220832   0.969   3.621   1.621
 6645SOL     OW20833   0.073   4.676   5.476
 6645SOL    HW120834   0.166   4.700   5.505
 6645SOL    HW220835   0.007   4.727   5.532
 6646SOL     OW20836   1.794   5.372   3.649
 6646SOL    HW120837   1.851   5.293   3.628
 6646SOL    HW220838   1.702   5.343   3.673
 6647SOL     OW20839   4.413   1.804   1.697
 6647SOL    HW120840   4.423   1.743   1.618
 6647SOL    HW220841   4.489   1.790   1.760
 6648SOL     OW20842   4.146   5.790   2.326
 6648SOL    HW120843   4.171   5.859   2.258
 6648SOL    HW220844   4.065   5.741   2.296
 6649SOL     OW20845   4.322   1.479   5.529
 6649SOL    HW120846   4.287   1.495   5.437
 6649SOL    HW220847   4.420   1.460   5.524
 6650SOL     OW20848   3.666   1.290   3.998
 6650SOL    HW120849   3.733   1.324   4.064
 6650SOL    HW220850   3.601   1.363   3.975
 6651SOL     OW20851   0.507   1.623   0.711
 6651SOL    HW120852   0.603   1.643   0.692
 6651SOL    HW220853   0.493   1.524   0.708
 6652SOL     OW20854   1.004   5.114   3.469
 6652SOL    HW120855   0.935   5.042   3.460
 6652SOL    HW220856   1.058   5.119   3.385
 6653SOL     OW20857   3.812   3.996   3.334
 6653SOL    HW120858   3.792   4.080   3.385
 6653SOL    HW220859   3.864   3.934   3.393
 6654SOL     OW20860   1.638   3.762   1.435
 6654SOL    HW120861   1.710   3.722   1.378
 6654SOL    HW220862   1.656   3.740   1.531
 6655SOL     OW20863   1.575   1.078   0.050
 6655SOL    HW120864   1.587   1.120   0.140
 6655SOL    HW220865   1.646   1.112   7.014
 6656SOL     OW20866   6.612   2.430   1.863
 6656SOL    HW120867   6.549   2.491   1.817
 6656SOL    HW220868   6.586   2.422   1.960
 6657SOL     OW20869   3.164   5.093   5.515
 6657SOL    HW120870   3.252   5.052   5.536
 6657SOL    HW220871   3.090   5.033   5.548
 6658SOL     OW20872   6.648   0.107   5.968
 6658SOL    HW120873   6.577   0.130   6.034
 6658SOL    HW220874   6.620   0.026   5.916
 6659SOL     OW20875   1.817   2.942   6.821
 6659SOL    HW120876   1.778   2.853   6.799
 6659SOL    HW220877   1.917   2.936   6.821
 6660SOL     OW20878   0.116   6.529   2.932
 6660SOL    HW120879   0.026   6.571   2.928
 6660SOL    HW220880   0.166   6.550   2.848
 6661SOL     OW20881   6.770   6.871   4.331
 6661SOL    HW120882   6.864   6.873   4.365
 6661SOL    HW220883   6.707   6.858   4.407
 6662SOL     OW20884   0.852   3.940   6.064
 6662SOL    HW120885   0.787   3.905   5.997
 6662SOL    HW220886   0.806   3.956   6.151
 6663SOL     OW20887   0.428   5.130   2.053
 6663SOL    HW120888   0.496   5.199   2.029
 6663SOL    HW220889   0.347   5.141   1.996
 6664SOL     OW20890   6.978   2.427   2.098
 6664SOL    HW120891   6.982   2.416   2.197
 6664SOL    HW220892   0.007   2.356   2.054
 6665SOL     OW20893   2.057   6.315   3.618
 6665SOL    HW120894   2.052   6.348   3.712
 6665SOL    HW220895   1.966   6.285   3.588
 6666SOL     OW20896   5.168   0.937   0.274
 6666SOL    HW120897   5.070   0.958   0.278
 6666SOL    HW220898   5.214   0.978   0.353
 6667SOL     OW20899   5.651   4.595   5.270
 6667SOL    HW120900   5.630   4.689   5.300
 6667SOL    HW220901   5.610   4.580   5.180
 6668SOL     OW20902   6.321   6.032   1.162
 6668SOL    HW120903   6.229   6.067   1.146
 6668SOL    HW220904   6.346   5.969   1.088
 6669SOL     OW20905   0.767   5.143   3.075
 6669SOL    HW120906   0.813   5.193   3.148
 6669SOL    HW220907   0.807   5.052   3.066
 6670SOL     OW20908   4.891   4.899   6.916
 6670SOL    HW120909   4.926   4.901   6.822
 6670SOL    HW220910   4.968   4.898   6.980
 6671SOL     OW20911   0.506   2.481   5.293
 6671SOL    HW120912   0.496   2.405   5.357
 6671SOL    HW220913   0.574   2.458   5.224
 6672SOL     OW20914   6.969   0.821   4.911
 6672SOL    HW120915   6.918   0.900   4.875
 6672SOL    HW220916   7.005   0.843   5.002
 6673SOL     OW20917   4.125   6.214   1.748
 6673SOL    HW120918   4.167   6.125   1.727
 6673SOL    HW220919   4.041   6.224   1.694
 6674SOL     OW20920   0.843   6.298   5.012
 6674SOL    HW120921   0.872   6.393   4.999
 6674SOL    HW220922   0.879   6.241   4.938
 6675SOL     OW20923   6.717   6.159   6.601
 6675SOL    HW120924   6.696   6.237   6.659
 6675SOL    HW220925   6.632   6.121   6.563
 6676SOL     OW20926   0.241   1.774   0.730
 6676SOL    HW120927   0.246   1.794   0.632
 6676SOL    HW220928   0.318   1.717   0.757
 6677SOL     OW20929   0.466   5.053   0.815
 6677SOL    HW120930   0.503   5.143   0.838
 6677SOL    HW220931   0.434   5.054   0.720
 6678SOL     OW20932   0.578   3.226   4.160
 6678SOL    HW120933   0.543   3.320   4.163
 6678SOL    HW220934   0.661   3.220   4.214
 6679SOL     OW20935   2.378   1.347   4.756
 6679SOL    HW120936   2.375   1.340   4.656
 6679SOL    HW220937   2.433   1.273   4.793
 6680SOL     OW20938   2.600   0.581   6.328
 6680SOL    HW120939   2.598   0.483   6.348
 6680SOL    HW220940   2.642   0.596   6.239
 6681SOL     OW20941   5.573   5.614   5.975
 6681SOL    HW120942   5.498   5.679   5.986
 6681SOL    HW220943   5.586   5.596   5.877
 6682SOL     OW20944   6.572   5.153   2.241
 6682SOL    HW120945   6.641   5.170   2.312
 6682SOL    HW220946   6.528   5.065   2.259
 6683SOL     OW20947   4.886   3.004   4.109
 6683SOL    HW120948   4.967   2.945   4.099
 6683SOL    HW220949   4.887   3.073   4.037
 6684SOL     OW20950   1.693   1.120   2.149
 6684SOL    HW120951   1.689   1.216   2.123
 6684SOL    HW220952   1.649   1.065   2.077
 6685SOL     OW20953   5.690   2.751   0.058
 6685SOL    HW120954   5.699   2.660   0.017
 6685SOL    HW220955   5.698   2.821   7.013
 6686SOL     OW20956   5.381   4.489   3.831
 6686SOL    HW120957   5.298   4.493   3.886
 6686SOL    HW220958   5.415   4.395   3.827
 6687SOL     OW20959   0.663   0.481   0.491
 6687SOL    HW120960   0.662   0.395   0.542
 6687SOL    HW220961   0.701   0.467   0.400
 6688SOL     OW20962   0.777   5.036   2.645
 6688SOL    HW120963   0.821   5.109   2.699
 6688SOL    HW220964   0.772   4.953   2.700
 6689SOL     OW20965   5.174   4.154   0.037
 6689SOL    HW120966   5.262   4.113   0.015
 6689SOL    HW220967   5.185   4.253   0.049
 6690SOL     OW20968   0.443   1.360   0.622
 6690SOL    HW120969   0.344   1.363   0.632
 6690SOL    HW220970   0.468   1.394   0.531
 6691SOL     OW20971   1.289   5.383   0.900
 6691SOL    HW120972   1.227   5.454   0.932
 6691SOL    HW220973   1.252   5.293   0.923
 6692SOL     OW20974   4.854   3.506   6.794
 6692SOL    HW120975   4.850   3.604   6.774
 6692SOL    HW220976   4.803   3.455   6.724
 6693SOL     OW20977   4.238   3.510   6.151
 6693SOL    HW120978   4.315   3.560   6.190
 6693SOL    HW220979   4.271   3.450   6.078
 6694SOL     OW20980   3.171   6.010   6.946
 6694SOL    HW120981   3.167   5.921   6.900
 6694SOL    HW220982   3.078   6.040   6.967
 6695SOL     OW20983   1.670   1.419   0.170
 6695SOL    HW120984   1.753   1.428   0.115
 6695SOL    HW220985   1.610   1.497   0.153
 6696SOL     OW20986   1.507   2.106   1.097
 6696SOL    HW120987   1.455   2.026   1.126
 6696SOL    HW220988   1.600   2.102   1.134
 6697SOL     OW20989   5.313   3.297   4.493
 6697SOL    HW120990   5.302   3.236   4.571
 6697SOL    HW220991   5.342   3.387   4.525
 6698SOL     OW20992   2.724   4.237   6.295
 6698SOL    HW120993   2.727   4.155   6.238
 6698SOL    HW220994   2.817   4.261   6.324
 6699SOL     OW20995   1.921   3.361   6.742
 6699SOL    HW120996   2.011   3.317   6.738
 6699SOL    HW220997   1.867   3.333   6.664
 6700SOL     OW20998   0.335   6.355   6.531
 6700SOL    HW120999   0.364   6.319   6.620
 6700SOL    HW221000   0.237   6.342   6.520
 6701SOL     OW21001   1.376   2.511   0.534
 6701SOL    HW121002   1.289   2.462   0.532
 6701SOL    HW221003   1.361   2.603   0.571
 6702SOL     OW21004   2.499   3.090   1.060
 6702SOL    HW121005   2.553   3.020   1.014
 6702SOL    HW221006   2.541   3.180   1.044
 6703SOL     OW21007   0.243   2.373   0.212
 6703SOL    HW121008   0.167   2.356   0.276
 6703SOL    HW221009   0.329   2.374   0.263
 6704SOL     OW21010   5.170   3.722   2.895
 6704SOL    HW121011   5.092   3.678   2.939
 6704SOL    HW221012   5.250   3.716   2.955
 6705SOL     OW21013   5.271   1.543   1.418
 6705SOL    HW121014   5.216   1.483   1.477
 6705SOL    HW221015   5.227   1.552   1.329
 6706SOL     OW21016   1.523   6.647   0.041
 6706SOL    HW121017   1.470   6.588   0.102
 6706SOL    HW221018   1.617   6.654   0.074
 6707SOL     OW21019   1.563   5.334   3.069
 6707SOL    HW121020   1.551   5.237   3.048
 6707SOL    HW221021   1.503   5.389   3.011
 6708SOL     OW21022   2.157   6.174   1.103
 6708SOL    HW121023   2.107   6.231   1.169
 6708SOL    HW221024   2.255   6.181   1.121
 6709SOL     OW21025   5.180   2.000   3.833
 6709SOL    HW121026   5.092   2.026   3.792
 6709SOL    HW221027   5.169   1.914   3.883
 6710SOL     OW21028   2.359   2.401   0.567
 6710SOL    HW121029   2.353   2.436   0.473
 6710SOL    HW221030   2.364   2.301   0.565
 6711SOL     OW21031   5.841   3.475   6.494
 6711SOL    HW121032   5.881   3.417   6.423
 6711SOL    HW221033   5.769   3.425   6.542
 6712SOL     OW21034   3.436   6.251   1.360
 6712SOL    HW121035   3.506   6.321   1.374
 6712SOL    HW221036   3.350   6.294   1.334
 6713SOL     OW21037   1.288   2.221   3.232
 6713SOL    HW121038   1.222   2.230   3.157
 6713SOL    HW221039   1.297   2.308   3.280
 6714SOL     OW21040   6.608   0.478   4.947
 6714SOL    HW121041   6.684   0.445   4.890
 6714SOL    HW221042   6.630   0.463   5.043
 6715SOL     OW21043   5.337   2.629   0.659
 6715SOL    HW121044   5.301   2.605   0.749
 6715SOL    HW221045   5.270   2.685   0.610
 6716SOL     OW21046   3.526   6.180   0.887
 6716SOL    HW121047   3.477   6.099   0.856
 6716SOL    HW221048   3.549   6.170   0.984
 6717SOL     OW21049   3.943   0.713   6.806
 6717SOL    HW121050   3.931   0.649   6.882
 6717SOL    HW221051   3.857   0.761   6.789
 6718SOL     OW21052   3.963   0.098   6.649
 6718SOL    HW121053   3.905   0.172   6.617
 6718SOL    HW221054   4.039   0.085   6.584
 6719SOL     OW21055   0.533   1.834   5.198
 6719SOL    HW121056   0.553   1.811   5.103
 6719SOL    HW221057   0.563   1.928   5.217
 6720SOL     OW21058   1.212   4.552   1.051
 6720SOL    HW121059   1.268   4.635   1.060
 6720SOL    HW221060   1.129   4.562   1.104
 6721SOL     OW21061   6.181   6.574   2.878
 6721SOL    HW121062   6.105   6.543   2.822
 6721SOL    HW221063   6.228   6.495   2.918
 6722SOL     OW21064   3.996   4.530   0.012
 6722SOL    HW121065   3.901   4.560   0.004
 6722SOL    HW221066   4.033   4.512   6.948
 6723SOL     OW21067   3.741   1.489   2.722
 6723SOL    HW121068   3.665   1.553   2.708
 6723SOL    HW221069   3.726   1.439   2.808
 6724SOL     OW21070   3.627   4.554   5.921
 6724SOL    HW121071   3.573   4.538   6.004
 6724SOL    HW221072   3.571   4.604   5.855
 6725SOL     OW21073   0.927   6.069   1.441
 6725SOL    HW121074   0.942   5.991   1.502
 6725SOL    HW221075   0.890   6.036   1.354
 6726SOL     OW21076   2.362   2.569   2.074
 6726SOL    HW121077   2.420   2.488   2.086
 6726SOL    HW221078   2.381   2.611   1.986
 6727SOL     OW21079   2.633   3.822   0.827
 6727SOL    HW121080   2.681   3.843   0.912
 6727SOL    HW221081   2.565   3.750   0.845
 6728SOL     OW21082   4.673   1.463   4.257
 6728SOL    HW121083   4.712   1.372   4.246
 6728SOL    HW221084   4.746   1.532   4.247
 6729SOL     OW21085   4.706   5.992   4.117
 6729SOL    HW121086   4.709   6.085   4.081
 6729SOL    HW221087   4.625   5.945   4.081
 6730SOL     OW21088   1.247   6.808   2.708
 6730SOL    HW121089   1.274   6.894   2.666
 6730SOL    HW221090   1.147   6.799   2.704
 6731SOL     OW21091   1.710   3.662   1.665
 6731SOL    HW121092   1.640   3.639   1.732
 6731SOL    HW221093   1.800   3.635   1.701
 6732SOL     OW21094   3.465   5.967   0.652
 6732SOL    HW121095   3.487   5.907   0.729
 6732SOL    HW221096   3.430   5.912   0.576
 6733SOL     OW21097   6.316   5.991   4.064
 6733SOL    HW121098   6.244   5.922   4.063
 6733SOL    HW221099   6.285   6.070   4.116
 6734SOL     OW21100   2.448   3.705   6.735
 6734SOL    HW121101   2.398   3.683   6.818
 6734SOL    HW221102   2.456   3.624   6.677
 6735SOL     OW21103   0.641   6.651   6.099
 6735SOL    HW121104   0.732   6.692   6.101
 6735SOL    HW221105   0.641   6.570   6.041
 6736SOL     OW21106   1.983   4.366   2.124
 6736SOL    HW121107   1.968   4.288   2.064
 6736SOL    HW221108   1.950   4.450   2.080
 6737SOL     OW21109   1.535   6.687   1.084
 6737SOL    HW121110   1.551   6.632   1.166
 6737SOL    HW221111   1.535   6.784   1.109
 6738SOL     OW21112   5.102   1.578   1.211
 6738SOL    HW121113   5.016   1.619   1.241
 6738SOL    HW221114   5.092   1.546   1.117
 6739SOL     OW21115   3.597   6.407   5.583
 6739SOL    HW121116   3.557   6.432   5.495
 6739SOL    HW221117   3.694   6.385   5.571
 6740SOL     OW21118   5.653   2.363   6.189
 6740SOL    HW121119   5.618   2.424   6.118
 6740SOL    HW221120   5.724   2.410   6.241
 6741SOL     OW21121   0.566   0.580   5.583
 6741SOL    HW121122   0.650   0.615   5.542
 6741SOL    HW221123   0.578   0.569   5.682
 6742SOL     OW21124   6.172   5.745   4.610
 6742SOL    HW121125   6.139   5.653   4.629
 6742SOL    HW221126   6.161   5.765   4.513
 6743SOL     OW21127   5.725   2.208   1.384
 6743SOL    HW121128   5.784   2.145   1.333
 6743SOL    HW221129   5.630   2.180   1.376
 6744SOL     OW21130   4.552   0.834   4.219
 6744SOL    HW121131   4.505   0.843   4.131
 6744SOL    HW221132   4.577   0.738   4.234
 6745SOL     OW21133   0.909   3.847   3.005
 6745SOL    HW121134   0.906   3.786   3.084
 6745SOL    HW221135   0.991   3.904   3.010
 6746SOL     OW21136   6.260   0.958   0.396
 6746SOL    HW121137   6.187   0.972   0.330
 6746SOL    HW221138   6.223   0.961   0.488
 6747SOL     OW21139   5.087   5.069   6.375
 6747SOL    HW121140   4.996   5.030   6.358
 6747SOL    HW221141   5.076   5.160   6.416
 6748SOL     OW21142   6.830   6.194   2.434
 6748SOL    HW121143   6.818   6.262   2.361
 6748SOL    HW221144   6.923   6.157   2.429
 6749SOL     OW21145   2.826   5.130   0.992
 6749SOL    HW121146   2.857   5.052   1.046
 6749SOL    HW221147   2.904   5.186   0.965
 6750SOL     OW21148   2.548   3.182   5.369
 6750SOL    HW121149   2.449   3.195   5.382
 6750SOL    HW221150   2.564   3.094   5.324
 6751SOL     OW21151   4.283   2.570   5.714
 6751SOL    HW121152   4.207   2.513   5.744
 6751SOL    HW221153   4.362   2.513   5.692
 6752SOL     OW21154   6.585   1.207   7.012
 6752SOL    HW121155   6.599   1.306   7.016
 6752SOL    HW221156   6.488   1.187   7.024
 6753SOL     OW21157   6.112   0.713   6.692
 6753SOL    HW121158   6.155   0.666   6.769
 6753SOL    HW221159   6.106   0.651   6.613
 6754SOL     OW21160   4.396   1.375   6.868
 6754SOL    HW121161   4.471   1.437   6.847
 6754SOL    HW221162   4.320   1.393   6.806
 6755SOL     OW21163   5.210   1.729   3.192
 6755SOL    HW121164   5.309   1.740   3.203
 6755SOL    HW221165   5.166   1.736   3.281
 6756SOL     OW21166   4.771   4.888   3.457
 6756SOL    HW121167   4.759   4.802   3.408
 6756SOL    HW221168   4.750   4.964   3.395
 6757SOL     OW21169   6.221   4.170   1.370
 6757SOL    HW121170   6.256   4.212   1.454
 6757SOL    HW221171   6.183   4.242   1.311
 6758SOL     OW21172   6.673   2.323   2.437
 6758SOL    HW121173   6.701   2.236   2.477
 6758SOL    HW221174   6.587   2.311   2.388
 6759SOL     OW21175   0.446   4.926   3.869
 6759SOL    HW121176   0.353   4.918   3.905
 6759SOL    HW221177   0.452   4.877   3.782
 6760SOL     OW21178   0.594   3.592   4.786
 6760SOL    HW121179   0.569   3.575   4.881
 6760SOL    HW221180   0.517   3.632   4.738
 6761SOL     OW21181   6.386   2.837   6.857
 6761SOL    HW121182   6.315   2.826   6.925
 6761SOL    HW221183   6.469   2.788   6.886
 6762SOL     OW21184   6.943   2.596   4.345
 6762SOL    HW121185   6.987   2.508   4.328
 6762SOL    HW221186   6.895   2.625   4.263
 6763SOL     OW21187   5.897   6.216   5.666
 6763SOL    HW121188   5.990   6.210   5.629
 6763SOL    HW221189   5.831   6.201   5.592
 6764SOL     OW21190   1.840   3.442   0.213
 6764SOL    HW121191   1.925   3.443   0.265
 6764SOL    HW221192   1.815   3.535   0.187
 6765SOL     OW21193   4.631   5.088   1.990
 6765SOL    HW121194   4.687   5.017   1.947
 6765SOL    HW221195   4.591   5.053   2.075
 6766SOL     OW21196   3.021   2.492   5.369
 6766SOL    HW121197   3.101   2.493   5.308
 6766SOL    HW221198   2.947   2.442   5.325
 6767SOL     OW21199   0.483   2.974   5.495
 6767SOL    HW121200   0.574   3.015   5.482
 6767SOL    HW221201   0.477   2.889   5.443
 6768SOL     OW21202   0.164   0.866   6.107
 6768SOL    HW121203   0.128   0.891   6.017
 6768SOL    HW221204   0.152   0.943   6.170
 6769SOL     OW21205   0.855   2.230   6.136
 6769SOL    HW121206   0.826   2.176   6.057
 6769SOL    HW221207   0.850   2.173   6.218
 6770SOL     OW21208   0.653   1.573   3.688
 6770SOL    HW121209   0.598   1.595   3.769
 6770SOL    HW221210   0.608   1.499   3.637
 6771SOL     OW21211   5.330   2.314   2.430
 6771SOL    HW121212   5.395   2.331   2.356
 6771SOL    HW221213   5.253   2.260   2.395
 6772SOL     OW21214   1.101   0.093   1.721
 6772SOL    HW121215   1.153   0.130   1.644
 6772SOL    HW221216   1.135   0.001   1.743
 6773SOL     OW21217   1.793   1.198   3.188
 6773SOL    HW121218   1.851   1.215   3.108
 6773SOL    HW221219   1.719   1.266   3.190
 6774SOL     OW21220   4.047   1.357   5.577
 6774SOL    HW121221   4.028   1.298   5.656
 6774SOL    HW221222   4.107   1.432   5.606
 6775SOL     OW21223   1.594   2.614   4.873
 6775SOL    HW121224   1.519   2.677   4.852
 6775SOL    HW221225   1.673   2.666   4.907
 6776SOL     OW21226   3.303   3.520   3.845
 6776SOL    HW121227   3.360   3.510   3.926
 6776SOL    HW221228   3.285   3.617   3.828
 6777SOL     OW21229   0.248   0.468   5.571
 6777SOL    HW121230   0.321   0.505   5.514
 6777SOL    HW221231   0.245   0.368   5.561
 6778SOL     OW21232   6.086   5.953   1.827
 6778SOL    HW121233   6.158   6.022   1.831
 6778SOL    HW221234   6.088   5.907   1.738
 6779SOL     OW21235   6.079   3.493   5.764
 6779SOL    HW121236   6.119   3.581   5.792
 6779SOL    HW221237   5.983   3.507   5.741
 6780SOL     OW21238   4.862   0.683   2.483
 6780SOL    HW121239   4.784   0.744   2.467
 6780SOL    HW221240   4.864   0.612   2.413
 6781SOL     OW21241   5.840   4.037   3.197
 6781SOL    HW121242   5.927   4.001   3.163
 6781SOL    HW221243   5.765   3.991   3.150
 6782SOL     OW21244   6.909   1.789   3.026
 6782SOL    HW121245   6.977   1.862   3.028
 6782SOL    HW221246   6.937   1.715   3.088
 6783SOL     OW21247   0.879   6.125   6.988
 6783SOL    HW121248   0.917   6.175   0.039
 6783SOL    HW221249   0.875   6.185   6.908
 6784SOL     OW21250   1.606   4.695   6.710
 6784SOL    HW121251   1.694   4.735   6.734
 6784SOL    HW221252   1.533   4.743   6.760
 6785SOL     OW21253   5.308   4.624   1.961
 6785SOL    HW121254   5.346   4.677   1.885
 6785SOL    HW221255   5.323   4.527   1.943
 6786SOL     OW21256   6.374   1.084   6.438
 6786SOL    HW121257   6.350   1.090   6.535
 6786SOL    HW221258   6.298   1.044   6.387
 6787SOL     OW21259   4.394   2.709   1.248
 6787SOL    HW121260   4.459   2.656   1.302
 6787SOL    HW221261   4.329   2.647   1.203
 6788SOL     OW21262   1.416   4.397   0.924
 6788SOL    HW121263   1.342   4.428   0.985
 6788SOL    HW221264   1.380   4.386   0.831
 6789SOL     OW21265   6.125   2.834   2.893
 6789SOL    HW121266   6.068   2.825   2.812
 6789SOL    HW221267   6.144   2.744   2.932
 6790SOL     OW21268   0.602   5.930   0.526
 6790SOL    HW121269   0.627   5.984   0.446
 6790SOL    HW221270   0.509   5.894   0.514
 6791SOL     OW21271   2.009   6.126   4.238
 6791SOL    HW121272   1.971   6.154   4.150
 6791SOL    HW221273   2.011   6.026   4.243
 6792SOL     OW21274   3.298   5.526   0.370
 6792SOL    HW121275   3.201   5.535   0.392
 6792SOL    HW221276   3.329   5.434   0.391
 6793SOL     OW21277   1.631   3.716   6.568
 6793SOL    HW121278   1.567   3.793   6.569
 6793SOL    HW221279   1.713   3.743   6.517
 6794SOL     OW21280   4.733   2.538   4.580
 6794SOL    HW121281   4.675   2.550   4.499
 6794SOL    HW221282   4.733   2.442   4.607
 6795SOL     OW21283   0.751   0.374   2.459
 6795SOL    HW121284   0.653   0.383   2.479
 6795SOL    HW221285   0.803   0.431   2.523
 6796SOL     OW21286   6.562   2.691   2.148
 6796SOL    HW121287   6.613   2.607   2.128
 6796SOL    HW221288   6.487   2.670   2.210
 6797SOL     OW21289   1.451   3.658   0.700
 6797SOL    HW121290   1.416   3.565   0.716
 6797SOL    HW221291   1.509   3.685   0.776
 6798SOL     OW21292   4.993   2.119   1.594
 6798SOL    HW121293   4.970   2.211   1.563
 6798SOL    HW221294   5.071   2.123   1.656
 6799SOL     OW21295   4.725   0.320   2.622
 6799SOL    HW121296   4.812   0.319   2.671
 6799SOL    HW221297   4.740   0.296   2.526
 6800SOL     OW21298   6.339   2.600   2.278
 6800SOL    HW121299   6.296   2.586   2.368
 6800SOL    HW221300   6.270   2.593   2.207
 6801SOL     OW21301   2.062   5.131   5.355
 6801SOL    HW121302   1.997   5.132   5.279
 6801SOL    HW221303   2.130   5.059   5.340
 6802SOL     OW21304   2.603   4.210   1.662
 6802SOL    HW121305   2.521   4.181   1.612
 6802SOL    HW221306   2.668   4.134   1.665
 6803SOL     OW21307   6.279   5.378   6.118
 6803SOL    HW121308   6.186   5.396   6.086
 6803SOL    HW221309   6.336   5.348   6.042
 6804SOL     OW21310   3.233   5.525   1.729
 6804SOL    HW121311   3.322   5.478   1.732
 6804SOL    HW221312   3.188   5.516   1.818
 6805SOL     OW21313   0.824   4.144   4.008
 6805SOL    HW121314   0.727   4.134   4.032
 6805SOL    HW221315   0.867   4.209   4.071
 6806SOL     OW21316   6.304   4.016   2.080
 6806SOL    HW121317   6.273   3.928   2.116
 6806SOL    HW221318   6.374   4.054   2.141
 6807SOL     OW21319   4.081   3.744   2.632
 6807SOL    HW121320   4.175   3.714   2.650
 6807SOL    HW221321   4.021   3.665   2.628
 6808SOL     OW21322   2.976   6.599   4.161
 6808SOL    HW121323   3.025   6.665   4.218
 6808SOL    HW221324   2.952   6.520   4.216
 6809SOL     OW21325   6.131   2.751   0.570
 6809SOL    HW121326   6.202   2.803   0.522
 6809SOL    HW221327   6.136   2.655   0.544
 6810SOL     OW21328   3.123   0.167   4.564
 6810SOL    HW121329   3.186   0.089   4.558
 6810SOL    HW221330   3.072   0.161   4.650
 6811SOL     OW21331   6.329   1.903   1.224
 6811SOL    HW121332   6.372   1.893   1.314
 6811SOL    HW221333   6.389   1.866   1.154
 6812SOL     OW21334   3.431   4.611   5.372
 6812SOL    HW121335   3.349   4.584   5.422
 6812SOL    HW221336   3.412   4.692   5.317
 6813SOL     OW21337   0.347   3.741   1.954
 6813SOL    HW121338   0.417   3.812   1.942
 6813SOL    HW221339   0.374   3.681   2.030
 6814SOL     OW21340   4.483   2.325   1.469
 6814SOL    HW121341   4.456   2.229   1.481
 6814SOL    HW221342   4.555   2.347   1.534
 6815SOL     OW21343   1.661   6.219   0.802
 6815SOL    HW121344   1.708   6.306   0.819
 6815SOL    HW221345   1.620   6.186   0.887
 6816SOL     OW21346   5.566   0.161   3.428
 6816SOL    HW121347   5.592   0.117   3.514
 6816SOL    HW221348   5.644   0.159   3.365
 6817SOL     OW21349   5.897   0.930   1.261
 6817SOL    HW121350   5.825   0.925   1.192
 6817SOL    HW221351   5.869   0.878   1.342
 6818SOL     OW21352   0.007   0.216   5.536
 6818SOL    HW121353   0.076   0.185   5.471
 6818SOL    HW221354   6.956   0.254   5.486
 6819SOL     OW21355   6.064   3.641   0.496
 6819SOL    HW121356   6.134   3.586   0.543
 6819SOL    HW221357   6.068   3.735   0.528
 6820SOL     OW21358   2.157   4.318   0.964
 6820SOL    HW121359   2.138   4.358   0.874
 6820SOL    HW221360   2.255   4.308   0.977
 6821SOL     OW21361   2.536   3.276   5.681
 6821SOL    HW121362   2.603   3.344   5.713
 6821SOL    HW221363   2.549   3.261   5.583
 6822SOL     OW21364   0.269   4.572   5.006
 6822SOL    HW121365   0.286   4.477   5.033
 6822SOL    HW221366   0.213   4.573   4.923
 6823SOL     OW21367   0.008   3.558   5.776
 6823SOL    HW121368   6.941   3.593   5.768
 6823SOL    HW221369   0.015   3.470   5.731
 6824SOL     OW21370   0.507   0.635   4.247
 6824SOL    HW121371   0.490   0.547   4.291
 6824SOL    HW221372   0.420   0.675   4.218
 6825SOL     OW21373   4.997   4.871   1.435
 6825SOL    HW121374   4.900   4.851   1.440
 6825SOL    HW221375   5.011   4.970   1.424
 6826SOL     OW21376   5.916   0.598   4.416
 6826SOL    HW121377   5.895   0.689   4.381
 6826SOL    HW221378   5.833   0.558   4.456
 6827SOL     OW21379   5.068   5.119   5.475
 6827SOL    HW121380   5.163   5.089   5.484
 6827SOL    HW221381   5.059   5.212   5.512
 6828SOL     OW21382   2.589   1.881   2.561
 6828SOL    HW121383   2.607   1.803   2.501
 6828SOL    HW221384   2.639   1.869   2.647
 6829SOL     OW21385   5.793   6.877   4.725
 6829SOL    HW121386   5.795   6.892   4.627
 6829SOL    HW221387   5.721   6.933   4.766
 6830SOL     OW21388   3.507   6.608   2.437
 6830SOL    HW121389   3.441   6.643   2.504
 6830SOL    HW221390   3.567   6.542   2.482
 6831SOL     OW21391   2.130   0.404   0.356
 6831SOL    HW121392   2.094   0.369   0.269
 6831SOL    HW221393   2.197   0.476   0.337
 6832SOL     OW21394   3.476   3.917   0.439
 6832SOL    HW121395   3.381   3.940   0.463
 6832SOL    HW221396   3.483   3.819   0.423
 6833SOL     OW21397   4.444   5.413   0.115
 6833SOL    HW121398   4.441   5.328   0.062
 6833SOL    HW221399   4.352   5.450   0.125
 6834SOL     OW21400   6.679   5.688   5.162
 6834SOL    HW121401   6.657   5.670   5.066
 6834SOL    HW221402   6.692   5.601   5.209
 6835SOL     OW21403   4.124   0.460   2.631
 6835SOL    HW121404   4.185   0.449   2.553
 6835SOL    HW221405   4.046   0.398   2.622
 6836SOL     OW21406   1.173   4.636   6.351
 6836SOL    HW121407   1.136   4.586   6.430
 6836SOL    HW221408   1.188   4.732   6.377
 6837SOL     OW21409   6.277   2.339   1.790
 6837SOL    HW121410   6.280   2.264   1.724
 6837SOL    HW221411   6.342   2.410   1.764
 6838SOL     OW21412   2.007   4.376   0.076
 6838SOL    HW121413   2.049   4.296   0.120
 6838SOL    HW221414   1.948   4.345   0.001
 6839SOL     OW21415   6.292   2.205   5.357
 6839SOL    HW121416   6.194   2.197   5.377
 6839SOL    HW221417   6.312   2.298   5.327
 6840SOL     OW21418   3.180   0.484   4.224
 6840SOL    HW121419   3.212   0.523   4.138
 6840SOL    HW221420   3.082   0.465   4.218
 6841SOL     OW21421   4.566   5.969   0.647
 6841SOL    HW121422   4.605   5.888   0.604
 6841SOL    HW221423   4.564   5.957   0.746
 6842SOL     OW21424   0.779   3.502   3.663
 6842SOL    HW121425   0.833   3.473   3.584
 6842SOL    HW221426   0.744   3.422   3.711
 6843SOL     OW21427   4.352   3.073   1.725
 6843SOL    HW121428   4.444   3.083   1.764
 6843SOL    HW221429   4.354   3.004   1.653
 6844SOL     OW21430   3.262   6.610   4.426
 6844SOL    HW121431   3.210   6.562   4.497
 6844SOL    HW221432   3.347   6.561   4.408
 6845SOL     OW21433   3.454   3.970   0.119
 6845SOL    HW121434   3.478   3.874   0.125
 6845SOL    HW221435   3.521   4.025   0.169
 6846SOL     OW21436   4.001   3.188   3.955
 6846SOL    HW121437   4.046   3.175   4.043
 6846SOL    HW221438   3.907   3.219   3.969
 6847SOL     OW21439   5.416   4.068   1.680
 6847SOL    HW121440   5.437   4.029   1.590
 6847SOL    HW221441   5.495   4.118   1.714
 6848SOL     OW21442   0.816   6.248   4.484
 6848SOL    HW121443   0.911   6.219   4.497
 6848SOL    HW221444   0.757   6.168   4.485
 6849SOL     OW21445   2.631   0.345   4.418
 6849SOL    HW121446   2.717   0.295   4.420
 6849SOL    HW221447   2.609   0.378   4.509
 6850SOL     OW21448   6.566   3.077   1.749
 6850SOL    HW121449   6.493   3.141   1.774
 6850SOL    HW221450   6.570   3.002   1.816
 6851SOL     OW21451   1.680   5.768   0.759
 6851SOL    HW121452   1.587   5.743   0.734
 6851SOL    HW221453   1.735   5.783   0.677
 6852SOL     OW21454   4.936   4.771   2.531
 6852SOL    HW121455   4.863   4.720   2.578
 6852SOL    HW221456   4.992   4.707   2.478
 6853SOL     OW21457   5.779   4.483   4.553
 6853SOL    HW121458   5.852   4.468   4.620
 6853SOL    HW221459   5.810   4.453   4.463
 6854SOL     OW21460   6.077   1.209   6.692
 6854SOL    HW121461   5.999   1.206   6.631
 6854SOL    HW221462   6.130   1.125   6.683
 6855SOL     OW21463   2.468   6.818   2.263
 6855SOL    HW121464   2.488   6.765   2.346
 6855SOL    HW221465   2.446   6.754   2.189
 6856SOL     OW21466   0.775   5.380   5.651
 6856SOL    HW121467   0.762   5.365   5.553
 6856SOL    HW221468   0.849   5.444   5.666
 6857SOL     OW21469   4.531   0.866   6.904
 6857SOL    HW121470   4.479   0.949   6.923
 6857SOL    HW221471   4.510   0.834   6.811
 6858SOL     OW21472   3.507   2.944   6.401
 6858SOL    HW121473   3.479   3.038   6.378
 6858SOL    HW221474   3.447   2.879   6.355
 6859SOL     OW21475   4.327   0.280   1.428
 6859SOL    HW121476   4.230   0.301   1.440
 6859SOL    HW221477   4.343   0.251   1.333
 6860SOL     OW21478   4.820   3.268   6.983
 6860SOL    HW121479   4.883   3.327   0.007
 6860SOL    HW221480   4.856   3.251   6.891
 6861SOL     OW21481   6.610   3.842   0.130
 6861SOL    HW121482   6.652   3.860   0.042
 6861SOL    HW221483   6.681   3.818   0.197
 6862SOL     OW21484   2.401   4.417   4.586
 6862SOL    HW121485   2.411   4.472   4.502
 6862SOL    HW221486   2.379   4.323   4.561
 6863SOL     OW21487   1.114   3.360   3.657
 6863SOL    HW121488   1.050   3.283   3.663
 6863SOL    HW221489   1.104   3.418   3.738
 6864SOL     OW21490   2.965   5.681   6.129
 6864SOL    HW121491   3.039   5.711   6.190
 6864SOL    HW221492   3.004   5.633   6.051
 6865SOL     OW21493   0.763   2.360   5.443
 6865SOL    HW121494   0.850   2.380   5.487
 6865SOL    HW221495   0.699   2.325   5.511
 6866SOL     OW21496   0.505   4.068   2.802
 6866SOL    HW121497   0.540   4.120   2.724
 6866SOL    HW221498   0.449   3.992   2.769
 6867SOL     OW21499   2.745   5.160   3.556
 6867SOL    HW121500   2.690   5.243   3.552
 6867SOL    HW221501   2.694   5.089   3.606
 6868SOL     OW21502   1.756   5.435   4.902
 6868SOL    HW121503   1.707   5.452   4.816
 6868SOL    HW221504   1.712   5.484   4.976
 6869SOL     OW21505   0.306   2.669   4.506
 6869SOL    HW121506   0.329   2.677   4.603
 6869SOL    HW221507   0.209   2.689   4.493
 6870SOL     OW21508   5.454   4.094   2.874
 6870SOL    HW121509   5.382   4.071   2.809
 6870SOL    HW221510   5.514   4.164   2.835
 6871SOL     OW21511   4.282   5.983   1.883
 6871SOL    HW121512   4.284   5.902   1.942
 6871SOL    HW221513   4.376   6.010   1.862
 6872SOL     OW21514   3.078   4.442   0.661
 6872SOL    HW121515   3.151   4.505   0.635
 6872SOL    HW221516   3.046   4.464   0.753
 6873SOL     OW21517   5.567   4.936   5.132
 6873SOL    HW121518   5.498   4.982   5.076
 6873SOL    HW221519   5.522   4.873   5.196
 6874SOL     OW21520   1.213   1.679   6.550
 6874SOL    HW121521   1.115   1.665   6.533
 6874SOL    HW221522   1.227   1.767   6.595
 6875SOL     OW21523   3.931   0.017   5.108
 6875SOL    HW121524   3.881   0.089   5.062
 6875SOL    HW221525   3.997   0.057   5.172
 6876SOL     OW21526   3.114   6.189   4.761
 6876SOL    HW121527   3.165   6.168   4.844
 6876SOL    HW221528   3.034   6.129   4.756
 6877SOL     OW21529   2.108   3.727   0.102
 6877SOL    HW121530   2.086   3.824   0.093
 6877SOL    HW221531   2.056   3.674   0.035
 6878SOL     OW21532   1.856   1.846   5.196
 6878SOL    HW121533   1.916   1.897   5.258
 6878SOL    HW221534   1.882   1.749   5.197
 6879SOL     OW21535   6.151   1.694   5.756
 6879SOL    HW121536   6.157   1.647   5.844
 6879SOL    HW221537   6.242   1.699   5.714
 6880SOL     OW21538   0.847   4.443   4.798
 6880SOL    HW121539   0.917   4.380   4.834
 6880SOL    HW221540   0.801   4.489   4.874
 6881SOL     OW21541   4.793   6.187   1.443
 6881SOL    HW121542   4.833   6.181   1.351
 6881SOL    HW221543   4.856   6.147   1.509
 6882SOL     OW21544   2.505   5.799   5.430
 6882SOL    HW121545   2.459   5.710   5.423
 6882SOL    HW221546   2.481   5.843   5.516
 6883SOL     OW21547   2.905   6.468   1.974
 6883SOL    HW121548   2.828   6.445   2.032
 6883SOL    HW221549   2.979   6.506   2.030
 6884SOL     OW21550   1.807   4.731   3.213
 6884SOL    HW121551   1.787   4.670   3.137
 6884SOL    HW221552   1.903   4.757   3.211
 6885SOL     OW21553   4.295   4.911   4.715
 6885SOL    HW121554   4.275   4.868   4.627
 6885SOL    HW221555   4.322   4.841   4.781
 6886SOL     OW21556   5.283   6.963   0.805
 6886SOL    HW121557   5.283   6.921   0.714
 6886SOL    HW221558   5.320   0.029   0.799
 6887SOL     OW21559   6.321   0.801   4.751
 6887SOL    HW121560   6.368   0.717   4.724
 6887SOL    HW221561   6.343   0.822   4.846
 6888SOL     OW21562   6.461   6.764   4.053
 6888SOL    HW121563   6.498   6.671   4.058
 6888SOL    HW221564   6.516   6.819   3.990
 6889SOL     OW21565   1.981   4.037   6.556
 6889SOL    HW121566   2.041   4.113   6.583
 6889SOL    HW221567   2.036   3.966   6.512
 6890SOL     OW21568   1.450   0.775   1.511
 6890SOL    HW121569   1.395   0.719   1.573
 6890SOL    HW221570   1.391   0.812   1.439
 6891SOL     OW21571   4.601   5.203   6.036
 6891SOL    HW121572   4.625   5.187   6.132
 6891SOL    HW221573   4.656   5.142   5.978
 6892SOL     OW21574   3.252   1.827   4.637
 6892SOL    HW121575   3.215   1.816   4.729
 6892SOL    HW221576   3.318   1.903   4.637
 6893SOL     OW21577   4.988   6.725   1.088
 6893SOL    HW121578   4.948   6.653   1.144
 6893SOL    HW221579   5.011   6.803   1.145
 6894SOL     OW21580   6.129   4.887   5.828
 6894SOL    HW121581   6.173   4.849   5.910
 6894SOL    HW221582   6.195   4.887   5.753
 6895SOL     OW21583   4.883   4.975   5.064
 6895SOL    HW121584   4.798   5.009   5.023
 6895SOL    HW221585   4.891   4.877   5.047
 6896SOL     OW21586   5.363   2.079   2.624
 6896SOL    HW121587   5.331   2.174   2.621
 6896SOL    HW221588   5.297   2.021   2.577
 6897SOL     OW21589   4.077   1.065   1.625
 6897SOL    HW121590   4.095   0.991   1.690
 6897SOL    HW221591   4.074   1.029   1.532
 6898SOL     OW21592   3.585   1.317   2.021
 6898SOL    HW121593   3.654   1.310   1.949
 6898SOL    HW221594   3.614   1.263   2.100
 6899SOL     OW21595   5.856   4.880   5.816
 6899SOL    HW121596   5.820   4.836   5.733
 6899SOL    HW221597   5.955   4.884   5.812
 6900SOL     OW21598   4.093   0.233   6.115
 6900SOL    HW121599   4.080   0.315   6.170
 6900SOL    HW221600   4.135   0.257   6.027
 6901SOL     OW21601   1.749   0.120   0.271
 6901SOL    HW121602   1.713   0.193   0.212
 6901SOL    HW221603   1.849   0.128   0.276
 6902SOL     OW21604   6.369   5.889   2.905
 6902SOL    HW121605   6.453   5.901   2.958
 6902SOL    HW221606   6.342   5.793   2.907
 6903SOL     OW21607   6.280   4.153   6.855
 6903SOL    HW121608   6.370   4.163   6.814
 6903SOL    HW221609   6.219   4.224   6.820
 6904SOL     OW21610   0.537   1.092   2.688
 6904SOL    HW121611   0.581   1.100   2.777
 6904SOL    HW221612   0.474   1.168   2.675
 6905SOL     OW21613   3.712   5.575   1.203
 6905SOL    HW121614   3.777   5.503   1.179
 6905SOL    HW221615   3.636   5.574   1.138
 6906SOL     OW21616   6.136   6.307   2.352
 6906SOL    HW121617   6.071   6.322   2.278
 6906SOL    HW221618   6.228   6.334   2.321
 6907SOL     OW21619   3.535   0.827   1.576
 6907SOL    HW121620   3.440   0.796   1.580
 6907SOL    HW221621   3.588   0.763   1.519
 6908SOL     OW21622   5.368   6.829   0.026
 6908SOL    HW121623   5.339   6.903   6.991
 6908SOL    HW221624   5.405   6.868   0.110
 6909SOL     OW21625   2.698   2.232   0.068
 6909SOL    HW121626   2.642   2.175   0.008
 6909SOL    HW221627   2.782   2.183   0.092
 6910SOL     OW21628   4.868   1.043   1.015
 6910SOL    HW121629   4.831   0.962   0.969
 6910SOL    HW221630   4.851   1.034   1.114
 6911SOL     OW21631   3.701   0.173   4.546
 6911SOL    HW121632   3.752   0.253   4.576
 6911SOL    HW221633   3.764   0.098   4.527
 6912SOL     OW21634   3.958   5.838   1.728
 6912SOL    HW121635   4.003   5.757   1.766
 6912SOL    HW221636   3.859   5.825   1.731
 6913SOL     OW21637   4.415   6.128   5.915
 6913SOL    HW121638   4.354   6.055   5.943
 6913SOL    HW221639   4.495   6.089   5.869
 6914SOL     OW21640   0.282   5.103   0.188
 6914SOL    HW121641   0.301   5.024   0.129
 6914SOL    HW221642   0.368   5.150   0.209
 6915SOL     OW21643   0.596   6.796   0.279
 6915SOL    HW121644   0.597   6.719   0.216
 6915SOL    HW221645   0.595   6.882   0.227
 6916SOL     OW21646   6.235   0.725   5.840
 6916SOL    HW121647   6.226   0.644   5.782
 6916SOL    HW221648   6.158   0.786   5.826
 6917SOL     OW21649   4.223   6.307   5.931
 6917SOL    HW121650   4.148   6.266   5.983
 6917SOL    HW221651   4.303   6.248   5.935
 6918SOL     OW21652   2.086   2.401   3.273
 6918SOL    HW121653   2.081   2.475   3.341
 6918SOL    HW221654   2.028   2.424   3.195
 6919SOL     OW21655   1.934   6.131   3.982
 6919SOL    HW121656   1.993   6.073   3.926
 6919SOL    HW221657   1.838   6.112   3.960
 6920SOL     OW21658   5.627   5.605   4.431
 6920SOL    HW121659   5.584   5.551   4.504
 6920SOL    HW221660   5.627   5.552   4.346
 6921SOL     OW21661   2.089   4.621   2.822
 6921SOL    HW121662   2.103   4.539   2.878
 6921SOL    HW221663   2.028   4.683   2.871
 6922SOL     OW21664   1.975   6.238   1.463
 6922SOL    HW121665   2.061   6.189   1.453
 6922SOL    HW221666   1.927   6.206   1.545
 6923SOL     OW21667   5.209   5.276   4.238
 6923SOL    HW121668   5.167   5.216   4.170
 6923SOL    HW221669   5.287   5.229   4.281
 6924SOL     OW21670   5.608   6.129   2.283
 6924SOL    HW121671   5.534   6.063   2.277
 6924SOL    HW221672   5.644   6.132   2.377
 6925SOL     OW21673   4.401   5.378   2.102
 6925SOL    HW121674   4.402   5.282   2.133
 6925SOL    HW221675   4.479   5.426   2.142
 6926SOL     OW21676   3.122   3.527   5.525
 6926SOL    HW121677   3.072   3.538   5.611
 6926SOL    HW221678   3.154   3.432   5.517
 6927SOL     OW21679   3.886   3.962   0.561
 6927SOL    HW121680   3.895   4.034   0.629
 6927SOL    HW221681   3.804   3.908   0.580
 6928SOL     OW21682   6.757   0.685   6.704
 6928SOL    HW121683   6.796   0.776   6.718
 6928SOL    HW221684   6.735   0.673   6.607
 6929SOL     OW21685   3.095   5.877   1.257
 6929SOL    HW121686   3.062   5.807   1.320
 6929SOL    HW221687   3.121   5.959   1.308
 6930SOL     OW21688   6.955   0.817   2.924
 6930SOL    HW121689   6.874   0.805   2.981
 6930SOL    HW221690   6.943   0.768   2.838
 6931SOL     OW21691   2.978   0.214   0.956
 6931SOL    HW121692   3.056   0.268   0.986
 6931SOL    HW221693   2.978   0.126   1.003
 6932SOL     OW21694   2.910   2.602   0.318
 6932SOL    HW121695   2.923   2.604   0.219
 6932SOL    HW221696   2.967   2.530   0.358
 6933SOL     OW21697   2.497   5.959   5.235
 6933SOL    HW121698   2.493   5.894   5.311
 6933SOL    HW221699   2.592   5.987   5.220
 6934SOL     OW21700   5.765   4.560   6.469
 6934SOL    HW121701   5.697   4.629   6.443
 6934SOL    HW221702   5.772   4.491   6.397
 6935SOL     OW21703   4.347   5.706   3.609
 6935SOL    HW121704   4.379   5.641   3.540
 6935SOL    HW221705   4.422   5.767   3.635
 6936SOL     OW21706   0.842   4.634   0.624
 6936SOL    HW121707   0.922   4.613   0.681
 6936SOL    HW221708   0.848   4.582   0.539
 6937SOL     OW21709   4.338   5.866   6.267
 6937SOL    HW121710   4.354   5.869   6.366
 6937SOL    HW221711   4.259   5.808   6.247
 6938SOL     OW21712   6.606   2.244   5.383
 6938SOL    HW121713   6.666   2.309   5.430
 6938SOL    HW221714   6.549   2.293   5.317
 6939SOL     OW21715   6.482   4.711   1.583
 6939SOL    HW121716   6.440   4.745   1.666
 6939SOL    HW221717   6.523   4.621   1.601
 6940SOL     OW21718   4.494   0.208   4.121
 6940SOL    HW121719   4.503   0.109   4.107
 6940SOL    HW221720   4.416   0.241   4.068
 6941SOL     OW21721   3.407   2.880   5.071
 6941SOL    HW121722   3.384   2.787   5.099
 6941SOL    HW221723   3.323   2.935   5.069
 6942SOL     OW21724   6.382   1.697   6.506
 6942SOL    HW121725   6.293   1.672   6.466
 6942SOL    HW221726   6.436   1.747   6.438
 6943SOL     OW21727   6.034   5.107   6.923
 6943SOL    HW121728   6.037   5.067   6.832
 6943SOL    HW221729   6.059   5.038   6.991
 6944SOL     OW21730   1.340   6.929   0.388
 6944SOL    HW121731   1.360   6.831   0.386
 6944SOL    HW221732   1.250   6.943   0.427
 6945SOL     OW21733   4.012   1.489   0.028
 6945SOL    HW121734   4.008   1.422   0.103
 6945SOL    HW221735   4.101   1.484   7.010
 6946SOL     OW21736   6.249   4.403   2.117
 6946SOL    HW121737   6.226   4.396   2.020
 6946SOL    HW221738   6.174   4.448   2.166
 6947SOL     OW21739   3.614   6.589   1.168
 6947SOL    HW121740   3.591   6.664   1.107
 6947SOL    HW221741   3.702   6.549   1.140
 6948SOL     OW21742   3.445   1.757   5.905
 6948SOL    HW121743   3.466   1.791   5.814
 6948SOL    HW221744   3.501   1.805   5.973
 6949SOL     OW21745   5.402   0.501   2.046
 6949SOL    HW121746   5.404   0.414   1.996
 6949SOL    HW221747   5.450   0.571   1.993
 6950SOL     OW21748   3.548   1.559   3.012
 6950SOL    HW121749   3.502   1.478   2.977
 6950SOL    HW221750   3.609   1.533   3.088
 6951SOL     OW21751   4.795   3.819   5.718
 6951SOL    HW121752   4.856   3.784   5.646
 6951SOL    HW221753   4.702   3.826   5.681
 6952SOL     OW21754   0.140   3.413   6.611
 6952SOL    HW121755   0.047   3.400   6.647
 6952SOL    HW221756   0.171   3.506   6.631
 6953SOL     OW21757   5.691   2.411   4.645
 6953SOL    HW121758   5.715   2.377   4.736
 6953SOL    HW221759   5.769   2.459   4.606
 6954SOL     OW21760   0.168   4.394   1.705
 6954SOL    HW121761   0.195   4.484   1.671
 6954SOL    HW221762   0.097   4.403   1.774
 6955SOL     OW21763   6.572   0.742   3.881
 6955SOL    HW121764   6.630   0.804   3.830
 6955SOL    HW221765   6.476   0.758   3.857
 6956SOL     OW21766   3.238   4.047   1.506
 6956SOL    HW121767   3.250   3.977   1.576
 6956SOL    HW221768   3.231   4.137   1.550
 6957SOL     OW21769   1.139   4.750   0.296
 6957SOL    HW121770   1.120   4.662   0.252
 6957SOL    HW221771   1.055   4.785   0.337
 6958SOL     OW21772   1.857   3.417   5.594
 6958SOL    HW121773   1.911   3.496   5.566
 6958SOL    HW221774   1.847   3.417   5.694
 6959SOL     OW21775   4.138   0.756   4.945
 6959SOL    HW121776   4.100   0.679   4.892
 6959SOL    HW221777   4.215   0.723   4.999
 6960SOL     OW21778   1.111   5.929   6.595
 6960SOL    HW121779   1.077   5.933   6.689
 6960SOL    HW221780   1.202   5.888   6.595
 6961SOL     OW21781   6.038   1.097   3.568
 6961SOL    HW121782   6.074   1.145   3.648
 6961SOL    HW221783   6.101   1.109   3.491
 6962SOL     OW21784   2.985   3.549   1.037
 6962SOL    HW121785   2.973   3.453   1.062
 6962SOL    HW221786   2.906   3.602   1.067
 6963SOL     OW21787   6.344   5.679   1.958
 6963SOL    HW121788   6.274   5.742   1.991
 6963SOL    HW221789   6.432   5.702   1.999
 6964SOL     OW21790   3.646   5.030   5.821
 6964SOL    HW121791   3.716   5.083   5.867
 6964SOL    HW221792   3.668   5.023   5.723
 6965SOL     OW21793   6.455   1.393   5.961
 6965SOL    HW121794   6.505   1.475   5.936
 6965SOL    HW221795   6.519   1.321   5.988
 6966SOL     OW21796   4.750   1.835   3.959
 6966SOL    HW121797   4.671   1.828   4.021
 6966SOL    HW221798   4.822   1.889   4.002
 6967SOL     OW21799   2.991   2.715   6.094
 6967SOL    HW121800   2.900   2.737   6.129
 6967SOL    HW221801   3.051   2.795   6.104
 6968SOL     OW21802   4.322   0.476   3.705
 6968SOL    HW121803   4.238   0.494   3.654
 6968SOL    HW221804   4.401   0.502   3.650
 6969SOL     OW21805   3.449   3.414   0.900
 6969SOL    HW121806   3.533   3.370   0.932
 6969SOL    HW221807   3.374   3.390   0.962
 6970SOL     OW21808   5.097   4.242   0.514
 6970SOL    HW121809   5.157   4.163   0.501
 6970SOL    HW221810   5.081   4.256   0.612
 6971SOL     OW21811   6.088   1.681   2.244
 6971SOL    HW121812   6.023   1.613   2.278
 6971SOL    HW221813   6.178   1.639   2.235
 6972SOL     OW21814   5.225   5.600   4.458
 6972SOL    HW121815   5.160   5.671   4.483
 6972SOL    HW221816   5.176   5.518   4.428
 6973SOL     OW21817   1.279   3.913   3.765
 6973SOL    HW121818   1.284   3.982   3.837
 6973SOL    HW221819   1.364   3.860   3.765
 6974SOL     OW21820   3.237   3.988   5.007
 6974SOL    HW121821   3.245   4.067   5.067
 6974SOL    HW221822   3.301   3.997   4.931
 6975SOL     OW21823   1.663   6.799   6.797
 6975SOL    HW121824   1.640   6.800   6.699
 6975SOL    HW221825   1.661   6.705   6.830
 6976SOL     OW21826   1.021   6.097   0.848
 6976SOL    HW121827   1.094   6.163   0.862
 6976SOL    HW221828   1.044   6.011   0.893
 6977SOL     OW21829   5.076   3.137   1.560
 6977SOL    HW121830   5.086   3.140   1.461
 6977SOL    HW221831   5.122   3.216   1.600
 6978SOL     OW21832   4.569   2.537   3.394
 6978SOL    HW121833   4.653   2.506   3.351
 6978SOL    HW221834   4.491   2.518   3.333
 6979SOL     OW21835   0.137   3.823   4.773
 6979SOL    HW121836   0.140   3.775   4.861
 6979SOL    HW221837   0.044   3.820   4.737
 6980SOL     OW21838   4.930   2.006   5.042
 6980SOL    HW121839   4.847   1.967   5.002
 6980SOL    HW221840   4.996   1.933   5.059
 6981SOL     OW21841   3.447   3.813   6.248
 6981SOL    HW121842   3.546   3.817   6.258
 6981SOL    HW221843   3.408   3.754   6.319
 6982SOL     OW21844   0.713   0.102   4.515
 6982SOL    HW121845   0.640   0.078   4.451
 6982SOL    HW221846   0.673   0.151   4.593
 6983SOL     OW21847   6.034   1.046   3.126
 6983SOL    HW121848   5.998   0.961   3.088
 6983SOL    HW221849   5.996   1.062   3.217
 6984SOL     OW21850   1.608   1.164   6.237
 6984SOL    HW121851   1.673   1.133   6.167
 6984SOL    HW221852   1.515   1.145   6.206
 6985SOL     OW21853   5.198   6.503   4.012
 6985SOL    HW121854   5.296   6.492   3.997
 6985SOL    HW221855   5.164   6.429   4.070
 6986SOL     OW21856   1.634   6.228   5.372
 6986SOL    HW121857   1.545   6.272   5.366
 6986SOL    HW221858   1.706   6.297   5.380
 6987SOL     OW21859   6.853   3.588   6.430
 6987SOL    HW121860   6.937   3.604   6.379
 6987SOL    HW221861   6.807   3.507   6.393
 6988SOL     OW21862   5.705   1.628   6.161
 6988SOL    HW121863   5.667   1.539   6.137
 6988SOL    HW221864   5.634   1.698   6.154
 6989SOL     OW21865   1.846   3.619   4.377
 6989SOL    HW121866   1.795   3.625   4.291
 6989SOL    HW221867   1.808   3.683   4.444
 6990SOL     OW21868   4.348   3.490   1.445
 6990SOL    HW121869   4.351   3.582   1.484
 6990SOL    HW221870   4.372   3.423   1.515
 6991SOL     OW21871   4.038   4.598   5.365
 6991SOL    HW121872   3.943   4.600   5.334
 6991SOL    HW221873   4.042   4.560   5.457
 6992SOL     OW21874   6.342   6.373   4.818
 6992SOL    HW121875   6.336   6.359   4.917
 6992SOL    HW221876   6.260   6.421   4.786
 6993SOL     OW21877   0.459   6.788   2.874
 6993SOL    HW121878   0.501   6.751   2.791
 6993SOL    HW221879   0.492   6.881   2.891
 6994SOL     OW21880   1.690   2.125   0.286
 6994SOL    HW121881   1.652   2.035   0.306
 6994SOL    HW221882   1.628   2.196   0.319
 6995SOL     OW21883   1.031   5.532   3.800
 6995SOL    HW121884   1.047   5.447   3.750
 6995SOL    HW221885   0.977   5.594   3.744
 6996SOL     OW21886   2.030   6.845   5.322
 6996SOL    HW121887   1.951   6.899   5.351
 6996SOL    HW221888   2.105   6.906   5.297
 6997SOL     OW21889   4.411   5.174   4.140
 6997SOL    HW121890   4.475   5.146   4.069
 6997SOL    HW221891   4.318   5.177   4.102
 6998SOL     OW21892   2.733   1.883   2.235
 6998SOL    HW121893   2.650   1.937   2.225
 6998SOL    HW221894   2.803   1.938   2.281
 6999SOL     OW21895   5.256   1.907   6.567
 6999SOL    HW121896   5.323   1.931   6.638
 6999SOL    HW221897   5.275   1.815   6.534
 7000SOL     OW21898   0.169   0.044   1.503
 7000SOL    HW121899   0.245   0.108   1.519
 7000SOL    HW221900   0.142   0.002   1.589
 7001SOL     OW21901   2.831   1.358   6.647
 7001SOL    HW121902   2.778   1.442   6.658
 7001SOL    HW221903   2.920   1.379   6.608
 7002SOL     OW21904   2.596   4.899   1.993
 7002SOL    HW121905   2.616   4.837   2.068
 7002SOL    HW221906   2.651   4.874   1.913
 7003SOL     OW21907   2.179   6.396   5.565
 7003SOL    HW121908   2.083   6.413   5.585
 7003SOL    HW221909   2.190   6.303   5.528
 7004SOL     OW21910   1.920   3.754   6.790
 7004SOL    HW121911   1.929   3.672   6.846
 7004SOL    HW221912   1.950   3.734   6.697
 7005SOL     OW21913   6.444   0.162   6.238
 7005SOL    HW121914   6.451   0.247   6.291
 7005SOL    HW221915   6.413   0.183   6.145
 7006SOL     OW21916   5.020   5.399   4.399
 7006SOL    HW121917   5.102   5.360   4.357
 7006SOL    HW221918   4.959   5.435   4.328
 7007SOL     OW21919   5.338   5.132   1.809
 7007SOL    HW121920   5.375   5.186   1.733
 7007SOL    HW221921   5.238   5.135   1.806
 7008SOL     OW21922   0.963   5.906   4.620
 7008SOL    HW121923   1.018   5.822   4.627
 7008SOL    HW221924   0.952   5.930   4.523
 7009SOL     OW21925   0.045   4.450   1.386
 7009SOL    HW121926   0.076   4.488   1.474
 7009SOL    HW221927   6.980   4.412   1.397
 7010SOL     OW21928   5.465   4.222   5.759
 7010SOL    HW121929   5.562   4.198   5.754
 7010SOL    HW221930   5.420   4.192   5.675
 7011SOL     OW21931   0.934   0.312   5.401
 7011SOL    HW121932   0.914   0.361   5.486
 7011SOL    HW221933   1.013   0.354   5.356
 7012SOL     OW21934   0.720   0.983   1.525
 7012SOL    HW121935   0.667   0.931   1.458
 7012SOL    HW221936   0.675   1.070   1.544
 7013SOL     OW21937   6.081   2.213   1.472
 7013SOL    HW121938   6.173   2.244   1.449
 7013SOL    HW221939   6.020   2.292   1.477
 7014SOL     OW21940   2.178   5.174   0.650
 7014SOL    HW121941   2.138   5.189   0.740
 7014SOL    HW221942   2.192   5.076   0.635
 7015SOL     OW21943   5.057   2.284   1.926
 7015SOL    HW121944   4.973   2.230   1.936
 7015SOL    HW221945   5.079   2.328   2.013
 7016SOL     OW21946   4.501   4.376   0.619
 7016SOL    HW121947   4.515   4.292   0.671
 7016SOL    HW221948   4.568   4.382   0.545
 7017SOL     OW21949   5.218   2.022   5.505
 7017SOL    HW121950   5.175   1.973   5.581
 7017SOL    HW221951   5.152   2.085   5.464
 7018SOL     OW21952   0.640   3.939   3.034
 7018SOL    HW121953   0.735   3.946   3.004
 7018SOL    HW221954   0.579   3.954   2.956
 7019SOL     OW21955   0.095   6.096   2.420
 7019SOL    HW121956   0.104   5.997   2.416
 7019SOL    HW221957   0.073   6.124   2.514
 7020SOL     OW21958   0.291   5.778   0.249
 7020SOL    HW121959   0.233   5.700   0.270
 7020SOL    HW221960   0.367   5.748   0.191
 7021SOL     OW21961   3.088   6.681   5.598
 7021SOL    HW121962   3.184   6.688   5.624
 7021SOL    HW221963   3.076   6.604   5.536
 7022SOL     OW21964   3.830   5.256   5.953
 7022SOL    HW121965   3.846   5.301   6.041
 7022SOL    HW221966   3.894   5.180   5.942
 7023SOL     OW21967   4.171   4.736   2.363
 7023SOL    HW121968   4.124   4.797   2.427
 7023SOL    HW221969   4.229   4.673   2.414
 7024SOL     OW21970   5.837   6.529   1.701
 7024SOL    HW121971   5.804   6.521   1.607
 7024SOL    HW221972   5.761   6.559   1.760
 7025SOL     OW21973   2.907   0.003   1.446
 7025SOL    HW121974   2.813   6.997   1.456
 7025SOL    HW221975   2.970   6.954   1.465
 7026SOL     OW21976   4.308   2.772   0.631
 7026SOL    HW121977   4.385   2.778   0.694
 7026SOL    HW221978   4.328   2.824   0.548
 7027SOL     OW21979   5.798   5.816   4.425
 7027SOL    HW121980   5.730   5.745   4.442
 7027SOL    HW221981   5.765   5.877   4.353
 7028SOL     OW21982   3.012   1.003   4.421
 7028SOL    HW121983   2.970   1.060   4.491
 7028SOL    HW221984   3.092   1.049   4.383
 7029SOL     OW21985   3.559   0.842   4.111
 7029SOL    HW121986   3.525   0.798   4.194
 7029SOL    HW221987   3.611   0.775   4.057
 7030SOL     OW21988   1.417   3.526   3.928
 7030SOL    HW121989   1.347   3.574   3.979
 7030SOL    HW221990   1.433   3.436   3.968
 7031SOL     OW21991   1.922   0.782   4.571
 7031SOL    HW121992   1.952   0.876   4.552
 7031SOL    HW221993   1.984   0.718   4.525
 7032SOL     OW21994   5.751   2.716   3.228
 7032SOL    HW121995   5.733   2.618   3.230
 7032SOL    HW221996   5.688   2.761   3.165
 7033SOL     OW21997   0.303   0.976   4.850
 7033SOL    HW121998   0.370   1.038   4.808
 7033SOL    HW221999   0.316   0.976   4.949
 7034SOL     OW22000   0.100   4.854   3.494
 7034SOL    HW122001   0.150   4.790   3.553
 7034SOL    HW222002   0.094   4.817   3.402
 7035SOL     OW22003   6.905   4.734   1.573
 7035SOL    HW122004   7.001   4.732   1.545
 7035SOL    HW222005   6.847   4.735   1.491
 7036SOL     OW22006   6.286   4.913   0.821
 7036SOL    HW122007   6.299   4.901   0.920
 7036SOL    HW222008   6.306   5.008   0.796
 7037SOL     OW22009   1.194   0.448   6.785
 7037SOL    HW122010   1.257   0.444   6.707
 7037SOL    HW222011   1.104   0.416   6.757
 7038SOL     OW22012   2.117   2.971   4.270
 7038SOL    HW122013   2.151   2.963   4.364
 7038SOL    HW222014   2.101   2.880   4.233
 7039SOL     OW22015   3.789   1.765   6.998
 7039SOL    HW122016   3.830   1.856   7.000
 7039SOL    HW222017   3.802   1.724   6.908
 7040SOL     OW22018   5.985   2.714   6.897
 7040SOL    HW122019   5.951   2.765   6.817
 7040SOL    HW222020   5.908   2.686   6.954
 7041SOL     OW22021   1.778   1.638   3.470
 7041SOL    HW122022   1.719   1.716   3.450
 7041SOL    HW222023   1.874   1.667   3.466
 7042SOL     OW22024   2.158   1.164   6.821
 7042SOL    HW122025   2.074   1.110   6.826
 7042SOL    HW222026   2.236   1.102   6.811
 7043SOL     OW22027   1.944   2.666   1.631
 7043SOL    HW122028   1.906   2.576   1.655
 7043SOL    HW222029   1.873   2.722   1.588
 7044SOL     OW22030   6.927   5.810   0.726
 7044SOL    HW122031   6.891   5.900   0.752
 7044SOL    HW222032   6.883   5.780   0.642
 7045SOL     OW22033   0.407   5.074   0.553
 7045SOL    HW122034   0.507   5.075   0.547
 7045SOL    HW222035   0.371   5.009   0.486
 7046SOL     OW22036   3.121   2.024   3.773
 7046SOL    HW122037   3.163   2.004   3.861
 7046SOL    HW222038   3.192   2.045   3.705
 7047SOL     OW22039   1.642   0.076   3.262
 7047SOL    HW122040   1.687   7.025   3.218
 7047SOL    HW222041   1.708   0.129   3.314
 7048SOL     OW22042   6.615   5.629   0.241
 7048SOL    HW122043   6.676   5.551   0.227
 7048SOL    HW222044   6.520   5.600   0.229
 7049SOL     OW22045   2.451   0.563   6.766
 7049SOL    HW122046   2.511   0.491   6.801
 7049SOL    HW222047   2.396   0.528   6.690
 7050SOL     OW22048   4.397   3.474   5.320
 7050SOL    HW122049   4.472   3.440   5.263
 7050SOL    HW222050   4.395   3.573   5.316
 7051SOL     OW22051   6.036   6.434   2.635
 7051SOL    HW122052   6.066   6.360   2.574
 7051SOL    HW222053   5.936   6.440   2.632
 7052SOL     OW22054   6.597   7.014   4.879
 7052SOL    HW122055   6.683   6.974   4.910
 7052SOL    HW222056   6.520   6.964   4.918
 7053SOL     OW22057   6.544   3.307   6.030
 7053SOL    HW122058   6.511   3.308   6.125
 7053SOL    HW222059   6.611   3.380   6.017
 7054SOL     OW22060   6.010   2.207   2.741
 7054SOL    HW122061   6.003   2.184   2.644
 7054SOL    HW222062   5.963   2.138   2.795
 7055SOL     OW22063   4.512   1.964   3.626
 7055SOL    HW122064   4.555   2.009   3.548
 7055SOL    HW222065   4.557   1.877   3.644
 7056SOL     OW22066   4.501   5.478   4.330
 7056SOL    HW122067   4.562   5.463   4.252
 7056SOL    HW222068   4.554   5.506   4.409
 7057SOL     OW22069   5.428   5.890   2.718
 7057SOL    HW122070   5.525   5.911   2.730
 7057SOL    HW222071   5.413   5.792   2.730
 7058SOL     OW22072   0.345   4.250   4.583
 7058SOL    HW122073   0.353   4.305   4.500
 7058SOL    HW222074   0.431   4.202   4.600
 7059SOL     OW22075   1.757   0.786   2.367
 7059SOL    HW122076   1.721   0.879   2.354
 7059SOL    HW222077   1.761   0.766   2.465
 7060SOL     OW22078   3.242   0.021   0.375
 7060SOL    HW122079   3.151   0.050   0.347
 7060SOL    HW222080   3.310   0.055   0.310
 7061SOL     OW22081   0.588   0.746   2.919
 7061SOL    HW122082   0.556   0.841   2.921
 7061SOL    HW222083   0.539   0.696   2.847
 7062SOL     OW22084   6.717   1.314   5.771
 7062SOL    HW122085   6.806   1.337   5.730
 7062SOL    HW222086   6.698   1.217   5.756
 7063SOL     OW22087   1.979   6.212   1.902
 7063SOL    HW122088   1.968   6.305   1.867
 7063SOL    HW222089   1.997   6.216   2.001
 7064SOL     OW22090   3.460   2.335   0.258
 7064SOL    HW122091   3.493   2.261   0.317
 7064SOL    HW222092   3.513   2.418   0.276
 7065SOL     OW22093   3.283   3.570   2.523
 7065SOL    HW122094   3.277   3.625   2.439
 7065SOL    HW222095   3.193   3.533   2.545
 7066SOL     OW22096   2.584   4.859   1.570
 7066SOL    HW122097   2.635   4.796   1.629
 7066SOL    HW222098   2.592   4.952   1.606
 7067SOL     OW22099   1.060   4.286   4.939
 7067SOL    HW122100   1.050   4.187   4.943
 7067SOL    HW222101   1.030   4.327   5.025
 7068SOL     OW22102   0.170   0.715   3.009
 7068SOL    HW122103   0.073   0.735   3.019
 7068SOL    HW222104   0.195   0.639   3.069
 7069SOL     OW22105   1.785   4.826   5.133
 7069SOL    HW122106   1.743   4.788   5.215
 7069SOL    HW222107   1.731   4.799   5.053
 7070SOL     OW22108   5.367   5.115   3.417
 7070SOL    HW122109   5.336   5.207   3.392
 7070SOL    HW222110   5.412   5.118   3.507
 7071SOL     OW22111   1.817   6.720   5.182
 7071SOL    HW122112   1.877   6.750   5.255
 7071SOL    HW222113   1.726   6.759   5.195
 7072SOL     OW22114   0.581   0.060   6.429
 7072SOL    HW122115   0.581   0.138   6.493
 7072SOL    HW222116   0.667   0.011   6.436
 7073SOL     OW22117   1.559   2.436   6.977
 7073SOL    HW122118   1.653   2.424   6.947
 7073SOL    HW222119   1.504   2.469   6.900
 7074SOL     OW22120   3.605   1.215   6.464
 7074SOL    HW122121   3.643   1.301   6.429
 7074SOL    HW222122   3.512   1.204   6.431
 7075SOL     OW22123   0.841   6.205   3.226
 7075SOL    HW122124   0.861   6.303   3.218
 7075SOL    HW222125   0.921   6.158   3.264
 7076SOL     OW22126   3.355   1.145   6.394
 7076SOL    HW122127   3.348   1.108   6.302
 7076SOL    HW222128   3.305   1.232   6.398
 7077SOL     OW22129   1.392   5.585   6.457
 7077SOL    HW122130   1.392   5.626   6.365
 7077SOL    HW222131   1.369   5.656   6.524
 7078SOL     OW22132   0.292   0.851   1.846
 7078SOL    HW122133   0.218   0.844   1.779
 7078SOL    HW222134   0.279   0.933   1.901
 7079SOL     OW22135   5.334   6.524   4.408
 7079SOL    HW122136   5.338   6.438   4.358
 7079SOL    HW222137   5.238   6.544   4.431
 7080SOL     OW22138   5.820   0.633   3.589
 7080SOL    HW122139   5.909   0.587   3.592
 7080SOL    HW222140   5.747   0.565   3.591
 7081SOL     OW22141   4.655   0.719   4.720
 7081SOL    HW122142   4.634   0.652   4.649
 7081SOL    HW222143   4.743   0.761   4.701
 7082SOL     OW22144   5.969   1.270   0.328
 7082SOL    HW122145   6.051   1.315   0.363
 7082SOL    HW222146   5.969   1.174   0.356
 7083SOL     OW22147   4.243   0.364   5.041
 7083SOL    HW122148   4.206   0.349   5.133
 7083SOL    HW222149   4.311   0.293   5.021
 7084SOL     OW22150   6.074   5.817   0.456
 7084SOL    HW122151   6.164   5.803   0.498
 7084SOL    HW222152   6.084   5.816   0.357
 7085SOL     OW22153   4.952   1.719   1.537
 7085SOL    HW122154   5.028   1.752   1.594
 7085SOL    HW222155   4.959   1.759   1.446
 7086SOL     OW22156   1.355   0.751   6.048
 7086SOL    HW122157   1.405   0.785   6.129
 7086SOL    HW222158   1.414   0.689   5.996
 7087SOL     OW22159   2.251   2.814   4.852
 7087SOL    HW122160   2.211   2.905   4.861
 7087SOL    HW222161   2.304   2.792   4.934
 7088SOL     OW22162   6.837   1.940   4.516
 7088SOL    HW122163   6.832   1.918   4.419
 7088SOL    HW222164   6.890   1.869   4.564
 7089SOL     OW22165   3.205   2.178   1.836
 7089SOL    HW122166   3.145   2.202   1.913
 7089SOL    HW222167   3.149   2.152   1.757
 7090SOL     OW22168   2.986   1.510   4.932
 7090SOL    HW122169   2.998   1.538   4.836
 7090SOL    HW222170   3.050   1.562   4.989
 7091SOL     OW22171   6.886   6.283   0.527
 7091SOL    HW122172   6.936   6.223   0.465
 7091SOL    HW222173   6.807   6.235   0.565
 7092SOL     OW22174   3.700   1.941   0.534
 7092SOL    HW122175   3.721   1.973   0.626
 7092SOL    HW222176   3.771   1.972   0.470
 7093SOL     OW22177   3.871   2.918   6.609
 7093SOL    HW122178   3.897   2.953   6.519
 7093SOL    HW222179   3.773   2.930   6.622
 7094SOL     OW22180   6.190   0.965   6.646
 7094SOL    HW122181   6.285   0.984   6.671
 7094SOL    HW222182   6.166   0.872   6.674
 7095SOL     OW22183   0.814   4.075   1.062
 7095SOL    HW122184   0.812   4.158   1.118
 7095SOL    HW222185   0.856   4.000   1.113
 7096SOL     OW22186   3.889   6.778   3.001
 7096SOL    HW122187   3.825   6.736   3.065
 7096SOL    HW222188   3.847   6.785   2.911
 7097SOL     OW22189   1.842   1.557   1.626
 7097SOL    HW122190   1.940   1.541   1.643
 7097SOL    HW222191   1.831   1.595   1.534
 7098SOL     OW22192   1.256   0.488   6.178
 7098SOL    HW122193   1.260   0.542   6.093
 7098SOL    HW222194   1.258   0.549   6.256
 7099SOL     OW22195   6.863   1.260   5.152
 7099SOL    HW122196   6.803   1.304   5.219
 7099SOL    HW222197   6.938   1.322   5.130
 7100SOL     OW22198   5.410   1.637   1.613
 7100SOL    HW122199   5.358   1.602   1.534
 7100SOL    HW222200   5.505   1.606   1.607
 7101SOL     OW22201   1.978   0.520   4.804
 7101SOL    HW122202   1.892   0.534   4.755
 7101SOL    HW222203   2.054   0.526   4.741
 7102SOL     OW22204   4.362   2.376   0.664
 7102SOL    HW122205   4.440   2.409   0.719
 7102SOL    HW222206   4.295   2.450   0.654
 7103SOL     OW22207   1.806   0.131   5.735
 7103SOL    HW122208   1.883   0.182   5.694
 7103SOL    HW222209   1.840   0.080   5.814
 7104SOL     OW22210   0.664   3.022   1.632
 7104SOL    HW122211   0.752   2.982   1.607
 7104SOL    HW222212   0.644   3.101   1.573
 7105SOL     OW22213   2.410   2.855   5.432
 7105SOL    HW122214   2.352   2.880   5.355
 7105SOL    HW222215   2.505   2.846   5.402
 7106SOL     OW22216   3.166   2.873   5.349
 7106SOL    HW122217   3.245   2.927   5.320
 7106SOL    HW222218   3.194   2.777   5.362
 7107SOL     OW22219   1.663   1.174   0.319
 7107SOL    HW122220   1.568   1.145   0.317
 7107SOL    HW222221   1.672   1.265   0.278
 7108SOL     OW22222   4.377   6.706   1.873
 7108SOL    HW122223   4.305   6.642   1.903
 7108SOL    HW222224   4.377   6.786   1.933
 7109SOL     OW22225   4.820   5.795   6.579
 7109SOL    HW122226   4.785   5.840   6.662
 7109SOL    HW222227   4.836   5.863   6.508
 7110SOL     OW22228   3.910   5.000   4.492
 7110SOL    HW122229   3.967   4.920   4.476
 7110SOL    HW222230   3.935   5.043   4.579
 7111SOL     OW22231   1.188   2.562   3.611
 7111SOL    HW122232   1.143   2.647   3.583
 7111SOL    HW222233   1.226   2.574   3.703
 7112SOL     OW22234   1.713   6.219   3.173
 7112SOL    HW122235   1.629   6.259   3.211
 7112SOL    HW222236   1.723   6.125   3.206
 7113SOL     OW22237   4.008   3.623   6.012
 7113SOL    HW122238   4.080   3.577   6.064
 7113SOL    HW222239   3.950   3.675   6.075
 7114SOL     OW22240   3.793   6.469   0.939
 7114SOL    HW122241   3.810   6.541   0.872
 7114SOL    HW222242   3.747   6.392   0.894
 7115SOL     OW22243   4.029   2.617   1.152
 7115SOL    HW122244   4.064   2.580   1.065
 7115SOL    HW222245   4.019   2.716   1.144
 7116SOL     OW22246   6.141   4.214   3.216
 7116SOL    HW122247   6.064   4.278   3.213
 7116SOL    HW222248   6.198   4.235   3.296
 7117SOL     OW22249   5.268   6.917   2.356
 7117SOL    HW122250   5.260   6.899   2.454
 7117SOL    HW222251   5.238   7.011   2.337
 7118SOL     OW22252   6.602   3.446   3.527
 7118SOL    HW122253   6.702   3.443   3.538
 7118SOL    HW222254   6.580   3.443   3.430
 7119SOL     OW22255   1.045   2.070   2.937
 7119SOL    HW122256   1.075   2.144   2.997
 7119SOL    HW222257   0.951   2.086   2.907
 7120SOL     OW22258   4.799   6.447   3.890
 7120SOL    HW122259   4.856   6.511   3.942
 7120SOL    HW222260   4.759   6.495   3.811
 7121SOL     OW22261   1.939   6.427   1.054
 7121SOL    HW122262   1.931   6.354   0.986
 7121SOL    HW222263   1.952   6.514   1.007
 7122SOL     OW22264   6.988   6.063   0.406
 7122SOL    HW122265   6.926   5.988   0.386
 7122SOL    HW222266   0.019   6.039   0.485
 7123SOL     OW22267   3.078   5.226   0.896
 7123SOL    HW122268   3.094   5.279   0.813
 7123SOL    HW222269   3.134   5.143   0.894
 7124SOL     OW22270   0.335   5.832   6.749
 7124SOL    HW122271   0.332   5.733   6.735
 7124SOL    HW222272   0.242   5.867   6.761
 7125SOL     OW22273   0.895   6.117   3.618
 7125SOL    HW122274   0.970   6.082   3.562
 7125SOL    HW222275   0.899   6.217   3.621
 7126SOL     OW22276   1.562   3.392   1.607
 7126SOL    HW122277   1.628   3.459   1.572
 7126SOL    HW222278   1.474   3.436   1.621
 7127SOL     OW22279   2.238   0.651   5.187
 7127SOL    HW122280   2.181   0.583   5.141
 7127SOL    HW222281   2.258   0.726   5.123
 7128SOL     OW22282   2.993   3.518   2.553
 7128SOL    HW122283   2.976   3.507   2.651
 7128SOL    HW222284   2.955   3.606   2.523
 7129SOL     OW22285   3.025   2.432   0.716
 7129SOL    HW122286   3.114   2.430   0.671
 7129SOL    HW222287   3.001   2.526   0.739
 7130SOL     OW22288   1.656   0.459   2.955
 7130SOL    HW122289   1.648   0.444   3.054
 7130SOL    HW222290   1.650   0.557   2.936
 7131SOL     OW22291   2.682   1.110   3.432
 7131SOL    HW122292   2.587   1.143   3.424
 7131SOL    HW222293   2.700   1.044   3.360
 7132SOL     OW22294   3.020   3.831   2.158
 7132SOL    HW122295   2.971   3.757   2.111
 7132SOL    HW222296   3.079   3.879   2.092
 7133SOL     OW22297   6.522   4.226   1.546
 7133SOL    HW122298   6.543   4.130   1.567
 7133SOL    HW222299   6.432   4.249   1.582
 7134SOL     OW22300   4.684   4.685   2.317
 7134SOL    HW122301   4.619   4.612   2.295
 7134SOL    HW222302   4.634   4.766   2.348
 7135SOL     OW22303   0.371   1.770   6.090
 7135SOL    HW122304   0.440   1.834   6.122
 7135SOL    HW222305   0.396   1.677   6.116
 7136SOL     OW22306   1.520   1.711   6.584
 7136SOL    HW122307   1.421   1.705   6.571
 7136SOL    HW222308   1.566   1.654   6.515
 7137SOL     OW22309   4.953   2.254   5.179
 7137SOL    HW122310   4.963   2.337   5.124
 7137SOL    HW222311   4.959   2.174   5.119
 7138SOL     OW22312   2.178   2.399   6.693
 7138SOL    HW122313   2.180   2.477   6.754
 7138SOL    HW222314   2.121   2.420   6.613
 7139SOL     OW22315   2.748   1.602   0.482
 7139SOL    HW122316   2.689   1.589   0.561
 7139SOL    HW222317   2.779   1.512   0.449
 7140SOL     OW22318   6.643   4.594   4.195
 7140SOL    HW122319   6.665   4.688   4.167
 7140SOL    HW222320   6.594   4.549   4.120
 7141SOL     OW22321   0.808   0.082   1.972
 7141SOL    HW122322   0.894   0.131   1.956
 7141SOL    HW222323   0.781   0.034   1.889
 7142SOL     OW22324   3.424   6.254   3.799
 7142SOL    HW122325   3.335   6.212   3.780
 7142SOL    HW222326   3.411   6.351   3.823
 7143SOL     OW22327   1.585   2.300   3.496
 7143SOL    HW122328   1.605   2.337   3.587
 7143SOL    HW222329   1.549   2.207   3.504
 7144SOL     OW22330   1.261   3.542   3.508
 7144SOL    HW122331   1.343   3.551   3.565
 7144SOL    HW222332   1.205   3.467   3.541
 7145SOL     OW22333   4.155   5.550   6.494
 7145SOL    HW122334   4.096   5.470   6.491
 7145SOL    HW222335   4.248   5.522   6.520
 7146SOL     OW22336   3.419   5.046   1.717
 7146SOL    HW122337   3.400   5.046   1.619
 7146SOL    HW222338   3.338   5.074   1.768
 7147SOL     OW22339   0.307   0.828   3.636
 7147SOL    HW122340   0.317   0.927   3.629
 7147SOL    HW222341   0.275   0.790   3.549
 7148SOL     OW22342   6.348   1.705   0.454
 7148SOL    HW122343   6.331   1.724   0.357
 7148SOL    HW222344   6.446   1.697   0.470
 7149SOL     OW22345   1.070   0.650   4.532
 7149SOL    HW122346   1.127   0.573   4.503
 7149SOL    HW222347   1.128   0.727   4.557
 7150SOL     OW22348   5.858   2.906   5.998
 7150SOL    HW122349   5.781   2.934   5.942
 7150SOL    HW222350   5.938   2.961   5.975
 7151SOL     OW22351   1.949   6.799   6.969
 7151SOL    HW122352   1.914   6.845   6.887
 7151SOL    HW222353   1.973   6.867   0.012
 7152SOL     OW22354   1.153   2.467   4.735
 7152SOL    HW122355   1.181   2.501   4.825
 7152SOL    HW222356   1.072   2.517   4.704
 7153SOL     OW22357   4.293   1.826   3.121
 7153SOL    HW122358   4.246   1.891   3.061
 7153SOL    HW222359   4.230   1.752   3.145
 7154SOL     OW22360   3.323   6.984   4.540
 7154SOL    HW122361   3.345   6.925   4.618
 7154SOL    HW222362   3.359   6.943   4.456
 7155SOL     OW22363   2.261   1.345   3.809
 7155SOL    HW122364   2.359   1.340   3.825
 7155SOL    HW222365   2.243   1.399   3.726
 7156SOL     OW22366   2.169   5.676   5.670
 7156SOL    HW122367   2.252   5.632   5.637
 7156SOL    HW222368   2.128   5.619   5.742
 7157SOL     OW22369   4.863   4.727   0.203
 7157SOL    HW122370   4.918   4.774   0.134
 7157SOL    HW222371   4.846   4.633   0.174
 7158SOL     OW22372   4.162   0.624   3.529
 7158SOL    HW122373   4.165   0.720   3.555
 7158SOL    HW222374   4.211   0.611   3.443
 7159SOL     OW22375   1.370   6.308   6.934
 7159SOL    HW122376   1.385   6.351   7.023
 7159SOL    HW222377   1.316   6.368   6.876
 7160SOL     OW22378   6.870   0.712   2.183
 7160SOL    HW122379   6.830   0.756   2.263
 7160SOL    HW222380   6.818   0.630   2.160
 7161SOL     OW22381   3.590   4.109   4.650
 7161SOL    HW122382   3.594   4.037   4.582
 7161SOL    HW222383   3.683   4.130   4.682
 7162SOL     OW22384   3.553   4.947   4.084
 7162SOL    HW122385   3.500   4.958   4.168
 7162SOL    HW222386   3.494   4.969   4.005
 7163SOL     OW22387   1.344   6.509   3.629
 7163SOL    HW122388   1.395   6.546   3.551
 7163SOL    HW222389   1.249   6.540   3.625
 7164SOL     OW22390   2.694   1.797   4.625
 7164SOL    HW122391   2.636   1.876   4.647
 7164SOL    HW222392   2.730   1.808   4.532
 7165SOL     OW22393   4.342   5.110   2.146
 7165SOL    HW122394   4.321   5.017   2.117
 7165SOL    HW222395   4.335   5.117   2.245
 7166SOL     OW22396   3.544   6.533   2.132
 7166SOL    HW122397   3.614   6.491   2.191
 7166SOL    HW222398   3.576   6.622   2.101
 7167SOL     OW22399   5.491   3.424   0.314
 7167SOL    HW122400   5.487   3.409   0.215
 7167SOL    HW222401   5.403   3.402   0.355
 7168SOL     OW22402   7.026   1.404   4.384
 7168SOL    HW122403   0.025   1.312   4.414
 7168SOL    HW222404   6.942   1.399   4.330
 7169SOL     OW22405   2.413   2.661   6.564
 7169SOL    HW122406   2.468   2.622   6.491
 7169SOL    HW222407   2.470   2.673   6.646
 7170SOL     OW22408   5.288   3.934   4.286
 7170SOL    HW122409   5.224   3.952   4.211
 7170SOL    HW222410   5.315   4.020   4.328
 7171SOL     OW22411   3.655   3.849   5.547
 7171SOL    HW122412   3.601   3.852   5.632
 7171SOL    HW222413   3.742   3.803   5.564
 7172SOL     OW22414   6.938   6.207   1.135
 7172SOL    HW122415   6.968   6.202   1.230
 7172SOL    HW222416   6.998   6.269   1.085
 7173SOL     OW22417   6.466   6.555   4.563
 7173SOL    HW122418   6.427   6.508   4.642
 7173SOL    HW222419   6.511   6.639   4.593
 7174SOL     OW22420   1.141   6.215   6.023
 7174SOL    HW122421   1.090   6.184   6.103
 7174SOL    HW222422   1.197   6.140   5.989
 7175SOL     OW22423   6.307   3.656   5.317
 7175SOL    HW122424   6.344   3.690   5.230
 7175SOL    HW222425   6.324   3.724   5.389
 7176SOL     OW22426   1.272   3.482   1.312
 7176SOL    HW122427   1.200   3.551   1.305
 7176SOL    HW222428   1.330   3.486   1.230
 7177SOL     OW22429   0.604   5.081   1.570
 7177SOL    HW122430   0.671   5.071   1.497
 7177SOL    HW222431   0.517   5.040   1.542
 7178SOL     OW22432   6.070   0.605   6.276
 7178SOL    HW122433   6.132   0.644   6.208
 7178SOL    HW222434   6.117   0.601   6.364
 7179SOL     OW22435   0.437   3.751   5.745
 7179SOL    HW122436   0.505   3.776   5.676
 7179SOL    HW222437   0.393   3.665   5.720
 7180SOL     OW22438   6.475   0.335   2.511
 7180SOL    HW122439   6.537   0.398   2.558
 7180SOL    HW222440   6.450   0.374   2.422
 7181SOL     OW22441   5.392   5.611   2.402
 7181SOL    HW122442   5.349   5.603   2.492
 7181SOL    HW222443   5.322   5.635   2.334
 7182SOL     OW22444   4.443   3.667   6.250
 7182SOL    HW122445   4.537   3.699   6.239
 7182SOL    HW222446   4.390   3.734   6.301
 7183SOL     OW22447   2.256   2.871   3.066
 7183SOL    HW122448   2.310   2.806   3.118
 7183SOL    HW222449   2.246   2.838   2.972
 7184SOL     OW22450   2.082   5.222   3.424
 7184SOL    HW122451   2.052   5.237   3.330
 7184SOL    HW222452   2.167   5.169   3.425
 7185SOL     OW22453   4.995   2.230   6.960
 7185SOL    HW122454   5.034   2.203   0.022
 7185SOL    HW222455   4.897   2.207   6.960
 7186SOL     OW22456   0.922   6.733   4.594
 7186SOL    HW122457   0.958   6.748   4.502
 7186SOL    HW222458   0.862   6.653   4.593
 7187SOL     OW22459   1.739   4.911   1.577
 7187SOL    HW122460   1.800   4.850   1.526
 7187SOL    HW222461   1.651   4.867   1.589
 7188SOL     OW22462   5.132   0.564   1.589
 7188SOL    HW122463   5.048   0.572   1.643
 7188SOL    HW222464   5.200   0.512   1.642
 7189SOL     OW22465   6.051   0.684   5.577
 7189SOL    HW122466   6.038   0.670   5.479
 7189SOL    HW222467   6.098   0.605   5.617
 7190SOL     OW22468   4.601   5.472   2.906
 7190SOL    HW122469   4.578   5.377   2.883
 7190SOL    HW222470   4.556   5.534   2.841
 7191SOL     OW22471   0.909   2.821   1.331
 7191SOL    HW122472   0.973   2.862   1.266
 7191SOL    HW222473   0.928   2.723   1.338
 7192SOL     OW22474   3.185   3.904   6.270
 7192SOL    HW122475   3.186   3.997   6.306
 7192SOL    HW222476   3.277   3.877   6.242
 7193SOL     OW22477   5.756   2.054   5.091
 7193SOL    HW122478   5.666   2.031   5.052
 7193SOL    HW222479   5.776   1.993   5.168
 7194SOL     OW22480   3.067   1.017   2.257
 7194SOL    HW122481   3.106   1.088   2.198
 7194SOL    HW222482   2.969   1.032   2.267
 7195SOL     OW22483   0.646   6.967   2.631
 7195SOL    HW122484   0.661   0.000   2.552
 7195SOL    HW222485   0.680   7.012   2.714
 7196SOL     OW22486   3.788   3.674   1.670
 7196SOL    HW122487   3.864   3.634   1.722
 7196SOL    HW222488   3.824   3.725   1.592
 7197SOL     OW22489   2.078   0.998   4.478
 7197SOL    HW122490   2.107   0.994   4.382
 7197SOL    HW222491   2.083   1.093   4.510
 7198SOL     OW22492   0.390   6.931   5.815
 7198SOL    HW122493   0.404   7.012   5.872
 7198SOL    HW222494   0.472   6.874   5.816
 7199SOL     OW22495   6.193   5.458   2.147
 7199SOL    HW122496   6.238   5.414   2.225
 7199SOL    HW222497   6.174   5.389   2.076
 7200SOL     OW22498   1.304   2.303   2.459
 7200SOL    HW122499   1.389   2.356   2.458
 7200SOL    HW222500   1.239   2.346   2.522
 7201SOL     OW22501   1.780   4.186   4.094
 7201SOL    HW122502   1.829   4.225   4.016
 7201SOL    HW222503   1.775   4.086   4.083
 7202SOL     OW22504   2.191   0.113   6.127
 7202SOL    HW122505   2.114   0.054   6.152
 7202SOL    HW222506   2.252   0.064   6.064
 7203SOL     OW22507   5.375   7.026   6.784
 7203SOL    HW122508   5.325   0.034   6.863
 7203SOL    HW222509   5.397   0.075   6.723
 7204SOL     OW22510   6.816   2.269   2.819
 7204SOL    HW122511   6.816   2.207   2.897
 7204SOL    HW222512   6.723   2.301   2.802
 7205SOL     OW22513   1.382   3.973   1.512
 7205SOL    HW122514   1.282   3.975   1.522
 7205SOL    HW222515   1.416   4.066   1.499
 7206SOL     OW22516   6.329   1.004   1.525
 7206SOL    HW122517   6.333   1.070   1.600
 7206SOL    HW222518   6.409   1.014   1.466
 7207SOL     OW22519   3.966   0.120   1.612
 7207SOL    HW122520   3.936   0.126   1.707
 7207SOL    HW222521   3.995   0.211   1.580
 7208SOL     OW22522   2.536   0.695   5.291
 7208SOL    HW122523   2.438   0.697   5.312
 7208SOL    HW222524   2.563   0.781   5.249
 7209SOL     OW22525   3.294   3.467   5.291
 7209SOL    HW122526   3.248   3.524   5.359
 7209SOL    HW222527   3.295   3.372   5.323
 7210SOL     OW22528   4.431   6.603   4.579
 7210SOL    HW122529   4.401   6.693   4.548
 7210SOL    HW222530   4.530   6.595   4.569
 7211SOL     OW22531   0.760   5.231   2.379
 7211SOL    HW122532   0.709   5.175   2.314
 7211SOL    HW222533   0.857   5.228   2.357
 7212SOL     OW22534   5.378   7.026   3.304
 7212SOL    HW122535   5.436   0.062   3.357
 7212SOL    HW222536   5.341   0.049   3.225
 7213SOL     OW22537   5.883   6.440   5.881
 7213SOL    HW122538   5.921   6.530   5.859
 7213SOL    HW222539   5.856   6.394   5.796
 7214SOL     OW22540   1.318   4.991   5.803
 7214SOL    HW122541   1.332   4.936   5.885
 7214SOL    HW222542   1.242   4.953   5.750
 7215SOL     OW22543   1.121   3.251   1.331
 7215SOL    HW122544   1.210   3.214   1.356
 7215SOL    HW222545   1.129   3.349   1.315
 7216SOL     OW22546   2.938   1.724   2.658
 7216SOL    HW122547   3.031   1.733   2.621
 7216SOL    HW222548   2.872   1.744   2.585
 7217SOL     OW22549   0.541   3.427   1.817
 7217SOL    HW122550   0.480   3.403   1.741
 7217SOL    HW222551   0.515   3.376   1.899
 7218SOL     OW22552   6.451   2.965   3.986
 7218SOL    HW122553   6.431   2.873   4.020
 7218SOL    HW222554   6.436   3.032   4.058
 7219SOL     OW22555   2.838   1.367   1.392
 7219SOL    HW122556   2.846   1.355   1.293
 7219SOL    HW222557   2.757   1.320   1.426
 7220SOL     OW22558   0.042   1.651   3.188
 7220SOL    HW122559   0.137   1.682   3.186
 7220SOL    HW222560   0.006   1.660   3.282
 7221SOL     OW22561   6.898   4.174   5.209
 7221SOL    HW122562   6.953   4.136   5.135
 7221SOL    HW222563   6.829   4.235   5.171
 7222SOL     OW22564   6.739   7.019   2.929
 7222SOL    HW122565   6.805   0.009   3.002
 7222SOL    HW222566   6.647   0.009   2.965
 7223SOL     OW22567   4.527   1.212   4.511
 7223SOL    HW122568   4.519   1.180   4.417
 7223SOL    HW222569   4.435   1.222   4.550
 7224SOL     OW22570   5.518   1.516   3.482
 7224SOL    HW122571   5.593   1.494   3.420
 7224SOL    HW222572   5.535   1.605   3.525
 7225SOL     OW22573   2.860   0.341   1.621
 7225SOL    HW122574   2.805   0.422   1.638
 7225SOL    HW222575   2.955   0.367   1.605
 7226SOL     OW22576   6.039   6.542   5.325
 7226SOL    HW122577   6.031   6.620   5.263
 7226SOL    HW222578   6.034   6.457   5.273
 7227SOL     OW22579   0.303   2.994   6.169
 7227SOL    HW122580   0.289   2.911   6.116
 7227SOL    HW222581   0.384   3.042   6.134
 7228SOL     OW22582   1.755   0.329   2.713
 7228SOL    HW122583   1.714   0.389   2.644
 7228SOL    HW222584   1.732   0.363   2.804
 7229SOL     OW22585   0.052   0.245   3.282
 7229SOL    HW122586   0.022   0.193   3.363
 7229SOL    HW222587   0.118   0.190   3.231
 7230SOL     OW22588   6.474   5.459   1.083
 7230SOL    HW122589   6.540   5.532   1.065
 7230SOL    HW222590   6.495   5.381   1.024
 7231SOL     OW22591   5.740   0.482   0.077
 7231SOL    HW122592   5.803   0.504   0.003
 7231SOL    HW222593   5.649   0.515   0.055
 7232SOL     OW22594   3.040   4.173   0.817
 7232SOL    HW122595   2.969   4.136   0.757
 7232SOL    HW222596   3.116   4.109   0.824
 7233SOL     OW22597   0.963   2.250   5.711
 7233SOL    HW122598   1.041   2.284   5.762
 7233SOL    HW222599   0.889   2.317   5.715
 7234SOL     OW22600   5.565   2.812   3.987
 7234SOL    HW122601   5.551   2.713   3.985
 7234SOL    HW222602   5.662   2.833   3.982
 7235SOL     OW22603   6.119   2.784   4.959
 7235SOL    HW122604   6.195   2.771   4.895
 7235SOL    HW222605   6.034   2.797   4.907
 7236SOL     OW22606   0.979   1.621   3.428
 7236SOL    HW122607   0.974   1.615   3.328
 7236SOL    HW222608   0.975   1.528   3.466
 7237SOL     OW22609   5.493   6.081   4.889
 7237SOL    HW122610   5.471   6.097   4.985
 7237SOL    HW222611   5.584   6.116   4.869
 7238SOL     OW22612   1.570   0.132   2.385
 7238SOL    HW122613   1.583   0.050   2.329
 7238SOL    HW222614   1.573   0.108   2.482
 7239SOL     OW22615   4.520   2.145   2.243
 7239SOL    HW122616   4.529   2.237   2.282
 7239SOL    HW222617   4.496   2.153   2.146
 7240SOL     OW22618   3.337   3.319   2.875
 7240SOL    HW122619   3.293   3.237   2.911
 7240SOL    HW222620   3.280   3.399   2.895
 7241SOL     OW22621   4.922   6.828   4.431
 7241SOL    HW122622   4.836   6.847   4.479
 7241SOL    HW222623   4.992   6.802   4.497
 7242SOL     OW22624   6.539   6.041   0.265
 7242SOL    HW122625   6.630   6.015   0.232
 7242SOL    HW222626   6.504   5.971   0.326
 7243SOL     OW22627   0.490   6.117   1.080
 7243SOL    HW122628   0.398   6.145   1.056
 7243SOL    HW222629   0.499   6.018   1.071
 7244SOL     OW22630   5.872   2.056   1.891
 7244SOL    HW122631   5.867   2.144   1.845
 7244SOL    HW222632   5.954   2.007   1.860
 7245SOL     OW22633   5.631   1.801   3.505
 7245SOL    HW122634   5.542   1.838   3.478
 7245SOL    HW222635   5.701   1.832   3.441
 7246SOL     OW22636   1.464   5.796   5.724
 7246SOL    HW122637   1.516   5.879   5.703
 7246SOL    HW222638   1.372   5.821   5.754
 7247SOL     OW22639   3.930   5.849   4.070
 7247SOL    HW122640   3.931   5.776   4.137
 7247SOL    HW222641   3.936   5.810   3.978
 7248SOL     OW22642   3.173   1.228   5.140
 7248SOL    HW122643   3.087   1.224   5.088
 7248SOL    HW222644   3.240   1.282   5.090
 7249SOL     OW22645   4.697   3.153   6.325
 7249SOL    HW122646   4.774   3.093   6.347
 7249SOL    HW222647   4.612   3.100   6.327
 7250SOL     OW22648   3.067   2.858   0.157
 7250SOL    HW122649   2.982   2.892   0.195
 7250SOL    HW222650   3.129   2.935   0.139
 7251SOL     OW22651   5.847   1.318   5.517
 7251SOL    HW122652   5.786   1.320   5.438
 7251SOL    HW222653   5.942   1.316   5.486
 7252SOL     OW22654   4.739   3.379   5.333
 7252SOL    HW122655   4.715   3.463   5.283
 7252SOL    HW222656   4.766   3.308   5.268
 7253SOL     OW22657   5.267   4.933   6.676
 7253SOL    HW122658   5.167   4.937   6.680
 7253SOL    HW222659   5.304   4.933   6.769
 7254SOL     OW22660   4.931   6.399   5.289
 7254SOL    HW122661   5.014   6.435   5.247
 7254SOL    HW222662   4.900   6.319   5.239
 7255SOL     OW22663   3.632   3.252   2.936
 7255SOL    HW122664   3.544   3.294   2.914
 7255SOL    HW222665   3.639   3.163   2.890
 7256SOL     OW22666   3.060   5.713   3.296
 7256SOL    HW122667   3.082   5.616   3.280
 7256SOL    HW222668   3.015   5.750   3.215
 7257SOL     OW22669   6.036   5.542   2.764
 7257SOL    HW122670   5.965   5.502   2.822
 7257SOL    HW222671   5.995   5.607   2.700
 7258SOL     OW22672   2.341   0.404   5.794
 7258SOL    HW122673   2.410   0.337   5.823
 7258SOL    HW222674   2.256   0.388   5.844
 7259SOL     OW22675   3.265   4.287   6.160
 7259SOL    HW122676   3.310   4.376   6.151
 7259SOL    HW222677   3.277   4.234   6.077
 7260SOL     OW22678   4.422   2.358   2.648
 7260SOL    HW122679   4.434   2.337   2.551
 7260SOL    HW222680   4.457   2.450   2.667
 7261SOL     OW22681   2.388   4.905   1.380
 7261SOL    HW122682   2.429   4.971   1.318
 7261SOL    HW222683   2.457   4.872   1.444
 7262SOL     OW22684   6.159   0.568   5.031
 7262SOL    HW122685   6.209   0.615   5.103
 7262SOL    HW222686   6.095   0.631   4.987
 7263SOL     OW22687   5.546   5.200   1.222
 7263SOL    HW122688   5.453   5.224   1.249
 7263SOL    HW222689   5.610   5.265   1.264
 7264SOL     OW22690   0.086   6.784   4.587
 7264SOL    HW122691   0.061   6.742   4.674
 7264SOL    HW222692   0.116   6.878   4.602
 7265SOL     OW22693   4.876   2.872   6.662
 7265SOL    HW122694   4.863   2.961   6.705
 7265SOL    HW222695   4.906   2.805   6.731
 7266SOL     OW22696   4.025   1.399   2.930
 7266SOL    HW122697   4.023   1.421   3.027
 7266SOL    HW222698   3.932   1.388   2.896
 7267SOL     OW22699   4.901   2.178   3.861
 7267SOL    HW122700   4.908   2.151   3.957
 7267SOL    HW222701   4.841   2.257   3.853
 7268SOL     OW22702   4.006   6.268   0.151
 7268SOL    HW122703   4.091   6.285   0.102
 7268SOL    HW222704   3.937   6.335   0.123
 7269SOL     OW22705   1.647   0.074   2.642
 7269SOL    HW122706   1.609   0.027   2.721
 7269SOL    HW222707   1.711   0.145   2.672
 7270SOL     OW22708   3.177   2.569   1.579
 7270SOL    HW122709   3.201   2.661   1.609
 7270SOL    HW222710   3.123   2.575   1.494
 7271SOL     OW22711   5.817   5.519   3.505
 7271SOL    HW122712   5.914   5.517   3.478
 7271SOL    HW222713   5.772   5.435   3.472
 7272SOL     OW22714   5.833   1.644   1.815
 7272SOL    HW122715   5.900   1.610   1.881
 7272SOL    HW222716   5.864   1.623   1.722
 7273SOL     OW22717   6.439   5.219   4.855
 7273SOL    HW122718   6.413   5.189   4.764
 7273SOL    HW222719   6.423   5.317   4.864
 7274SOL     OW22720   5.457   5.192   3.681
 7274SOL    HW122721   5.490   5.284   3.662
 7274SOL    HW222722   5.365   5.198   3.721
 7275SOL     OW22723   6.127   6.769   1.959
 7275SOL    HW122724   6.160   6.677   1.979
 7275SOL    HW222725   6.106   6.776   1.861
 7276SOL     OW22726   3.970   1.932   2.701
 7276SOL    HW122727   3.949   1.915   2.797
 7276SOL    HW222728   3.885   1.940   2.648
 7277SOL     OW22729   5.954   2.445   3.957
 7277SOL    HW122730   5.911   2.481   4.040
 7277SOL    HW222731   5.993   2.520   3.904
 7278SOL     OW22732   3.485   0.887   3.277
 7278SOL    HW122733   3.453   0.925   3.363
 7278SOL    HW222734   3.582   0.909   3.265
 7279SOL     OW22735   3.585   3.763   1.421
 7279SOL    HW122736   3.684   3.755   1.426
 7279SOL    HW222737   3.543   3.698   1.484
 7280SOL     OW22738   6.963   1.345   5.648
 7280SOL    HW122739   6.982   1.433   5.603
 7280SOL    HW222740   7.011   1.272   5.599
 7281SOL     OW22741   3.630   6.575   3.563
 7281SOL    HW122742   3.542   6.530   3.549
 7281SOL    HW222743   3.627   6.668   3.526
 7282SOL     OW22744   0.471   3.889   1.265
 7282SOL    HW122745   0.448   3.925   1.356
 7282SOL    HW222746   0.441   3.794   1.259
 7283SOL     OW22747   2.872   6.362   2.884
 7283SOL    HW122748   2.849   6.412   2.801
 7283SOL    HW222749   2.947   6.299   2.866
 7284SOL     OW22750   0.667   0.440   3.720
 7284SOL    HW122751   0.697   0.517   3.775
 7284SOL    HW222752   0.654   0.360   3.779
 7285SOL     OW22753   5.128   2.592   1.623
 7285SOL    HW122754   5.192   2.669   1.626
 7285SOL    HW222755   5.054   2.613   1.560
 7286SOL     OW22756   6.616   1.270   4.715
 7286SOL    HW122757   6.716   1.274   4.706
 7286SOL    HW222758   6.589   1.176   4.734
 7287SOL     OW22759   3.234   1.677   4.391
 7287SOL    HW122760   3.185   1.594   4.421
 7287SOL    HW222761   3.228   1.746   4.463
 7288SOL     OW22762   2.850   2.018   1.831
 7288SOL    HW122763   2.924   1.960   1.867
 7288SOL    HW222764   2.882   2.064   1.748
 7289SOL     OW22765   6.575   2.347   1.105
 7289SOL    HW122766   6.666   2.355   1.065
 7289SOL    HW222767   6.580   2.363   1.204
 7290SOL     OW22768   3.247   2.139   4.878
 7290SOL    HW122769   3.217   2.048   4.907
 7290SOL    HW222770   3.196   2.209   4.929
 7291SOL     OW22771   1.251   0.917   0.376
 7291SOL    HW122772   1.240   0.828   0.331
 7291SOL    HW222773   1.166   0.970   0.365
 7292SOL     OW22774   3.937   1.153   2.200
 7292SOL    HW122775   3.994   1.176   2.122
 7292SOL    HW222776   3.939   1.054   2.215
 7293SOL     OW22777   6.290   1.173   4.153
 7293SOL    HW122778   6.318   1.261   4.114
 7293SOL    HW222779   6.192   1.175   4.172
 7294SOL     OW22780   2.593   1.173   2.809
 7294SOL    HW122781   2.595   1.272   2.822
 7294SOL    HW222782   2.639   1.129   2.886
 7295SOL     OW22783   5.615   4.241   1.728
 7295SOL    HW122784   5.643   4.334   1.702
 7295SOL    HW222785   5.683   4.202   1.791
 7296SOL     OW22786   3.202   0.007   2.883
 7296SOL    HW122787   3.124   6.981   2.848
 7296SOL    HW222788   3.169   0.082   2.940
 7297SOL     OW22789   4.015   0.010   0.506
 7297SOL    HW122790   4.086   6.966   0.512
 7297SOL    HW222791   3.930   7.002   0.545
 7298SOL     OW22792   3.850   4.306   1.051
 7298SOL    HW122793   3.768   4.353   1.017
 7298SOL    HW222794   3.924   4.316   0.986
 7299SOL     OW22795   6.601   3.212   0.134
 7299SOL    HW122796   6.667   3.244   0.065
 7299SOL    HW222797   6.531   3.281   0.148
 7300SOL     OW22798   0.977   4.417   1.732
 7300SOL    HW122799   0.922   4.426   1.649
 7300SOL    HW222800   1.070   4.389   1.708
 7301SOL     OW22801   4.097   1.826   0.482
 7301SOL    HW122802   4.107   1.816   0.581
 7301SOL    HW222803   4.084   1.736   0.440
 7302SOL     OW22804   5.438   2.064   6.725
 7302SOL    HW122805   5.434   2.106   6.635
 7302SOL    HW222806   5.517   2.003   6.730
 7303SOL     OW22807   3.765   2.302   1.416
 7303SOL    HW122808   3.748   2.401   1.413
 7303SOL    HW222809   3.838   2.279   1.353
 7304SOL     OW22810   2.476   6.855   0.909
 7304SOL    HW122811   2.445   6.934   0.962
 7304SOL    HW222812   2.448   6.866   0.814
 7305SOL     OW22813   6.938   0.074   6.357
 7305SOL    HW122814   6.939   0.081   6.258
 7305SOL    HW222815   6.973   7.010   6.384
 7306SOL     OW22816   1.866   3.562   0.803
 7306SOL    HW122817   1.861   3.582   0.705
 7306SOL    HW222818   1.777   3.578   0.845
 7307SOL     OW22819   4.194   6.746   2.215
 7307SOL    HW122820   4.108   6.726   2.169
 7307SOL    HW222821   4.185   6.723   2.312
 7308SOL     OW22822   3.687   1.813   3.006
 7308SOL    HW122823   3.787   1.809   3.001
 7308SOL    HW222824   3.649   1.722   2.992
 7309SOL     OW22825   2.642   4.735   3.942
 7309SOL    HW122826   2.554   4.769   3.974
 7309SOL    HW222827   2.640   4.724   3.843
 7310SOL     OW22828   4.440   2.921   0.393
 7310SOL    HW122829   4.531   2.917   0.352
 7310SOL    HW222830   4.375   2.958   0.326
 7311SOL     OW22831   1.489   6.488   5.649
 7311SOL    HW122832   1.451   6.569   5.694
 7311SOL    HW222833   1.483   6.409   5.711
 7312SOL     OW22834   6.076   2.167   4.074
 7312SOL    HW122835   5.985   2.179   4.115
 7312SOL    HW222836   6.125   2.255   4.076
 7313SOL     OW22837   3.423   1.039   3.058
 7313SOL    HW122838   3.468   0.988   2.985
 7313SOL    HW222839   3.432   0.989   3.144
 7314SOL     OW22840   2.641   5.666   4.807
 7314SOL    HW122841   2.588   5.676   4.723
 7314SOL    HW222842   2.680   5.575   4.812
 7315SOL     OW22843   2.347   4.712   2.409
 7315SOL    HW122844   2.359   4.791   2.469
 7315SOL    HW222845   2.282   4.648   2.450
 7316SOL     OW22846   3.886   0.893   2.202
 7316SOL    HW122847   3.831   0.904   2.284
 7316SOL    HW222848   3.907   0.797   2.188
 7317SOL     OW22849   6.453   1.616   1.755
 7317SOL    HW122850   6.549   1.638   1.736
 7317SOL    HW222851   6.421   1.671   1.832
 7318SOL     OW22852   4.553   6.054   1.796
 7318SOL    HW122853   4.571   6.100   1.882
 7318SOL    HW222854   4.625   5.986   1.779
 7319SOL     OW22855   4.682   4.826   5.980
 7319SOL    HW122856   4.705   4.923   5.986
 7319SOL    HW222857   4.762   4.771   6.006
 7320SOL     OW22858   1.453   2.909   0.493
 7320SOL    HW122859   1.444   3.008   0.502
 7320SOL    HW222860   1.409   2.879   0.409
 7321SOL     OW22861   2.392   2.315   5.320
 7321SOL    HW122862   2.418   2.296   5.415
 7321SOL    HW222863   2.454   2.384   5.282
 7322SOL     OW22864   2.232   1.799   4.108
 7322SOL    HW122865   2.216   1.891   4.072
 7322SOL    HW222866   2.249   1.736   4.031
 7323SOL     OW22867   2.054   1.763   0.404
 7323SOL    HW122868   2.121   1.817   0.455
 7323SOL    HW222869   2.062   1.666   0.430
 7324SOL     OW22870   5.426   3.709   5.000
 7324SOL    HW122871   5.336   3.691   4.961
 7324SOL    HW222872   5.489   3.636   4.973
 7325SOL     OW22873   3.568   0.461   6.435
 7325SOL    HW122874   3.533   0.368   6.446
 7325SOL    HW222875   3.551   0.514   6.518
 7326SOL     OW22876   3.830   6.307   6.638
 7326SOL    HW122877   3.763   6.335   6.706
 7326SOL    HW222878   3.855   6.385   6.581
 7327SOL     OW22879   1.415   4.333   3.474
 7327SOL    HW122880   1.464   4.315   3.388
 7327SOL    HW222881   1.333   4.388   3.455
 7328SOL     OW22882   4.442   5.539   6.855
 7328SOL    HW122883   4.435   5.485   6.939
 7328SOL    HW222884   4.380   5.617   6.861
 7329SOL     OW22885   2.414   4.088   6.454
 7329SOL    HW122886   2.485   4.151   6.483
 7329SOL    HW222887   2.432   4.058   6.360
 7330SOL     OW22888   2.067   3.837   1.345
 7330SOL    HW122889   2.053   3.887   1.430
 7330SOL    HW222890   2.164   3.815   1.335
 7331SOL     OW22891   5.275   1.214   2.794
 7331SOL    HW122892   5.176   1.224   2.803
 7331SOL    HW222893   5.320   1.300   2.816
 7332SOL     OW22894   2.120   0.090   5.028
 7332SOL    HW122895   2.065   0.127   5.103
 7332SOL    HW222896   2.190   0.156   5.003
 7333SOL     OW22897   6.473   1.341   1.804
 7333SOL    HW122898   6.572   1.339   1.819
 7333SOL    HW222899   6.443   1.436   1.794
 7334SOL     OW22900   1.045   4.741   4.942
 7334SOL    HW122901   0.996   4.742   4.854
 7334SOL    HW222902   1.143   4.729   4.925
 7335SOL     OW22903   6.659   3.205   2.315
 7335SOL    HW122904   6.709   3.257   2.247
 7335SOL    HW222905   6.631   3.117   2.276
 7336SOL     OW22906   2.895   0.313   1.336
 7336SOL    HW122907   2.919   0.219   1.311
 7336SOL    HW222908   2.892   0.321   1.435
 7337SOL     OW22909   3.261   1.705   1.927
 7337SOL    HW122910   3.301   1.782   1.977
 7337SOL    HW222911   3.296   1.705   1.833
 7338SOL     OW22912   5.172   3.028   0.678
 7338SOL    HW122913   5.249   3.074   0.633
 7338SOL    HW222914   5.121   2.974   0.611
 7339SOL     OW22915   6.669   7.000   3.995
 7339SOL    HW122916   6.724   0.000   3.916
 7339SOL    HW222917   6.643   0.055   4.047
 7340SOL     OW22918   2.948   0.048   0.295
 7340SOL    HW122919   2.932   7.005   0.224
 7340SOL    HW222920   2.878   0.119   0.288
 7341SOL     OW22921   6.666   5.508   3.345
 7341SOL    HW122922   6.635   5.419   3.378
 7341SOL    HW222923   6.588   5.561   3.313
 7342SOL     OW22924   0.073   5.155   0.373
 7342SOL    HW122925   0.098   5.191   0.284
 7342SOL    HW222926   0.098   5.058   0.378
 7343SOL     OW22927   0.473   2.009   2.891
 7343SOL    HW122928   0.443   2.042   2.801
 7343SOL    HW222929   0.429   1.922   2.911
 7344SOL     OW22930   2.073   1.397   5.819
 7344SOL    HW122931   2.114   1.362   5.903
 7344SOL    HW222932   2.137   1.459   5.773
 7345SOL     OW22933   1.037   6.687   6.887
 7345SOL    HW122934   0.969   6.761   6.881
 7345SOL    HW222935   1.044   6.642   6.798
 7346SOL     OW22936   3.604   5.399   3.161
 7346SOL    HW122937   3.620   5.337   3.237
 7346SOL    HW222938   3.630   5.354   3.075
 7347SOL     OW22939   5.424   2.609   3.558
 7347SOL    HW122940   5.382   2.637   3.645
 7347SOL    HW222941   5.408   2.679   3.489
 7348SOL     OW22942   5.527   0.064   6.221
 7348SOL    HW122943   5.519   7.016   6.156
 7348SOL    HW222944   5.526   0.028   6.314
 7349SOL     OW22945   3.391   2.420   1.349
 7349SOL    HW122946   3.340   2.353   1.402
 7349SOL    HW222947   3.445   2.478   1.410
 7350SOL     OW22948   1.464   1.799   2.752
 7350SOL    HW122949   1.503   1.707   2.760
 7350SOL    HW222950   1.483   1.850   2.835
 7351SOL     OW22951   6.170   4.921   0.040
 7351SOL    HW122952   6.232   4.933   6.988
 7351SOL    HW222953   6.181   4.828   0.077
 7352SOL     OW22954   6.741   1.488   3.022
 7352SOL    HW122955   6.669   1.448   2.965
 7352SOL    HW222956   6.700   1.558   3.082
 7353SOL     OW22957   5.442   1.768   5.150
 7353SOL    HW122958   5.460   1.787   5.247
 7353SOL    HW222959   5.440   1.854   5.099
 7354SOL     OW22960   5.523   4.121   5.282
 7354SOL    HW122961   5.431   4.095   5.253
 7354SOL    HW222962   5.565   4.043   5.328
 7355SOL     OW22963   0.143   5.739   0.576
 7355SOL    HW122964   0.069   5.769   0.636
 7355SOL    HW222965   0.105   5.690   0.498
 7356SOL     OW22966   0.019   1.833   6.298
 7356SOL    HW122967   0.048   1.853   6.205
 7356SOL    HW222968   0.097   1.843   6.360
 7357SOL     OW22969   0.192   1.351   0.691
 7357SOL    HW122970   0.165   1.420   0.757
 7357SOL    HW222971   0.181   1.260   0.731
 7358SOL     OW22972   3.376   1.360   3.808
 7358SOL    HW122973   3.276   1.363   3.811
 7358SOL    HW222974   3.413   1.408   3.888
 7359SOL     OW22975   3.184   3.403   4.215
 7359SOL    HW122976   3.146   3.496   4.213
 7359SOL    HW222977   3.113   3.338   4.186
 7360SOL     OW22978   1.735   4.211   6.133
 7360SOL    HW122979   1.651   4.248   6.092
 7360SOL    HW222980   1.732   4.224   6.232
 7361SOL     OW22981   4.596   0.118   1.877
 7361SOL    HW122982   4.546   0.143   1.960
 7361SOL    HW222983   4.693   0.138   1.890
 7362SOL     OW22984   1.120   4.853   0.022
 7362SOL    HW122985   1.126   4.839   0.121
 7362SOL    HW222986   1.100   4.949   0.003
 7363SOL     OW22987   4.940   2.024   5.811
 7363SOL    HW122988   4.927   1.968   5.893
 7363SOL    HW222989   4.867   2.005   5.745
 7364SOL     OW22990   5.220   0.073   0.484
 7364SOL    HW122991   5.152   0.067   0.558
 7364SOL    HW222992   5.289   0.002   0.497
 7365SOL     OW22993   5.378   6.881   1.443
 7365SOL    HW122994   5.297   6.930   1.477
 7365SOL    HW222995   5.351   6.817   1.371
 7366SOL     OW22996   2.713   6.939   0.474
 7366SOL    HW122997   2.812   6.929   0.482
 7366SOL    HW222998   2.667   6.873   0.533
 7367SOL     OW22999   4.489   2.880   6.167
 7367SOL    HW123000   4.442   2.939   6.232
 7367SOL    HW223001   4.434   2.869   6.084
 7368SOL     OW23002   3.230   2.978   4.645
 7368SOL    HW123003   3.208   2.911   4.716
 7368SOL    HW223004   3.169   3.057   4.653
 7369SOL     OW23005   6.777   6.683   6.518
 7369SOL    HW123006   6.772   6.736   6.603
 7369SOL    HW223007   6.685   6.654   6.492
 7370SOL     OW23008   0.042   5.835   1.147
 7370SOL    HW123009   7.000   5.785   1.200
 7370SOL    HW223010   0.067   5.782   1.066
 7371SOL     OW23011   2.033   4.676   3.942
 7371SOL    HW123012   1.985   4.618   3.876
 7371SOL    HW223013   2.070   4.756   3.895
 7372SOL     OW23014   2.825   0.405   5.194
 7372SOL    HW123015   2.811   0.312   5.228
 7372SOL    HW223016   2.916   0.437   5.221
 7373SOL     OW23017   3.946   1.525   1.013
 7373SOL    HW123018   3.912   1.618   1.022
 7373SOL    HW223019   4.046   1.525   1.019
 7374SOL     OW23020   2.259   3.710   0.589
 7374SOL    HW123021   2.197   3.632   0.575
 7374SOL    HW223022   2.205   3.792   0.609
 7375SOL     OW23023   2.325   5.697   3.009
 7375SOL    HW123024   2.348   5.655   2.922
 7375SOL    HW223025   2.394   5.674   3.077
 7376SOL     OW23026   3.264   4.111   6.965
 7376SOL    HW123027   3.330   4.085   0.009
 7376SOL    HW223028   3.172   4.109   7.002
 7377SOL     OW23029   5.465   6.049   1.420
 7377SOL    HW123030   5.420   5.977   1.367
 7377SOL    HW223031   5.501   6.010   1.505
 7378SOL     OW23032   1.020   1.831   6.183
 7378SOL    HW123033   1.045   1.739   6.211
 7378SOL    HW223034   1.059   1.897   6.248
 7379SOL     OW23035   4.300   0.591   0.468
 7379SOL    HW123036   4.222   0.620   0.523
 7379SOL    HW223037   4.321   0.495   0.487
 7380SOL     OW23038   0.286   3.042   0.047
 7380SOL    HW123039   0.289   3.133   0.004
 7380SOL    HW223040   0.220   2.985   7.025
 7381SOL     OW23041   5.172   2.594   0.881
 7381SOL    HW123042   5.163   2.694   0.877
 7381SOL    HW223043   5.082   2.553   0.893
 7382SOL     OW23044   1.107   5.306   3.671
 7382SOL    HW123045   1.130   5.257   3.756
 7382SOL    HW223046   1.065   5.242   3.607
 7383SOL     OW23047   1.812   4.409   2.696
 7383SOL    HW123048   1.904   4.370   2.707
 7383SOL    HW223049   1.799   4.436   2.601
 7384SOL     OW23050   5.948   1.619   1.576
 7384SOL    HW123051   6.003   1.702   1.575
 7384SOL    HW223052   6.007   1.540   1.560
 7385SOL     OW23053   5.394   0.251   1.881
 7385SOL    HW123054   5.451   0.200   1.946
 7385SOL    HW223055   5.416   0.222   1.788
 7386SOL     OW23056   6.410   1.703   5.698
 7386SOL    HW123057   6.423   1.799   5.675
 7386SOL    HW223058   6.500   1.659   5.708
 7387SOL     OW23059   4.718   5.992   3.792
 7387SOL    HW123060   4.816   5.978   3.786
 7387SOL    HW223061   4.695   6.038   3.878
 7388SOL     OW23062   5.157   3.695   4.853
 7388SOL    HW123063   5.146   3.598   4.874
 7388SOL    HW223064   5.083   3.725   4.793
 7389SOL     OW23065   2.115   2.942   5.547
 7389SOL    HW123066   2.187   2.958   5.614
 7389SOL    HW223067   2.149   2.961   5.455
 7390SOL     OW23068   4.693   6.778   0.535
 7390SOL    HW123069   4.765   6.816   0.593
 7390SOL    HW223070   4.697   6.679   0.536
 7391SOL     OW23071   6.809   5.480   0.786
 7391SOL    HW123072   6.723   5.432   0.772
 7391SOL    HW223073   6.792   5.576   0.806
 7392SOL     OW23074   1.831   4.169   2.353
 7392SOL    HW123075   1.805   4.076   2.379
 7392SOL    HW223076   1.925   4.169   2.320
 7393SOL     OW23077   1.284   3.838   0.545
 7393SOL    HW123078   1.344   3.766   0.581
 7393SOL    HW223079   1.339   3.905   0.496
 7394SOL     OW23080   2.856   3.455   7.011
 7394SOL    HW123081   2.795   3.532   6.997
 7394SOL    HW223082   2.872   3.409   6.923
 7395SOL     OW23083   2.437   0.004   0.056
 7395SOL    HW123084   2.459   6.978   0.138
 7395SOL    HW223085   2.455   6.975   7.001
 7396SOL     OW23086   6.688   6.775   2.300
 7396SOL    HW123087   6.703   6.815   2.390
 7396SOL    HW223088   6.590   6.771   2.281
 7397SOL     OW23089   6.006   4.299   3.897
 7397SOL    HW123090   5.940   4.319   3.970
 7397SOL    HW223091   6.095   4.338   3.920
 7398SOL     OW23092   4.256   6.423   2.759
 7398SOL    HW123093   4.239   6.426   2.857
 7398SOL    HW223094   4.354   6.414   2.742
 7399SOL     OW23095   5.109   5.916   4.101
 7399SOL    HW123096   5.184   5.977   4.126
 7399SOL    HW223097   5.050   5.902   4.180
 7400SOL     OW23098   2.598   4.646   6.497
 7400SOL    HW123099   2.564   4.632   6.590
 7400SOL    HW223100   2.581   4.564   6.442
 7401SOL     OW23101   6.555   3.070   3.761
 7401SOL    HW123102   6.525   3.042   3.669
 7401SOL    HW223103   6.509   3.013   3.829
 7402SOL     OW23104   1.850   6.265   4.665
 7402SOL    HW123105   1.815   6.246   4.574
 7402SOL    HW223106   1.898   6.184   4.700
 7403SOL     OW23107   2.433   3.281   1.694
 7403SOL    HW123108   2.380   3.352   1.739
 7403SOL    HW223109   2.376   3.199   1.684
 7404SOL     OW23110   1.196   3.125   2.897
 7404SOL    HW123111   1.223   3.032   2.920
 7404SOL    HW223112   1.277   3.181   2.880
 7405SOL     OW23113   3.567   4.855   6.380
 7405SOL    HW123114   3.661   4.820   6.378
 7405SOL    HW223115   3.505   4.785   6.345
 7406SOL     OW23116   6.321   6.354   2.920
 7406SOL    HW123117   6.303   6.272   2.975
 7406SOL    HW223118   6.389   6.334   2.850
 7407SOL     OW23119   3.782   1.353   5.864
 7407SOL    HW123120   3.872   1.384   5.896
 7407SOL    HW223121   3.745   1.286   5.928
 7408SOL     OW23122   1.019   3.556   4.976
 7408SOL    HW123123   1.038   3.643   5.023
 7408SOL    HW223124   1.102   3.525   4.928
 7409SOL     OW23125   2.070   0.065   4.686
 7409SOL    HW123126   2.154   0.040   4.637
 7409SOL    HW223127   2.059   0.005   4.766
 7410SOL     OW23128   4.604   5.721   5.840
 7410SOL    HW123129   4.613   5.751   5.935
 7410SOL    HW223130   4.619   5.622   5.835
 7411SOL     OW23131   6.265   3.779   5.575
 7411SOL    HW123132   6.191   3.840   5.545
 7411SOL    HW223133   6.228   3.711   5.638
 7412SOL     OW23134   1.018   0.619   0.706
 7412SOL    HW123135   1.028   0.527   0.666
 7412SOL    HW223136   1.087   0.679   0.666
 7413SOL     OW23137   6.438   3.889   3.670
 7413SOL    HW123138   6.470   3.969   3.720
 7413SOL    HW223139   6.465   3.896   3.574
 7414SOL     OW23140   0.188   5.848   2.064
 7414SOL    HW123141   0.116   5.873   1.999
 7414SOL    HW223142   0.235   5.930   2.095
 7415SOL     OW23143   2.888   1.522   2.969
 7415SOL    HW123144   2.979   1.563   2.973
 7415SOL    HW223145   2.840   1.541   3.054
 7416SOL     OW23146   5.845   0.190   2.476
 7416SOL    HW123147   5.759   0.230   2.507
 7416SOL    HW223148   5.899   0.163   2.556
 7417SOL     OW23149   0.283   5.160   1.488
 7417SOL    HW123150   0.213   5.209   1.541
 7417SOL    HW223151   0.330   5.225   1.428
 7418SOL     OW23152   2.444   3.596   1.073
 7418SOL    HW123153   2.430   3.585   0.975
 7418SOL    HW223154   2.388   3.529   1.122
 7419SOL     OW23155   6.664   2.001   5.592
 7419SOL    HW123156   6.745   1.956   5.555
 7419SOL    HW223157   6.657   1.983   5.690
 7420SOL     OW23158   0.294   5.588   2.042
 7420SOL    HW123159   0.240   5.671   2.055
 7420SOL    HW223160   0.382   5.598   2.089
 7421SOL     OW23161   4.224   2.370   1.442
 7421SOL    HW123162   4.170   2.339   1.520
 7421SOL    HW223163   4.321   2.359   1.463
 7422SOL     OW23164   1.200   2.324   0.483
 7422SOL    HW123165   1.103   2.331   0.507
 7422SOL    HW223166   1.224   2.228   0.467
 7423SOL     OW23167   2.818   4.348   0.585
 7423SOL    HW123168   2.911   4.378   0.565
 7423SOL    HW223169   2.767   4.423   0.627
 7424SOL     OW23170   5.298   0.417   3.779
 7424SOL    HW123171   5.331   0.349   3.845
 7424SOL    HW223172   5.251   0.491   3.828
 7425SOL     OW23173   3.429   0.545   4.695
 7425SOL    HW123174   3.374   0.534   4.612
 7425SOL    HW223175   3.502   0.612   4.678
 7426SOL     OW23176   0.287   0.431   6.588
 7426SOL    HW123177   0.263   0.371   6.664
 7426SOL    HW223178   0.365   0.393   6.539
 7427SOL     OW23179   5.416   5.243   5.702
 7427SOL    HW123180   5.351   5.173   5.671
 7427SOL    HW223181   5.367   5.328   5.720
 7428SOL     OW23182   5.129   1.392   5.449
 7428SOL    HW123183   5.204   1.348   5.499
 7428SOL    HW223184   5.049   1.333   5.452
 7429SOL     OW23185   5.952   6.037   3.576
 7429SOL    HW123186   5.949   6.126   3.621
 7429SOL    HW223187   5.931   6.048   3.479
 7430SOL     OW23188   0.852   3.996   4.388
 7430SOL    HW123189   0.878   3.927   4.456
 7430SOL    HW223190   0.926   4.008   4.322
 7431SOL     OW23191   0.196   4.144   2.587
 7431SOL    HW123192   0.187   4.106   2.679
 7431SOL    HW223193   0.289   4.178   2.574
 7432SOL     OW23194   2.142   6.198   5.938
 7432SOL    HW123195   2.099   6.195   5.847
 7432SOL    HW223196   2.131   6.109   5.982
 7433SOL     OW23197   0.637   6.782   0.754
 7433SOL    HW123198   0.548   6.826   0.770
 7433SOL    HW223199   0.689   6.778   0.839
 7434SOL     OW23200   4.443   6.859   0.473
 7434SOL    HW123201   4.469   6.946   0.431
 7434SOL    HW223202   4.525   6.810   0.501
 7435SOL     OW23203   0.946   4.766   6.804
 7435SOL    HW123204   1.001   4.804   6.878
 7435SOL    HW223205   0.994   4.689   6.762
 7436SOL     OW23206   5.280   3.573   6.845
 7436SOL    HW123207   5.232   3.485   6.844
 7436SOL    HW223208   5.215   3.646   6.864
 7437SOL     OW23209   6.851   6.632   5.423
 7437SOL    HW123210   6.932   6.580   5.452
 7437SOL    HW223211   6.815   6.684   5.500
 7438SOL     OW23212   6.126   4.304   0.541
 7438SOL    HW123213   6.083   4.377   0.593
 7438SOL    HW223214   6.225   4.320   0.537
 7439SOL     OW23215   1.076   6.383   3.305
 7439SOL    HW123216   0.992   6.437   3.304
 7439SOL    HW223217   1.147   6.433   3.355
 7440SOL     OW23218   0.978   0.864   4.761
 7440SOL    HW123219   0.880   0.846   4.769
 7440SOL    HW223220   1.020   0.859   4.852
 7441SOL     OW23221   6.615   0.659   4.389
 7441SOL    HW123222   6.638   0.566   4.418
 7441SOL    HW223223   6.544   0.655   4.319
 7442SOL     OW23224   1.794   0.943   0.124
 7442SOL    HW123225   1.742   0.891   0.192
 7442SOL    HW223226   1.741   0.951   0.040
 7443SOL     OW23227   6.686   1.740   1.689
 7443SOL    HW123228   6.692   1.827   1.639
 7443SOL    HW223229   6.773   1.723   1.736
 7444SOL     OW23230   1.591   2.637   5.687
 7444SOL    HW123231   1.519   2.594   5.741
 7444SOL    HW223232   1.675   2.583   5.692
 7445SOL     OW23233   5.543   3.141   2.531
 7445SOL    HW123234   5.497   3.081   2.596
 7445SOL    HW223235   5.493   3.142   2.444
 7446SOL     OW23236   4.678   4.277   2.859
 7446SOL    HW123237   4.608   4.256   2.790
 7446SOL    HW223238   4.635   4.279   2.950
 7447SOL     OW23239   1.379   3.302   6.029
 7447SOL    HW123240   1.389   3.388   6.080
 7447SOL    HW223241   1.286   3.296   5.993
 7448SOL     OW23242   0.639   1.065   5.646
 7448SOL    HW123243   0.565   1.078   5.713
 7448SOL    HW223244   0.658   1.153   5.601
 7449SOL     OW23245   3.099   0.892   3.372
 7449SOL    HW123246   3.030   0.823   3.348
 7449SOL    HW223247   3.103   0.961   3.300
 7450SOL     OW23248   4.146   1.497   1.889
 7450SOL    HW123249   4.166   1.594   1.901
 7450SOL    HW223250   4.088   1.484   1.808
 7451SOL     OW23251   1.195   0.629   1.932
 7451SOL    HW123252   1.105   0.673   1.932
 7451SOL    HW223253   1.208   0.577   2.016
 7452SOL     OW23254   1.898   5.790   2.825
 7452SOL    HW123255   1.901   5.701   2.781
 7452SOL    HW223256   1.951   5.787   2.910
 7453SOL     OW23257   6.729   4.569   4.937
 7453SOL    HW123258   6.827   4.553   4.947
 7453SOL    HW223259   6.703   4.554   4.841
 7454SOL     OW23260   2.666   1.999   6.927
 7454SOL    HW123261   2.634   1.987   6.833
 7454SOL    HW223262   2.765   2.015   6.926
 7455SOL     OW23263   4.584   0.017   0.867
 7455SOL    HW123264   4.607   0.114   0.858
 7455SOL    HW223265   4.662   6.994   0.905
 7456SOL     OW23266   1.482   3.505   5.691
 7456SOL    HW123267   1.522   3.432   5.746
 7456SOL    HW223268   1.383   3.491   5.685
 7457SOL     OW23269   0.320   6.373   5.853
 7457SOL    HW123270   0.357   6.442   5.790
 7457SOL    HW223271   0.237   6.408   5.895
 7458SOL     OW23272   2.627   0.179   1.509
 7458SOL    HW123273   2.725   0.203   1.508
 7458SOL    HW223274   2.588   0.202   1.598
 7459SOL     OW23275   3.780   6.309   3.453
 7459SOL    HW123276   3.719   6.238   3.488
 7459SOL    HW223277   3.730   6.369   3.391
 7460SOL     OW23278   0.853   5.303   6.372
 7460SOL    HW123279   0.878   5.400   6.381
 7460SOL    HW223280   0.906   5.263   6.297
 7461SOL     OW23281   3.827   1.370   3.410
 7461SOL    HW123282   3.770   1.312   3.468
 7461SOL    HW223283   3.918   1.380   3.452
 7462SOL     OW23284   1.469   1.775   3.859
 7462SOL    HW123285   1.467   1.825   3.945
 7462SOL    HW223286   1.416   1.824   3.790
 7463SOL     OW23287   3.700   4.032   2.706
 7463SOL    HW123288   3.629   3.962   2.710
 7463SOL    HW223289   3.789   3.993   2.729
 7464SOL     OW23290   4.450   5.692   0.323
 7464SOL    HW123291   4.463   5.595   0.346
 7464SOL    HW223292   4.373   5.729   0.375
 7465SOL     OW23293   3.427   1.299   2.970
 7465SOL    HW123294   3.418   1.204   3.002
 7465SOL    HW223295   3.440   1.300   2.871
 7466SOL     OW23296   6.758   6.824   0.638
 7466SOL    HW123297   6.726   6.808   0.544
 7466SOL    HW223298   6.858   6.832   0.637
 7467SOL     OW23299   4.308   2.454   1.195
 7467SOL    HW123300   4.275   2.459   1.289
 7467SOL    HW223301   4.356   2.368   1.181
 7468SOL     OW23302   5.258   4.520   4.905
 7468SOL    HW123303   5.287   4.545   4.813
 7468SOL    HW223304   5.162   4.492   4.903
 7469SOL     OW23305   5.541   1.932   1.574
 7469SOL    HW123306   5.490   1.847   1.580
 7469SOL    HW223307   5.633   1.913   1.540
 7470SOL     OW23308   0.588   3.401   3.271
 7470SOL    HW123309   0.570   3.456   3.189
 7470SOL    HW223310   0.554   3.450   3.351
 7471SOL     OW23311   6.777   4.477   5.671
 7471SOL    HW123312   6.849   4.464   5.602
 7471SOL    HW223313   6.703   4.412   5.654
 7472SOL     OW23314   4.458   5.554   3.400
 7472SOL    HW123315   4.398   5.492   3.350
 7472SOL    HW223316   4.548   5.556   3.356
 7473SOL     OW23317   1.678   2.519   6.510
 7473SOL    HW123318   1.762   2.573   6.500
 7473SOL    HW223319   1.702   2.422   6.517
 7474SOL     OW23320   2.784   1.196   1.998
 7474SOL    HW123321   2.822   1.144   2.074
 7474SOL    HW223322   2.685   1.194   2.001
 7475SOL     OW23323   5.213   0.701   5.978
 7475SOL    HW123324   5.171   0.784   6.015
 7475SOL    HW223325   5.247   0.720   5.885
 7476SOL     OW23326   2.059   6.449   4.710
 7476SOL    HW123327   2.052   6.494   4.799
 7476SOL    HW223328   1.978   6.393   4.694
 7477SOL     OW23329   4.501   4.517   4.759
 7477SOL    HW123330   4.456   4.428   4.768
 7477SOL    HW223331   4.443   4.588   4.797
 7478SOL     OW23332   0.371   4.331   1.162
 7478SOL    HW123333   0.451   4.348   1.104
 7478SOL    HW223334   0.288   4.334   1.107
 7479SOL     OW23335   3.727   0.430   4.773
 7479SOL    HW123336   3.720   0.518   4.820
 7479SOL    HW223337   3.635   0.394   4.757
 7480SOL     OW23338   5.605   5.342   0.035
 7480SOL    HW123339   5.582   5.415   0.099
 7480SOL    HW223340   5.699   5.312   0.050
 7481SOL     OW23341   5.783   6.392   0.369
 7481SOL    HW123342   5.808   6.464   0.304
 7481SOL    HW223343   5.684   6.381   0.369
 7482SOL     OW23344   4.673   0.394   5.026
 7482SOL    HW123345   4.667   0.366   4.931
 7482SOL    HW223346   4.615   0.335   5.082
 7483SOL     OW23347   3.163   0.243   6.778
 7483SOL    HW123348   3.077   0.286   6.802
 7483SOL    HW223349   3.182   0.167   6.841
 7484SOL     OW23350   3.234   6.778   0.993
 7484SOL    HW123351   3.290   6.838   0.936
 7484SOL    HW223352   3.172   6.833   1.048
 7485SOL     OW23353   0.900   7.005   5.227
 7485SOL    HW123354   0.882   6.951   5.145
 7485SOL    HW223355   0.815   0.020   5.260
 7486SOL     OW23356   1.386   2.050   5.229
 7486SOL    HW123357   1.316   1.996   5.275
 7486SOL    HW223358   1.461   1.990   5.201
 7487SOL     OW23359   3.049   5.454   2.867
 7487SOL    HW123360   3.143   5.462   2.899
 7487SOL    HW223361   3.013   5.364   2.892
 7488SOL     OW23362   4.210   1.550   4.930
 7488SOL    HW123363   4.290   1.596   4.890
 7488SOL    HW223364   4.143   1.534   4.858
 7489SOL     OW23365   0.650   3.269   3.775
 7489SOL    HW123366   0.551   3.277   3.766
 7489SOL    HW223367   0.674   3.178   3.810
 7490SOL     OW23368   5.770   6.860   2.147
 7490SOL    HW123369   5.680   6.869   2.190
 7490SOL    HW223370   5.803   6.951   2.119
 7491SOL     OW23371   0.906   6.804   0.994
 7491SOL    HW123372   0.903   6.800   0.894
 7491SOL    HW223373   0.831   6.749   1.031
 7492SOL     OW23374   1.867   1.753   2.674
 7492SOL    HW123375   1.935   1.789   2.609
 7492SOL    HW223376   1.776   1.758   2.632
 7493SOL     OW23377   5.711   4.333   6.651
 7493SOL    HW123378   5.710   4.420   6.601
 7493SOL    HW223379   5.796   4.284   6.631
 7494SOL     OW23380   4.599   1.801   1.426
 7494SOL    HW123381   4.632   1.856   1.503
 7494SOL    HW223382   4.670   1.736   1.398
 7495SOL     OW23383   1.339   1.451   3.672
 7495SOL    HW123384   1.319   1.489   3.762
 7495SOL    HW223385   1.430   1.482   3.643
 7496SOL     OW23386   0.978   5.170   6.174
 7496SOL    HW123387   0.930   5.214   6.097
 7496SOL    HW223388   0.973   5.070   6.163
 7497SOL     OW23389   0.869   4.900   3.042
 7497SOL    HW123390   0.828   4.840   2.972
 7497SOL    HW223391   0.968   4.900   3.031
 7498SOL     OW23392   5.469   2.170   4.307
 7498SOL    HW123393   5.495   2.233   4.233
 7498SOL    HW223394   5.546   2.110   4.327
 7499SOL     OW23395   4.093   5.137   3.727
 7499SOL    HW123396   4.162   5.191   3.678
 7499SOL    HW223397   4.029   5.198   3.773
 7500SOL     OW23398   5.090   4.155   1.374
 7500SOL    HW123399   5.087   4.250   1.404
 7500SOL    HW223400   4.996   4.121   1.365
 7501SOL     OW23401   1.120   4.192   3.542
 7501SOL    HW123402   1.149   4.096   3.540
 7501SOL    HW223403   1.197   4.250   3.570
 7502SOL     OW23404   1.276   2.003   4.061
 7502SOL    HW123405   1.374   2.004   4.045
 7502SOL    HW223406   1.236   2.090   4.033
 7503SOL     OW23407   2.258   1.690   0.067
 7503SOL    HW123408   2.296   1.730   0.151
 7503SOL    HW223409   2.302   1.731   7.014
 7504SOL     OW23410   5.038   5.833   5.265
 7504SOL    HW123411   5.084   5.853   5.351
 7504SOL    HW223412   5.038   5.734   5.250
 7505SOL     OW23413   1.352   1.822   3.473
 7505SOL    HW123414   1.319   1.853   3.384
 7505SOL    HW223415   1.275   1.789   3.527
 7506SOL     OW23416   3.970   0.515   3.110
 7506SOL    HW123417   3.941   0.504   3.015
 7506SOL    HW223418   3.963   0.428   3.158
 7507SOL     OW23419   1.535   0.189   5.335
 7507SOL    HW123420   1.563   0.257   5.403
 7507SOL    HW223421   1.529   0.231   5.245
 7508SOL     OW23422   5.509   6.037   3.223
 7508SOL    HW123423   5.411   6.026   3.235
 7508SOL    HW223424   5.528   6.127   3.184
 7509SOL     OW23425   3.443   4.506   6.123
 7509SOL    HW123426   3.501   4.488   6.202
 7509SOL    HW223427   3.392   4.591   6.138
 7510SOL     OW23428   4.084   3.340   5.136
 7510SOL    HW123429   4.040   3.255   5.107
 7510SOL    HW223430   4.090   3.403   5.058
 7511SOL     OW23431   1.324   1.385   2.176
 7511SOL    HW123432   1.242   1.330   2.188
 7511SOL    HW223433   1.302   1.481   2.189
 7512SOL     OW23434   2.282   2.782   2.522
 7512SOL    HW123435   2.290   2.749   2.429
 7512SOL    HW223436   2.218   2.859   2.525
 7513SOL     OW23437   2.169   3.227   6.684
 7513SOL    HW123438   2.259   3.231   6.728
 7513SOL    HW223439   2.172   3.275   6.597
 7514SOL     OW23440   3.180   5.157   3.204
 7514SOL    HW123441   3.278   5.164   3.186
 7514SOL    HW223442   3.153   5.061   3.204
 7515SOL     OW23443   0.198   4.931   3.206
 7515SOL    HW123444   0.190   4.970   3.115
 7515SOL    HW223445   0.140   4.849   3.213
 7516SOL     OW23446   2.079   3.034   1.440
 7516SOL    HW123447   2.053   2.980   1.361
 7516SOL    HW223448   2.178   3.050   1.439
 7517SOL     OW23449   1.387   5.130   2.377
 7517SOL    HW123450   1.416   5.044   2.419
 7517SOL    HW223451   1.288   5.134   2.374
 7518SOL     OW23452   5.052   4.117   2.451
 7518SOL    HW123453   4.993   4.047   2.412
 7518SOL    HW223454   5.136   4.124   2.397
 7519SOL     OW23455   1.810   0.309   4.994
 7519SOL    HW123456   1.888   0.331   4.936
 7519SOL    HW223457   1.738   0.266   4.940
 7520SOL     OW23458   1.814   0.170   4.656
 7520SOL    HW123459   1.777   0.116   4.731
 7520SOL    HW223460   1.909   0.144   4.640
 7521SOL     OW23461   4.701   3.039   6.050
 7521SOL    HW123462   4.706   3.123   6.104
 7521SOL    HW223463   4.636   2.976   6.092
 7522SOL     OW23464   1.982   6.803   2.837
 7522SOL    HW123465   2.047   6.809   2.912
 7522SOL    HW223466   1.946   6.894   2.816
 7523SOL     OW23467   6.909   6.535   6.831
 7523SOL    HW123468   6.889   6.631   6.849
 7523SOL    HW223469   6.999   6.512   6.869
 7524SOL     OW23470   6.575   1.170   5.136
 7524SOL    HW123471   6.597   1.245   5.074
 7524SOL    HW223472   6.613   1.188   5.226
 7525SOL     OW23473   0.147   0.335   0.840
 7525SOL    HW123474   0.246   0.342   0.835
 7525SOL    HW223475   0.120   0.298   0.929
 7526SOL     OW23476   4.001   2.916   5.576
 7526SOL    HW123477   4.089   2.903   5.622
 7526SOL    HW223478   4.005   2.875   5.485
 7527SOL     OW23479   2.520   6.223   2.063
 7527SOL    HW123480   2.598   6.161   2.079
 7527SOL    HW223481   2.446   6.171   2.021
 7528SOL     OW23482   6.199   3.063   0.281
 7528SOL    HW123483   6.180   3.103   0.191
 7528SOL    HW223484   6.163   2.970   0.284
 7529SOL     OW23485   1.618   0.213   4.239
 7529SOL    HW123486   1.609   0.143   4.168
 7529SOL    HW223487   1.556   0.191   4.314
 7530SOL     OW23488   0.233   3.205   2.900
 7530SOL    HW123489   0.191   3.118   2.875
 7530SOL    HW223490   0.289   3.192   2.982
 7531SOL     OW23491   1.779   1.914   3.872
 7531SOL    HW123492   1.754   1.823   3.839
 7531SOL    HW223493   1.795   1.974   3.793
 7532SOL     OW23494   4.719   4.317   2.246
 7532SOL    HW123495   4.742   4.402   2.198
 7532SOL    HW223496   4.621   4.299   2.238
 7533SOL     OW23497   3.450   0.797   5.025
 7533SOL    HW123498   3.439   0.856   4.945
 7533SOL    HW223499   3.399   0.713   5.013
 7534SOL     OW23500   3.772   6.451   4.236
 7534SOL    HW123501   3.822   6.393   4.171
 7534SOL    HW223502   3.831   6.474   4.313
 7535SOL     OW23503   2.836   5.300   6.776
 7535SOL    HW123504   2.828   5.252   6.689
 7535SOL    HW223505   2.764   5.369   6.783
 7536SOL     OW23506   4.677   5.176   6.305
 7536SOL    HW123507   4.762   5.131   6.334
 7536SOL    HW223508   4.599   5.119   6.331
 7537SOL     OW23509   2.435   4.470   5.196
 7537SOL    HW123510   2.447   4.450   5.099
 7537SOL    HW223511   2.338   4.478   5.217
 7538SOL     OW23512   3.654   4.152   5.142
 7538SOL    HW123513   3.692   4.106   5.222
 7538SOL    HW223514   3.607   4.235   5.169
 7539SOL     OW23515   0.601   2.214   4.658
 7539SOL    HW123516   0.611   2.149   4.734
 7539SOL    HW223517   0.504   2.228   4.639
 7540SOL     OW23518   2.807   0.718   0.078
 7540SOL    HW123519   2.782   0.696   0.173
 7540SOL    HW223520   2.727   0.755   0.031
 7541SOL     OW23521   0.200   2.108   6.089
 7541SOL    HW123522   0.267   2.120   6.162
 7541SOL    HW223523   0.119   2.163   6.110
 7542SOL     OW23524   1.454   0.241   4.707
 7542SOL    HW123525   1.437   0.339   4.722
 7542SOL    HW223526   1.483   0.198   4.792
 7543SOL     OW23527   2.877   2.356   1.254
 7543SOL    HW123528   2.936   2.435   1.244
 7543SOL    HW223529   2.844   2.350   1.348
 7544SOL     OW23530   1.261   2.258   2.181
 7544SOL    HW123531   1.309   2.297   2.260
 7544SOL    HW223532   1.235   2.331   2.118
 7545SOL     OW23533   4.717   0.435   3.387
 7545SOL    HW123534   4.797   0.403   3.336
 7545SOL    HW223535   4.666   0.500   3.331
 7546SOL     OW23536   5.222   6.950   5.332
 7546SOL    HW123537   5.273   0.006   5.356
 7546SOL    HW223538   5.215   6.891   5.412
 7547SOL     OW23539   2.767   6.731   0.193
 7547SOL    HW123540   2.737   6.643   0.156
 7547SOL    HW223541   2.764   6.728   0.293
 7548SOL     OW23542   2.399   3.812   1.225
 7548SOL    HW123543   2.372   3.794   1.320
 7548SOL    HW223544   2.411   3.725   1.177
 7549SOL     OW23545   6.018   0.107   2.291
 7549SOL    HW123546   6.097   0.065   2.335
 7549SOL    HW223547   5.954   0.138   2.362
 7550SOL     OW23548   0.872   5.096   0.775
 7550SOL    HW123549   0.876   5.174   0.838
 7550SOL    HW223550   0.960   5.048   0.776
 7551SOL     OW23551   5.021   3.618   5.987
 7551SOL    HW123552   4.958   3.543   5.968
 7551SOL    HW223553   4.973   3.705   5.973
 7552SOL     OW23554   3.684   5.929   3.978
 7552SOL    HW123555   3.774   5.913   4.019
 7552SOL    HW223556   3.622   5.856   4.005
 7553SOL     OW23557   4.357   3.937   6.273
 7553SOL    HW123558   4.449   3.959   6.242
 7553SOL    HW223559   4.292   4.002   6.232
 7554SOL     OW23560   0.217   1.773   1.087
 7554SOL    HW123561   0.124   1.809   1.085
 7554SOL    HW223562   0.281   1.844   1.057
 7555SOL     OW23563   1.946   6.567   5.606
 7555SOL    HW123564   1.976   6.564   5.702
 7555SOL    HW223565   1.881   6.642   5.594
 7556SOL     OW23566   7.015   3.706   2.675
 7556SOL    HW123567   6.956   3.782   2.702
 7556SOL    HW223568   6.992   3.677   2.582
 7557SOL     OW23569   4.139   3.911   0.676
 7557SOL    HW123570   4.099   3.846   0.741
 7557SOL    HW223571   4.067   3.944   0.614
 7558SOL     OW23572   1.664   3.486   3.414
 7558SOL    HW123573   1.728   3.424   3.368
 7558SOL    HW223574   1.581   3.437   3.438
 7559SOL     OW23575   0.830   4.797   0.229
 7559SOL    HW123576   0.785   4.707   0.227
 7559SOL    HW223577   0.853   4.821   0.323
 7560SOL     OW23578   4.701   0.067   5.517
 7560SOL    HW123579   4.798   0.058   5.541
 7560SOL    HW223580   4.658   0.134   5.578
 7561SOL     OW23581   0.853   3.320   6.796
 7561SOL    HW123582   0.851   3.320   6.896
 7561SOL    HW223583   0.916   3.390   6.764
 7562SOL     OW23584   4.444   6.327   5.230
 7562SOL    HW123585   4.459   6.285   5.141
 7562SOL    HW223586   4.385   6.269   5.285
 7563SOL     OW23587   1.905   1.382   3.472
 7563SOL    HW123588   1.839   1.345   3.538
 7563SOL    HW223589   1.879   1.476   3.449
 7564SOL     OW23590   6.245   5.477   4.352
 7564SOL    HW123591   6.155   5.507   4.320
 7564SOL    HW223592   6.262   5.511   4.444
 7565SOL     OW23593   5.369   4.655   6.291
 7565SOL    HW123594   5.361   4.754   6.288
 7565SOL    HW223595   5.399   4.627   6.383
 7566SOL     OW23596   1.783   5.319   4.360
 7566SOL    HW123597   1.755   5.393   4.300
 7566SOL    HW223598   1.799   5.236   4.307
 7567SOL     OW23599   2.521   3.633   0.127
 7567SOL    HW123600   2.607   3.682   0.116
 7567SOL    HW223601   2.487   3.646   0.220
 7568SOL     OW23602   4.290   4.775   3.688
 7568SOL    HW123603   4.348   4.855   3.709
 7568SOL    HW223604   4.221   4.801   3.621
 7569SOL     OW23605   3.974   0.263   2.541
 7569SOL    HW123606   4.026   0.191   2.587
 7569SOL    HW223607   3.987   0.255   2.442
 7570SOL     OW23608   5.853   4.408   5.237
 7570SOL    HW123609   5.858   4.422   5.138
 7570SOL    HW223610   5.777   4.460   5.275
 7571SOL     OW23611   6.814   3.849   6.961
 7571SOL    HW123612   6.842   3.831   6.866
 7571SOL    HW223613   6.856   3.780   7.020
 7572SOL     OW23614   6.343   1.673   3.526
 7572SOL    HW123615   6.344   1.727   3.442
 7572SOL    HW223616   6.269   1.706   3.586
 7573SOL     OW23617   3.582   5.112   3.733
 7573SOL    HW123618   3.637   5.081   3.811
 7573SOL    HW223619   3.617   5.071   3.649
 7574SOL     OW23620   4.166   5.910   1.561
 7574SOL    HW123621   4.182   5.825   1.511
 7574SOL    HW223622   4.095   5.895   1.630
 7575SOL     OW23623   4.975   3.122   4.374
 7575SOL    HW123624   4.917   3.088   4.300
 7575SOL    HW223625   5.064   3.150   4.336
 7576SOL     OW23626   0.224   3.977   1.786
 7576SOL    HW123627   0.249   4.062   1.740
 7576SOL    HW223628   0.307   3.932   1.819
 7577SOL     OW23629   3.900   1.319   4.161
 7577SOL    HW123630   3.871   1.409   4.193
 7577SOL    HW223631   3.890   1.253   4.235
 7578SOL     OW23632   2.258   5.326   5.404
 7578SOL    HW123633   2.325   5.289   5.468
 7578SOL    HW223634   2.193   5.255   5.378
 7579SOL     OW23635   4.664   2.168   4.036
 7579SOL    HW123636   4.648   2.175   3.938
 7579SOL    HW223637   4.681   2.259   4.074
 7580SOL     OW23638   2.060   3.197   2.076
 7580SOL    HW123639   2.126   3.260   2.118
 7580SOL    HW223640   1.979   3.248   2.048
 7581SOL     OW23641   5.706   0.911   1.059
 7581SOL    HW123642   5.716   0.978   0.985
 7581SOL    HW223643   5.721   0.819   1.024
 7582SOL     OW23644   4.081   2.722   1.433
 7582SOL    HW123645   4.010   2.718   1.363
 7582SOL    HW223646   4.132   2.808   1.425
 7583SOL     OW23647   6.990   3.874   3.046
 7583SOL    HW123648   6.940   3.903   2.964
 7583SOL    HW223649   0.053   3.920   3.048
 7584SOL     OW23650   1.850   2.219   1.889
 7584SOL    HW123651   1.850   2.234   1.988
 7584SOL    HW223652   1.922   2.154   1.865
 7585SOL     OW23653   2.516   4.249   0.866
 7585SOL    HW123654   2.461   4.236   0.784
 7585SOL    HW223655   2.596   4.189   0.862
 7586SOL     OW23656   1.789   2.601   3.497
 7586SOL    HW123657   1.832   2.691   3.498
 7586SOL    HW223658   1.753   2.581   3.588
 7587SOL     OW23659   2.565   1.205   5.518
 7587SOL    HW123660   2.515   1.124   5.487
 7587SOL    HW223661   2.640   1.177   5.578
 7588SOL     OW23662   0.672   4.985   1.816
 7588SOL    HW123663   0.646   4.999   1.721
 7588SOL    HW223664   0.590   4.991   1.874
 7589SOL     OW23665   5.109   5.874   5.948
 7589SOL    HW123666   5.141   5.781   5.930
 7589SOL    HW223667   5.033   5.871   6.013
 7590SOL     OW23668   2.027   1.165   5.331
 7590SOL    HW123669   1.965   1.196   5.402
 7590SOL    HW223670   2.005   1.070   5.307
 7591SOL     OW23671   6.701   5.934   6.207
 7591SOL    HW123672   6.650   6.005   6.256
 7591SOL    HW223673   6.799   5.950   6.218
 7592SOL     OW23674   4.496   4.633   6.049
 7592SOL    HW123675   4.443   4.634   5.965
 7592SOL    HW223676   4.573   4.696   6.041
 7593SOL     OW23677   6.762   4.552   0.138
 7593SOL    HW123678   6.813   4.499   0.071
 7593SOL    HW223679   6.680   4.501   0.165
 7594SOL     OW23680   1.042   6.884   4.054
 7594SOL    HW123681   1.125   6.838   4.083
 7594SOL    HW223682   1.042   6.893   3.954
 7595SOL     OW23683   6.901   3.329   6.676
 7595SOL    HW123684   6.851   3.327   6.589
 7595SOL    HW223685   6.838   3.311   6.751
 7596SOL     OW23686   4.692   5.512   2.187
 7596SOL    HW123687   4.773   5.558   2.223
 7596SOL    HW223688   4.672   5.432   2.243
 7597SOL     OW23689   2.159   4.645   1.873
 7597SOL    HW123690   2.235   4.648   1.937
 7597SOL    HW223691   2.121   4.738   1.863
 7598SOL     OW23692   6.616   0.822   2.786
 7598SOL    HW123693   6.598   0.747   2.850
 7598SOL    HW223694   6.575   0.801   2.697
 7599SOL     OW23695   5.391   3.694   2.134
 7599SOL    HW123696   5.469   3.756   2.142
 7599SOL    HW223697   5.364   3.687   2.037
 7600SOL     OW23698   2.388   2.320   2.901
 7600SOL    HW123699   2.471   2.368   2.872
 7600SOL    HW223700   2.406   2.222   2.907
 7601SOL     OW23701   1.975   0.897   5.366
 7601SOL    HW123702   1.885   0.927   5.398
 7601SOL    HW223703   2.010   0.826   5.427
 7602SOL     OW23704   1.831   2.722   5.281
 7602SOL    HW123705   1.840   2.810   5.329
 7602SOL    HW223706   1.764   2.665   5.329
 7603SOL     OW23707   6.874   1.519   2.195
 7603SOL    HW123708   6.817   1.439   2.178
 7603SOL    HW223709   6.965   1.489   2.225
 7604SOL     OW23710   5.629   5.532   6.446
 7604SOL    HW123711   5.560   5.461   6.432
 7604SOL    HW223712   5.584   5.617   6.476
 7605SOL     OW23713   5.406   3.415   5.840
 7605SOL    HW123714   5.421   3.341   5.775
 7605SOL    HW223715   5.429   3.384   5.932
 7606SOL     OW23716   5.612   1.356   3.749
 7606SOL    HW123717   5.663   1.289   3.695
 7606SOL    HW223718   5.639   1.448   3.722
 7607SOL     OW23719   5.042   6.292   5.977
 7607SOL    HW123720   5.040   6.348   6.060
 7607SOL    HW223721   5.136   6.286   5.944
 7608SOL     OW23722   3.815   3.911   5.140
 7608SOL    HW123723   3.857   3.839   5.085
 7608SOL    HW223724   3.809   3.995   5.086
 7609SOL     OW23725   0.931   2.789   3.210
 7609SOL    HW123726   0.877   2.873   3.206
 7609SOL    HW223727   1.018   2.808   3.255
 7610SOL     OW23728   5.613   0.446   2.247
 7610SOL    HW123729   5.614   0.363   2.303
 7610SOL    HW223730   5.538   0.441   2.181
 7611SOL     OW23731   1.517   1.424   1.186
 7611SOL    HW123732   1.587   1.426   1.114
 7611SOL    HW223733   1.544   1.360   1.257
 7612SOL     OW23734   4.566   1.542   2.986
 7612SOL    HW123735   4.618   1.570   2.906
 7612SOL    HW223736   4.469   1.533   2.961
 7613SOL     OW23737   6.382   0.428   2.279
 7613SOL    HW123738   6.314   0.491   2.317
 7613SOL    HW223739   6.337   0.361   2.220
 7614SOL     OW23740   4.700   0.866   0.536
 7614SOL    HW123741   4.676   0.956   0.573
 7614SOL    HW223742   4.634   0.841   0.465
 7615SOL     OW23743   3.661   4.967   5.555
 7615SOL    HW123744   3.647   4.995   5.460
 7615SOL    HW223745   3.692   4.872   5.557
 7616SOL     OW23746   0.303   6.021   3.450
 7616SOL    HW123747   0.403   6.024   3.442
 7616SOL    HW223748   0.274   5.930   3.478
 7617SOL     OW23749   3.874   5.748   3.795
 7617SOL    HW123750   3.910   5.829   3.750
 7617SOL    HW223751   3.792   5.772   3.847
 7618SOL     OW23752   3.464   1.774   6.909
 7618SOL    HW123753   3.531   1.772   6.983
 7618SOL    HW223754   3.418   1.686   6.904
 7619SOL     OW23755   5.546   3.007   5.553
 7619SOL    HW123756   5.564   2.931   5.490
 7619SOL    HW223757   5.593   3.089   5.521
 7620SOL     OW23758   3.120   5.707   1.575
 7620SOL    HW123759   3.120   5.669   1.482
 7620SOL    HW223760   3.153   5.637   1.639
 7621SOL     OW23761   2.506   2.704   1.166
 7621SOL    HW123762   2.528   2.722   1.070
 7621SOL    HW223763   2.422   2.753   1.190
 7622SOL     OW23764   4.690   2.057   1.075
 7622SOL    HW123765   4.732   1.973   1.040
 7622SOL    HW223766   4.706   2.063   1.173
 7623SOL     OW23767   6.814   6.585   4.842
 7623SOL    HW123768   6.774   6.624   4.759
 7623SOL    HW223769   6.741   6.569   4.910
 7624SOL     OW23770   6.663   0.728   4.747
 7624SOL    HW123771   6.692   0.645   4.796
 7624SOL    HW223772   6.586   0.705   4.687
 7625SOL     OW23773   2.658   4.929   0.879
 7625SOL    HW123774   2.704   5.008   0.918
 7625SOL    HW223775   2.663   4.852   0.943
 7626SOL     OW23776   2.721   4.186   5.381
 7626SOL    HW123777   2.724   4.225   5.473
 7626SOL    HW223778   2.677   4.251   5.319
 7627SOL     OW23779   6.900   0.943   0.289
 7627SOL    HW123780   6.819   0.995   0.262
 7627SOL    HW223781   6.872   0.866   0.347
 7628SOL     OW23782   4.550   1.726   0.449
 7628SOL    HW123783   4.513   1.819   0.448
 7628SOL    HW223784   4.544   1.688   0.541
 7629SOL     OW23785   6.015   5.832   2.830
 7629SOL    HW123786   6.057   5.872   2.748
 7629SOL    HW223787   6.077   5.765   2.870
 7630SOL     OW23788   6.089   1.894   1.865
 7630SOL    HW123789   6.078   1.936   1.775
 7630SOL    HW223790   6.141   1.809   1.855
 7631SOL     OW23791   1.041   0.479   3.799
 7631SOL    HW123792   1.082   0.494   3.889
 7631SOL    HW223793   0.944   0.501   3.802
 7632SOL     OW23794   4.346   1.017   4.810
 7632SOL    HW123795   4.431   0.969   4.834
 7632SOL    HW223796   4.299   1.045   4.894
 7633SOL     OW23797   6.215   3.400   6.308
 7633SOL    HW123798   6.118   3.390   6.287
 7633SOL    HW223799   6.227   3.406   6.407
 7634SOL     OW23800   1.368   2.432   1.969
 7634SOL    HW123801   1.318   2.506   1.923
 7634SOL    HW223802   1.466   2.453   1.970
 7635SOL     OW23803   2.514   4.484   5.708
 7635SOL    HW123804   2.566   4.433   5.640
 7635SOL    HW223805   2.577   4.519   5.778
 7636SOL     OW23806   0.851   1.026   3.540
 7636SOL    HW123807   0.807   1.115   3.550
 7636SOL    HW223808   0.913   1.028   3.461
 7637SOL     OW23809   2.869   5.820   4.095
 7637SOL    HW123810   2.904   5.910   4.067
 7637SOL    HW223811   2.930   5.749   4.060
 7638SOL     OW23812   4.549   4.438   1.698
 7638SOL    HW123813   4.472   4.473   1.645
 7638SOL    HW223814   4.515   4.376   1.769
 7639SOL     OW23815   0.727   2.302   4.437
 7639SOL    HW123816   0.677   2.263   4.514
 7639SOL    HW223817   0.739   2.232   4.366
 7640SOL     OW23818   2.158   3.335   6.305
 7640SOL    HW123819   2.140   3.329   6.207
 7640SOL    HW223820   2.209   3.254   6.334
 7641SOL     OW23821   5.979   3.872   2.210
 7641SOL    HW123822   5.921   3.826   2.278
 7641SOL    HW223823   5.923   3.933   2.154
 7642SOL     OW23824   1.377   2.585   2.981
 7642SOL    HW123825   1.281   2.611   2.974
 7642SOL    HW223826   1.385   2.485   2.985
 7643SOL     OW23827   5.366   3.773   3.076
 7643SOL    HW123828   5.414   3.743   3.158
 7643SOL    HW223829   5.296   3.840   3.101
 7644SOL     OW23830   6.147   3.225   3.802
 7644SOL    HW123831   6.106   3.294   3.743
 7644SOL    HW223832   6.219   3.267   3.858
 7645SOL     OW23833   4.131   3.061   0.772
 7645SOL    HW123834   4.226   3.039   0.748
 7645SOL    HW223835   4.075   3.059   0.689
 7646SOL     OW23836   1.086   0.251   1.926
 7646SOL    HW123837   1.169   0.235   1.979
 7646SOL    HW223838   1.086   0.193   1.845
 7647SOL     OW23839   2.334   4.628   6.881
 7647SOL    HW123840   2.259   4.651   6.819
 7647SOL    HW223841   2.301   4.624   6.975
 7648SOL     OW23842   2.699   0.214   3.705
 7648SOL    HW123843   2.740   0.163   3.781
 7648SOL    HW223844   2.710   0.163   3.620
 7649SOL     OW23845   3.549   2.134   1.479
 7649SOL    HW123846   3.618   2.198   1.445
 7649SOL    HW223847   3.495   2.178   1.551
 7650SOL     OW23848   6.568   4.900   0.641
 7650SOL    HW123849   6.615   4.871   0.724
 7650SOL    HW223850   6.497   4.835   0.617
 7651SOL     OW23851   5.452   1.884   6.059
 7651SOL    HW123852   5.516   1.882   5.982
 7651SOL    HW223853   5.450   1.976   6.098
 7652SOL     OW23854   0.940   3.571   2.722
 7652SOL    HW123855   0.853   3.526   2.740
 7652SOL    HW223856   0.929   3.670   2.729
 7653SOL     OW23857   4.790   2.570   1.963
 7653SOL    HW123858   4.810   2.568   2.061
 7653SOL    HW223859   4.696   2.599   1.949
 7654SOL     OW23860   5.405   3.828   5.258
 7654SOL    HW123861   5.451   3.759   5.315
 7654SOL    HW223862   5.412   3.800   5.162
 7655SOL     OW23863   5.042   5.184   6.760
 7655SOL    HW123864   5.051   5.266   6.815
 7655SOL    HW223865   5.086   5.107   6.806
 7656SOL     OW23866   0.388   0.380   5.236
 7656SOL    HW123867   0.388   0.471   5.277
 7656SOL    HW223868   0.408   0.311   5.305
 7657SOL     OW23869   4.016   1.878   3.408
 7657SOL    HW123870   3.981   1.841   3.494
 7657SOL    HW223871   3.996   1.976   3.404
 7658SOL     OW23872   4.245   0.606   5.466
 7658SOL    HW123873   4.268   0.692   5.512
 7658SOL    HW223874   4.148   0.587   5.478
 7659SOL     OW23875   5.032   6.142   6.372
 7659SOL    HW123876   5.070   6.116   6.284
 7659SOL    HW223877   5.101   6.131   6.443
 7660SOL     OW23878   5.260   5.247   3.881
 7660SOL    HW123879   5.275   5.154   3.913
 7660SOL    HW223880   5.162   5.268   3.880
 7661SOL     OW23881   5.837   3.261   3.920
 7661SOL    HW123882   5.900   3.293   3.850
 7661SOL    HW223883   5.743   3.268   3.887
 7662SOL     OW23884   6.325   5.448   3.435
 7662SOL    HW123885   6.380   5.524   3.469
 7662SOL    HW223886   6.337   5.368   3.494
 7663SOL     OW23887   0.913   6.093   0.357
 7663SOL    HW123888   0.969   6.148   0.295
 7663SOL    HW223889   0.889   6.146   0.438
 7664SOL     OW23890   3.824   5.382   4.796
 7664SOL    HW123891   3.808   5.426   4.708
 7664SOL    HW223892   3.876   5.444   4.855
 7665SOL     OW23893   1.983   5.693   3.905
 7665SOL    HW123894   1.976   5.594   3.892
 7665SOL    HW223895   2.026   5.712   3.993
 7666SOL     OW23896   1.953   0.636   2.581
 7666SOL    HW123897   1.910   0.629   2.670
 7666SOL    HW223898   1.900   0.584   2.514
 7667SOL     OW23899   5.939   6.705   5.846
 7667SOL    HW123900   6.016   6.746   5.795
 7667SOL    HW223901   5.862   6.692   5.785
 7668SOL     OW23902   3.256   3.734   2.298
 7668SOL    HW123903   3.184   3.784   2.249
 7668SOL    HW223904   3.301   3.671   2.235
 7669SOL     OW23905   4.498   6.577   4.938
 7669SOL    HW123906   4.525   6.498   4.883
 7669SOL    HW223907   4.544   6.575   5.026
 7670SOL     OW23908   1.760   5.987   0.955
 7670SOL    HW123909   1.694   5.918   0.926
 7670SOL    HW223910   1.773   6.053   0.880
 7671SOL     OW23911   4.623   2.680   4.770
 7671SOL    HW123912   4.642   2.629   4.686
 7671SOL    HW223913   4.524   2.679   4.787
 7672SOL     OW23914   6.183   0.127   1.559
 7672SOL    HW123915   6.242   0.161   1.632
 7672SOL    HW223916   6.095   0.099   1.597
 7673SOL     OW23917   1.436   3.189   0.498
 7673SOL    HW123918   1.342   3.175   0.465
 7673SOL    HW223919   1.491   3.230   0.425
 7674SOL     OW23920   6.029   1.121   5.288
 7674SOL    HW123921   6.128   1.115   5.299
 7674SOL    HW223922   6.004   1.212   5.256
 7675SOL     OW23923   5.158   0.698   3.293
 7675SOL    HW123924   5.135   0.769   3.226
 7675SOL    HW223925   5.239   0.725   3.345
 7676SOL     OW23926   1.971   6.790   1.238
 7676SOL    HW123927   2.040   6.860   1.221
 7676SOL    HW223928   2.011   6.700   1.221
 7677SOL     OW23929   1.955   2.764   2.664
 7677SOL    HW123930   1.983   2.860   2.654
 7677SOL    HW223931   2.031   2.710   2.699
 7678SOL     OW23932   4.870   6.807   5.842
 7678SOL    HW123933   4.855   6.855   5.929
 7678SOL    HW223934   4.963   6.771   5.840
 7679SOL     OW23935   1.567   4.995   4.528
 7679SOL    HW123936   1.645   5.052   4.554
 7679SOL    HW223937   1.502   4.992   4.604
 7680SOL     OW23938   4.720   0.542   0.427
 7680SOL    HW123939   4.743   0.579   0.517
 7680SOL    HW223940   4.651   0.601   0.384
 7681SOL     OW23941   3.887   2.204   5.565
 7681SOL    HW123942   3.831   2.123   5.579
 7681SOL    HW223943   3.881   2.263   5.646
 7682SOL     OW23944   2.804   0.690   0.379
 7682SOL    HW123945   2.729   0.694   0.445
 7682SOL    HW223946   2.822   0.782   0.345
 7683SOL     OW23947   6.927   3.354   3.774
 7683SOL    HW123948   6.986   3.401   3.709
 7683SOL    HW223949   6.849   3.413   3.796
 7684SOL     OW23950   4.044   1.438   5.919
 7684SOL    HW123951   4.076   1.529   5.890
 7684SOL    HW223952   4.116   1.394   5.973
 7685SOL     OW23953   4.393   3.867   1.326
 7685SOL    HW123954   4.413   3.962   1.350
 7685SOL    HW223955   4.395   3.811   1.409
 7686SOL     OW23956   2.157   0.892   2.484
 7686SOL    HW123957   2.248   0.928   2.506
 7686SOL    HW223958   2.088   0.953   2.522
 7687SOL     OW23959   4.739   4.130   5.695
 7687SOL    HW123960   4.757   4.186   5.776
 7687SOL    HW223961   4.777   4.038   5.709
 7688SOL     OW23962   6.522   0.834   3.213
 7688SOL    HW123963   6.448   0.767   3.211
 7688SOL    HW223964   6.517   0.886   3.298
 7689SOL     OW23965   3.244   6.913   4.968
 7689SOL    HW123966   3.309   6.923   5.044
 7689SOL    HW223967   3.171   6.850   4.994
 7690SOL     OW23968   0.950   5.408   3.106
 7690SOL    HW123969   0.989   5.434   3.017
 7690SOL    HW223970   0.925   5.491   3.156
 7691SOL     OW23971   6.776   3.553   5.689
 7691SOL    HW123972   6.759   3.632   5.630
 7691SOL    HW223973   6.748   3.469   5.641
 7692SOL     OW23974   1.499   6.166   1.012
 7692SOL    HW123975   1.543   6.148   1.100
 7692SOL    HW223976   1.477   6.263   1.005
 7693SOL     OW23977   4.944   1.069   0.453
 7693SOL    HW123978   4.910   1.127   0.527
 7693SOL    HW223979   5.000   0.995   0.492
 7694SOL     OW23980   5.959   4.555   3.194
 7694SOL    HW123981   5.910   4.469   3.212
 7694SOL    HW223982   6.036   4.564   3.257
 7695SOL     OW23983   4.592   0.750   6.643
 7695SOL    HW123984   4.540   0.710   6.567
 7695SOL    HW223985   4.664   0.809   6.607
 7696SOL     OW23986   1.130   3.846   5.550
 7696SOL    HW123987   1.137   3.879   5.645
 7696SOL    HW223988   1.037   3.812   5.534
 7697SOL     OW23989   4.550   1.144   2.356
 7697SOL    HW123990   4.522   1.063   2.407
 7697SOL    HW223991   4.648   1.139   2.336
 7698SOL     OW23992   0.071   1.866   6.042
 7698SOL    HW123993   0.141   1.798   6.020
 7698SOL    HW223994   0.112   1.957   6.045
 7699SOL     OW23995   3.295   3.365   1.120
 7699SOL    HW123996   3.277   3.462   1.104
 7699SOL    HW223997   3.272   3.342   1.214
 7700SOL     OW23998   5.375   7.014   4.858
 7700SOL    HW123999   5.458   6.989   4.908
 7700SOL    HW224000   5.353   0.083   4.876
 7701SOL     OW24001   6.429   1.933   5.297
 7701SOL    HW124002   6.464   1.991   5.223
 7701SOL    HW224003   6.329   1.935   5.296
 7702SOL     OW24004   1.238   6.447   6.743
 7702SOL    HW124005   1.268   6.517   6.679
 7702SOL    HW224006   1.247   6.356   6.702
 7703SOL     OW24007   0.464   2.283   6.612
 7703SOL    HW124008   0.433   2.190   6.594
 7703SOL    HW224009   0.549   2.301   6.564
 7704SOL     OW24010   3.067   3.860   1.365
 7704SOL    HW124011   3.089   3.763   1.380
 7704SOL    HW224012   3.113   3.916   1.433
 7705SOL     OW24013   4.056   3.682   4.465
 7705SOL    HW124014   4.081   3.767   4.419
 7705SOL    HW224015   4.073   3.605   4.404
 7706SOL     OW24016   6.279   0.943   5.566
 7706SOL    HW124017   6.183   0.917   5.559
 7706SOL    HW224018   6.293   1.029   5.517
 7707SOL     OW24019   0.117   5.334   6.437
 7707SOL    HW124020   0.118   5.434   6.447
 7707SOL    HW224021   0.053   5.295   6.503
 7708SOL     OW24022   4.833   1.380   4.863
 7708SOL    HW124023   4.868   1.473   4.846
 7708SOL    HW224024   4.889   1.337   4.934
 7709SOL     OW24025   3.666   2.649   1.174
 7709SOL    HW124026   3.682   2.670   1.271
 7709SOL    HW224027   3.715   2.715   1.118
 7710SOL     OW24028   3.705   2.076   6.960
 7710SOL    HW124029   3.731   2.036   0.021
 7710SOL    HW224030   3.614   2.117   6.969
 7711SOL     OW24031   4.236   6.022   4.949
 7711SOL    HW124032   4.158   6.069   4.906
 7711SOL    HW224033   4.306   6.089   4.972
 7712SOL     OW24034   6.290   4.114   6.239
 7712SOL    HW124035   6.288   4.206   6.277
 7712SOL    HW224036   6.261   4.048   6.309
 7713SOL     OW24037   0.517   5.398   6.686
 7713SOL    HW124038   0.487   5.409   6.592
 7713SOL    HW224039   0.472   5.318   6.727
 7714SOL     OW24040   5.519   4.296   4.861
 7714SOL    HW124041   5.452   4.222   4.865
 7714SOL    HW224042   5.600   4.271   4.915
 7715SOL     OW24043   3.793   2.184   1.683
 7715SOL    HW124044   3.801   2.223   1.591
 7715SOL    HW224045   3.746   2.249   1.742
 7716SOL     OW24046   4.197   2.296   4.505
 7716SOL    HW124047   4.103   2.264   4.492
 7716SOL    HW224048   4.252   2.271   4.425
 7717SOL     OW24049   2.922   6.989   6.823
 7717SOL    HW124050   2.922   6.906   6.766
 7717SOL    HW224051   2.977   0.033   6.779
 7718SOL     OW24052   2.313   6.591   3.557
 7718SOL    HW124053   2.374   6.589   3.636
 7718SOL    HW224054   2.325   6.507   3.504
 7719SOL     OW24055   5.774   2.603   5.003
 7719SOL    HW124056   5.766   2.507   4.979
 7719SOL    HW224057   5.838   2.614   5.079
 7720SOL     OW24058   4.569   6.566   1.229
 7720SOL    HW124059   4.603   6.644   1.281
 7720SOL    HW224060   4.469   6.573   1.219
 7721SOL     OW24061   0.654   5.374   2.652
 7721SOL    HW124062   0.619   5.468   2.645
 7721SOL    HW224063   0.673   5.353   2.748
 7722SOL     OW24064   0.675   5.810   3.892
 7722SOL    HW124065   0.630   5.876   3.952
 7722SOL    HW224066   0.622   5.800   3.807
 7723SOL     OW24067   6.774   1.808   6.986
 7723SOL    HW124068   6.758   1.805   6.887
 7723SOL    HW224069   6.842   1.738   7.011
 7724SOL     OW24070   2.388   6.103   6.614
 7724SOL    HW124071   2.435   6.142   6.693
 7724SOL    HW224072   2.367   6.006   6.632
 7725SOL     OW24073   5.448   4.177   3.941
 7725SOL    HW124074   5.516   4.175   3.868
 7725SOL    HW224075   5.493   4.172   4.030
 7726SOL     OW24076   5.259   5.380   3.409
 7726SOL    HW124077   5.217   5.369   3.319
 7726SOL    HW224078   5.210   5.450   3.460
 7727SOL     OW24079   5.984   3.874   1.908
 7727SOL    HW124080   6.018   3.963   1.938
 7727SOL    HW224081   5.993   3.807   1.982
 7728SOL     OW24082   1.734   2.739   2.824
 7728SOL    HW124083   1.780   2.776   2.744
 7728SOL    HW224084   1.802   2.706   2.890
 7729SOL     OW24085   5.368   1.672   6.193
 7729SOL    HW124086   5.272   1.650   6.177
 7729SOL    HW224087   5.391   1.757   6.145
 7730SOL     OW24088   4.496   6.778   2.514
 7730SOL    HW124089   4.575   6.808   2.461
 7730SOL    HW224090   4.513   6.795   2.611
 7731SOL     OW24091   6.113   1.606   3.784
 7731SOL    HW124092   6.069   1.671   3.722
 7731SOL    HW224093   6.043   1.555   3.834
 7732SOL     OW24094   4.551   5.263   0.730
 7732SOL    HW124095   4.611   5.200   0.782
 7732SOL    HW224096   4.546   5.233   0.635
 7733SOL     OW24097   3.507   5.518   1.015
 7733SOL    HW124098   3.477   5.433   0.972
 7733SOL    HW224099   3.439   5.548   1.082
 7734SOL     OW24100   1.468   2.843   1.877
 7734SOL    HW124101   1.446   2.939   1.861
 7734SOL    HW224102   1.387   2.786   1.861
 7735SOL     OW24103   5.790   4.460   0.490
 7735SOL    HW124104   5.725   4.389   0.516
 7735SOL    HW224105   5.818   4.447   0.395
 7736SOL     OW24106   5.952   4.643   6.653
 7736SOL    HW124107   5.880   4.602   6.598
 7736SOL    HW224108   6.041   4.625   6.611
 7737SOL     OW24109   4.852   2.823   0.099
 7737SOL    HW124110   4.894   2.909   0.129
 7737SOL    HW224111   4.758   2.818   0.133
 7738SOL     OW24112   2.134   5.133   6.788
 7738SOL    HW124113   2.157   5.173   6.700
 7738SOL    HW224114   2.041   5.161   6.814
 7739SOL     OW24115   5.318   4.436   2.464
 7739SOL    HW124116   5.413   4.463   2.454
 7739SOL    HW224117   5.301   4.353   2.411
 7740SOL     OW24118   6.891   6.002   3.907
 7740SOL    HW124119   6.979   6.047   3.897
 7740SOL    HW224120   6.825   6.040   3.842
 7741SOL     OW24121   3.291   5.106   3.607
 7741SOL    HW124122   3.339   5.194   3.606
 7741SOL    HW224123   3.193   5.123   3.618
 7742SOL     OW24124   7.015   0.655   4.529
 7742SOL    HW124125   0.006   0.689   4.621
 7742SOL    HW224126   6.973   0.727   4.474
 7743SOL     OW24127   4.905   3.368   2.375
 7743SOL    HW124128   4.864   3.281   2.347
 7743SOL    HW224129   4.912   3.371   2.475
 7744SOL     OW24130   0.494   6.439   4.633
 7744SOL    HW124131   0.467   6.359   4.688
 7744SOL    HW224132   0.422   6.462   4.569
 7745SOL     OW24133   5.570   2.799   5.382
 7745SOL    HW124134   5.651   2.815   5.326
 7745SOL    HW224135   5.491   2.785   5.323
 7746SOL     OW24136   1.847   0.734   6.333
 7746SOL    HW124137   1.772   0.753   6.397
 7746SOL    HW224138   1.908   0.666   6.374
 7747SOL     OW24139   4.497   5.371   0.385
 7747SOL    HW124140   4.594   5.348   0.385
 7747SOL    HW224141   4.465   5.381   0.291
 7748SOL     OW24142   2.004   3.955   6.988
 7748SOL    HW124143   1.963   3.895   6.920
 7748SOL    HW224144   1.941   4.031   7.008
 7749SOL     OW24145   5.882   3.056   6.272
 7749SOL    HW124146   5.846   2.963   6.269
 7749SOL    HW224147   5.980   3.054   6.254
 7750SOL     OW24148   4.652   5.595   3.165
 7750SOL    HW124149   4.637   5.562   3.072
 7750SOL    HW224150   4.720   5.538   3.211
 7751SOL     OW24151   0.593   2.212   1.160
 7751SOL    HW124152   0.580   2.301   1.203
 7751SOL    HW224153   0.621   2.145   1.229
 7752SOL     OW24154   3.514   0.852   2.885
 7752SOL    HW124155   3.596   0.900   2.855
 7752SOL    HW224156   3.539   0.762   2.920
 7753SOL     OW24157   3.974   0.680   5.568
 7753SOL    HW124158   3.961   0.756   5.632
 7753SOL    HW224159   3.909   0.688   5.492
 7754SOL     OW24160   4.525   5.755   1.285
 7754SOL    HW124161   4.561   5.808   1.361
 7754SOL    HW224162   4.431   5.728   1.303
 7755SOL     OW24163   0.423   4.206   6.111
 7755SOL    HW124164   0.401   4.108   6.114
 7755SOL    HW224165   0.349   4.258   6.153
 7756SOL     OW24166   1.789   3.903   2.444
 7756SOL    HW124167   1.700   3.906   2.490
 7756SOL    HW224168   1.862   3.904   2.512
 7757SOL     OW24169   0.745   4.557   0.102
 7757SOL    HW124170   0.844   4.541   0.107
 7757SOL    HW224171   0.698   4.469   0.103
 7758SOL     OW24172   0.967   1.299   5.764
 7758SOL    HW124173   1.030   1.326   5.837
 7758SOL    HW224174   0.918   1.216   5.791
 7759SOL     OW24175   3.721   0.933   2.422
 7759SOL    HW124176   3.801   0.912   2.477
 7759SOL    HW224177   3.646   0.963   2.481
 7760SOL     OW24178   4.581   2.872   0.164
 7760SOL    HW124179   4.519   2.807   0.120
 7760SOL    HW224180   4.568   2.963   0.123
 7761SOL     OW24181   5.620   5.369   3.050
 7761SOL    HW124182   5.651   5.387   3.144
 7761SOL    HW224183   5.535   5.317   3.052
 7762SOL     OW24184   4.781   1.574   0.897
 7762SOL    HW124185   4.738   1.507   0.957
 7762SOL    HW224186   4.880   1.577   0.916
 7763SOL     OW24187   1.804   0.617   3.626
 7763SOL    HW124188   1.717   0.635   3.673
 7763SOL    HW224189   1.813   0.680   3.548
 7764SOL     OW24190   3.772   4.705   5.341
 7764SOL    HW124191   3.720   4.773   5.290
 7764SOL    HW224192   3.730   4.615   5.328
 7765SOL     OW24193   6.649   4.256   4.887
 7765SOL    HW124194   6.672   4.165   4.853
 7765SOL    HW224195   6.685   4.325   4.824
 7766SOL     OW24196   6.848   1.735   5.876
 7766SOL    HW124197   6.778   1.807   5.868
 7766SOL    HW224198   6.932   1.775   5.913
 7767SOL     OW24199   4.323   0.272   3.876
 7767SOL    HW124200   4.345   0.332   3.800
 7767SOL    HW224201   4.307   0.327   3.958
 7768SOL     OW24202   3.688   5.552   3.590
 7768SOL    HW124203   3.623   5.627   3.582
 7768SOL    HW224204   3.760   5.577   3.655
 7769SOL     OW24205   4.097   2.420   6.650
 7769SOL    HW124206   4.045   2.466   6.722
 7769SOL    HW224207   4.035   2.365   6.594
 7770SOL     OW24208   1.147   3.055   3.659
 7770SOL    HW124209   1.136   3.059   3.758
 7770SOL    HW224210   1.087   3.123   3.616
 7771SOL     OW24211   1.116   4.020   4.968
 7771SOL    HW124212   1.197   4.039   5.023
 7771SOL    HW224213   1.046   3.977   5.025
 7772SOL     OW24214   5.091   5.709   1.980
 7772SOL    HW124215   5.161   5.773   1.948
 7772SOL    HW224216   5.029   5.687   1.905
 7773SOL     OW24217   2.701   6.292   6.901
 7773SOL    HW124218   2.674   6.379   6.943
 7773SOL    HW224219   2.620   6.245   6.866
 7774SOL     OW24220   5.008   1.192   2.792
 7774SOL    HW124221   4.924   1.143   2.767
 7774SOL    HW224222   5.012   1.202   2.891
 7775SOL     OW24223   3.650   1.975   0.853
 7775SOL    HW124224   3.551   1.988   0.846
 7775SOL    HW224225   3.694   2.065   0.858
 7776SOL     OW24226   2.835   1.266   3.767
 7776SOL    HW124227   2.779   1.205   3.822
 7776SOL    HW224228   2.861   1.346   3.821
 7777SOL     OW24229   5.090   5.116   3.242
 7777SOL    HW124230   4.997   5.136   3.273
 7777SOL    HW224231   5.121   5.029   3.281
 7778SOL     OW24232   1.132   3.347   1.977
 7778SOL    HW124233   1.035   3.362   1.991
 7778SOL    HW224234   1.145   3.284   1.900
 7779SOL     OW24235   2.675   0.521   2.960
 7779SOL    HW124236   2.720   0.456   3.022
 7779SOL    HW224237   2.703   0.614   2.983
 7780SOL     OW24238   6.443   5.625   4.227
 7780SOL    HW124239   6.482   5.537   4.199
 7780SOL    HW224240   6.349   5.612   4.258
 7781SOL     OW24241   3.398   3.118   1.107
 7781SOL    HW124242   3.368   3.213   1.104
 7781SOL    HW224243   3.401   3.080   1.014
 7782SOL     OW24244   5.370   4.778   4.047
 7782SOL    HW124245   5.316   4.695   4.064
 7782SOL    HW224246   5.442   4.759   3.981
 7783SOL     OW24247   0.485   6.357   3.959
 7783SOL    HW124248   0.574   6.317   3.982
 7783SOL    HW224249   0.449   6.313   3.876
 7784SOL     OW24250   1.108   2.679   2.616
 7784SOL    HW124251   1.130   2.776   2.606
 7784SOL    HW224252   1.161   2.641   2.693
 7785SOL     OW24253   5.981   6.711   2.223
 7785SOL    HW124254   5.909   6.766   2.182
 7785SOL    HW224255   6.047   6.684   2.153
 7786SOL     OW24256   5.618   0.657   6.857
 7786SOL    HW124257   5.562   0.732   6.820
 7786SOL    HW224258   5.563   0.604   6.922
 7787SOL     OW24259   0.997   2.293   1.191
 7787SOL    HW124260   1.076   2.246   1.231
 7787SOL    HW224261   1.019   2.323   1.098
 7788SOL     OW24262   1.038   4.112   2.087
 7788SOL    HW124263   1.123   4.069   2.056
 7788SOL    HW224264   0.977   4.043   2.125
 7789SOL     OW24265   3.352   0.480   6.177
 7789SOL    HW124266   3.447   0.449   6.188
 7789SOL    HW224267   3.304   0.471   6.264
 7790SOL     OW24268   4.235   5.117   4.526
 7790SOL    HW124269   4.243   5.047   4.596
 7790SOL    HW224270   4.175   5.190   4.557
 7791SOL     OW24271   2.449   6.434   1.480
 7791SOL    HW124272   2.529   6.489   1.502
 7791SOL    HW224273   2.413   6.463   1.391
 7792SOL     OW24274   1.083   1.182   2.172
 7792SOL    HW124275   1.133   1.096   2.162
 7792SOL    HW224276   0.996   1.165   2.218
 7793SOL     OW24277   5.022   1.467   0.565
 7793SOL    HW124278   5.112   1.485   0.606
 7793SOL    HW224279   4.972   1.553   0.555
 7794SOL     OW24280   1.197   1.174   2.911
 7794SOL    HW124281   1.098   1.166   2.910
 7794SOL    HW224282   1.237   1.096   2.862
 7795SOL     OW24283   4.318   3.500   1.158
 7795SOL    HW124284   4.304   3.479   1.255
 7795SOL    HW224285   4.391   3.441   1.122
 7796SOL     OW24286   4.352   1.282   1.341
 7796SOL    HW124287   4.289   1.239   1.275
 7796SOL    HW224288   4.306   1.294   1.428
 7797SOL     OW24289   1.471   6.315   3.247
 7797SOL    HW124290   1.414   6.243   3.287
 7797SOL    HW224291   1.483   6.389   3.314
 7798SOL     OW24292   1.588   3.325   1.147
 7798SOL    HW124293   1.581   3.245   1.088
 7798SOL    HW224294   1.516   3.390   1.124
 7799SOL     OW24295   2.096   5.801   4.164
 7799SOL    HW124296   2.123   5.741   4.239
 7799SOL    HW224297   2.174   5.814   4.103
 7800SOL     OW24298   0.665   0.684   2.216
 7800SOL    HW124299   0.677   0.685   2.315
 7800SOL    HW224300   0.622   0.770   2.187
 7801SOL     OW24301   2.292   1.939   0.797
 7801SOL    HW124302   2.194   1.927   0.781
 7801SOL    HW224303   2.325   2.017   0.745
 7802SOL     OW24304   6.583   5.115   3.756
 7802SOL    HW124305   6.555   5.045   3.690
 7802SOL    HW224306   6.649   5.177   3.713
 7803SOL     OW24307   3.392   2.294   6.307
 7803SOL    HW124308   3.336   2.228   6.257
 7803SOL    HW224309   3.373   2.287   6.405
 7804SOL     OW24310   2.860   1.271   5.736
 7804SOL    HW124311   2.869   1.367   5.708
 7804SOL    HW224312   2.926   1.215   5.686
 7805SOL     OW24313   6.290   2.141   6.680
 7805SOL    HW124314   6.207   2.151   6.736
 7805SOL    HW224315   6.317   2.044   6.678
 7806SOL     OW24316   6.116   2.077   5.040
 7806SOL    HW124317   6.076   2.169   5.043
 7806SOL    HW224318   6.120   2.040   5.133
 7807SOL     OW24319   1.776   5.629   5.469
 7807SOL    HW124320   1.778   5.606   5.566
 7807SOL    HW224321   1.866   5.611   5.429
 7808SOL     OW24322   0.012   2.788   4.526
 7808SOL    HW124323   0.001   2.714   4.461
 7808SOL    HW224324   6.949   2.824   4.552
 7809SOL     OW24325   3.191   0.473   3.062
 7809SOL    HW124326   3.261   0.544   3.070
 7809SOL    HW224327   3.233   0.383   3.066
 7810SOL     OW24328   1.950   6.996   5.935
 7810SOL    HW124329   1.896   6.912   5.930
 7810SOL    HW224330   2.017   6.997   5.862
 7811SOL     OW24331   1.336   5.207   2.872
 7811SOL    HW124332   1.268   5.179   2.940
 7811SOL    HW224333   1.336   5.307   2.864
 7812SOL     OW24334   3.011   0.842   5.895
 7812SOL    HW124335   3.101   0.801   5.877
 7812SOL    HW224336   2.941   0.794   5.843
 7813SOL     OW24337   5.771   0.914   0.555
 7813SOL    HW124338   5.727   1.003   0.548
 7813SOL    HW224339   5.761   0.865   0.468
 7814SOL     OW24340   6.896   2.662   1.416
 7814SOL    HW124341   6.951   2.737   1.379
 7814SOL    HW224342   6.939   2.629   1.501
 7815SOL     OW24343   4.911   6.202   3.006
 7815SOL    HW124344   4.914   6.222   2.908
 7815SOL    HW224345   4.968   6.267   3.055
 7816SOL     OW24346   1.275   1.546   5.662
 7816SOL    HW124347   1.215   1.583   5.733
 7816SOL    HW224348   1.233   1.562   5.572
 7817SOL     OW24349   4.909   1.033   5.546
 7817SOL    HW124350   4.820   1.073   5.566
 7817SOL    HW224351   4.910   0.937   5.576
 7818SOL     OW24352   5.127   0.887   3.074
 7818SOL    HW124353   5.106   0.983   3.056
 7818SOL    HW224354   5.202   0.857   3.014
 7819SOL     OW24355   2.425   2.280   4.620
 7819SOL    HW124356   2.398   2.204   4.560
 7819SOL    HW224357   2.383   2.268   4.710
 7820SOL     OW24358   1.657   0.609   6.156
 7820SOL    HW124359   1.642   0.671   6.079
 7820SOL    HW224360   1.730   0.645   6.214
 7821SOL     OW24361   3.729   5.608   6.534
 7821SOL    HW124362   3.765   5.517   6.557
 7821SOL    HW224363   3.631   5.602   6.519
 7822SOL     OW24364   0.511   1.123   4.733
 7822SOL    HW124365   0.509   1.051   4.663
 7822SOL    HW224366   0.549   1.207   4.693
 7823SOL     OW24367   2.712   2.644   5.851
 7823SOL    HW124368   2.685   2.595   5.768
 7823SOL    HW224369   2.801   2.608   5.882
 7824SOL     OW24370   6.217   4.263   2.634
 7824SOL    HW124371   6.163   4.239   2.554
 7824SOL    HW224372   6.212   4.190   2.702
 7825SOL     OW24373   3.520   3.164   3.804
 7825SOL    HW124374   3.580   3.242   3.822
 7825SOL    HW224375   3.426   3.189   3.825
 7826SOL     OW24376   6.415   6.641   0.898
 7826SOL    HW124377   6.430   6.731   0.859
 7826SOL    HW224378   6.366   6.650   0.985
 7827SOL     OW24379   4.943   3.858   0.657
 7827SOL    HW124380   4.914   3.920   0.730
 7827SOL    HW224381   4.941   3.906   0.569
 7828SOL     OW24382   0.535   6.196   0.606
 7828SOL    HW124383   0.568   6.273   0.662
 7828SOL    HW224384   0.605   6.125   0.603
 7829SOL     OW24385   3.480   4.141   2.852
 7829SOL    HW124386   3.445   4.142   2.759
 7829SOL    HW224387   3.580   4.140   2.851
 7830SOL     OW24388   0.086   4.577   6.967
 7830SOL    HW124389   7.026   4.529   6.953
 7830SOL    HW224390   0.082   4.666   6.922
 7831SOL     OW24391   2.756   2.847   6.904
 7831SOL    HW124392   2.851   2.862   6.878
 7831SOL    HW224393   2.753   2.794   6.989
 7832SOL     OW24394   3.559   2.813   5.800
 7832SOL    HW124395   3.551   2.869   5.883
 7832SOL    HW224396   3.563   2.717   5.825
 7833SOL     OW24397   6.591   0.066   1.459
 7833SOL    HW124398   6.572   7.022   1.527
 7833SOL    HW224399   6.583   0.156   1.501
 7834SOL     OW24400   5.270   1.078   1.372
 7834SOL    HW124401   5.207   1.010   1.408
 7834SOL    HW224402   5.339   1.033   1.315
 7835SOL     OW24403   2.446   2.614   4.269
 7835SOL    HW124404   2.454   2.596   4.367
 7835SOL    HW224405   2.516   2.561   4.220
 7836SOL     OW24406   2.564   0.339   6.871
 7836SOL    HW124407   2.656   0.305   6.891
 7836SOL    HW224408   2.529   0.294   6.788
 7837SOL     OW24409   5.560   6.443   2.035
 7837SOL    HW124410   5.603   6.522   1.990
 7837SOL    HW224411   5.629   6.372   2.050
 7838SOL     OW24412   3.615   5.661   4.002
 7838SOL    HW124413   3.599   5.660   4.100
 7838SOL    HW224414   3.528   5.654   3.954
 7839SOL     OW24415   6.919   5.600   3.174
 7839SOL    HW124416   6.832   5.572   3.215
 7839SOL    HW224417   6.909   5.690   3.132
 7840SOL     OW24418   4.397   2.659   6.370
 7840SOL    HW124419   4.465   2.591   6.397
 7840SOL    HW224420   4.384   2.656   6.271
 7841SOL     OW24421   1.229   2.207   5.856
 7841SOL    HW124422   1.186   2.116   5.857
 7841SOL    HW224423   1.200   2.258   5.937
 7842SOL     OW24424   1.864   1.045   2.594
 7842SOL    HW124425   1.807   1.044   2.512
 7842SOL    HW224426   1.837   1.122   2.652
 7843SOL     OW24427   0.354   2.561   1.978
 7843SOL    HW124428   0.413   2.639   1.960
 7843SOL    HW224429   0.283   2.588   2.043
 7844SOL     OW24430   3.191   1.800   3.350
 7844SOL    HW124431   3.278   1.782   3.305
 7844SOL    HW224432   3.173   1.727   3.416
 7845SOL     OW24433   0.853   0.741   4.446
 7845SOL    HW124434   0.937   0.691   4.467
 7845SOL    HW224435   0.861   0.835   4.481
 7846SOL     OW24436   4.918   7.000   2.420
 7846SOL    HW124437   4.983   0.050   2.413
 7846SOL    HW224438   4.960   6.927   2.473
 7847SOL     OW24439   0.426   6.741   6.696
 7847SOL    HW124440   0.397   6.824   6.650
 7847SOL    HW224441   0.431   6.666   6.630
 7848SOL     OW24442   4.335   3.742   1.566
 7848SOL    HW124443   4.405   3.730   1.636
 7848SOL    HW224444   4.251   3.774   1.608
 7849SOL     OW24445   5.558   3.954   4.924
 7849SOL    HW124446   5.479   4.013   4.905
 7849SOL    HW224447   5.525   3.867   4.962
 7850SOL     OW24448   1.203   2.722   5.195
 7850SOL    HW124449   1.133   2.751   5.260
 7850SOL    HW224450   1.253   2.801   5.161
 7851SOL     OW24451   3.121   6.650   0.750
 7851SOL    HW124452   3.180   6.676   0.826
 7851SOL    HW224453   3.119   6.724   0.683
 7852SOL     OW24454   2.602   6.713   0.634
 7852SOL    HW124455   2.527   6.658   0.671
 7852SOL    HW224456   2.689   6.678   0.668
 7853SOL     OW24457   2.076   1.475   0.409
 7853SOL    HW124458   2.173   1.497   0.404
 7853SOL    HW224459   2.045   1.436   0.322
 7854SOL     OW24460   4.069   3.791   4.084
 7854SOL    HW124461   4.113   3.705   4.059
 7854SOL    HW224462   3.997   3.812   4.018
 7855SOL     OW24463   2.790   6.967   4.718
 7855SOL    HW124464   2.845   6.929   4.644
 7855SOL    HW224465   2.726   6.898   4.752
 7856SOL     OW24466   3.105   3.264   6.298
 7856SOL    HW124467   3.025   3.220   6.257
 7856SOL    HW224468   3.187   3.211   6.275
 7857SOL     OW24469   0.092   2.535   4.769
 7857SOL    HW124470   0.179   2.583   4.779
 7857SOL    HW224471   0.092   2.454   4.827
 7858SOL     OW24472   5.299   3.353   3.093
 7858SOL    HW124473   5.352   3.397   3.021
 7858SOL    HW224474   5.282   3.418   3.167
 7859SOL     OW24475   6.928   0.329   0.342
 7859SOL    HW124476   6.991   0.316   0.419
 7859SOL    HW224477   6.874   0.246   0.329
 7860SOL     OW24478   4.575   6.287   1.256
 7860SOL    HW124479   4.585   6.386   1.267
 7860SOL    HW224480   4.642   6.241   1.314
 7861SOL     OW24481   6.300   3.554   0.599
 7861SOL    HW124482   6.347   3.471   0.631
 7861SOL    HW224483   6.365   3.629   0.595
 7862SOL     OW24484   2.739   4.433   1.600
 7862SOL    HW124485   2.811   4.458   1.665
 7862SOL    HW224486   2.684   4.359   1.639
 7863SOL     OW24487   4.406   6.216   3.027
 7863SOL    HW124488   4.494   6.263   3.029
 7863SOL    HW224489   4.416   6.128   2.981
 7864SOL     OW24490   1.585   5.455   5.353
 7864SOL    HW124491   1.499   5.448   5.402
 7864SOL    HW224492   1.650   5.509   5.406
 7865SOL     OW24493   4.478   0.847   3.285
 7865SOL    HW124494   4.519   0.817   3.370
 7865SOL    HW224495   4.523   0.802   3.208
 7866SOL     OW24496   2.962   0.809   5.584
 7866SOL    HW124497   2.973   0.711   5.605
 7866SOL    HW224498   2.910   0.818   5.499
 7867SOL     OW24499   6.467   3.165   0.809
 7867SOL    HW124500   6.397   3.094   0.799
 7867SOL    HW224501   6.532   3.136   0.879
 7868SOL     OW24502   4.467   6.592   0.855
 7868SOL    HW124503   4.441   6.582   0.759
 7868SOL    HW224504   4.467   6.502   0.899
 7869SOL     OW24505   5.977   1.753   4.134
 7869SOL    HW124506   5.955   1.746   4.231
 7869SOL    HW224507   6.069   1.790   4.123
 7870SOL     OW24508   6.612   0.047   3.613
 7870SOL    HW124509   6.579   0.140   3.630
 7870SOL    HW224510   6.702   0.035   3.654
 7871SOL     OW24511   5.735   3.123   3.517
 7871SOL    HW124512   5.687   3.051   3.466
 7871SOL    HW224513   5.833   3.115   3.502
 7872SOL     OW24514   6.241   3.620   3.807
 7872SOL    HW124515   6.196   3.622   3.896
 7872SOL    HW224516   6.221   3.705   3.758
 7873SOL     OW24517   6.826   5.778   4.887
 7873SOL    HW124518   6.877   5.769   4.973
 7873SOL    HW224519   6.756   5.848   4.897
 7874SOL     OW24520   6.054   6.852   0.003
 7874SOL    HW124521   5.998   6.901   0.070
 7874SOL    HW224522   6.151   6.859   0.029
 7875SOL     OW24523   5.691   2.897   0.638
 7875SOL    HW124524   5.672   2.984   0.593
 7875SOL    HW224525   5.771   2.907   0.697
 7876SOL     OW24526   6.833   1.609   4.566
 7876SOL    HW124527   6.903   1.592   4.497
 7876SOL    HW224528   6.751   1.647   4.522
 7877SOL     OW24529   5.815   4.109   1.879
 7877SOL    HW124530   5.817   4.137   1.975
 7877SOL    HW224531   5.828   4.010   1.873
 7878SOL     OW24532   3.874   3.924   2.014
 7878SOL    HW124533   3.961   3.893   2.052
 7878SOL    HW224534   3.808   3.848   2.014
 7879SOL     OW24535   6.866   1.088   4.911
 7879SOL    HW124536   6.778   1.072   4.867
 7879SOL    HW224537   6.864   1.178   4.957
 7880SOL     OW24538   1.984   5.947   6.574
 7880SOL    HW124539   1.934   6.020   6.621
 7880SOL    HW224540   1.979   5.961   6.475
 7881SOL     OW24541   0.520   5.296   4.944
 7881SOL    HW124542   0.469   5.319   5.026
 7881SOL    HW224543   0.617   5.316   4.958
 7882SOL     OW24544   1.348   5.058   1.320
 7882SOL    HW124545   1.304   5.098   1.240
 7882SOL    HW224546   1.280   5.007   1.374
 7883SOL     OW24547   2.921   2.257   2.552
 7883SOL    HW124548   2.872   2.310   2.621
 7883SOL    HW224549   2.870   2.260   2.466
 7884SOL     OW24550   0.290   2.103   5.811
 7884SOL    HW124551   0.341   2.189   5.806
 7884SOL    HW224552   0.259   2.088   5.905
 7885SOL     OW24553   6.053   5.122   2.749
 7885SOL    HW124554   5.998   5.194   2.709
 7885SOL    HW224555   6.142   5.118   2.704
 7886SOL     OW24556   3.784   4.838   3.085
 7886SOL    HW124557   3.764   4.838   2.987
 7886SOL    HW224558   3.698   4.844   3.136
 7887SOL     OW24559   0.361   3.118   0.859
 7887SOL    HW124560   0.314   3.054   0.798
 7887SOL    HW224561   0.443   3.074   0.896
 7888SOL     OW24562   0.518   1.732   5.440
 7888SOL    HW124563   0.558   1.749   5.350
 7888SOL    HW224564   0.459   1.651   5.436
 7889SOL     OW24565   5.316   4.954   0.387
 7889SOL    HW124566   5.337   4.918   0.296
 7889SOL    HW224567   5.398   4.950   0.445
 7890SOL     OW24568   1.919   2.621   2.029
 7890SOL    HW124569   1.964   2.699   2.071
 7890SOL    HW224570   1.978   2.540   2.037
 7891SOL     OW24571   5.770   1.168   4.237
 7891SOL    HW124572   5.786   1.173   4.139
 7891SOL    HW224573   5.692   1.108   4.255
 7892SOL     OW24574   0.819   2.114   4.258
 7892SOL    HW124575   0.770   2.103   4.171
 7892SOL    HW224576   0.910   2.075   4.250
 7893SOL     OW24577   5.173   6.048   0.770
 7893SOL    HW124578   5.077   6.038   0.743
 7893SOL    HW224579   5.192   5.989   0.848
 7894SOL     OW24580   3.082   0.060   6.591
 7894SOL    HW124581   3.149   0.116   6.640
 7894SOL    HW224582   3.048   0.112   6.512
 7895SOL     OW24583   5.467   6.501   2.682
 7895SOL    HW124584   5.566   6.492   2.673
 7895SOL    HW224585   5.423   6.460   2.602
 7896SOL     OW24586   2.737   2.525   1.091
 7896SOL    HW124587   2.780   2.457   1.150
 7896SOL    HW224588   2.648   2.549   1.128
 7897SOL     OW24589   5.427   1.034   1.626
 7897SOL    HW124590   5.393   1.057   1.535
 7897SOL    HW224591   5.352   1.042   1.692
 7898SOL     OW24592   4.464   6.670   2.920
 7898SOL    HW124593   4.443   6.590   2.865
 7898SOL    HW224594   4.455   6.647   3.017
 7899SOL     OW24595   6.168   5.138   2.998
 7899SOL    HW124596   6.128   5.194   3.070
 7899SOL    HW224597   6.137   5.172   2.909
 7900SOL     OW24598   0.339   3.480   0.622
 7900SOL    HW124599   0.300   3.469   0.531
 7900SOL    HW224600   0.414   3.415   0.634
 7901SOL     OW24601   0.585   2.296   6.315
 7901SOL    HW124602   0.625   2.356   6.245
 7901SOL    HW224603   0.657   2.264   6.377
 7902SOL     OW24604   1.977   0.246   1.377
 7902SOL    HW124605   1.956   0.343   1.395
 7902SOL    HW224606   2.070   0.238   1.342
 7903SOL     OW24607   2.908   1.962   6.021
 7903SOL    HW124608   3.002   1.966   5.988
 7903SOL    HW224609   2.845   1.989   5.948
 7904SOL     OW24610   5.323   3.475   2.763
 7904SOL    HW124611   5.270   3.551   2.801
 7904SOL    HW224612   5.283   3.445   2.677
 7905SOL     OW24613   6.317   2.074   1.641
 7905SOL    HW124614   6.228   2.030   1.624
 7905SOL    HW224615   6.390   2.017   1.603
 7906SOL     OW24616   0.311   6.134   6.207
 7906SOL    HW124617   0.321   6.232   6.229
 7906SOL    HW224618   0.394   6.101   6.164
 7907SOL     OW24619   5.731   5.850   3.499
 7907SOL    HW124620   5.715   5.949   3.492
 7907SOL    HW224621   5.809   5.825   3.441
 7908SOL     OW24622   1.778   0.041   6.125
 7908SOL    HW124623   1.746   6.988   6.177
 7908SOL    HW224624   1.837   0.010   6.051
 7909SOL     OW24625   6.774   4.051   1.996
 7909SOL    HW124626   6.869   4.023   1.980
 7909SOL    HW224627   6.770   4.107   2.079
 7910SOL     OW24628   1.497   4.104   4.717
 7910SOL    HW124629   1.429   4.164   4.676
 7910SOL    HW224630   1.543   4.152   4.792
 7911SOL     OW24631   6.349   3.544   6.051
 7911SOL    HW124632   6.428   3.587   6.094
 7911SOL    HW224633   6.276   3.535   6.119
 7912SOL     OW24634   5.400   5.677   1.670
 7912SOL    HW124635   5.365   5.595   1.623
 7912SOL    HW224636   5.324   5.736   1.695
 7913SOL     OW24637   1.447   4.899   6.494
 7913SOL    HW124638   1.497   4.833   6.551
 7913SOL    HW224639   1.349   4.892   6.513
 7914SOL     OW24640   1.049   0.173   4.744
 7914SOL    HW124641   1.094   0.261   4.727
 7914SOL    HW224642   0.960   0.189   4.786
 7915SOL     OW24643   3.535   5.451   2.181
 7915SOL    HW124644   3.606   5.411   2.238
 7915SOL    HW224645   3.491   5.526   2.229
 7916SOL     OW24646   1.573   0.902   4.328
 7916SOL    HW124647   1.584   0.956   4.244
 7916SOL    HW224648   1.633   0.822   4.324
 7917SOL     OW24649   4.922   1.936   2.650
 7917SOL    HW124650   4.844   1.962   2.593
 7917SOL    HW224651   4.935   2.005   2.721
 7918SOL     OW24652   1.542   2.412   2.451
 7918SOL    HW124653   1.635   2.395   2.421
 7918SOL    HW224654   1.541   2.488   2.516
 7919SOL     OW24655   0.750   6.906   4.697
 7919SOL    HW124656   0.803   6.827   4.667
 7919SOL    HW224657   0.767   6.983   4.634
 7920SOL     OW24658   5.222   6.699   0.930
 7920SOL    HW124659   5.258   6.791   0.916
 7920SOL    HW224660   5.150   6.702   0.999
 7921SOL     OW24661   5.673   3.541   1.088
 7921SOL    HW124662   5.702   3.543   0.992
 7921SOL    HW224663   5.581   3.502   1.094
 7922SOL     OW24664   2.315   6.175   3.638
 7922SOL    HW124665   2.229   6.225   3.650
 7922SOL    HW224666   2.331   6.159   3.540
 7923SOL     OW24667   4.946   0.087   1.106
 7923SOL    HW124668   4.890   0.040   1.038
 7923SOL    HW224669   5.043   0.077   1.081
 7924SOL     OW24670   5.606   5.972   0.013
 7924SOL    HW124671   5.528   5.960   6.979
 7924SOL    HW224672   5.659   5.887   0.017
 7925SOL     OW24673   2.178   4.922   6.127
 7925SOL    HW124674   2.156   4.904   6.031
 7925SOL    HW224675   2.227   4.844   6.166
 7926SOL     OW24676   4.182   5.938   5.992
 7926SOL    HW124677   4.149   5.844   6.000
 7926SOL    HW224678   4.106   6.001   6.010
 7927SOL     OW24679   5.157   0.426   3.335
 7927SOL    HW124680   5.163   0.524   3.315
 7927SOL    HW224681   5.206   0.407   3.420
 7928SOL     OW24682   5.799   2.125   4.125
 7928SOL    HW124683   5.809   2.074   4.040
 7928SOL    HW224684   5.788   2.062   4.201
 7929SOL     OW24685   4.501   3.715   5.282
 7929SOL    HW124686   4.526   3.810   5.302
 7929SOL    HW224687   4.577   3.671   5.233
 7930SOL     OW24688   4.162   5.430   0.844
 7930SOL    HW124689   4.204   5.362   0.785
 7930SOL    HW224690   4.093   5.480   0.793
 7931SOL     OW24691   5.001   0.380   0.504
 7931SOL    HW124692   4.917   0.332   0.531
 7931SOL    HW224693   5.080   0.334   0.545
 7932SOL     OW24694   0.976   3.739   0.854
 7932SOL    HW124695   1.011   3.830   0.833
 7932SOL    HW224696   0.888   3.725   0.807
 7933SOL     OW24697   1.501   1.302   0.603
 7933SOL    HW124698   1.433   1.259   0.544
 7933SOL    HW224699   1.568   1.351   0.547
 7934SOL     OW24700   6.582   5.340   0.763
 7934SOL    HW124701   6.562   5.276   0.837
 7934SOL    HW224702   6.497   5.386   0.736
 7935SOL     OW24703   6.054   3.858   3.049
 7935SOL    HW124704   6.135   3.854   3.108
 7935SOL    HW224705   6.083   3.864   2.953
 7936SOL     OW24706   2.245   5.938   3.430
 7936SOL    HW124707   2.251   6.013   3.365
 7936SOL    HW224708   2.162   5.947   3.485
 7937SOL     OW24709   3.655   1.678   0.941
 7937SOL    HW124710   3.712   1.719   1.011
 7937SOL    HW224711   3.619   1.591   0.973
 7938SOL     OW24712   2.230   6.721   3.302
 7938SOL    HW124713   2.214   6.625   3.325
 7938SOL    HW224714   2.271   6.767   3.381
 7939SOL     OW24715   1.391   0.031   2.999
 7939SOL    HW124716   1.381   0.072   3.089
 7939SOL    HW224717   1.488   0.012   2.981
 7940SOL     OW24718   6.595   1.563   5.218
 7940SOL    HW124719   6.503   1.600   5.226
 7940SOL    HW224720   6.634   1.590   5.130
 7941SOL     OW24721   3.446   0.624   0.857
 7941SOL    HW124722   3.437   0.543   0.915
 7941SOL    HW224723   3.358   0.672   0.855
 7942SOL     OW24724   1.235   4.205   1.128
 7942SOL    HW124725   1.161   4.211   1.194
 7942SOL    HW224726   1.316   4.166   1.172
 7943SOL     OW24727   1.983   5.270   0.012
 7943SOL    HW124728   1.964   5.358   6.995
 7943SOL    HW224729   2.053   5.282   0.082
 7944SOL     OW24730   0.771   1.924   0.824
 7944SOL    HW124731   0.822   1.980   0.888
 7944SOL    HW224732   0.677   1.959   0.817
 7945SOL     OW24733   6.365   4.248   3.071
 7945SOL    HW124734   6.285   4.234   3.129
 7945SOL    HW224735   6.432   4.305   3.120
 7946SOL     OW24736   4.976   1.452   5.757
 7946SOL    HW124737   5.057   1.402   5.786
 7946SOL    HW224738   4.939   1.412   5.674
 7947SOL     OW24739   0.965   3.919   6.955
 7947SOL    HW124740   1.011   3.912   0.017
 7947SOL    HW224741   0.884   3.977   6.964
 7948SOL     OW24742   1.494   5.583   1.432
 7948SOL    HW124743   1.567   5.618   1.374
 7948SOL    HW224744   1.504   5.621   1.524
 7949SOL     OW24745   3.062   5.437   5.319
 7949SOL    HW124746   2.994   5.372   5.284
 7949SOL    HW224747   3.124   5.390   5.382
 7950SOL     OW24748   6.879   2.874   5.600
 7950SOL    HW124749   6.918   2.797   5.650
 7950SOL    HW224750   6.787   2.893   5.635
 7951SOL     OW24751   3.634   0.586   2.786
 7951SOL    HW124752   3.638   0.494   2.747
 7951SOL    HW224753   3.612   0.652   2.713
 7952SOL     OW24754   6.981   3.144   5.264
 7952SOL    HW124755   0.046   3.166   5.298
 7952SOL    HW224756   6.927   3.228   5.258
 7953SOL     OW24757   1.274   0.253   0.247
 7953SOL    HW124758   1.190   0.302   0.225
 7953SOL    HW224759   1.261   0.155   0.232
 7954SOL     OW24760   3.623   2.592   0.314
 7954SOL    HW124761   3.634   2.615   0.217
 7954SOL    HW224762   3.710   2.560   0.351
 7955SOL     OW24763   6.691   0.715   6.416
 7955SOL    HW124764   6.693   0.796   6.357
 7955SOL    HW224765   6.706   0.633   6.360
 7956SOL     OW24766   7.022   0.277   0.629
 7956SOL    HW124767   0.064   0.330   0.679
 7956SOL    HW224768   6.952   0.245   0.692
 7957SOL     OW24769   5.644   1.610   5.773
 7957SOL    HW124770   5.568   1.673   5.756
 7957SOL    HW224771   5.730   1.662   5.773
 7958SOL     OW24772   4.713   2.616   6.691
 7958SOL    HW124773   4.744   2.626   6.596
 7958SOL    HW224774   4.615   2.635   6.696
 7959SOL     OW24775   4.994   3.115   6.796
 7959SOL    HW124776   5.003   3.172   6.715
 7959SOL    HW224777   5.084   3.099   6.836
 7960SOL     OW24778   0.783   1.833   4.981
 7960SOL    HW124779   0.795   1.930   4.960
 7960SOL    HW224780   0.692   1.803   4.951
 7961SOL     OW24781   6.236   0.261   6.371
 7961SOL    HW124782   6.177   0.252   6.451
 7961SOL    HW224783   6.294   0.180   6.362
 7962SOL     OW24784   5.627   6.933   4.946
 7962SOL    HW124785   5.723   6.955   4.962
 7962SOL    HW224786   5.619   6.836   4.921
 7963SOL     OW24787   5.456   6.161   2.734
 7963SOL    HW124788   5.418   6.072   2.759
 7963SOL    HW224789   5.408   6.233   2.784
 7964SOL     OW24790   0.131   3.949   1.265
 7964SOL    HW124791   0.145   3.873   1.201
 7964SOL    HW224792   0.060   3.924   1.331
 7965SOL     OW24793   4.185   1.626   6.753
 7965SOL    HW124794   4.185   1.546   6.692
 7965SOL    HW224795   4.279   1.656   6.768
 7966SOL     OW24796   5.846   3.409   5.313
 7966SOL    HW124797   5.879   3.390   5.220
 7966SOL    HW224798   5.918   3.454   5.365
 7967SOL     OW24799   1.669   4.108   1.667
 7967SOL    HW124800   1.600   4.134   1.600
 7967SOL    HW224801   1.671   4.176   1.741
 7968SOL     OW24802   2.605   2.297   3.778
 7968SOL    HW124803   2.511   2.267   3.765
 7968SOL    HW224804   2.628   2.295   3.876
 7969SOL     OW24805   2.788   3.861   6.683
 7969SOL    HW124806   2.709   3.922   6.681
 7969SOL    HW224807   2.831   3.859   6.593
 7970SOL     OW24808   6.607   3.359   3.039
 7970SOL    HW124809   6.677   3.320   3.099
 7970SOL    HW224810   6.592   3.298   2.961
 7971SOL     OW24811   2.937   0.400   6.860
 7971SOL    HW124812   2.925   0.429   6.765
 7971SOL    HW224813   2.948   0.480   6.919
 7972SOL     OW24814   4.053   3.850   4.702
 7972SOL    HW124815   4.038   3.779   4.771
 7972SOL    HW224816   4.040   3.811   4.611
 7973SOL     OW24817   0.025   5.216   1.813
 7973SOL    HW124818   6.986   5.290   1.798
 7973SOL    HW224819   0.087   5.241   1.888
 7974SOL     OW24820   6.907   2.493   4.610
 7974SOL    HW124821   6.996   2.503   4.655
 7974SOL    HW224822   6.913   2.525   4.516
 7975SOL     OW24823   3.752   6.974   6.729
 7975SOL    HW124824   3.784   6.920   6.807
 7975SOL    HW224825   3.827   0.003   6.692
 7976SOL     OW24826   0.412   0.464   0.884
 7976SOL    HW124827   0.414   0.530   0.960
 7976SOL    HW224828   0.483   0.395   0.898
 7977SOL     OW24829   4.928   5.185   2.789
 7977SOL    HW124830   4.999   5.137   2.841
 7977SOL    HW224831   4.866   5.232   2.851
 7978SOL     OW24832   0.267   4.133   0.789
 7978SOL    HW124833   0.196   4.123   0.719
 7978SOL    HW224834   0.346   4.182   0.751
 7979SOL     OW24835   3.489   2.528   5.687
 7979SOL    HW124836   3.510   2.510   5.591
 7979SOL    HW224837   3.405   2.581   5.694
 7980SOL     OW24838   3.989   6.334   2.744
 7980SOL    HW124839   4.003   6.266   2.816
 7980SOL    HW224840   4.077   6.375   2.719
 7981SOL     OW24841   1.132   3.053   4.853
 7981SOL    HW124842   1.148   2.976   4.790
 7981SOL    HW224843   1.092   3.019   4.938
 7982SOL     OW24844   6.724   0.085   0.366
 7982SOL    HW124845   6.810   0.039   0.341
 7982SOL    HW224846   6.657   0.071   0.293
 7983SOL     OW24847   3.561   1.433   1.094
 7983SOL    HW124848   3.606   1.360   1.145
 7983SOL    HW224849   3.512   1.394   1.016
 7984SOL     OW24850   6.341   2.968   2.994
 7984SOL    HW124851   6.310   3.056   3.030
 7984SOL    HW224852   6.263   2.918   2.957
 7985SOL     OW24853   3.227   3.414   5.855
 7985SOL    HW124854   3.301   3.346   5.854
 7985SOL    HW224855   3.256   3.495   5.906
 7986SOL     OW24856   2.782   0.946   3.649
 7986SOL    HW124857   2.818   0.987   3.733
 7986SOL    HW224858   2.755   1.019   3.586
 7987SOL     OW24859   1.624   3.050   5.740
 7987SOL    HW124860   1.588   2.986   5.809
 7987SOL    HW224861   1.575   3.036   5.653
 7988SOL     OW24862   6.568   0.311   1.588
 7988SOL    HW124863   6.482   0.350   1.623
 7988SOL    HW224864   6.622   0.384   1.547
 7989SOL     OW24865   0.703   4.618   1.365
 7989SOL    HW124866   0.749   4.684   1.425
 7989SOL    HW224867   0.609   4.650   1.347
 7990SOL     OW24868   4.101   5.259   5.462
 7990SOL    HW124869   4.147   5.346   5.477
 7990SOL    HW224870   4.079   5.217   5.550
 7991SOL     OW24871   5.413   0.802   4.440
 7991SOL    HW124872   5.403   0.808   4.539
 7991SOL    HW224873   5.325   0.824   4.396
 7992SOL     OW24874   2.144   0.375   0.091
 7992SOL    HW124875   2.234   0.332   0.077
 7992SOL    HW224876   2.121   0.430   0.010
 7993SOL     OW24877   6.131   6.181   0.822
 7993SOL    HW124878   6.202   6.251   0.831
 7993SOL    HW224879   6.132   6.145   0.729
 7994SOL     OW24880   0.819   1.518   4.716
 7994SOL    HW124881   0.913   1.521   4.751
 7994SOL    HW224882   0.811   1.580   4.638
 7995SOL     OW24883   0.433   6.580   1.240
 7995SOL    HW124884   0.403   6.640   1.315
 7995SOL    HW224885   0.426   6.485   1.269
 7996SOL     OW24886   2.107   6.666   3.939
 7996SOL    HW124887   2.196   6.621   3.934
 7996SOL    HW224888   2.071   6.681   3.847
 7997SOL     OW24889   2.722   1.004   5.636
 7997SOL    HW124890   2.644   0.947   5.663
 7997SOL    HW224891   2.804   0.970   5.681
 7998SOL     OW24892   2.415   1.285   1.438
 7998SOL    HW124893   2.417   1.368   1.382
 7998SOL    HW224894   2.338   1.289   1.501
 7999SOL     OW24895   0.094   1.094   2.567
 7999SOL    HW124896   0.168   1.036   2.601
 7999SOL    HW224897   0.019   1.095   2.632
 8000SOL     OW24898   4.649   5.637   1.062
 8000SOL    HW124899   4.657   5.710   1.129
 8000SOL    HW224900   4.560   5.641   1.018
 8001SOL     OW24901   5.291   4.922   2.380
 8001SOL    HW124902   5.288   4.903   2.478
 8001SOL    HW224903   5.267   5.017   2.364
 8002SOL     OW24904   1.547   0.918   5.219
 8002SOL    HW124905   1.452   0.915   5.187
 8002SOL    HW224906   1.609   0.906   5.141
 8003SOL     OW24907   2.436   5.457   2.890
 8003SOL    HW124908   2.534   5.473   2.900
 8003SOL    HW224909   2.406   5.492   2.801
 8004SOL     OW24910   1.971   3.572   3.779
 8004SOL    HW124911   2.025   3.517   3.715
 8004SOL    HW224912   1.891   3.520   3.809
 8005SOL     OW24913   2.902   0.458   4.168
 8005SOL    HW124914   2.854   0.404   4.099
 8005SOL    HW224915   2.865   0.550   4.172
 8006SOL     OW24916   4.842   4.939   6.376
 8006SOL    HW124917   4.885   4.898   6.296
 8006SOL    HW224918   4.767   4.881   6.407
 8007SOL     OW24919   6.996   0.844   1.293
 8007SOL    HW124920   7.023   0.753   1.261
 8007SOL    HW224921   0.050   0.891   1.330
 8008SOL     OW24922   5.354   5.577   0.953
 8008SOL    HW124923   5.366   5.588   0.854
 8008SOL    HW224924   5.256   5.574   0.975
 8009SOL     OW24925   6.413   0.677   1.144
 8009SOL    HW124926   6.480   0.728   1.090
 8009SOL    HW224927   6.431   0.690   1.241
 8010SOL     OW24928   2.590   0.307   6.376
 8010SOL    HW124929   2.491   0.288   6.373
 8010SOL    HW224930   2.638   0.225   6.408
 8011SOL     OW24931   3.792   2.129   2.426
 8011SOL    HW124932   3.784   2.202   2.358
 8011SOL    HW224933   3.797   2.041   2.380
 8012SOL     OW24934   6.470   0.651   5.322
 8012SOL    HW124935   6.391   0.682   5.270
 8012SOL    HW224936   6.518   0.731   5.360
 8013SOL     OW24937   3.669   0.364   3.199
 8013SOL    HW124938   3.607   0.334   3.271
 8013SOL    HW224939   3.736   0.291   3.180
 8014SOL     OW24940   2.410   2.699   3.211
 8014SOL    HW124941   2.380   2.744   3.295
 8014SOL    HW224942   2.477   2.628   3.232
 8015SOL     OW24943   3.336   5.974   4.853
 8015SOL    HW124944   3.311   5.999   4.946
 8015SOL    HW224945   3.431   5.943   4.851
 8016SOL     OW24946   3.179   3.034   5.041
 8016SOL    HW124947   3.140   3.124   5.022
 8016SOL    HW224948   3.140   2.997   5.125
 8017SOL     OW24949   5.120   6.454   1.871
 8017SOL    HW124950   5.213   6.426   1.848
 8017SOL    HW224951   5.121   6.545   1.912
 8018SOL     OW24952   2.817   2.765   0.991
 8018SOL    HW124953   2.811   2.670   1.019
 8018SOL    HW224954   2.880   2.814   1.050
 8019SOL     OW24955   2.704   3.594   1.143
 8019SOL    HW124956   2.711   3.649   1.227
 8019SOL    HW224957   2.609   3.591   1.112
 8020SOL     OW24958   0.655   0.186   0.367
 8020SOL    HW124959   0.652   0.175   0.467
 8020SOL    HW224960   0.581   0.132   0.326
 8021SOL     OW24961   0.723   2.383   0.719
 8021SOL    HW124962   0.680   2.300   0.754
 8021SOL    HW224963   0.698   2.461   0.776
 8022SOL     OW24964   4.228   0.560   2.850
 8022SOL    HW124965   4.180   0.504   2.782
 8022SOL    HW224966   4.237   0.507   2.935
 8023SOL     OW24967   3.774   4.911   2.096
 8023SOL    HW124968   3.847   4.849   2.066
 8023SOL    HW224969   3.686   4.863   2.092
 8024SOL     OW24970   2.506   0.865   5.716
 8024SOL    HW124971   2.513   0.775   5.758
 8024SOL    HW224972   2.437   0.919   5.763
 8025SOL     OW24973   1.540   6.942   1.230
 8025SOL    HW124974   1.575   0.007   1.212
 8025SOL    HW224975   1.440   6.944   1.231
 8026SOL     OW24976   0.328   6.548   5.454
 8026SOL    HW124977   0.367   6.615   5.391
 8026SOL    HW224978   0.350   6.574   5.548
 8027SOL     OW24979   4.170   6.831   6.650
 8027SOL    HW124980   4.260   6.849   6.690
 8027SOL    HW224981   4.144   6.908   6.592
 8028SOL     OW24982   4.137   5.692   6.278
 8028SOL    HW124983   4.156   5.626   6.205
 8028SOL    HW224984   4.129   5.644   6.365
 8029SOL     OW24985   1.254   6.858   1.647
 8029SOL    HW124986   1.327   6.824   1.588
 8029SOL    HW224987   1.293   6.891   1.733
 8030SOL     OW24988   0.794   3.868   1.254
 8030SOL    HW124989   0.741   3.820   1.184
 8030SOL    HW224990   0.731   3.903   1.324
 8031SOL     OW24991   6.944   0.703   3.644
 8031SOL    HW124992   6.906   0.788   3.680
 8031SOL    HW224993   6.910   0.688   3.551
 8032SOL     OW24994   0.137   3.341   1.394
 8032SOL    HW124995   0.103   3.432   1.415
 8032SOL    HW224996   0.145   3.288   1.479
 8033SOL     OW24997   4.407   4.933   0.935
 8033SOL    HW124998   4.404   4.850   0.880
 8033SOL    HW224999   4.487   4.987   0.909
 8034SOL     OW25000   1.658   1.455   4.967
 8034SOL    HW125001   1.610   1.380   5.011
 8034SOL    HW225002   1.702   1.422   4.883
 8035SOL     OW25003   5.609   0.632   4.837
 8035SOL    HW125004   5.631   0.701   4.905
 8035SOL    HW225005   5.693   0.600   4.793
 8036SOL     OW25006   5.281   4.589   4.632
 8036SOL    HW125007   5.204   4.552   4.581
 8036SOL    HW225008   5.362   4.533   4.615
 8037SOL     OW25009   2.655   1.158   6.562
 8037SOL    HW125010   2.719   1.231   6.586
 8037SOL    HW225011   2.687   1.112   6.479
 8038SOL     OW25012   6.448   5.434   1.885
 8038SOL    HW125013   6.430   5.425   1.787
 8038SOL    HW225014   6.388   5.503   1.923
 8039SOL     OW25015   1.804   2.767   4.995
 8039SOL    HW125016   1.806   2.765   5.095
 8039SOL    HW225017   1.829   2.859   4.963
 8040SOL     OW25018   0.765   6.590   5.653
 8040SOL    HW125019   0.754   6.506   5.600
 8040SOL    HW225020   0.802   6.662   5.594
 8041SOL     OW25021   3.215   1.917   2.768
 8041SOL    HW125022   3.262   1.832   2.790
 8041SOL    HW225023   3.191   1.918   2.671
 8042SOL     OW25024   4.479   3.842   5.957
 8042SOL    HW125025   4.577   3.863   5.960
 8042SOL    HW225026   4.443   3.843   6.050
 8043SOL     OW25027   5.377   5.204   6.945
 8043SOL    HW125028   5.472   5.230   6.965
 8043SOL    HW225029   5.316   5.276   6.975
 8044SOL     OW25030   1.380   2.849   1.206
 8044SOL    HW125031   1.432   2.769   1.235
 8044SOL    HW225032   1.375   2.915   1.281
 8045SOL     OW25033   5.897   3.074   4.966
 8045SOL    HW125034   5.882   3.046   5.061
 8045SOL    HW225035   5.871   2.999   4.905
 8046SOL     OW25036   0.501   4.263   0.757
 8046SOL    HW125037   0.457   4.353   0.750
 8046SOL    HW225038   0.557   4.261   0.840
 8047SOL     OW25039   3.272   6.530   6.611
 8047SOL    HW125040   3.277   6.624   6.576
 8047SOL    HW225041   3.260   6.467   6.535
 8048SOL     OW25042   4.597   2.049   6.514
 8048SOL    HW125043   4.661   2.030   6.588
 8048SOL    HW225044   4.503   2.048   6.549
 8049SOL     OW25045   2.271   1.494   0.993
 8049SOL    HW125046   2.313   1.547   0.920
 8049SOL    HW225047   2.221   1.417   0.954
 8050SOL     OW25048   6.997   5.514   5.753
 8050SOL    HW125049   6.953   5.580   5.815
 8050SOL    HW225050   7.011   5.427   5.800
 8051SOL     OW25051   4.136   6.697   3.104
 8051SOL    HW125052   4.097   6.654   3.185
 8051SOL    HW225053   4.063   6.725   3.042
 8052SOL     OW25054   2.443   1.389   3.166
 8052SOL    HW125055   2.422   1.434   3.254
 8052SOL    HW225056   2.371   1.411   3.100
 8053SOL     OW25057   1.351   1.494   6.396
 8053SOL    HW125058   1.424   1.509   6.329
 8053SOL    HW225059   1.320   1.583   6.432
 8054SOL     OW25060   5.076   3.840   5.300
 8054SOL    HW125061   5.165   3.808   5.332
 8054SOL    HW225062   5.089   3.896   5.218
 8055SOL     OW25063   0.006   0.673   6.482
 8055SOL    HW125064   6.948   0.726   6.492
 8055SOL    HW225065   0.009   0.600   6.551
 8056SOL     OW25066   1.955   2.287   2.875
 8056SOL    HW125067   2.007   2.353   2.821
 8056SOL    HW225068   2.005   2.200   2.876
 8057SOL     OW25069   3.252   1.953   1.674
 8057SOL    HW125070   3.289   2.006   1.751
 8057SOL    HW225071   3.325   1.899   1.633
 8058SOL     OW25072   3.682   6.589   1.666
 8058SOL    HW125073   3.618   6.655   1.626
 8058SOL    HW225074   3.633   6.533   1.733
 8059SOL     OW25075   4.539   4.001   5.320
 8059SOL    HW125076   4.607   4.064   5.358
 8059SOL    HW225077   4.449   4.043   5.323
 8060SOL     OW25078   0.307   1.354   5.352
 8060SOL    HW125079   0.249   1.281   5.316
 8060SOL    HW225080   0.399   1.347   5.312
 8061SOL     OW25081   6.786   0.876   1.446
 8061SOL    HW125082   6.815   0.823   1.525
 8061SOL    HW225083   6.843   0.853   1.367
 8062SOL     OW25084   4.351   4.773   6.276
 8062SOL    HW125085   4.285   4.713   6.321
 8062SOL    HW225086   4.405   4.720   6.210
 8063SOL     OW25087   2.609   4.578   2.647
 8063SOL    HW125088   2.629   4.626   2.561
 8063SOL    HW225089   2.527   4.522   2.635
 8064SOL     OW25090   6.867   3.053   0.213
 8064SOL    HW125091   6.852   2.954   0.217
 8064SOL    HW225092   6.897   3.078   0.121
 8065SOL     OW25093   4.665   0.471   6.373
 8065SOL    HW125094   4.658   0.466   6.273
 8065SOL    HW225095   4.602   0.405   6.414
 8066SOL     OW25096   6.832   1.135   5.980
 8066SOL    HW125097   6.922   1.177   5.965
 8066SOL    HW225098   6.776   1.196   6.036
 8067SOL     OW25099   5.152   0.890   4.399
 8067SOL    HW125100   5.095   0.968   4.424
 8067SOL    HW225101   5.097   0.807   4.401
 8068SOL     OW25102   0.133   4.794   0.968
 8068SOL    HW125103   0.217   4.771   0.918
 8068SOL    HW225104   0.135   4.748   1.057
 8069SOL     OW25105   1.256   2.659   1.867
 8069SOL    HW125106   1.246   2.690   1.772
 8069SOL    HW225107   1.175   2.685   1.919
 8070SOL     OW25108   5.329   4.581   1.537
 8070SOL    HW125109   5.285   4.617   1.454
 8070SOL    HW225110   5.275   4.605   1.617
 8071SOL     OW25111   1.850   0.302   6.289
 8071SOL    HW125112   1.861   0.257   6.378
 8071SOL    HW225113   1.769   0.267   6.243
 8072SOL     OW25114   2.651   2.573   5.583
 8072SOL    HW125115   2.554   2.597   5.584
 8072SOL    HW225116   2.673   2.526   5.498
 8073SOL     OW25117   5.437   6.780   6.699
 8073SOL    HW125118   5.446   6.865   6.751
 8073SOL    HW225119   5.468   6.703   6.755
 8074SOL     OW25120   6.217   0.544   0.952
 8074SOL    HW125121   6.264   0.536   1.040
 8074SOL    HW225122   6.119   0.558   0.968
 8075SOL     OW25123   0.444   0.289   1.127
 8075SOL    HW125124   0.347   0.267   1.115
 8075SOL    HW225125   0.494   0.207   1.157
 8076SOL     OW25126   6.813   5.718   0.487
 8076SOL    HW125127   6.790   5.743   0.393
 8076SOL    HW225128   6.785   5.623   0.504
 8077SOL     OW25129   6.386   4.256   1.059
 8077SOL    HW125130   6.313   4.198   1.026
 8077SOL    HW225131   6.348   4.328   1.117
 8078SOL     OW25132   6.074   1.953   1.601
 8078SOL    HW125133   6.093   1.883   1.533
 8078SOL    HW225134   6.017   2.025   1.560
 8079SOL     OW25135   0.004   0.875   7.006
 8079SOL    HW125136   0.084   0.861   0.038
 8079SOL    HW225137   6.981   0.789   6.996
 8080SOL     OW25138   0.678   3.493   3.958
 8080SOL    HW125139   0.683   3.538   3.869
 8080SOL    HW225140   0.690   3.394   3.946
 8081SOL     OW25141   6.011   0.168   5.297
 8081SOL    HW125142   6.083   0.206   5.354
 8081SOL    HW225143   5.973   0.086   5.340
 8082SOL     OW25144   5.000   2.184   4.829
 8082SOL    HW125145   5.059   2.262   4.845
 8082SOL    HW225146   5.010   2.118   4.903
 8083SOL     OW25147   6.893   3.010   4.225
 8083SOL    HW125148   6.987   2.980   4.239
 8083SOL    HW225149   6.879   3.035   4.130
 8084SOL     OW25150   5.233   1.825   7.007
 8084SOL    HW125151   5.254   1.920   6.983
 8084SOL    HW225152   5.313   1.768   6.990
 8085SOL     OW25153   1.485   6.214   4.625
 8085SOL    HW125154   1.577   6.209   4.587
 8085SOL    HW225155   1.489   6.247   4.719
 8086SOL     OW25156   0.069   2.673   2.086
 8086SOL    HW125157   0.030   2.724   2.163
 8086SOL    HW225158   0.041   2.577   2.092
 8087SOL     OW25159   6.576   0.501   6.039
 8087SOL    HW125160   6.635   0.568   5.994
 8087SOL    HW225161   6.538   0.439   5.970
 8088SOL     OW25162   6.792   6.917   5.043
 8088SOL    HW125163   6.859   6.913   5.118
 8088SOL    HW225164   6.716   6.855   5.063
 8089SOL     OW25165   6.209   1.367   0.394
 8089SOL    HW125166   6.286   1.303   0.389
 8089SOL    HW225167   6.221   1.439   0.326
 8090SOL     OW25168   4.383   2.224   4.873
 8090SOL    HW125169   4.479   2.243   4.855
 8090SOL    HW225170   4.338   2.306   4.907
 8091SOL     OW25171   1.278   3.370   5.183
 8091SOL    HW125172   1.341   3.445   5.203
 8091SOL    HW225173   1.245   3.379   5.089
 8092SOL     OW25174   4.576   6.980   5.319
 8092SOL    HW125175   4.479   6.962   5.334
 8092SOL    HW225176   4.615   7.022   5.401
 8093SOL     OW25177   3.820   0.025   3.544
 8093SOL    HW125178   3.908   0.073   3.544
 8093SOL    HW225179   3.748   0.087   3.573
 8094SOL     OW25180   1.926   4.531   3.711
 8094SOL    HW125181   1.844   4.579   3.680
 8094SOL    HW225182   1.983   4.507   3.632
 8095SOL     OW25183   1.236   5.615   4.297
 8095SOL    HW125184   1.227   5.711   4.323
 8095SOL    HW225185   1.173   5.594   4.222
 8096SOL     OW25186   0.681   4.892   0.923
 8096SOL    HW125187   0.750   4.851   0.983
 8096SOL    HW225188   0.720   4.973   0.879
 8097SOL     OW25189   4.839   6.945   0.392
 8097SOL    HW125190   4.795   6.862   0.426
 8097SOL    HW225191   4.882   6.926   0.304
 8098SOL     OW25192   2.296   6.417   4.881
 8098SOL    HW125193   2.249   6.416   4.792
 8098SOL    HW225194   2.382   6.368   4.873
 8099SOL     OW25195   2.119   3.428   2.633
 8099SOL    HW125196   2.113   3.331   2.655
 8099SOL    HW225197   2.127   3.439   2.534
 8100SOL     OW25198   6.955   6.626   0.397
 8100SOL    HW125199   7.001   6.539   0.384
 8100SOL    HW225200   7.010   6.685   0.456
 8101SOL     OW25201   2.649   4.800   0.297
 8101SOL    HW125202   2.559   4.822   0.335
 8101SOL    HW225203   2.674   4.869   0.229
 8102SOL     OW25204   1.562   4.337   3.831
 8102SOL    HW125205   1.585   4.261   3.771
 8102SOL    HW225206   1.534   4.416   3.775
 8103SOL     OW25207   4.494   0.338   1.669
 8103SOL    HW125208   4.432   0.309   1.597
 8103SOL    HW225209   4.541   0.258   1.707
 8104SOL     OW25210   1.373   6.456   0.147
 8104SOL    HW125211   1.286   6.504   0.132
 8104SOL    HW225212   1.377   6.422   0.241
 8105SOL     OW25213   6.809   0.087   2.678
 8105SOL    HW125214   6.783   0.022   2.607
 8105SOL    HW225215   6.781   0.053   2.767
 8106SOL     OW25216   3.552   6.342   6.427
 8106SOL    HW125217   3.648   6.323   6.407
 8106SOL    HW225218   3.541   6.440   6.448
 8107SOL     OW25219   0.830   6.221   0.590
 8107SOL    HW125220   0.797   6.208   0.684
 8107SOL    HW225221   0.772   6.287   0.543
 8108SOL     OW25222   1.572   0.846   1.000
 8108SOL    HW125223   1.643   0.802   1.054
 8108SOL    HW225224   1.543   0.930   1.046
 8109SOL     OW25225   0.379   3.519   2.123
 8109SOL    HW125226   0.442   3.500   2.047
 8109SOL    HW225227   0.430   3.558   2.200
 8110SOL     OW25228   4.529   4.549   6.985
 8110SOL    HW125229   4.560   4.458   6.955
 8110SOL    HW225230   4.502   4.545   0.055
 8111SOL     OW25231   5.547   1.982   2.442
 8111SOL    HW125232   5.505   2.037   2.514
 8111SOL    HW225233   5.602   1.909   2.483
 8112SOL     OW25234   1.898   4.565   6.665
 8112SOL    HW125235   1.927   4.476   6.700
 8112SOL    HW225236   1.799   4.567   6.654
 8113SOL     OW25237   5.507   4.971   6.258
 8113SOL    HW125238   5.432   4.930   6.310
 8113SOL    HW225239   5.585   4.910   6.257
 8114SOL     OW25240   2.153   3.179   2.742
 8114SOL    HW125241   2.225   3.171   2.811
 8114SOL    HW225242   2.064   3.160   2.784
 8115SOL     OW25243   2.260   1.684   6.243
 8115SOL    HW125244   2.245   1.735   6.159
 8115SOL    HW225245   2.182   1.623   6.259
 8116SOL     OW25246   4.088   3.182   2.404
 8116SOL    HW125247   4.116   3.257   2.344
 8116SOL    HW225248   4.043   3.111   2.349
 8117SOL     OW25249   0.823   0.379   4.047
 8117SOL    HW125250   0.804   0.461   4.100
 8117SOL    HW225251   0.742   0.354   3.995
 8118SOL     OW25252   6.824   2.541   6.361
 8118SOL    HW125253   6.786   2.452   6.387
 8118SOL    HW225254   6.749   2.602   6.334
 8119SOL     OW25255   5.519   4.770   6.608
 8119SOL    HW125256   5.597   4.819   6.647
 8119SOL    HW225257   5.435   4.820   6.626
 8120SOL     OW25258   2.173   6.550   2.143
 8120SOL    HW125259   2.144   6.645   2.133
 8120SOL    HW225260   2.198   6.533   2.238
 8121SOL     OW25261   1.080   2.657   2.963
 8121SOL    HW125262   1.004   2.647   2.898
 8121SOL    HW225263   1.045   2.696   3.048
 8122SOL     OW25264   1.099   4.858   1.292
 8122SOL    HW125265   1.056   4.807   1.367
 8122SOL    HW225266   1.094   4.956   1.311
 8123SOL     OW25267   0.158   1.521   6.048
 8123SOL    HW125268   0.241   1.571   6.073
 8123SOL    HW225269   0.098   1.513   6.127
 8124SOL     OW25270   6.192   6.101   5.315
 8124SOL    HW125271   6.140   6.128   5.395
 8124SOL    HW225272   6.282   6.146   5.316
 8125SOL     OW25273   0.619   6.168   2.174
 8125SOL    HW125274   0.656   6.244   2.122
 8125SOL    HW225275   0.619   6.086   2.117
 8126SOL     OW25276   3.366   5.523   4.506
 8126SOL    HW125277   3.349   5.489   4.598
 8126SOL    HW225278   3.406   5.615   4.511
 8127SOL     OW25279   4.470   1.180   5.824
 8127SOL    HW125280   4.473   1.130   5.738
 8127SOL    HW225281   4.424   1.268   5.810
 8128SOL     OW25282   3.590   3.219   1.269
 8128SOL    HW125283   3.634   3.154   1.331
 8128SOL    HW225284   3.530   3.170   1.206
 8129SOL     OW25285   6.712   2.962   3.206
 8129SOL    HW125286   6.704   2.946   3.107
 8129SOL    HW225287   6.715   3.061   3.223
 8130SOL     OW25288   7.009   6.771   0.153
 8130SOL    HW125289   6.952   6.720   0.218
 8130SOL    HW225290   0.070   6.724   0.141
 8131SOL     OW25291   2.185   2.712   1.025
 8131SOL    HW125292   2.205   2.617   1.001
 8131SOL    HW225293   2.217   2.772   0.952
 8132SOL     OW25294   5.981   1.718   4.433
 8132SOL    HW125295   6.046   1.665   4.488
 8132SOL    HW225296   5.891   1.715   4.476
 8133SOL     OW25297   3.713   5.719   1.434
 8133SOL    HW125298   3.809   5.738   1.452
 8133SOL    HW225299   3.703   5.679   1.343
 8134SOL     OW25300   5.468   1.667   6.972
 8134SOL    HW125301   5.473   1.575   6.932
 8134SOL    HW225302   5.556   1.690   7.014
 8135SOL     OW25303   2.228   6.004   2.179
 8135SOL    HW125304   2.318   5.984   2.218
 8135SOL    HW225305   2.233   5.999   2.079
 8136SOL     OW25306   4.504   4.828   2.466
 8136SOL    HW125307   4.434   4.898   2.453
 8136SOL    HW225308   4.467   4.753   2.521
 8137SOL     OW25309   4.400   0.807   5.322
 8137SOL    HW125310   4.384   0.709   5.314
 8137SOL    HW225311   4.317   0.852   5.358
 8138SOL     OW25312   6.047   0.405   2.526
 8138SOL    HW125313   6.098   0.336   2.577
 8138SOL    HW225314   5.958   0.368   2.499
 8139SOL     OW25315   0.604   1.322   4.357
 8139SOL    HW125316   0.504   1.317   4.360
 8139SOL    HW225317   0.641   1.231   4.339
 8140SOL     OW25318   4.663   2.659   3.086
 8140SOL    HW125319   4.607   2.583   3.052
 8140SOL    HW225320   4.728   2.687   3.015
 8141SOL     OW25321   5.663   3.903   3.730
 8141SOL    HW125322   5.752   3.866   3.702
 8141SOL    HW225323   5.592   3.874   3.666
 8142SOL     OW25324   0.287   6.222   0.488
 8142SOL    HW125325   0.361   6.251   0.548
 8142SOL    HW225326   0.286   6.122   0.482
 8143SOL     OW25327   6.710   2.619   6.086
 8143SOL    HW125328   6.750   2.532   6.059
 8143SOL    HW225329   6.782   2.682   6.115
 8144SOL     OW25330   4.817   6.269   7.010
 8144SOL    HW125331   4.831   6.239   6.915
 8144SOL    HW225332   4.858   6.360   7.022
 8145SOL     OW25333   5.052   6.329   4.166
 8145SOL    HW125334   5.011   6.313   4.256
 8145SOL    HW225335   4.992   6.291   4.096
 8146SOL     OW25336   3.455   1.719   3.550
 8146SOL    HW125337   3.436   1.630   3.509
 8146SOL    HW225338   3.536   1.758   3.507
 8147SOL     OW25339   4.889   1.598   3.810
 8147SOL    HW125340   4.937   1.532   3.867
 8147SOL    HW225341   4.861   1.677   3.865
 8148SOL     OW25342   0.242   3.640   3.157
 8148SOL    HW125343   0.238   3.541   3.173
 8148SOL    HW225344   0.225   3.688   3.243
 8149SOL     OW25345   3.942   5.194   4.179
 8149SOL    HW125346   3.853   5.241   4.177
 8149SOL    HW225347   3.941   5.126   4.252
 8150SOL     OW25348   1.199   6.246   1.359
 8150SOL    HW125349   1.298   6.237   1.347
 8150SOL    HW225350   1.171   6.200   1.443
 8151SOL     OW25351   0.520   1.751   4.941
 8151SOL    HW125352   0.514   1.768   4.843
 8151SOL    HW225353   0.447   1.687   4.968
 8152SOL     OW25354   0.977   0.752   3.596
 8152SOL    HW125355   0.879   0.770   3.592
 8152SOL    HW225356   0.994   0.671   3.653
 8153SOL     OW25357   2.106   5.830   0.503
 8153SOL    HW125358   2.144   5.746   0.465
 8153SOL    HW225359   2.158   5.856   0.585
 8154SOL     OW25360   2.139   5.986   3.798
 8154SOL    HW125361   2.212   6.049   3.773
 8154SOL    HW225362   2.173   5.920   3.865
 8155SOL     OW25363   3.236   3.664   4.882
 8155SOL    HW125364   3.154   3.720   4.890
 8155SOL    HW225365   3.310   3.717   4.841
 8156SOL     OW25366   0.661   6.600   4.927
 8156SOL    HW125367   0.649   6.556   4.838
 8156SOL    HW225368   0.689   6.696   4.913
 8157SOL     OW25369   5.677   2.519   6.939
 8157SOL    HW125370   5.706   2.472   6.856
 8157SOL    HW225371   5.587   2.485   6.967
 8158SOL     OW25372   1.155   5.807   2.402
 8158SOL    HW125373   1.071   5.854   2.429
 8158SOL    HW225374   1.232   5.844   2.453
 8159SOL     OW25375   0.485   6.248   0.247
 8159SOL    HW125376   0.415   6.177   0.237
 8159SOL    HW225377   0.479   6.289   0.338
 8160SOL     OW25378   5.109   2.055   1.025
 8160SOL    HW125379   5.139   2.139   1.070
 8160SOL    HW225380   5.143   1.976   1.076
 8161SOL     OW25381   4.095   3.596   1.337
 8161SOL    HW125382   4.165   3.548   1.389
 8161SOL    HW225383   4.131   3.620   1.247
 8162SOL     OW25384   6.243   1.261   2.206
 8162SOL    HW125385   6.324   1.240   2.151
 8162SOL    HW225386   6.169   1.199   2.182
 8163SOL     OW25387   2.388   2.752   5.110
 8163SOL    HW125388   2.296   2.750   5.148
 8163SOL    HW225389   2.428   2.843   5.123
 8164SOL     OW25390   5.461   4.339   1.465
 8164SOL    HW125391   5.431   4.267   1.528
 8164SOL    HW225392   5.441   4.429   1.506
 8165SOL     OW25393   1.520   3.627   1.821
 8165SOL    HW125394   1.442   3.646   1.762
 8165SOL    HW225395   1.507   3.673   1.909
 8166SOL     OW25396   2.998   6.650   1.763
 8166SOL    HW125397   2.977   6.746   1.783
 8166SOL    HW225398   2.946   6.591   1.825
 8167SOL     OW25399   5.886   2.993   4.516
 8167SOL    HW125400   5.868   3.022   4.422
 8167SOL    HW225401   5.866   2.895   4.525
 8168SOL     OW25402   2.727   1.544   2.720
 8168SOL    HW125403   2.688   1.505   2.803
 8168SOL    HW225404   2.811   1.594   2.742
 8169SOL     OW25405   5.338   3.921   5.541
 8169SOL    HW125406   5.360   3.903   5.445
 8169SOL    HW225407   5.337   4.019   5.558
 8170SOL     OW25408   1.163   5.154   3.874
 8170SOL    HW125409   1.205   5.066   3.850
 8170SOL    HW225410   1.150   5.158   3.973
 8171SOL     OW25411   2.060   0.665   7.013
 8171SOL    HW125412   2.003   0.623   0.058
 8171SOL    HW225413   2.018   0.751   6.985
 8172SOL     OW25414   0.282   6.286   2.283
 8172SOL    HW125415   0.302   6.372   2.331
 8172SOL    HW225416   0.217   6.233   2.337
 8173SOL     OW25417   6.766   3.238   0.424
 8173SOL    HW125418   6.688   3.195   0.469
 8173SOL    HW225419   6.787   3.191   0.339
 8174SOL     OW25420   4.959   6.488   2.535
 8174SOL    HW125421   5.007   6.401   2.531
 8174SOL    HW225422   4.986   6.537   2.618
 8175SOL     OW25423   0.970   2.422   3.449
 8175SOL    HW125424   1.043   2.484   3.479
 8175SOL    HW225425   1.002   2.328   3.457
 8176SOL     OW25426   3.934   5.369   3.805
 8176SOL    HW125427   3.885   5.388   3.890
 8176SOL    HW225428   3.992   5.447   3.781
 8177SOL     OW25429   1.512   6.561   6.329
 8177SOL    HW125430   1.534   6.467   6.304
 8177SOL    HW225431   1.585   6.623   6.300
 8178SOL     OW25432   1.840   6.632   6.311
 8178SOL    HW125433   1.900   6.668   6.382
 8178SOL    HW225434   1.883   6.554   6.267
 8179SOL     OW25435   4.263   0.311   6.814
 8179SOL    HW125436   4.197   0.363   6.760
 8179SOL    HW225437   4.342   0.369   6.837
 8180SOL     OW25438   4.968   4.729   4.972
 8180SOL    HW125439   5.039   4.793   5.003
 8180SOL    HW225440   4.945   4.748   4.877
 8181SOL     OW25441   2.379   1.958   2.407
 8181SOL    HW125442   2.457   1.925   2.459
 8181SOL    HW225443   2.412   2.013   2.329
 8182SOL     OW25444   5.375   2.769   5.187
 8182SOL    HW125445   5.347   2.698   5.122
 8182SOL    HW225446   5.295   2.800   5.239
 8183SOL     OW25447   2.004   3.454   3.193
 8183SOL    HW125448   2.028   3.357   3.193
 8183SOL    HW225449   1.918   3.466   3.143
 8184SOL     OW25450   6.270   6.280   4.230
 8184SOL    HW125451   6.305   6.338   4.304
 8184SOL    HW225452   6.259   6.336   4.148
 8185SOL     OW25453   0.770   2.264   3.749
 8185SOL    HW125454   0.745   2.298   3.658
 8185SOL    HW225455   0.783   2.165   3.745
 8186SOL     OW25456   4.511   3.670   6.839
 8186SOL    HW125457   4.446   3.595   6.824
 8186SOL    HW225458   4.584   3.666   6.771
 8187SOL     OW25459   2.178   1.316   6.079
 8187SOL    HW125460   2.142   1.398   6.123
 8187SOL    HW225461   2.227   1.261   6.147
 8188SOL     OW25462   5.175   3.048   2.767
 8188SOL    HW125463   5.174   3.062   2.668
 8188SOL    HW225464   5.264   3.077   2.803
 8189SOL     OW25465   6.685   5.218   3.090
 8189SOL    HW125466   6.590   5.199   3.116
 8189SOL    HW225467   6.698   5.195   2.994
 8190SOL     OW25468   5.735   3.605   2.795
 8190SOL    HW125469   5.689   3.532   2.744
 8190SOL    HW225470   5.668   3.653   2.852
 8191SOL     OW25471   5.806   5.115   1.538
 8191SOL    HW125472   5.792   5.071   1.627
 8191SOL    HW225473   5.865   5.056   1.482
 8192SOL     OW25474   1.356   2.115   0.835
 8192SOL    HW125475   1.407   2.184   0.784
 8192SOL    HW225476   1.392   2.109   0.928
 8193SOL     OW25477   3.813   6.136   5.596
 8193SOL    HW125478   3.823   6.225   5.552
 8193SOL    HW225479   3.887   6.075   5.567
 8194SOL     OW25480   1.347   0.904   3.117
 8194SOL    HW125481   1.424   0.840   3.118
 8194SOL    HW225482   1.280   0.874   3.049
 8195SOL     OW25483   5.807   1.188   1.744
 8195SOL    HW125484   5.716   1.220   1.768
 8195SOL    HW225485   5.818   1.189   1.644
 8196SOL     OW25486   2.441   0.933   1.017
 8196SOL    HW125487   2.388   0.847   1.013
 8196SOL    HW225488   2.520   0.926   0.956
 8197SOL     OW25489   0.638   6.952   1.033
 8197SOL    HW125490   0.736   6.973   1.040
 8197SOL    HW225491   0.622   6.858   1.063
 8198SOL     OW25492   3.003   1.213   2.955
 8198SOL    HW125493   3.058   1.249   2.880
 8198SOL    HW225494   2.931   1.279   2.978
 8199SOL     OW25495   5.909   4.587   1.273
 8199SOL    HW125496   5.892   4.676   1.230
 8199SOL    HW225497   5.822   4.540   1.289
 8200SOL     OW25498   3.855   4.281   1.672
 8200SOL    HW125499   3.811   4.371   1.675
 8200SOL    HW225500   3.808   4.219   1.734
 8201SOL     OW25501   0.908   1.209   5.264
 8201SOL    HW125502   0.927   1.290   5.209
 8201SOL    HW225503   0.941   1.223   5.357
 8202SOL     OW25504   1.745   3.458   3.885
 8202SOL    HW125505   1.701   3.442   3.797
 8202SOL    HW225506   1.766   3.370   3.928
 8203SOL     OW25507   6.955   4.421   6.274
 8203SOL    HW125508   6.909   4.371   6.348
 8203SOL    HW225509   0.009   4.370   6.244
 8204SOL     OW25510   3.316   7.026   0.646
 8204SOL    HW125511   3.355   6.935   0.659
 8204SOL    HW225512   3.312   0.021   0.549
 8205SOL     OW25513   3.941   0.011   3.094
 8205SOL    HW125514   3.993   7.019   3.178
 8205SOL    HW225515   3.935   6.953   3.040
 8206SOL     OW25516   3.591   2.137   4.879
 8206SOL    HW125517   3.513   2.184   4.835
 8206SOL    HW225518   3.566   2.042   4.897
 8207SOL     OW25519   2.815   5.582   0.291
 8207SOL    HW125520   2.723   5.544   0.283
 8207SOL    HW225521   2.818   5.672   0.248
 8208SOL     OW25522   1.419   5.906   1.019
 8208SOL    HW125523   1.366   5.918   1.103
 8208SOL    HW225524   1.455   5.994   0.990
 8209SOL     OW25525   0.899   5.843   4.973
 8209SOL    HW125526   0.965   5.771   4.953
 8209SOL    HW225527   0.898   5.910   4.899
 8210SOL     OW25528   2.627   0.214   1.070
 8210SOL    HW125529   2.630   0.151   1.147
 8210SOL    HW225530   2.707   0.200   1.012
 8211SOL     OW25531   3.044   3.982   3.896
 8211SOL    HW125532   2.996   4.067   3.921
 8211SOL    HW225533   3.100   3.952   3.973
 8212SOL     OW25534   4.331   4.699   6.908
 8212SOL    HW125535   4.284   4.730   6.990
 8212SOL    HW225536   4.406   4.638   6.934
 8213SOL     OW25537   4.865   4.119   2.069
 8213SOL    HW125538   4.784   4.166   2.105
 8213SOL    HW225539   4.843   4.076   1.982
 8214SOL     OW25540   4.397   5.220   3.533
 8214SOL    HW125541   4.433   5.128   3.553
 8214SOL    HW225542   4.446   5.287   3.589
 8215SOL     OW25543   2.578   6.323   5.253
 8215SOL    HW125544   2.619   6.257   5.191
 8215SOL    HW225545   2.511   6.277   5.311
 8216SOL     OW25546   6.018   5.436   0.431
 8216SOL    HW125547   6.016   5.337   0.449
 8216SOL    HW225548   5.947   5.460   0.365
 8217SOL     OW25549   3.295   6.044   3.247
 8217SOL    HW125550   3.355   6.122   3.265
 8217SOL    HW225551   3.267   6.044   3.152
 8218SOL     OW25552   2.202   6.322   4.260
 8218SOL    HW125553   2.134   6.391   4.287
 8218SOL    HW225554   2.157   6.233   4.250
 8219SOL     OW25555   3.435   3.413   3.603
 8219SOL    HW125556   3.515   3.359   3.630
 8219SOL    HW225557   3.385   3.442   3.684
 8220SOL     OW25558   4.510   4.155   6.041
 8220SOL    HW125559   4.501   4.241   6.090
 8220SOL    HW225560   4.421   4.129   6.003
 8221SOL     OW25561   6.921   3.804   3.818
 8221SOL    HW125562   6.830   3.784   3.784
 8221SOL    HW225563   6.932   3.903   3.830
 8222SOL     OW25564   5.159   2.153   6.232
 8222SOL    HW125565   5.236   2.197   6.280
 8222SOL    HW225566   5.190   2.119   6.144
 8223SOL     OW25567   1.318   6.035   5.413
 8223SOL    HW125568   1.278   5.946   5.432
 8223SOL    HW225569   1.380   6.029   5.335
 8224SOL     OW25570   5.554   0.339   5.617
 8224SOL    HW125571   5.590   0.247   5.602
 8224SOL    HW225572   5.553   0.359   5.715
 8225SOL     OW25573   6.046   2.417   0.342
 8225SOL    HW125574   6.032   2.340   0.405
 8225SOL    HW225575   5.962   2.472   0.337
 8226SOL     OW25576   3.763   0.469   6.741
 8226SOL    HW125577   3.667   0.486   6.723
 8226SOL    HW225578   3.783   0.484   6.837
 8227SOL     OW25579   5.638   4.232   2.113
 8227SOL    HW125580   5.609   4.151   2.062
 8227SOL    HW225581   5.611   4.314   2.063
 8228SOL     OW25582   2.709   1.584   4.218
 8228SOL    HW125583   2.657   1.547   4.295
 8228SOL    HW225584   2.737   1.678   4.238
 8229SOL     OW25585   3.998   4.276   0.583
 8229SOL    HW125586   4.022   4.294   0.488
 8229SOL    HW225587   3.914   4.326   0.607
 8230SOL     OW25588   6.419   0.775   6.504
 8230SOL    HW125589   6.506   0.743   6.465
 8230SOL    HW225590   6.421   0.875   6.511
 8231SOL     OW25591   3.347   1.685   1.668
 8231SOL    HW125592   3.429   1.739   1.649
 8231SOL    HW225593   3.313   1.645   1.583
 8232SOL     OW25594   3.798   6.475   3.800
 8232SOL    HW125595   3.754   6.416   3.867
 8232SOL    HW225596   3.729   6.509   3.735
 8233SOL     OW25597   3.010   0.271   6.397
 8233SOL    HW125598   3.087   0.333   6.380
 8233SOL    HW225599   2.969   0.243   6.311
 8234SOL     OW25600   0.797   2.914   6.789
 8234SOL    HW125601   0.880   2.890   6.738
 8234SOL    HW225602   0.720   2.920   6.726
 8235SOL     OW25603   1.058   6.261   0.205
 8235SOL    HW125604   1.075   6.350   0.163
 8235SOL    HW225605   1.143   6.209   0.207
 8236SOL     OW25606   1.517   0.177   1.016
 8236SOL    HW125607   1.430   0.224   1.001
 8236SOL    HW225608   1.519   0.094   0.960
 8237SOL     OW25609   3.964   4.868   5.510
 8237SOL    HW125610   3.971   4.798   5.581
 8237SOL    HW225611   3.910   4.833   5.434
 8238SOL     OW25612   6.693   5.151   6.940
 8238SOL    HW125613   6.647   5.133   0.000
 8238SOL    HW225614   6.635   5.209   6.882
 8239SOL     OW25615   4.376   2.333   3.963
 8239SOL    HW125616   4.421   2.274   3.896
 8239SOL    HW225617   4.431   2.415   3.978
 8240SOL     OW25618   3.779   3.571   5.440
 8240SOL    HW125619   3.822   3.656   5.470
 8240SOL    HW225620   3.849   3.508   5.409
 8241SOL     OW25621   0.473   3.084   5.756
 8241SOL    HW125622   0.566   3.099   5.788
 8241SOL    HW225623   0.475   3.044   5.664
 8242SOL     OW25624   0.726   3.218   3.402
 8242SOL    HW125625   0.749   3.139   3.345
 8242SOL    HW225626   0.663   3.278   3.352
 8243SOL     OW25627   1.765   5.855   3.827
 8243SOL    HW125628   1.858   5.831   3.855
 8243SOL    HW225629   1.742   5.806   3.744
 8244SOL     OW25630   6.031   0.274   4.626
 8244SOL    HW125631   5.970   0.218   4.569
 8244SOL    HW225632   5.998   0.274   4.721
 8245SOL     OW25633   5.927   4.426   2.414
 8245SOL    HW125634   6.008   4.461   2.462
 8245SOL    HW225635   5.851   4.420   2.478
 8246SOL     OW25636   2.194   4.580   0.086
 8246SOL    HW125637   2.128   4.505   0.086
 8246SOL    HW225638   2.147   4.667   0.100
 8247SOL     OW25639   2.086   4.803   3.277
 8247SOL    HW125640   2.065   4.774   3.370
 8247SOL    HW225641   2.166   4.753   3.244
 8248SOL     OW25642   6.685   6.896   2.545
 8248SOL    HW125643   6.590   6.926   2.548
 8248SOL    HW225644   6.698   6.820   2.609
 8249SOL     OW25645   3.559   0.054   5.587
 8249SOL    HW125646   3.523   7.005   5.641
 8249SOL    HW225647   3.512   0.139   5.613
 8250SOL     OW25648   1.482   1.612   0.127
 8250SOL    HW125649   1.397   1.593   0.177
 8250SOL    HW225650   1.463   1.615   0.029
 8251SOL     OW25651   1.166   2.001   6.673
 8251SOL    HW125652   1.150   2.098   6.695
 8251SOL    HW225653   1.207   1.955   6.751
 8252SOL     OW25654   0.930   1.294   6.313
 8252SOL    HW125655   0.948   1.209   6.264
 8252SOL    HW225656   0.832   1.302   6.331
 8253SOL     OW25657   0.570   4.158   5.573
 8253SOL    HW125658   0.550   4.243   5.623
 8253SOL    HW225659   0.595   4.180   5.479
 8254SOL     OW25660   4.834   4.478   0.123
 8254SOL    HW125661   4.865   4.450   0.215
 8254SOL    HW225662   4.806   4.397   0.072
 8255SOL     OW25663   1.832   6.384   5.405
 8255SOL    HW125664   1.857   6.382   5.308
 8255SOL    HW225665   1.889   6.451   5.453
 8256SOL     OW25666   1.563   5.641   2.762
 8256SOL    HW125667   1.503   5.627   2.682
 8256SOL    HW225668   1.658   5.632   2.734
 8257SOL     OW25669   4.826   4.547   3.728
 8257SOL    HW125670   4.872   4.507   3.807
 8257SOL    HW225671   4.740   4.499   3.712
 8258SOL     OW25672   0.126   3.225   4.958
 8258SOL    HW125673   0.191   3.177   4.899
 8258SOL    HW225674   0.172   3.250   5.044
 8259SOL     OW25675   6.091   3.235   4.202
 8259SOL    HW125676   6.073   3.290   4.121
 8259SOL    HW225677   6.044   3.147   4.194
 8260SOL     OW25678   4.916   2.178   6.552
 8260SOL    HW125679   4.977   2.112   6.510
 8260SOL    HW225680   4.858   2.131   6.619
 8261SOL     OW25681   5.320   2.445   2.676
 8261SOL    HW125682   5.391   2.403   2.732
 8261SOL    HW225683   5.319   2.404   2.585
 8262SOL     OW25684   5.134   4.202   2.051
 8262SOL    HW125685   5.058   4.154   2.094
 8262SOL    HW225686   5.113   4.300   2.046
 8263SOL     OW25687   6.654   1.469   6.803
 8263SOL    HW125688   6.712   1.388   6.795
 8263SOL    HW225689   6.571   1.457   6.750
 8264SOL     OW25690   3.401   1.104   1.970
 8264SOL    HW125691   3.424   1.200   1.955
 8264SOL    HW225692   3.434   1.049   1.893
 8265SOL     OW25693   4.988   5.589   0.085
 8265SOL    HW125694   4.914   5.570   0.150
 8265SOL    HW225695   5.047   5.661   0.121
 8266SOL     OW25696   4.846   2.797   2.883
 8266SOL    HW125697   4.869   2.861   2.809
 8266SOL    HW225698   4.928   2.782   2.939
 8267SOL     OW25699   1.925   3.097   2.914
 8267SOL    HW125700   1.963   3.008   2.938
 8267SOL    HW225701   1.852   3.086   2.846
 8268SOL     OW25702   2.532   5.309   1.397
 8268SOL    HW125703   2.524   5.280   1.302
 8268SOL    HW225704   2.489   5.241   1.456
 8269SOL     OW25705   6.755   2.076   3.558
 8269SOL    HW125706   6.693   1.999   3.540
 8269SOL    HW225707   6.715   2.135   3.628
 8270SOL     OW25708   3.712   4.749   0.171
 8270SOL    HW125709   3.616   4.777   0.178
 8270SOL    HW225710   3.738   4.699   0.253
 8271SOL     OW25711   2.540   0.048   5.117
 8271SOL    HW125712   2.519   6.978   5.103
 8271SOL    HW225713   2.625   0.056   5.170
 8272SOL     OW25714   0.848   0.667   2.006
 8272SOL    HW125715   0.854   0.753   1.956
 8272SOL    HW225716   0.777   0.674   2.076
 8273SOL     OW25717   5.091   0.145   6.137
 8273SOL    HW125718   5.019   0.145   6.067
 8273SOL    HW225719   5.152   0.067   6.123
 8274SOL     OW25720   5.489   6.514   3.952
 8274SOL    HW125721   5.535   6.590   3.905
 8274SOL    HW225722   5.550   6.436   3.956
 8275SOL     OW25723   4.884   0.268   4.399
 8275SOL    HW125724   4.978   0.295   4.420
 8275SOL    HW225725   4.843   0.224   4.479
 8276SOL     OW25726   5.446   2.867   1.018
 8276SOL    HW125727   5.494   2.829   1.097
 8276SOL    HW225728   5.499   2.850   0.935
 8277SOL     OW25729   1.369   0.033   2.204
 8277SOL    HW125730   1.295   6.994   2.191
 8277SOL    HW225731   1.450   7.011   2.237
 8278SOL     OW25732   1.952   0.499   1.430
 8278SOL    HW125733   1.995   0.538   1.349
 8278SOL    HW225734   1.862   0.541   1.443
 8279SOL     OW25735   6.445   4.988   5.796
 8279SOL    HW125736   6.431   4.906   5.741
 8279SOL    HW225737   6.394   5.064   5.757
 8280SOL     OW25738   0.456   4.834   6.885
 8280SOL    HW125739   0.481   4.861   6.791
 8280SOL    HW225740   0.524   4.771   6.921
 8281SOL     OW25741   3.129   4.871   0.058
 8281SOL    HW125742   3.154   4.863   0.155
 8281SOL    HW225743   3.105   4.966   0.038
 8282SOL     OW25744   4.153   3.366   0.592
 8282SOL    HW125745   4.252   3.354   0.584
 8282SOL    HW225746   4.130   3.463   0.584
 8283SOL     OW25747   0.707   1.298   3.523
 8283SOL    HW125748   0.696   1.277   3.620
 8283SOL    HW225749   0.622   1.278   3.474
 8284SOL     OW25750   4.824   2.511   1.181
 8284SOL    HW125751   4.903   2.449   1.173
 8284SOL    HW225752   4.819   2.570   1.101
 8285SOL     OW25753   0.363   4.862   0.118
 8285SOL    HW125754   0.388   4.771   0.153
 8285SOL    HW225755   0.394   4.870   0.023
 8286SOL     OW25756   6.065   2.110   6.464
 8286SOL    HW125757   6.026   2.161   6.387
 8286SOL    HW225758   6.161   2.089   6.444
 8287SOL     OW25759   0.640   1.092   2.945
 8287SOL    HW125760   0.567   1.099   3.014
 8287SOL    HW225761   0.702   1.170   2.955
 8288SOL     OW25762   2.437   6.853   2.652
 8288SOL    HW125763   2.454   6.840   2.750
 8288SOL    HW225764   2.339   6.853   2.635
 8289SOL     OW25765   6.028   6.966   0.256
 8289SOL    HW125766   5.991   0.017   0.308
 8289SOL    HW225767   6.053   6.892   0.318
 8290SOL     OW25768   4.554   2.787   1.757
 8290SOL    HW125769   4.519   2.816   1.669
 8290SOL    HW225770   4.607   2.862   1.799
 8291SOL     OW25771   5.781   5.388   5.340
 8291SOL    HW125772   5.739   5.478   5.324
 8291SOL    HW225773   5.790   5.373   5.438
 8292SOL     OW25774   6.989   4.169   5.494
 8292SOL    HW125775   7.007   4.071   5.487
 8292SOL    HW225776   6.944   4.200   5.410
 8293SOL     OW25777   2.903   5.453   4.333
 8293SOL    HW125778   2.928   5.361   4.305
 8293SOL    HW225779   2.986   5.507   4.349
 8294SOL     OW25780   6.741   3.505   5.971
 8294SOL    HW125781   6.760   3.509   5.873
 8294SOL    HW225782   6.827   3.508   6.022
 8295SOL     OW25783   4.321   4.531   1.441
 8295SOL    HW125784   4.283   4.623   1.435
 8295SOL    HW225785   4.283   4.483   1.520
 8296SOL     OW25786   3.205   0.538   2.114
 8296SOL    HW125787   3.212   0.636   2.099
 8296SOL    HW225788   3.206   0.490   2.026
 8297SOL     OW25789   6.164   4.414   1.847
 8297SOL    HW125790   6.070   4.383   1.836
 8297SOL    HW225791   6.175   4.503   1.804
 8298SOL     OW25792   6.998   6.440   0.705
 8298SOL    HW125793   0.050   6.478   0.657
 8298SOL    HW225794   6.948   6.377   0.645
 8299SOL     OW25795   0.815   1.693   0.051
 8299SOL    HW125796   0.898   1.745   0.033
 8299SOL    HW225797   0.762   1.682   6.993
 8300SOL     OW25798   4.733   5.945   4.583
 8300SOL    HW125799   4.774   5.869   4.633
 8300SOL    HW225800   4.694   5.911   4.497
 8301SOL     OW25801   6.476   5.068   0.065
 8301SOL    HW125802   6.457   5.025   7.003
 8301SOL    HW225803   6.456   5.004   0.139
 8302SOL     OW25804   3.728   6.636   5.710
 8302SOL    HW125805   3.639   6.608   5.673
 8302SOL    HW225806   3.775   6.693   5.643
 8303SOL     OW25807   0.201   4.621   3.916
 8303SOL    HW125808   0.281   4.619   3.976
 8303SOL    HW225809   0.140   4.695   3.943
 8304SOL     OW25810   5.717   2.911   3.713
 8304SOL    HW125811   5.704   2.820   3.673
 8304SOL    HW225812   5.684   2.981   3.650
 8305SOL     OW25813   4.420   6.020   5.488
 8305SOL    HW125814   4.330   6.064   5.478
 8305SOL    HW225815   4.438   6.005   5.585
 8306SOL     OW25816   5.353   1.266   3.786
 8306SOL    HW125817   5.446   1.257   3.750
 8306SOL    HW225818   5.288   1.271   3.710
 8307SOL     OW25819   6.774   4.892   4.308
 8307SOL    HW125820   6.690   4.900   4.255
 8307SOL    HW225821   6.848   4.860   4.250
 8308SOL     OW25822   2.193   5.312   0.180
 8308SOL    HW125823   2.230   5.228   0.221
 8308SOL    HW225824   2.182   5.381   0.251
 8309SOL     OW25825   5.886   5.284   2.625
 8309SOL    HW125826   5.843   5.354   2.567
 8309SOL    HW225827   5.820   5.250   2.691
 8310SOL     OW25828   1.645   5.822   2.951
 8310SOL    HW125829   1.733   5.798   2.910
 8310SOL    HW225830   1.577   5.753   2.925
 8311SOL     OW25831   4.672   6.438   1.785
 8311SOL    HW125832   4.694   6.533   1.808
 8311SOL    HW225833   4.579   6.433   1.748
 8312SOL     OW25834   6.845   0.954   0.835
 8312SOL    HW125835   6.831   0.955   0.934
 8312SOL    HW225836   6.918   0.889   0.812
 8313SOL     OW25837   4.815   2.657   5.720
 8313SOL    HW125838   4.908   2.679   5.749
 8313SOL    HW225839   4.817   2.621   5.627
 8314SOL     OW25840   5.228   5.983   4.377
 8314SOL    HW125841   5.305   5.921   4.360
 8314SOL    HW225842   5.263   6.075   4.398
 8315SOL     OW25843   3.261   1.755   0.845
 8315SOL    HW125844   3.252   1.811   0.763
 8315SOL    HW225845   3.298   1.811   0.920
 8316SOL     OW25846   1.502   1.783   4.680
 8316SOL    HW125847   1.453   1.855   4.730
 8316SOL    HW225848   1.567   1.739   4.741
 8317SOL     OW25849   2.086   1.911   6.469
 8317SOL    HW125850   2.154   1.907   6.542
 8317SOL    HW225851   2.127   1.953   6.388
 8318SOL     OW25852   4.220   6.234   5.352
 8318SOL    HW125853   4.152   6.161   5.340
 8318SOL    HW225854   4.224   6.259   5.449
 8319SOL     OW25855   2.859   5.924   6.104
 8319SOL    HW125856   2.907   5.845   6.141
 8319SOL    HW225857   2.801   5.896   6.027
 8320SOL     OW25858   4.034   5.130   5.715
 8320SOL    HW125859   4.079   5.183   5.787
 8320SOL    HW225860   4.022   5.036   5.745
 8321SOL     OW25861   0.400   0.099   0.672
 8321SOL    HW125862   0.438   0.031   0.733
 8321SOL    HW225863   0.307   0.073   0.645
 8322SOL     OW25864   2.535   0.434   2.023
 8322SOL    HW125865   2.476   0.393   2.092
 8322SOL    HW225866   2.629   0.438   2.057
 8323SOL     OW25867   5.934   5.308   6.666
 8323SOL    HW125868   5.948   5.255   6.582
 8323SOL    HW225869   5.838   5.300   6.694
 8324SOL     OW25870   6.162   5.934   5.821
 8324SOL    HW125871   6.236   5.967   5.879
 8324SOL    HW225872   6.079   5.986   5.841
 8325SOL     OW25873   1.767   6.249   5.019
 8325SOL    HW125874   1.681   6.199   5.013
 8325SOL    HW225875   1.751   6.346   4.997
 8326SOL     OW25876   2.849   0.959   6.398
 8326SOL    HW125877   2.828   0.869   6.436
 8326SOL    HW225878   2.946   0.980   6.414
 8327SOL     OW25879   0.826   5.660   5.521
 8327SOL    HW125880   0.887   5.652   5.442
 8327SOL    HW225881   0.732   5.646   5.493
 8328SOL     OW25882   1.122   0.386   0.555
 8328SOL    HW125883   1.216   0.420   0.548
 8328SOL    HW225884   1.114   0.323   0.632
 8329SOL     OW25885   1.704   2.524   5.405
 8329SOL    HW125886   1.609   2.492   5.397
 8329SOL    HW225887   1.747   2.483   5.485
 8330SOL     OW25888   3.863   6.466   0.055
 8330SOL    HW125889   3.936   6.512   0.004
 8330SOL    HW225890   3.775   6.484   0.012
 8331SOL     OW25891   2.095   2.239   5.671
 8331SOL    HW125892   1.996   2.251   5.672
 8331SOL    HW225893   2.121   2.163   5.730
 8332SOL     OW25894   5.423   4.517   0.815
 8332SOL    HW125895   5.390   4.574   0.890
 8332SOL    HW225896   5.511   4.477   0.839
 8333SOL     OW25897   2.526   4.417   6.351
 8333SOL    HW125898   2.570   4.327   6.342
 8333SOL    HW225899   2.431   4.405   6.379
 8334SOL     OW25900   3.335   2.633   5.282
 8334SOL    HW125901   3.289   2.552   5.245
 8334SOL    HW225902   3.418   2.605   5.330
 8335SOL     OW25903   5.754   3.261   6.844
 8335SOL    HW125904   5.747   3.359   6.861
 8335SOL    HW225905   5.700   3.238   6.763
 8336SOL     OW25906   0.965   4.531   3.863
 8336SOL    HW125907   1.036   4.601   3.857
 8336SOL    HW225908   0.951   4.490   3.772
 8337SOL     OW25909   5.995   0.022   4.034
 8337SOL    HW125910   6.092   0.013   4.059
 8337SOL    HW225911   5.939   7.009   4.107
 8338SOL     OW25912   2.557   5.175   1.147
 8338SOL    HW125913   2.610   5.093   1.167
 8338SOL    HW225914   2.617   5.244   1.106
 8339SOL     OW25915   0.261   0.207   1.856
 8339SOL    HW125916   0.227   0.298   1.877
 8339SOL    HW225917   0.304   0.208   1.766
 8340SOL     OW25918   6.190   2.599   6.186
 8340SOL    HW125919   6.095   2.605   6.155
 8340SOL    HW225920   6.191   2.579   6.284
 8341SOL     OW25921   3.215   0.019   1.360
 8341SOL    HW125922   3.229   0.107   1.404
 8341SOL    HW225923   3.198   6.976   1.429
 8342SOL     OW25924   4.011   1.012   1.368
 8342SOL    HW125925   4.073   0.991   1.292
 8342SOL    HW225926   3.935   0.946   1.367
 8343SOL     OW25927   4.870   6.300   2.750
 8343SOL    HW125928   4.845   6.384   2.703
 8343SOL    HW225929   4.875   6.225   2.685
 8344SOL     OW25930   2.114   4.477   5.198
 8344SOL    HW125931   2.063   4.438   5.275
 8344SOL    HW225932   2.166   4.405   5.153
 8345SOL     OW25933   6.258   6.970   4.147
 8345SOL    HW125934   6.196   6.899   4.180
 8345SOL    HW225935   6.327   6.929   4.087
 8346SOL     OW25936   5.508   4.415   3.287
 8346SOL    HW125937   5.454   4.334   3.265
 8346SOL    HW225938   5.543   4.408   3.380
 8347SOL     OW25939   1.187   0.869   6.591
 8347SOL    HW125940   1.276   0.870   6.547
 8347SOL    HW225941   1.191   0.814   6.675
 8348SOL     OW25942   3.282   6.251   0.658
 8348SOL    HW125943   3.379   6.275   0.655
 8348SOL    HW225944   3.267   6.181   0.728
 8349SOL     OW25945   4.252   5.692   1.303
 8349SOL    HW125946   4.253   5.622   1.231
 8349SOL    HW225947   4.228   5.649   1.390
 8350SOL     OW25948   2.300   0.264   6.719
 8350SOL    HW125949   2.305   0.329   6.643
 8350SOL    HW225950   2.263   0.177   6.686
 8351SOL     OW25951   6.963   3.510   2.882
 8351SOL    HW125952   6.985   3.576   2.810
 8351SOL    HW225953   6.990   3.548   2.971
 8352SOL     OW25954   2.449   0.165   5.889
 8352SOL    HW125955   2.500   0.086   5.856
 8352SOL    HW225956   2.486   0.194   5.978
 8353SOL     OW25957   0.665   5.740   2.414
 8353SOL    HW125958   0.763   5.736   2.394
 8353SOL    HW225959   0.647   5.696   2.502
 8354SOL     OW25960   4.879   2.735   3.718
 8354SOL    HW125961   4.940   2.667   3.677
 8354SOL    HW225962   4.900   2.826   3.681
 8355SOL     OW25963   3.246   4.780   5.972
 8355SOL    HW125964   3.345   4.783   5.983
 8355SOL    HW225965   3.214   4.864   5.928
 8356SOL     OW25966   3.248   2.862   2.162
 8356SOL    HW125967   3.169   2.800   2.166
 8356SOL    HW225968   3.238   2.923   2.083
 8357SOL     OW25969   2.668   6.720   4.792
 8357SOL    HW125970   2.737   6.687   4.728
 8357SOL    HW225971   2.577   6.713   4.750
 8358SOL     OW25972   0.211   0.665   4.278
 8358SOL    HW125973   0.231   0.668   4.376
 8358SOL    HW225974   0.125   0.614   4.263
 8359SOL     OW25975   4.684   2.279   4.853
 8359SOL    HW125976   4.719   2.298   4.761
 8359SOL    HW225977   4.757   2.241   4.909
 8360SOL     OW25978   2.817   0.389   2.514
 8360SOL    HW125979   2.899   0.384   2.458
 8360SOL    HW225980   2.762   0.306   2.501
 8361SOL     OW25981   4.602   1.279   0.145
 8361SOL    HW125982   4.701   1.283   0.138
 8361SOL    HW225983   4.572   1.336   0.222
 8362SOL     OW25984   0.663   4.544   1.754
 8362SOL    HW125985   0.596   4.474   1.777
 8362SOL    HW225986   0.687   4.537   1.657
 8363SOL     OW25987   2.628   2.076   0.690
 8363SOL    HW125988   2.664   2.016   0.761
 8363SOL    HW225989   2.566   2.024   0.631
 8364SOL     OW25990   0.321   1.091   3.622
 8364SOL    HW125991   0.346   1.150   3.698
 8364SOL    HW225992   0.368   1.121   3.539
 8365SOL     OW25993   1.912   2.724   0.978
 8365SOL    HW125994   1.892   2.808   0.929
 8365SOL    HW225995   2.011   2.713   0.987
 8366SOL     OW25996   4.977   5.963   1.816
 8366SOL    HW125997   4.896   5.905   1.825
 8366SOL    HW225998   4.988   6.018   1.899
 8367SOL     OW25999   2.103   4.767   3.540
 8367SOL    HW126000   2.175   4.700   3.555
 8367SOL    HW226001   2.070   4.800   3.628
 8368SOL     OW26002   0.915   3.198   6.381
 8368SOL    HW126003   0.817   3.182   6.388
 8368SOL    HW226004   0.959   3.173   6.467
 8369SOL     OW26005   1.029   0.556   0.341
 8369SOL    HW126006   1.067   0.499   0.414
 8369SOL    HW226007   1.103   0.584   0.279
 8370SOL     OW26008   3.092   2.961   0.863
 8370SOL    HW126009   2.997   2.982   0.842
 8370SOL    HW226010   3.104   2.957   0.962
 8371SOL     OW26011   3.266   4.453   5.542
 8371SOL    HW126012   3.234   4.493   5.628
 8371SOL    HW226013   3.195   4.461   5.473
 8372SOL     OW26014   1.645   6.991   2.912
 8372SOL    HW126015   1.638   6.895   2.886
 8372SOL    HW226016   1.716   7.001   2.982
 8373SOL     OW26017   5.431   0.587   4.107
 8373SOL    HW126018   5.437   0.528   4.187
 8373SOL    HW226019   5.359   0.554   4.046
 8374SOL     OW26020   0.756   2.045   3.546
 8374SOL    HW126021   0.657   2.033   3.543
 8374SOL    HW226022   0.791   2.055   3.453
 8375SOL     OW26023   2.219   2.823   5.803
 8375SOL    HW126024   2.128   2.836   5.762
 8375SOL    HW226025   2.286   2.876   5.751
 8376SOL     OW26026   0.811   1.250   3.971
 8376SOL    HW126027   0.827   1.182   4.043
 8376SOL    HW226028   0.840   1.340   4.003
 8377SOL     OW26029   3.922   4.981   1.116
 8377SOL    HW126030   4.016   4.974   1.150
 8377SOL    HW226031   3.918   5.053   1.046
 8378SOL     OW26032   4.466   5.756   5.066
 8378SOL    HW126033   4.428   5.787   5.153
 8378SOL    HW226034   4.418   5.673   5.037
 8379SOL     OW26035   5.562   2.828   1.830
 8379SOL    HW126036   5.541   2.745   1.882
 8379SOL    HW226037   5.659   2.849   1.839
 8380SOL     OW26038   1.886   4.841   2.898
 8380SOL    HW126039   1.846   4.907   2.961
 8380SOL    HW226040   1.825   4.762   2.890
 8381SOL     OW26041   1.171   2.338   2.698
 8381SOL    HW126042   1.073   2.337   2.717
 8381SOL    HW226043   1.213   2.254   2.733
 8382SOL     OW26044   1.500   0.199   1.787
 8382SOL    HW126045   1.556   0.280   1.771
 8382SOL    HW226046   1.522   0.129   1.720
 8383SOL     OW26047   2.121   6.877   4.896
 8383SOL    HW126048   2.204   6.822   4.891
 8383SOL    HW226049   2.136   6.953   4.959
 8384SOL     OW26050   0.482   4.144   3.698
 8384SOL    HW126051   0.554   4.098   3.749
 8384SOL    HW226052   0.398   4.090   3.703
 8385SOL     OW26053   4.558   2.398   2.357
 8385SOL    HW126054   4.470   2.382   2.312
 8385SOL    HW226055   4.592   2.488   2.333
 8386SOL     OW26056   6.614   4.995   1.980
 8386SOL    HW126057   6.545   5.027   2.045
 8386SOL    HW226058   6.584   5.016   1.887
 8387SOL     OW26059   0.201   1.990   3.483
 8387SOL    HW126060   0.220   1.979   3.386
 8387SOL    HW226061   0.128   2.058   3.495
 8388SOL     OW26062   3.994   5.969   2.055
 8388SOL    HW126063   4.060   5.976   1.980
 8388SOL    HW226064   3.950   6.058   2.069
 8389SOL     OW26065   1.554   2.544   4.367
 8389SOL    HW126066   1.567   2.592   4.453
 8389SOL    HW226067   1.642   2.530   4.322
 8390SOL     OW26068   1.569   6.884   6.520
 8390SOL    HW126069   1.580   6.972   6.566
 8390SOL    HW226070   1.478   6.846   6.541
 8391SOL     OW26071   4.694   6.493   0.573
 8391SOL    HW126072   4.672   6.402   0.539
 8391SOL    HW226073   4.690   6.493   0.673
 8392SOL     OW26074   3.651   5.746   0.541
 8392SOL    HW126075   3.658   5.719   0.445
 8392SOL    HW226076   3.557   5.771   0.562
 8393SOL     OW26077   1.401   6.396   1.849
 8393SOL    HW126078   1.477   6.459   1.836
 8393SOL    HW226079   1.352   6.385   1.763
 8394SOL     OW26080   1.585   1.421   3.412
 8394SOL    HW126081   1.651   1.495   3.420
 8394SOL    HW226082   1.584   1.368   3.497
 8395SOL     OW26083   2.114   5.914   6.267
 8395SOL    HW126084   2.135   6.007   6.297
 8395SOL    HW226085   2.161   5.896   6.181
 8396SOL     OW26086   4.350   2.025   0.904
 8396SOL    HW126087   4.386   2.047   0.814
 8396SOL    HW226088   4.423   2.032   0.972
 8397SOL     OW26089   0.591   4.462   3.384
 8397SOL    HW126090   0.661   4.390   3.381
 8397SOL    HW226091   0.530   4.444   3.461
 8398SOL     OW26092   5.639   1.003   6.567
 8398SOL    HW126093   5.633   1.028   6.471
 8398SOL    HW226094   5.563   1.043   6.617
 8399SOL     OW26095   5.791   6.191   5.298
 8399SOL    HW126096   5.866   6.237   5.251
 8399SOL    HW226097   5.815   6.095   5.312
 8400SOL     OW26098   5.943   6.072   3.311
 8400SOL    HW126099   5.941   6.052   3.213
 8400SOL    HW226100   6.019   6.134   3.331
 8401SOL     OW26101   2.605   3.708   5.539
 8401SOL    HW126102   2.605   3.627   5.481
 8401SOL    HW226103   2.606   3.790   5.481
 8402SOL     OW26104   4.987   1.204   5.061
 8402SOL    HW126105   5.046   1.157   4.995
 8402SOL    HW226106   4.966   1.142   5.137
 8403SOL     OW26107   0.578   1.948   6.168
 8403SOL    HW126108   0.651   1.982   6.227
 8403SOL    HW226109   0.615   1.931   6.076
 8404SOL     OW26110   5.064   5.356   5.628
 8404SOL    HW126111   4.981   5.353   5.684
 8404SOL    HW226112   5.080   5.450   5.598
 8405SOL     OW26113   0.700   2.574   6.203
 8405SOL    HW126114   0.712   2.655   6.146
 8405SOL    HW226115   0.783   2.558   6.257
 8406SOL     OW26116   5.511   4.024   1.034
 8406SOL    HW126117   5.438   4.055   1.095
 8406SOL    HW226118   5.581   3.978   1.088
 8407SOL     OW26119   5.346   3.749   2.479
 8407SOL    HW126120   5.285   3.784   2.550
 8407SOL    HW226121   5.312   3.661   2.447
 8408SOL     OW26122   5.011   4.143   4.177
 8408SOL    HW126123   5.024   4.065   4.238
 8408SOL    HW226124   5.081   4.211   4.195
 8409SOL     OW26125   1.826   2.131   3.676
 8409SOL    HW126126   1.838   2.158   3.581
 8409SOL    HW226127   1.749   2.180   3.716
 8410SOL     OW26128   2.209   4.994   2.589
 8410SOL    HW126129   2.156   5.070   2.625
 8410SOL    HW226130   2.272   5.028   2.519
 8411SOL     OW26131   1.732   3.204   3.072
 8411SOL    HW126132   1.727   3.302   3.057
 8411SOL    HW226133   1.786   3.162   2.999
 8412SOL     OW26134   5.996   2.784   2.429
 8412SOL    HW126135   6.024   2.837   2.349
 8412SOL    HW226136   5.899   2.801   2.447
 8413SOL     OW26137   2.101   5.738   1.840
 8413SOL    HW126138   2.012   5.769   1.874
 8413SOL    HW226139   2.101   5.740   1.740
 8414SOL     OW26140   6.169   0.408   3.997
 8414SOL    HW126141   6.249   0.360   4.035
 8414SOL    HW226142   6.114   0.444   4.071
 8415SOL     OW26143   0.749   5.004   1.265
 8415SOL    HW126144   0.825   4.968   1.212
 8415SOL    HW226145   0.665   5.000   1.210
 8416SOL     OW26146   4.390   4.631   3.110
 8416SOL    HW126147   4.329   4.570   3.059
 8416SOL    HW226148   4.416   4.708   3.052
 8417SOL     OW26149   0.841   5.570   0.134
 8417SOL    HW126150   0.827   5.590   0.231
 8417SOL    HW226151   0.793   5.485   0.110
 8418SOL     OW26152   5.125   5.758   2.810
 8418SOL    HW126153   5.134   5.857   2.796
 8418SOL    HW226154   5.176   5.731   2.891
 8419SOL     OW26155   3.380   1.325   3.270
 8419SOL    HW126156   3.385   1.272   3.185
 8419SOL    HW226157   3.440   1.405   3.263
 8420SOL     OW26158   4.902   1.705   5.359
 8420SOL    HW126159   4.824   1.644   5.348
 8420SOL    HW226160   4.947   1.718   5.271
 8421SOL     OW26161   0.281   0.804   0.601
 8421SOL    HW126162   0.351   0.853   0.549
 8421SOL    HW226163   0.316   0.713   0.626
 8422SOL     OW26164   2.431   0.720   1.394
 8422SOL    HW126165   2.415   0.811   1.433
 8422SOL    HW226166   2.501   0.726   1.322
 8423SOL     OW26167   1.967   4.449   1.184
 8423SOL    HW126168   2.003   4.400   1.105
 8423SOL    HW226169   1.981   4.547   1.172
 8424SOL     OW26170   2.716   2.185   1.994
 8424SOL    HW126171   2.790   2.239   2.033
 8424SOL    HW226172   2.754   2.116   1.932
 8425SOL     OW26173   0.658   4.925   6.019
 8425SOL    HW126174   0.681   4.918   6.116
 8425SOL    HW226175   0.742   4.923   5.964
 8426SOL     OW26176   3.804   3.330   2.357
 8426SOL    HW126177   3.771   3.402   2.296
 8426SOL    HW226178   3.904   3.325   2.351
 8427SOL     OW26179   2.100   1.651   6.777
 8427SOL    HW126180   2.180   1.703   6.750
 8427SOL    HW226181   2.128   1.559   6.807
 8428SOL     OW26182   6.155   3.755   0.799
 8428SOL    HW126183   6.187   3.663   0.775
 8428SOL    HW226184   6.232   3.811   0.827
 8429SOL     OW26185   1.458   6.692   2.882
 8429SOL    HW126186   1.541   6.723   2.837
 8429SOL    HW226187   1.378   6.733   2.838
 8430SOL     OW26188   3.739   6.216   2.721
 8430SOL    HW126189   3.835   6.237   2.700
 8430SOL    HW226190   3.734   6.125   2.762
 8431SOL     OW26191   3.009   3.483   2.267
 8431SOL    HW126192   3.017   3.494   2.366
 8431SOL    HW226193   3.013   3.386   2.244
 8432SOL     OW26194   4.725   5.559   0.196
 8432SOL    HW126195   4.726   5.656   0.221
 8432SOL    HW226196   4.632   5.524   0.203
 8433SOL     OW26197   6.750   1.655   4.121
 8433SOL    HW126198   6.721   1.589   4.191
 8433SOL    HW226199   6.809   1.609   4.054
 8434SOL     OW26200   5.298   6.345   6.817
 8434SOL    HW126201   5.280   6.425   6.761
 8434SOL    HW226202   5.394   6.346   6.847
 8435SOL     OW26203   4.514   3.354   1.019
 8435SOL    HW126204   4.607   3.350   1.055
 8435SOL    HW226205   4.491   3.267   0.977
 8436SOL     OW26206   2.982   4.214   1.731
 8436SOL    HW126207   2.949   4.296   1.777
 8436SOL    HW226208   3.076   4.195   1.758
 8437SOL     OW26209   0.144   2.464   0.947
 8437SOL    HW126210   0.137   2.523   1.028
 8437SOL    HW226211   0.066   2.403   0.943
 8438SOL     OW26212   2.068   5.774   1.567
 8438SOL    HW126213   2.101   5.825   1.487
 8438SOL    HW226214   2.081   5.676   1.551
 8439SOL     OW26215   5.461   0.220   1.619
 8439SOL    HW126216   5.524   0.275   1.563
 8439SOL    HW226217   5.367   0.252   1.603
 8440SOL     OW26218   0.955   3.494   4.217
 8440SOL    HW126219   0.945   3.568   4.151
 8440SOL    HW226220   0.990   3.531   4.303
 8441SOL     OW26221   3.760   5.969   1.278
 8441SOL    HW126222   3.698   5.930   1.345
 8441SOL    HW226223   3.824   6.031   1.324
 8442SOL     OW26224   2.230   2.825   0.719
 8442SOL    HW126225   2.150   2.836   0.661
 8442SOL    HW226226   2.303   2.781   0.666
 8443SOL     OW26227   0.058   2.489   1.222
 8443SOL    HW126228   0.006   2.433   1.286
 8443SOL    HW226229   0.061   2.584   1.254
 8444SOL     OW26230   4.885   2.191   3.265
 8444SOL    HW126231   4.871   2.127   3.189
 8444SOL    HW226232   4.909   2.139   3.347
 8445SOL     OW26233   4.286   5.592   1.994
 8445SOL    HW126234   4.316   5.505   2.032
 8445SOL    HW226235   4.314   5.666   2.055
 8446SOL     OW26236   6.312   3.926   3.110
 8446SOL    HW126237   6.389   3.941   3.171
 8446SOL    HW226238   6.265   4.012   3.092
 8447SOL     OW26239   4.458   4.501   1.074
 8447SOL    HW126240   4.505   4.509   0.986
 8447SOL    HW226241   4.497   4.566   1.139
 8448SOL     OW26242   1.818   4.565   5.957
 8448SOL    HW126243   1.877   4.561   5.876
 8448SOL    HW226244   1.742   4.628   5.940
 8449SOL     OW26245   1.430   0.601   5.083
 8449SOL    HW126246   1.343   0.614   5.129
 8449SOL    HW226247   1.469   0.690   5.059
 8450SOL     OW26248   1.457   5.649   0.601
 8450SOL    HW126249   1.419   5.585   0.534
 8450SOL    HW226250   1.408   5.639   0.688
 8451SOL     OW26251   2.843   4.323   1.188
 8451SOL    HW126252   2.925   4.309   1.133
 8451SOL    HW226253   2.817   4.238   1.233
 8452SOL     OW26254   6.399   5.729   2.660
 8452SOL    HW126255   6.331   5.663   2.629
 8452SOL    HW226256   6.355   5.803   2.711
 8453SOL     OW26257   0.449   5.058   5.213
 8453SOL    HW126258   0.426   5.139   5.266
 8453SOL    HW226259   0.546   5.059   5.190
 8454SOL     OW26260   2.243   0.266   5.342
 8454SOL    HW126261   2.249   0.175   5.299
 8454SOL    HW226262   2.165   0.315   5.305
 8455SOL     OW26263   6.033   2.459   0.645
 8455SOL    HW126264   5.984   2.380   0.607
 8455SOL    HW226265   6.129   2.435   0.659
 8456SOL     OW26266   6.137   4.580   3.387
 8456SOL    HW126267   6.140   4.679   3.391
 8456SOL    HW226268   6.230   4.543   3.382
 8457SOL     OW26269   6.134   6.144   6.246
 8457SOL    HW126270   6.039   6.121   6.224
 8457SOL    HW226271   6.137   6.193   6.334
 8458SOL     OW26272   1.211   1.791   1.076
 8458SOL    HW126273   1.140   1.771   1.144
 8458SOL    HW226274   1.167   1.818   0.990
 8459SOL     OW26275   2.725   5.136   3.154
 8459SOL    HW126276   2.733   5.108   3.250
 8459SOL    HW226277   2.815   5.129   3.110
 8460SOL     OW26278   3.677   1.231   1.260
 8460SOL    HW126279   3.768   1.246   1.221
 8460SOL    HW226280   3.686   1.195   1.353
 8461SOL     OW26281   5.654   4.512   3.005
 8461SOL    HW126282   5.703   4.598   3.020
 8461SOL    HW226283   5.622   4.477   3.093
 8462SOL     OW26284   1.742   4.179   0.923
 8462SOL    HW126285   1.736   4.269   0.880
 8462SOL    HW226286   1.838   4.152   0.931
 8463SOL     OW26287   0.066   6.754   1.498
 8463SOL    HW126288   0.053   6.665   1.541
 8463SOL    HW226289   0.154   6.756   1.451
 8464SOL     OW26290   0.292   3.261   6.922
 8464SOL    HW126291   0.294   3.244   6.823
 8464SOL    HW226292   0.364   3.325   6.947
 8465SOL     OW26293   5.657   4.778   0.202
 8465SOL    HW126294   5.695   4.710   0.139
 8465SOL    HW226295   5.687   4.758   0.295
 8466SOL     OW26296   0.725   1.499   5.009
 8466SOL    HW126297   0.679   1.557   4.943
 8466SOL    HW226298   0.757   1.416   4.964
 8467SOL     OW26299   3.028   1.225   0.951
 8467SOL    HW126300   3.101   1.281   0.991
 8467SOL    HW226301   2.940   1.268   0.968
 8468SOL     OW26302   6.412   3.852   0.892
 8468SOL    HW126303   6.364   3.825   0.976
 8468SOL    HW226304   6.485   3.916   0.915
 8469SOL     OW26305   3.566   2.829   5.310
 8469SOL    HW126306   3.543   2.843   5.407
 8469SOL    HW226307   3.505   2.885   5.253
 8470SOL     OW26308   1.919   5.447   1.124
 8470SOL    HW126309   2.000   5.426   1.179
 8470SOL    HW226310   1.934   5.532   1.074
 8471SOL     OW26311   4.169   1.764   3.871
 8471SOL    HW126312   4.226   1.684   3.855
 8471SOL    HW226313   4.217   1.846   3.841
 8472SOL     OW26314   5.762   1.658   6.746
 8472SOL    HW126315   5.729   1.752   6.761
 8472SOL    HW226316   5.685   1.600   6.721
 8473SOL     OW26317   4.813   5.055   5.919
 8473SOL    HW126318   4.878   5.104   5.977
 8473SOL    HW226319   4.853   5.041   5.829
 8474SOL     OW26320   3.748   3.646   5.820
 8474SOL    HW126321   3.699   3.567   5.783
 8474SOL    HW226322   3.836   3.654   5.775
 8475SOL     OW26323   0.002   1.683   2.563
 8475SOL    HW126324   6.957   1.721   2.621
 8475SOL    HW226325   0.032   1.596   2.600
 8476SOL     OW26326   6.794   0.952   2.324
 8476SOL    HW126327   6.795   0.999   2.412
 8476SOL    HW226328   6.815   1.017   2.250
 8477SOL     OW26329   5.301   6.416   1.240
 8477SOL    HW126330   5.221   6.376   1.194
 8477SOL    HW226331   5.279   6.432   1.336
 8478SOL     OW26332   1.618   6.527   6.805
 8478SOL    HW126333   1.551   6.536   6.730
 8478SOL    HW226334   1.570   6.527   6.892
 8479SOL     OW26335   0.915   2.381   0.042
 8479SOL    HW126336   0.863   2.297   0.048
 8479SOL    HW226337   0.961   2.399   0.129
 8480SOL     OW26338   3.282   4.372   1.619
 8480SOL    HW126339   3.301   4.468   1.644
 8480SOL    HW226340   3.210   4.369   1.550
 8481SOL     OW26341   4.865   3.633   2.339
 8481SOL    HW126342   4.898   3.538   2.341
 8481SOL    HW226343   4.771   3.635   2.303
 8482SOL     OW26344   4.682   0.580   5.690
 8482SOL    HW126345   4.765   0.532   5.720
 8482SOL    HW226346   4.684   0.674   5.726
 8483SOL     OW26347   4.537   5.371   3.742
 8483SOL    HW126348   4.445   5.362   3.781
 8483SOL    HW226349   4.550   5.465   3.711
 8484SOL     OW26350   6.606   6.829   5.488
 8484SOL    HW126351   6.685   6.860   5.541
 8484SOL    HW226352   6.620   6.735   5.459
 8485SOL     OW26353   3.708   0.440   5.554
 8485SOL    HW126354   3.751   0.449   5.465
 8485SOL    HW226355   3.676   0.529   5.586
 8486SOL     OW26356   4.980   2.585   4.669
 8486SOL    HW126357   4.886   2.553   4.651
 8486SOL    HW226358   4.977   2.678   4.705
 8487SOL     OW26359   6.950   1.572   5.296
 8487SOL    HW126360   7.005   1.525   5.227
 8487SOL    HW226361   6.990   1.661   5.316
 8488SOL     OW26362   4.386   5.471   3.075
 8488SOL    HW126363   4.387   5.372   3.063
 8488SOL    HW226364   4.466   5.512   3.032
 8489SOL     OW26365   6.874   2.193   1.972
 8489SOL    HW126366   6.810   2.117   1.987
 8489SOL    HW226367   6.858   2.264   2.040
 8490SOL     OW26368   4.024   6.650   0.358
 8490SOL    HW126369   4.095   6.580   0.359
 8490SOL    HW226370   4.035   6.710   0.438
 8491SOL     OW26371   3.394   5.907   2.398
 8491SOL    HW126372   3.474   5.957   2.432
 8491SOL    HW226373   3.326   5.973   2.366
 8492SOL     OW26374   5.671   0.114   4.163
 8492SOL    HW126375   5.665   0.014   4.164
 8492SOL    HW226376   5.735   0.144   4.092
 8493SOL     OW26377   4.926   0.475   5.747
 8493SOL    HW126378   4.968   0.466   5.837
 8493SOL    HW226379   4.923   0.386   5.702
 8494SOL     OW26380   0.014   3.551   2.337
 8494SOL    HW126381   0.022   3.480   2.267
 8494SOL    HW226382   6.953   3.541   2.384
 8495SOL     OW26383   4.944   5.840   5.003
 8495SOL    HW126384   4.986   5.779   4.936
 8495SOL    HW226385   5.003   5.846   5.084
 8496SOL     OW26386   4.105   2.229   2.472
 8496SOL    HW126387   4.017   2.216   2.426
 8496SOL    HW226388   4.090   2.255   2.567
 8497SOL     OW26389   6.347   0.644   3.237
 8497SOL    HW126390   6.377   0.572   3.300
 8497SOL    HW226391   6.260   0.682   3.269
 8498SOL     OW26392   5.221   6.600   4.794
 8498SOL    HW126393   5.265   6.522   4.840
 8498SOL    HW226394   5.125   6.578   4.776
 8499SOL     OW26395   6.185   6.961   6.006
 8499SOL    HW126396   6.153   6.963   5.911
 8499SOL    HW226397   6.122   7.012   6.064
 8500SOL     OW26398   0.756   0.546   6.370
 8500SOL    HW126399   0.677   0.535   6.310
 8500SOL    HW226400   0.806   0.459   6.375
 8501SOL     OW26401   3.501   1.131   5.012
 8501SOL    HW126402   3.590   1.166   4.983
 8501SOL    HW226403   3.468   1.184   5.090
 8502SOL     OW26404   6.576   2.993   0.299
 8502SOL    HW126405   6.598   3.052   0.222
 8502SOL    HW226406   6.594   3.042   0.385
 8503SOL     OW26407   3.995   1.924   5.717
 8503SOL    HW126408   4.051   1.894   5.639
 8503SOL    HW226409   4.050   1.983   5.776
 8504SOL     OW26410   1.399   0.877   3.436
 8504SOL    HW126411   1.467   0.951   3.435
 8504SOL    HW226412   1.348   0.878   3.350
 8505SOL     OW26413   5.993   1.942   2.908
 8505SOL    HW126414   6.071   1.914   2.852
 8505SOL    HW226415   6.026   1.978   2.996
 8506SOL     OW26416   1.925   0.891   4.843
 8506SOL    HW126417   1.856   0.958   4.818
 8506SOL    HW226418   1.928   0.819   4.774
 8507SOL     OW26419   4.539   4.813   6.758
 8507SOL    HW126420   4.596   4.837   6.836
 8507SOL    HW226421   4.451   4.777   6.790
 8508SOL     OW26422   4.068   0.459   6.694
 8508SOL    HW126423   3.984   0.406   6.686
 8508SOL    HW226424   4.048   0.551   6.726
 8509SOL     OW26425   4.258   1.997   2.096
 8509SOL    HW126426   4.254   2.096   2.111
 8509SOL    HW226427   4.184   1.952   2.146
 8510SOL     OW26428   0.558   2.080   4.908
 8510SOL    HW126429   0.460   2.077   4.927
 8510SOL    HW226430   0.607   2.105   4.991
 8511SOL     OW26431   5.563   2.300   4.104
 8511SOL    HW126432   5.501   2.250   4.044
 8511SOL    HW226433   5.648   2.248   4.114
 8512SOL     OW26434   2.024   6.485   6.185
 8512SOL    HW126435   2.084   6.538   6.245
 8512SOL    HW226436   2.041   6.511   6.090
 8513SOL     OW26437   4.092   5.769   6.655
 8513SOL    HW126438   4.129   5.704   6.588
 8513SOL    HW226439   3.998   5.793   6.629
 8514SOL     OW26440   4.254   5.439   4.658
 8514SOL    HW126441   4.253   5.375   4.735
 8514SOL    HW226442   4.172   5.425   4.602
 8515SOL     OW26443   5.342   3.339   1.915
 8515SOL    HW126444   5.263   3.328   1.975
 8515SOL    HW226445   5.401   3.259   1.921
 8516SOL     OW26446   6.668   2.403   1.375
 8516SOL    HW126447   6.633   2.489   1.412
 8516SOL    HW226448   6.750   2.377   1.426
 8517SOL     OW26449   0.988   3.814   4.588
 8517SOL    HW126450   0.949   3.741   4.644
 8517SOL    HW226451   1.064   3.857   4.638
 8518SOL     OW26452   3.765   5.850   0.763
 8518SOL    HW126453   3.723   5.811   0.681
 8518SOL    HW226454   3.863   5.861   0.748
 8519SOL     OW26455   2.587   5.408   3.542
 8519SOL    HW126456   2.674   5.454   3.527
 8519SOL    HW226457   2.548   5.380   3.454
 8520SOL     OW26458   3.601   5.573   6.790
 8520SOL    HW126459   3.635   5.644   6.728
 8520SOL    HW226460   3.670   5.553   6.859
 8521SOL     OW26461   1.021   0.910   2.993
 8521SOL    HW126462   0.981   0.942   3.078
 8521SOL    HW226463   0.961   0.935   2.917
 8522SOL     OW26464   2.478   6.190   4.474
 8522SOL    HW126465   2.552   6.167   4.538
 8522SOL    HW226466   2.392   6.152   4.507
 8523SOL     OW26467   1.581   6.118   6.649
 8523SOL    HW126468   1.572   6.101   6.747
 8523SOL    HW226469   1.666   6.166   6.630
 8524SOL     OW26470   1.831   1.471   6.945
 8524SOL    HW126471   1.852   1.568   6.936
 8524SOL    HW226472   1.772   1.443   6.870
 8525SOL     OW26473   5.667   4.725   4.475
 8525SOL    HW126474   5.671   4.626   4.486
 8525SOL    HW226475   5.688   4.749   4.380
 8526SOL     OW26476   0.130   3.072   2.092
 8526SOL    HW126477   0.178   3.145   2.140
 8526SOL    HW226478   0.031   3.088   2.099
 8527SOL     OW26479   4.941   0.456   5.142
 8527SOL    HW126480   5.014   0.461   5.074
 8527SOL    HW226481   4.853   0.446   5.095
 8528SOL     OW26482   5.345   0.302   0.090
 8528SOL    HW126483   5.270   0.358   0.126
 8528SOL    HW226484   5.399   0.266   0.166
 8529SOL     OW26485   6.987   0.298   4.574
 8529SOL    HW126486   7.020   0.246   4.653
 8529SOL    HW226487   6.964   0.235   4.500
 8530SOL     OW26488   2.035   4.871   6.401
 8530SOL    HW126489   2.074   4.878   6.309
 8530SOL    HW226490   2.103   4.901   6.468
 8531SOL     OW26491   3.725   5.970   2.854
 8531SOL    HW126492   3.680   5.950   2.941
 8531SOL    HW226493   3.823   5.953   2.862
 8532SOL     OW26494   1.245   4.081   6.843
 8532SOL    HW126495   1.177   4.079   6.770
 8532SOL    HW226496   1.292   3.992   6.846
 8533SOL     OW26497   3.171   0.338   6.018
 8533SOL    HW126498   3.240   0.382   6.075
 8533SOL    HW226499   3.137   0.256   6.064
 8534SOL     OW26500   2.297   2.487   0.931
 8534SOL    HW126501   2.331   2.400   0.964
 8534SOL    HW226502   2.350   2.516   0.851
 8535SOL     OW26503   0.341   2.432   6.289
 8535SOL    HW126504   0.309   2.489   6.365
 8535SOL    HW226505   0.417   2.374   6.320
 8536SOL     OW26506   6.245   0.741   6.124
 8536SOL    HW126507   6.345   0.749   6.128
 8536SOL    HW226508   6.216   0.734   6.029
 8537SOL     OW26509   3.601   5.898   3.074
 8537SOL    HW126510   3.673   5.832   3.051
 8537SOL    HW226511   3.611   5.925   3.170
 8538SOL     OW26512   4.258   1.141   5.057
 8538SOL    HW126513   4.310   1.225   5.075
 8538SOL    HW226514   4.233   1.098   5.143
 8539SOL     OW26515   0.615   3.187   3.033
 8539SOL    HW126516   0.601   3.134   2.949
 8539SOL    HW226517   0.677   3.263   3.014
 8540SOL     OW26518   4.843   6.100   6.046
 8540SOL    HW126519   4.782   6.160   6.098
 8540SOL    HW226520   4.927   6.150   6.023
 8541SOL     OW26521   3.259   5.851   5.616
 8541SOL    HW126522   3.178   5.805   5.581
 8541SOL    HW226523   3.237   5.947   5.634
 8542SOL     OW26524   1.765   4.897   6.020
 8542SOL    HW126525   1.697   4.834   5.981
 8542SOL    HW226526   1.833   4.919   5.951
 8543SOL     OW26527   3.481   1.370   5.540
 8543SOL    HW126528   3.474   1.432   5.618
 8543SOL    HW226529   3.577   1.349   5.523
 8544SOL     OW26530   4.948   3.680   5.557
 8544SOL    HW126531   5.027   3.724   5.600
 8544SOL    HW226532   4.926   3.596   5.606
 8545SOL     OW26533   2.039   0.621   5.865
 8545SOL    HW126534   2.108   0.603   5.935
 8545SOL    HW226535   1.960   0.563   5.881
 8546SOL     OW26536   2.647   1.357   3.978
 8546SOL    HW126537   2.630   1.303   4.061
 8546SOL    HW226538   2.722   1.421   3.994
 8547SOL     OW26539   5.982   5.202   5.319
 8547SOL    HW126540   5.949   5.139   5.390
 8547SOL    HW226541   5.920   5.280   5.312
 8548SOL     OW26542   1.522   4.335   4.460
 8548SOL    HW126543   1.612   4.341   4.502
 8548SOL    HW226544   1.531   4.295   4.369
 8549SOL     OW26545   3.322   0.339   3.616
 8549SOL    HW126546   3.403   0.367   3.668
 8549SOL    HW226547   3.306   0.404   3.542
 8550SOL     OW26548   0.392   3.456   4.943
 8550SOL    HW126549   0.409   3.393   5.019
 8550SOL    HW226550   0.372   3.404   4.860
 8551SOL     OW26551   3.746   1.598   3.705
 8551SOL    HW126552   3.837   1.638   3.702
 8551SOL    HW226553   3.682   1.658   3.656
 8552SOL     OW26554   4.413   1.271   1.891
 8552SOL    HW126555   4.327   1.308   1.856
 8552SOL    HW226556   4.426   1.301   1.986
 8553SOL     OW26557   5.392   3.525   0.637
 8553SOL    HW126558   5.467   3.461   0.623
 8553SOL    HW226559   5.305   3.476   0.629
 8554SOL     OW26560   0.872   1.120   0.201
 8554SOL    HW126561   0.806   1.159   0.266
 8554SOL    HW226562   0.829   1.109   0.112
 8555SOL     OW26563   3.389   1.704   3.827
 8555SOL    HW126564   3.426   1.786   3.871
 8555SOL    HW226565   3.422   1.699   3.733
 8556SOL     OW26566   0.667   3.946   5.252
 8556SOL    HW126567   0.763   3.947   5.226
 8556SOL    HW226568   0.637   4.040   5.272
 8557SOL     OW26569   5.969   0.627   0.779
 8557SOL    HW126570   6.031   0.597   0.706
 8557SOL    HW226571   5.960   0.726   0.776
 8558SOL     OW26572   2.585   6.055   3.312
 8558SOL    HW126573   2.625   5.979   3.261
 8558SOL    HW226574   2.501   6.085   3.266
 8559SOL     OW26575   1.425   3.295   3.380
 8559SOL    HW126576   1.497   3.252   3.325
 8559SOL    HW226577   1.351   3.326   3.320
 8560SOL     OW26578   3.516   4.291   1.479
 8560SOL    HW126579   3.537   4.197   1.506
 8560SOL    HW226580   3.443   4.327   1.536
 8561SOL     OW26581   3.905   0.954   1.924
 8561SOL    HW126582   3.897   0.917   2.016
 8561SOL    HW226583   3.947   0.885   1.864
 8562SOL     OW26584   5.442   3.296   6.097
 8562SOL    HW126585   5.507   3.226   6.126
 8562SOL    HW226586   5.353   3.254   6.079
 8563SOL     OW26587   0.569   4.640   2.809
 8563SOL    HW126588   0.560   4.559   2.751
 8563SOL    HW226589   0.485   4.651   2.863
 8564SOL     OW26590   4.425   6.131   6.846
 8564SOL    HW126591   4.442   6.133   6.747
 8564SOL    HW226592   4.329   6.107   6.862
 8565SOL     OW26593   0.926   4.889   1.071
 8565SOL    HW126594   0.996   4.862   1.138
 8565SOL    HW226595   0.968   4.946   1.001
 8566SOL     OW26596   1.795   0.911   3.158
 8566SOL    HW126597   1.716   0.868   3.114
 8566SOL    HW226598   1.782   1.011   3.159
 8567SOL     OW26599   1.434   3.348   0.720
 8567SOL    HW126600   1.344   3.319   0.753
 8567SOL    HW226601   1.470   3.280   0.656
 8568SOL     OW26602   5.795   6.625   6.277
 8568SOL    HW126603   5.739   6.688   6.331
 8568SOL    HW226604   5.840   6.675   6.203
 8569SOL     OW26605   4.395   1.321   6.129
 8569SOL    HW126606   4.492   1.301   6.118
 8569SOL    HW226607   4.359   1.361   6.044
 8570SOL     OW26608   1.806   2.732   4.151
 8570SOL    HW126609   1.779   2.652   4.097
 8570SOL    HW226610   1.769   2.724   4.244
 8571SOL     OW26611   0.903   0.984   3.880
 8571SOL    HW126612   0.994   0.989   3.839
 8571SOL    HW226613   0.835   1.015   3.814
 8572SOL     OW26614   2.706   3.388   6.043
 8572SOL    HW126615   2.679   3.395   5.947
 8572SOL    HW226616   2.785   3.447   6.059
 8573SOL     OW26617   1.790   6.010   6.336
 8573SOL    HW126618   1.824   6.095   6.373
 8573SOL    HW226619   1.799   6.011   6.236
 8574SOL     OW26620   5.858   2.309   5.472
 8574SOL    HW126621   5.886   2.275   5.562
 8574SOL    HW226622   5.847   2.408   5.475
 8575SOL     OW26623   2.634   6.427   4.275
 8575SOL    HW126624   2.591   6.347   4.317
 8575SOL    HW226625   2.682   6.400   4.192
 8576SOL     OW26626   1.350   3.801   4.987
 8576SOL    HW126627   1.338   3.897   4.960
 8576SOL    HW226628   1.328   3.790   5.084
 8577SOL     OW26629   1.864   0.879   0.677
 8577SOL    HW126630   1.795   0.950   0.661
 8577SOL    HW226631   1.918   0.903   0.757
 8578SOL     OW26632   1.320   0.436   5.528
 8578SOL    HW126633   1.417   0.453   5.511
 8578SOL    HW226634   1.271   0.431   5.440
 8579SOL     OW26635   2.723   0.152   2.429
 8579SOL    HW126636   2.772   0.110   2.353
 8579SOL    HW226637   2.644   0.096   2.453
 8580SOL     OW26638   1.443   0.715   1.994
 8580SOL    HW126639   1.350   0.687   1.968
 8580SOL    HW226640   1.487   0.759   1.916
 8581SOL     OW26641   3.977   3.602   3.671
 8581SOL    HW126642   4.040   3.534   3.708
 8581SOL    HW226643   3.970   3.679   3.735
 8582SOL     OW26644   5.098   5.605   5.484
 8582SOL    HW126645   4.998   5.609   5.483
 8582SOL    HW226646   5.135   5.697   5.492
 8583SOL     OW26647   3.148   0.594   2.764
 8583SOL    HW126648   3.062   0.553   2.795
 8583SOL    HW226649   3.190   0.645   2.839
 8584SOL     OW26650   5.608   2.253   5.377
 8584SOL    HW126651   5.702   2.263   5.409
 8584SOL    HW226652   5.608   2.221   5.283
 8585SOL     OW26653   4.650   2.304   3.045
 8585SOL    HW126654   4.587   2.229   3.023
 8585SOL    HW226655   4.676   2.298   3.142
 8586SOL     OW26656   6.597   6.914   5.796
 8586SOL    HW126657   6.686   6.869   5.788
 8586SOL    HW226658   6.526   6.845   5.810
 8587SOL     OW26659   6.630   0.122   0.999
 8587SOL    HW126660   6.666   0.148   1.088
 8587SOL    HW226661   6.541   0.167   0.985
 8588SOL     OW26662   1.794   1.564   5.564
 8588SOL    HW126663   1.836   1.567   5.473
 8588SOL    HW226664   1.699   1.591   5.558
 8589SOL     OW26665   6.003   3.182   6.799
 8589SOL    HW126666   5.911   3.214   6.821
 8589SOL    HW226667   6.057   3.176   6.884
 8590SOL     OW26668   0.948   1.004   3.274
 8590SOL    HW126669   1.042   1.029   3.294
 8590SOL    HW226670   0.893   1.087   3.262
 8591SOL     OW26671   0.691   3.993   5.769
 8591SOL    HW126672   0.784   4.029   5.769
 8591SOL    HW226673   0.641   4.027   5.689
 8592SOL     OW26674   0.101   2.147   4.454
 8592SOL    HW126675   0.102   2.233   4.403
 8592SOL    HW226676   0.026   2.150   4.521
 8593SOL     OW26677   6.465   1.239   0.367
 8593SOL    HW126678   6.537   1.302   0.397
 8593SOL    HW226679   6.497   1.145   0.378
 8594SOL     OW26680   6.408   3.147   6.464
 8594SOL    HW126681   6.328   3.128   6.521
 8594SOL    HW226682   6.491   3.135   6.518
 8595SOL     OW26683   5.685   6.596   2.403
 8595SOL    HW126684   5.638   6.575   2.317
 8595SOL    HW226685   5.642   6.675   2.445
 8596SOL     OW26686   0.409   2.715   5.417
 8596SOL    HW126687   0.317   2.692   5.449
 8596SOL    HW226688   0.457   2.632   5.389
 8597SOL     OW26689   6.469   2.224   5.680
 8597SOL    HW126690   6.393   2.278   5.716
 8597SOL    HW226691   6.535   2.285   5.636
 8598SOL     OW26692   6.873   0.879   5.884
 8598SOL    HW126693   6.963   0.854   5.849
 8598SOL    HW226694   6.879   0.966   5.933
 8599SOL     OW26695   5.678   4.183   5.053
 8599SOL    HW126696   5.627   4.101   5.027
 8599SOL    HW226697   5.669   4.199   5.151
 8600SOL     OW26698   4.063   2.941   1.763
 8600SOL    HW126699   4.073   2.843   1.744
 8600SOL    HW226700   4.098   2.993   1.685
 8601SOL     OW26701   4.485   5.210   1.780
 8601SOL    HW126702   4.511   5.155   1.700
 8601SOL    HW226703   4.512   5.162   1.863
 8602SOL     OW26704   1.614   6.501   5.067
 8602SOL    HW126705   1.678   6.568   5.104
 8602SOL    HW226706   1.621   6.500   4.967
 8603SOL     OW26707   1.077   0.940   0.100
 8603SOL    HW126708   1.009   0.993   0.150
 8603SOL    HW226709   1.143   1.002   0.058
 8604SOL     OW26710   1.719   5.573   5.968
 8604SOL    HW126711   1.695   5.653   6.023
 8604SOL    HW226712   1.774   5.510   6.024
 8605SOL     OW26713   6.574   4.433   3.963
 8605SOL    HW126714   6.559   4.479   3.875
 8605SOL    HW226715   6.661   4.384   3.961
 8606SOL     OW26716   0.846   0.305   6.511
 8606SOL    HW126717   0.918   0.271   6.449
 8606SOL    HW226718   0.883   0.312   6.604
 8607SOL     OW26719   2.830   2.907   1.644
 8607SOL    HW126720   2.890   2.835   1.612
 8607SOL    HW226721   2.755   2.920   1.578
 8608SOL     OW26722   1.912   4.981   1.967
 8608SOL    HW126723   1.872   5.029   1.889
 8608SOL    HW226724   1.998   4.937   1.939
 8609SOL     OW26725   4.757   2.407   4.094
 8609SOL    HW126726   4.747   2.484   4.157
 8609SOL    HW226727   4.837   2.422   4.036
 8610SOL     OW26728   0.036   5.300   2.233
 8610SOL    HW126729   7.009   5.215   2.227
 8610SOL    HW226730   7.005   5.374   2.268
 8611SOL     OW26731   1.889   1.844   5.510
 8611SOL    HW126732   1.930   1.808   5.594
 8611SOL    HW226733   1.954   1.907   5.466
 8612SOL     OW26734   3.363   3.077   6.111
 8612SOL    HW126735   3.389   3.130   6.191
 8612SOL    HW226736   3.445   3.055   6.058
 8613SOL     OW26737   3.040   3.262   3.603
 8613SOL    HW126738   3.084   3.352   3.600
 8613SOL    HW226739   2.982   3.251   3.522
 8614SOL     OW26740   0.318   3.340   4.001
 8614SOL    HW126741   0.325   3.425   4.054
 8614SOL    HW226742   0.265   3.273   4.052
 8615SOL     OW26743   3.961   0.924   5.066
 8615SOL    HW126744   4.011   0.855   5.014
 8615SOL    HW226745   3.957   1.009   5.013
 8616SOL     OW26746   6.199   4.094   5.252
 8616SOL    HW126747   6.192   4.190   5.280
 8616SOL    HW226748   6.182   4.086   5.154
 8617SOL     OW26749   0.958   0.061   3.748
 8617SOL    HW126750   0.981   7.002   3.702
 8617SOL    HW226751   0.859   0.069   3.755
 8618SOL     OW26752   6.563   5.165   0.538
 8618SOL    HW126753   6.545   5.068   0.555
 8618SOL    HW226754   6.568   5.213   0.625
 8619SOL     OW26755   5.916   5.140   6.466
 8619SOL    HW126756   5.823   5.152   6.431
 8619SOL    HW226757   5.939   5.042   6.466
 8620SOL     OW26758   1.423   6.598   4.091
 8620SOL    HW126759   1.447   6.543   4.011
 8620SOL    HW226760   1.505   6.645   4.125
 8621SOL     OW26761   6.488   3.721   1.409
 8621SOL    HW126762   6.420   3.648   1.412
 8621SOL    HW226763   6.441   3.810   1.406
 8622SOL     OW26764   0.796   6.042   1.720
 8622SOL    HW126765   0.839   5.952   1.730
 8622SOL    HW226766   0.738   6.043   1.639
 8623SOL     OW26767   2.118   2.122   3.353
 8623SOL    HW126768   2.132   2.147   3.258
 8623SOL    HW226769   2.025   2.149   3.381
 8624SOL     OW26770   2.988   3.308   5.910
 8624SOL    HW126771   3.075   3.348   5.882
 8624SOL    HW226772   2.997   3.209   5.919
 8625SOL     OW26773   4.424   3.362   5.945
 8625SOL    HW126774   4.463   3.305   5.873
 8625SOL    HW226775   4.497   3.395   6.005
 8626SOL     OW26776   5.138   1.760   0.692
 8626SOL    HW126777   5.083   1.843   0.702
 8626SOL    HW226778   5.204   1.773   0.617
 8627SOL     OW26779   0.098   0.144   2.308
 8627SOL    HW126780   0.126   0.095   2.390
 8627SOL    HW226781   0.175   0.149   2.244
 8628SOL     OW26782   1.017   6.443   0.619
 8628SOL    HW126783   1.072   6.377   0.671
 8628SOL    HW226784   0.956   6.394   0.557
 8629SOL     OW26785   6.988   0.913   4.367
 8629SOL    HW126786   6.962   0.898   4.272
 8629SOL    HW226787   0.060   0.930   4.373
 8630SOL     OW26788   5.177   2.997   1.768
 8630SOL    HW126789   5.134   3.019   1.856
 8630SOL    HW226790   5.125   3.038   1.694
 8631SOL     OW26791   1.395   5.791   6.650
 8631SOL    HW126792   1.438   5.720   6.706
 8631SOL    HW226793   1.463   5.836   6.593
 8632SOL     OW26794   6.235   6.000   3.742
 8632SOL    HW126795   6.200   5.987   3.835
 8632SOL    HW226796   6.173   5.956   3.678
 8633SOL     OW26797   6.872   3.993   5.697
 8633SOL    HW126798   6.873   4.030   5.604
 8633SOL    HW226799   6.778   3.977   5.726
 8634SOL     OW26800   4.916   4.625   6.622
 8634SOL    HW126801   4.931   4.556   6.693
 8634SOL    HW226802   4.950   4.591   6.534
 8635SOL     OW26803   5.464   2.182   6.458
 8635SOL    HW126804   5.392   2.251   6.458
 8635SOL    HW226805   5.509   2.181   6.369
 8636SOL     OW26806   4.392   5.866   0.059
 8636SOL    HW126807   4.403   5.790   0.123
 8636SOL    HW226808   4.339   5.836   7.006
 8637SOL     OW26809   3.263   2.426   0.588
 8637SOL    HW126810   3.359   2.448   0.608
 8637SOL    HW226811   3.241   2.459   0.496
 8638SOL     OW26812   5.091   2.051   4.385
 8638SOL    HW126813   5.134   2.006   4.307
 8638SOL    HW226814   5.156   2.115   4.426
 8639SOL     OW26815   3.572   4.320   0.374
 8639SOL    HW126816   3.570   4.321   0.274
 8639SOL    HW226817   3.611   4.234   0.407
 8640SOL     OW26818   3.131   2.390   6.457
 8640SOL    HW126819   3.196   2.357   6.526
 8640SOL    HW226820   3.041   2.402   6.500
 8641SOL     OW26821   3.505   4.885   3.148
 8641SOL    HW126822   3.472   4.919   3.060
 8641SOL    HW226823   3.485   4.951   3.219
 8642SOL     OW26824   2.151   6.361   3.152
 8642SOL    HW126825   2.087   6.285   3.139
 8642SOL    HW226826   2.163   6.409   3.066
 8643SOL     OW26827   3.839   6.293   1.236
 8643SOL    HW126828   3.797   6.336   1.316
 8643SOL    HW226829   3.779   6.305   1.157
 8644SOL     OW26830   5.283   2.369   6.462
 8644SOL    HW126831   5.235   2.362   6.550
 8644SOL    HW226832   5.348   2.444   6.466
 8645SOL     OW26833   4.812   5.510   2.592
 8645SOL    HW126834   4.879   5.452   2.545
 8645SOL    HW226835   4.823   5.604   2.562
 8646SOL     OW26836   6.806   1.918   4.229
 8646SOL    HW126837   6.722   1.954   4.269
 8646SOL    HW226838   6.786   1.830   4.184
 8647SOL     OW26839   1.906   4.522   1.883
 8647SOL    HW126840   1.994   4.565   1.863
 8647SOL    HW226841   1.913   4.423   1.869
 8648SOL     OW26842   5.718   5.558   6.184
 8648SOL    HW126843   5.674   5.566   6.274
 8648SOL    HW226844   5.652   5.577   6.112
 8649SOL     OW26845   5.475   2.658   2.019
 8649SOL    HW126846   5.383   2.635   2.050
 8649SOL    HW226847   5.540   2.592   2.056
 8650SOL     OW26848   1.361   0.918   4.848
 8650SOL    HW126849   1.454   0.908   4.884
 8650SOL    HW226850   1.336   0.836   4.797
 8651SOL     OW26851   4.860   1.453   1.614
 8651SOL    HW126852   4.855   1.405   1.527
 8651SOL    HW226853   4.918   1.534   1.605
 8652SOL     OW26854   6.648   3.329   4.844
 8652SOL    HW126855   6.573   3.265   4.827
 8652SOL    HW226856   6.685   3.362   4.757
 8653SOL     OW26857   4.881   0.517   0.226
 8653SOL    HW126858   4.896   0.613   0.202
 8653SOL    HW226859   4.830   0.511   0.312
 8654SOL     OW26860   0.019   4.312   2.801
 8654SOL    HW126861   0.046   4.237   2.740
 8654SOL    HW226862   6.959   4.290   2.845
 8655SOL     OW26863   1.317   6.952   5.116
 8655SOL    HW126864   1.351   6.858   5.112
 8655SOL    HW226865   1.251   6.967   5.043
 8656SOL     OW26866   3.981   6.192   0.667
 8656SOL    HW126867   3.900   6.144   0.633
 8656SOL    HW226868   4.038   6.221   0.590
 8657SOL     OW26869   3.148   1.867   2.504
 8657SOL    HW126870   3.217   1.796   2.492
 8657SOL    HW226871   3.181   1.953   2.467
 8658SOL     OW26872   6.332   4.019   0.663
 8658SOL    HW126873   6.366   3.972   0.744
 8658SOL    HW226874   6.274   3.956   0.611
 8659SOL     OW26875   3.554   0.140   3.611
 8659SOL    HW126876   3.524   0.058   3.660
 8659SOL    HW226877   3.585   0.209   3.677
 8660SOL     OW26878   6.837   4.678   1.078
 8660SOL    HW126879   6.934   4.677   1.103
 8660SOL    HW226880   6.822   4.621   0.998
 8661SOL     OW26881   5.639   3.419   1.767
 8661SOL    HW126882   5.570   3.392   1.701
 8661SOL    HW226883   5.729   3.390   1.735
 8662SOL     OW26884   1.891   2.629   2.426
 8662SOL    HW126885   1.932   2.667   2.343
 8662SOL    HW226886   1.932   2.672   2.506
 8663SOL     OW26887   3.234   5.057   2.236
 8663SOL    HW126888   3.206   5.109   2.316
 8663SOL    HW226889   3.156   5.044   2.175
 8664SOL     OW26890   3.192   5.766   4.183
 8664SOL    HW126891   3.170   5.732   4.092
 8664SOL    HW226892   3.120   5.827   4.216
 8665SOL     OW26893   0.670   3.733   6.674
 8665SOL    HW126894   0.685   3.832   6.681
 8665SOL    HW226895   0.708   3.688   6.755
 8666SOL     OW26896   4.915   0.229   2.824
 8666SOL    HW126897   4.892   0.170   2.901
 8666SOL    HW226898   4.994   0.286   2.848
 8667SOL     OW26899   4.303   2.017   2.434
 8667SOL    HW126900   4.344   2.076   2.364
 8667SOL    HW226901   4.227   2.066   2.478
 8668SOL     OW26902   3.698   1.979   3.210
 8668SOL    HW126903   3.698   1.906   3.142
 8668SOL    HW226904   3.632   2.049   3.184
 8669SOL     OW26905   0.588   6.022   5.574
 8669SOL    HW126906   0.566   5.930   5.606
 8669SOL    HW226907   0.647   6.067   5.642
 8670SOL     OW26908   0.137   5.137   4.916
 8670SOL    HW126909   0.225   5.093   4.897
 8670SOL    HW226910   0.063   5.070   4.907
 8671SOL     OW26911   0.351   3.778   3.778
 8671SOL    HW126912   0.434   3.754   3.728
 8671SOL    HW226913   0.370   3.776   3.876
 8672SOL     OW26914   6.541   1.509   2.369
 8672SOL    HW126915   6.599   1.433   2.342
 8672SOL    HW226916   6.598   1.590   2.384
 8673SOL     OW26917   0.360   1.582   1.539
 8673SOL    HW126918   0.403   1.501   1.501
 8673SOL    HW226919   0.424   1.629   1.599
 8674SOL     OW26920   0.130   2.986   4.367
 8674SOL    HW126921   0.097   2.922   4.437
 8674SOL    HW226922   0.224   3.013   4.388
 8675SOL     OW26923   5.007   2.488   5.066
 8675SOL    HW126924   5.056   2.516   5.148
 8675SOL    HW226925   5.062   2.508   4.985
 8676SOL     OW26926   4.745   3.202   0.858
 8676SOL    HW126927   4.798   3.246   0.785
 8676SOL    HW226928   4.650   3.190   0.827
 8677SOL     OW26929   3.347   0.761   0.574
 8677SOL    HW126930   3.357   0.662   0.574
 8677SOL    HW226931   3.384   0.798   0.488
 8678SOL     OW26932   3.225   2.072   0.059
 8678SOL    HW126933   3.243   1.975   0.072
 8678SOL    HW226934   3.127   2.090   0.063
 8679SOL     OW26935   1.568   2.187   6.685
 8679SOL    HW126936   1.665   2.211   6.676
 8679SOL    HW226937   1.560   2.089   6.705
 8680SOL     OW26938   0.523   6.819   1.635
 8680SOL    HW126939   0.478   6.813   1.724
 8680SOL    HW226940   0.622   6.826   1.648
 8681SOL     OW26941   5.284   5.240   0.964
 8681SOL    HW126942   5.318   5.275   0.876
 8681SOL    HW226943   5.258   5.317   1.023
 8682SOL     OW26944   1.719   1.389   2.086
 8682SOL    HW126945   1.716   1.467   2.023
 8682SOL    HW226946   1.787   1.406   2.157
 8683SOL     OW26947   2.340   4.426   4.304
 8683SOL    HW126948   2.291   4.505   4.340
 8683SOL    HW226949   2.278   4.348   4.296
 8684SOL     OW26950   2.248   4.080   3.635
 8684SOL    HW126951   2.271   4.172   3.666
 8684SOL    HW226952   2.236   4.080   3.536
 8685SOL     OW26953   4.969   3.296   5.621
 8685SOL    HW126954   4.875   3.268   5.598
 8685SOL    HW226955   4.975   3.314   5.719
 8686SOL     OW26956   1.171   4.770   2.543
 8686SOL    HW126957   1.235   4.826   2.596
 8686SOL    HW226958   1.085   4.819   2.530
 8687SOL     OW26959   6.347   4.274   5.512
 8687SOL    HW126960   6.298   4.308   5.432
 8687SOL    HW226961   6.285   4.221   5.570
 8688SOL     OW26962   1.283   3.497   4.930
 8688SOL    HW126963   1.324   3.588   4.941
 8688SOL    HW226964   1.354   3.431   4.905
 8689SOL     OW26965   5.288   3.452   1.461
 8689SOL    HW126966   5.373   3.402   1.445
 8689SOL    HW226967   5.242   3.415   1.542
 8690SOL     OW26968   1.812   2.265   2.176
 8690SOL    HW126969   1.732   2.213   2.204
 8690SOL    HW226970   1.832   2.335   2.245
 8691SOL     OW26971   3.063   0.897   0.187
 8691SOL    HW126972   2.993   0.835   0.151
 8691SOL    HW226973   3.149   0.880   0.140
 8692SOL     OW26974   5.791   2.527   4.158
 8692SOL    HW126975   5.692   2.515   4.164
 8692SOL    HW226976   5.823   2.578   4.238
 8693SOL     OW26977   0.441   6.783   5.308
 8693SOL    HW126978   0.417   6.808   5.215
 8693SOL    HW226979   0.527   6.828   5.334
 8694SOL     OW26980   4.127   3.963   5.363
 8694SOL    HW126981   4.093   4.050   5.327
 8694SOL    HW226982   4.207   3.980   5.420
 8695SOL     OW26983   3.850   4.050   1.179
 8695SOL    HW126984   3.842   4.149   1.166
 8695SOL    HW226985   3.762   4.007   1.161
 8696SOL     OW26986   2.877   5.172   6.543
 8696SOL    HW126987   2.940   5.132   6.610
 8696SOL    HW226988   2.809   5.104   6.516
 8697SOL     OW26989   0.780   2.931   4.880
 8697SOL    HW126990   0.728   2.893   4.804
 8697SOL    HW226991   0.861   2.874   4.897
 8698SOL     OW26992   5.913   4.319   6.303
 8698SOL    HW126993   5.913   4.385   6.228
 8698SOL    HW226994   5.938   4.229   6.268
 8699SOL     OW26995   2.451   2.010   1.273
 8699SOL    HW126996   2.532   1.975   1.319
 8699SOL    HW226997   2.378   2.023   1.340
 8700SOL     OW26998   0.447   2.090   4.352
 8700SOL    HW126999   0.427   2.142   4.269
 8700SOL    HW227000   0.419   2.143   4.432
 8701SOL     OW27001   2.349   3.321   6.865
 8701SOL    HW127002   2.395   3.243   6.908
 8701SOL    HW227003   2.335   3.393   6.932
 8702SOL     OW27004   5.715   4.452   0.817
 8702SOL    HW127005   5.731   4.391   0.739
 8702SOL    HW227006   5.798   4.502   0.838
 8703SOL     OW27007   2.105   5.058   1.380
 8703SOL    HW127008   2.114   4.978   1.440
 8703SOL    HW227009   2.011   5.064   1.346
 8704SOL     OW27010   6.604   1.198   3.504
 8704SOL    HW127011   6.592   1.287   3.461
 8704SOL    HW227012   6.698   1.167   3.491
 8705SOL     OW27013   3.729   2.193   0.263
 8705SOL    HW127014   3.810   2.135   0.253
 8705SOL    HW227015   3.647   2.136   0.265
 8706SOL     OW27016   4.656   3.014   5.229
 8706SOL    HW127017   4.652   2.940   5.162
 8706SOL    HW227018   4.596   2.993   5.306
 8707SOL     OW27019   1.452   1.137   4.451
 8707SOL    HW127020   1.517   1.064   4.430
 8707SOL    HW227021   1.490   1.224   4.422
 8708SOL     OW27022   5.300   2.481   1.099
 8708SOL    HW127023   5.383   2.435   1.069
 8708SOL    HW227024   5.236   2.487   1.022
 8709SOL     OW27025   6.649   6.228   4.100
 8709SOL    HW127026   6.608   6.155   4.153
 8709SOL    HW227027   6.595   6.312   4.112
 8710SOL     OW27028   2.338   2.769   3.462
 8710SOL    HW127029   2.372   2.770   3.556
 8710SOL    HW227030   2.262   2.705   3.455
 8711SOL     OW27031   1.000   1.937   2.286
 8711SOL    HW127032   0.909   1.947   2.325
 8711SOL    HW227033   1.068   1.977   2.348
 8712SOL     OW27034   1.461   3.812   4.035
 8712SOL    HW127035   1.487   3.832   3.941
 8712SOL    HW227036   1.368   3.844   4.051
 8713SOL     OW27037   7.009   4.535   3.640
 8713SOL    HW127038   7.002   4.460   3.706
 8713SOL    HW227039   0.058   4.595   3.664
 8714SOL     OW27040   0.976   4.665   6.111
 8714SOL    HW127041   0.895   4.607   6.120
 8714SOL    HW227042   1.049   4.630   6.171
 8715SOL     OW27043   1.932   4.745   1.471
 8715SOL    HW127044   2.031   4.742   1.488
 8715SOL    HW227045   1.889   4.667   1.517
 8716SOL     OW27046   5.190   0.164   2.925
 8716SOL    HW127047   5.101   0.150   2.969
 8716SOL    HW227048   5.200   0.261   2.900
 8717SOL     OW27049   3.766   2.503   6.753
 8717SOL    HW127050   3.681   2.461   6.787
 8717SOL    HW227051   3.783   2.587   6.803
 8718SOL     OW27052   2.837   5.203   5.928
 8718SOL    HW127053   2.841   5.219   5.830
 8718SOL    HW227054   2.917   5.244   5.972
 8719SOL     OW27055   3.172   2.153   4.441
 8719SOL    HW127056   3.134   2.233   4.487
 8719SOL    HW227057   3.112   2.075   4.454
 8720SOL     OW27058   6.987   6.677   5.007
 8720SOL    HW127059   0.030   6.728   4.956
 8720SOL    HW227060   6.908   6.660   4.947
 8721SOL     OW27061   0.844   0.319   1.596
 8721SOL    HW127062   0.877   0.362   1.680
 8721SOL    HW227063   0.751   0.285   1.611
 8722SOL     OW27064   3.968   1.099   0.416
 8722SOL    HW127065   3.984   1.130   0.510
 8722SOL    HW227066   3.872   1.071   0.405
 8723SOL     OW27067   3.624   6.904   2.802
 8723SOL    HW127068   3.588   6.819   2.763
 8723SOL    HW227069   3.587   6.917   2.894
 8724SOL     OW27070   4.716   0.657   5.438
 8724SOL    HW127071   4.684   0.751   5.431
 8724SOL    HW227072   4.688   0.619   5.526
 8725SOL     OW27073   6.699   1.091   2.599
 8725SOL    HW127074   6.784   1.139   2.619
 8725SOL    HW227075   6.647   1.076   2.683
 8726SOL     OW27076   6.943   1.185   0.591
 8726SOL    HW127077   6.961   1.210   0.687
 8726SOL    HW227078   7.020   1.133   0.555
 8727SOL     OW27079   4.873   5.578   6.164
 8727SOL    HW127080   4.852   5.675   6.167
 8727SOL    HW227081   4.900   5.552   6.071
 8728SOL     OW27082   5.600   6.904   4.236
 8728SOL    HW127083   5.578   6.939   4.327
 8728SOL    HW227084   5.529   6.838   4.208
 8729SOL     OW27085   5.710   6.365   6.273
 8729SOL    HW127086   5.656   6.351   6.357
 8729SOL    HW227087   5.749   6.457   6.274
 8730SOL     OW27088   3.968   4.850   1.607
 8730SOL    HW127089   3.920   4.848   1.519
 8730SOL    HW227090   3.924   4.916   1.667
 8731SOL     OW27091   0.310   2.153   3.893
 8731SOL    HW127092   0.308   2.202   3.806
 8731SOL    HW227093   0.225   2.169   3.942
 8732SOL     OW27094   5.321   6.181   5.163
 8732SOL    HW127095   5.306   6.090   5.202
 8732SOL    HW227096   5.312   6.250   5.234
 8733SOL     OW27097   5.581   4.486   2.378
 8733SOL    HW127098   5.648   4.447   2.442
 8733SOL    HW227099   5.615   4.573   2.343
 8734SOL     OW27100   0.631   6.117   1.506
 8734SOL    HW127101   0.681   6.174   1.441
 8734SOL    HW227102   0.551   6.167   1.539
 8735SOL     OW27103   1.253   2.251   6.765
 8735SOL    HW127104   1.338   2.276   6.718
 8735SOL    HW227105   1.200   2.334   6.784
 8736SOL     OW27106   1.222   6.148   3.978
 8736SOL    HW127107   1.295   6.135   4.045
 8736SOL    HW227108   1.219   6.071   3.915
 8737SOL     OW27109   0.473   5.587   0.175
 8737SOL    HW127110   0.544   5.552   0.113
 8737SOL    HW227111   0.504   5.579   0.269
 8738SOL     OW27112   2.184   2.356   2.737
 8738SOL    HW127113   2.205   2.440   2.686
 8738SOL    HW227114   2.266   2.325   2.785
 8739SOL     OW27115   4.472   4.612   3.556
 8739SOL    HW127116   4.516   4.532   3.595
 8739SOL    HW227117   4.429   4.666   3.629
 8740SOL     OW27118   1.907   0.733   3.837
 8740SOL    HW127119   1.998   0.710   3.872
 8740SOL    HW227120   1.879   0.664   3.770
 8741SOL     OW27121   2.083   2.049   2.878
 8741SOL    HW127122   2.182   2.041   2.878
 8741SOL    HW227123   2.044   1.982   2.816
 8742SOL     OW27124   1.568   3.100   1.001
 8742SOL    HW127125   1.558   3.124   0.904
 8742SOL    HW227126   1.510   3.021   1.022
 8743SOL     OW27127   1.998   2.879   0.356
 8743SOL    HW127128   1.960   2.818   0.425
 8743SOL    HW227129   2.091   2.850   0.333
 8744SOL     OW27130   2.413   3.773   5.983
 8744SOL    HW127131   2.421   3.870   5.959
 8744SOL    HW227132   2.505   3.732   5.986
 8745SOL     OW27133   5.558   1.429   6.867
 8745SOL    HW127134   5.626   1.356   6.875
 8745SOL    HW227135   5.537   1.445   6.771
 8746SOL     OW27136   4.715   4.875   4.358
 8746SOL    HW127137   4.627   4.921   4.345
 8746SOL    HW227138   4.727   4.806   4.286
 8747SOL     OW27139   0.418   6.366   1.588
 8747SOL    HW127140   0.472   6.416   1.521
 8747SOL    HW227141   0.327   6.348   1.552
 8748SOL     OW27142   6.316   1.415   5.087
 8748SOL    HW127143   6.310   1.510   5.115
 8748SOL    HW227144   6.405   1.398   5.045
 8749SOL     OW27145   2.295   0.874   3.996
 8749SOL    HW127146   2.376   0.913   3.951
 8749SOL    HW227147   2.275   0.784   3.956
 8750SOL     OW27148   3.980   3.383   1.986
 8750SOL    HW127149   4.061   3.328   1.967
 8750SOL    HW227150   3.971   3.454   1.916
 8751SOL     OW27151   1.880   6.498   6.660
 8751SOL    HW127152   1.808   6.506   6.729
 8751SOL    HW227153   1.851   6.437   6.587
 8752SOL     OW27154   1.256   3.170   6.892
 8752SOL    HW127155   1.351   3.160   6.923
 8752SOL    HW227156   1.255   3.178   6.792
 8753SOL     OW27157   1.669   1.835   0.898
 8753SOL    HW127158   1.582   1.786   0.908
 8753SOL    HW227159   1.697   1.834   0.802
 8754SOL     OW27160   1.344   6.237   6.585
 8754SOL    HW127161   1.434   6.216   6.624
 8754SOL    HW227162   1.355   6.295   6.504
 8755SOL     OW27163   0.414   2.030   1.826
 8755SOL    HW127164   0.368   1.961   1.881
 8755SOL    HW227165   0.491   2.068   1.878
 8756SOL     OW27166   1.724   1.492   2.410
 8756SOL    HW127167   1.804   1.441   2.379
 8756SOL    HW227168   1.748   1.589   2.418
 8757SOL     OW27169   5.054   5.673   4.809
 8757SOL    HW127170   5.072   5.575   4.799
 8757SOL    HW227171   5.114   5.724   4.747
 8758SOL     OW27172   3.522   4.641   6.772
 8758SOL    HW127173   3.517   4.733   6.733
 8758SOL    HW227174   3.433   4.616   6.809
 8759SOL     OW27175   6.744   1.287   1.574
 8759SOL    HW127176   6.820   1.256   1.631
 8759SOL    HW227177   6.771   1.368   1.523
 8760SOL     OW27178   1.438   2.756   4.550
 8760SOL    HW127179   1.508   2.784   4.616
 8760SOL    HW227180   1.445   2.811   4.467
 8761SOL     OW27181   5.245   2.837   3.487
 8761SOL    HW127182   5.152   2.813   3.459
 8761SOL    HW227183   5.309   2.809   3.415
 8762SOL     OW27184   4.028   6.241   2.370
 8762SOL    HW127185   4.005   6.329   2.413
 8762SOL    HW227186   3.993   6.167   2.427
 8763SOL     OW27187   0.105   1.834   5.361
 8763SOL    HW127188   0.122   1.865   5.455
 8763SOL    HW227189   0.187   1.789   5.326
 8764SOL     OW27190   2.770   5.150   6.213
 8764SOL    HW127191   2.777   5.114   6.120
 8764SOL    HW227192   2.811   5.086   6.277
 8765SOL     OW27193   4.405   6.764   3.430
 8765SOL    HW127194   4.464   6.839   3.398
 8765SOL    HW227195   4.313   6.799   3.448
 8766SOL     OW27196   6.391   6.961   5.063
 8766SOL    HW127197   6.428   6.881   5.110
 8766SOL    HW227198   6.452   0.012   5.077
 8767SOL     OW27199   2.088   1.385   4.796
 8767SOL    HW127200   2.103   1.414   4.891
 8767SOL    HW227201   2.122   1.456   4.735
 8768SOL     OW27202   6.573   1.980   1.047
 8768SOL    HW127203   6.659   2.023   1.022
 8768SOL    HW227204   6.508   1.988   0.972
 8769SOL     OW27205   6.961   0.021   0.229
 8769SOL    HW127206   6.984   6.969   0.173
 8769SOL    HW227207   0.016   0.078   0.242
 8770SOL     OW27208   4.552   2.174   0.555
 8770SOL    HW127209   4.490   2.096   0.560
 8770SOL    HW227210   4.507   2.254   0.593
 8771SOL     OW27211   1.042   2.866   6.688
 8771SOL    HW127212   1.075   2.869   6.782
 8771SOL    HW227213   1.118   2.841   6.627
 8772SOL     OW27214   0.406   6.273   3.719
 8772SOL    HW127215   0.332   6.280   3.651
 8772SOL    HW227216   0.489   6.313   3.682
 8773SOL     OW27217   6.328   1.515   4.292
 8773SOL    HW127218   6.235   1.481   4.304
 8773SOL    HW227219   6.337   1.555   4.201
 8774SOL     OW27220   1.167   2.525   6.712
 8774SOL    HW127221   1.119   2.592   6.768
 8774SOL    HW227222   1.144   2.538   6.616
 8775SOL     OW27223   4.500   1.822   2.161
 8775SOL    HW127224   4.466   1.733   2.193
 8775SOL    HW227225   4.422   1.876   2.128
 8776SOL     OW27226   5.934   3.287   1.678
 8776SOL    HW127227   5.942   3.254   1.584
 8776SOL    HW227228   5.978   3.222   1.740
 8777SOL     OW27229   6.122   2.297   3.796
 8777SOL    HW127230   6.050   2.282   3.865
 8777SOL    HW227231   6.108   2.385   3.752
 8778SOL     OW27232   1.719   4.239   6.412
 8778SOL    HW127233   1.811   4.201   6.425
 8778SOL    HW227234   1.708   4.320   6.469
 8779SOL     OW27235   3.710   6.459   3.230
 8779SOL    HW127236   3.773   6.536   3.246
 8779SOL    HW227237   3.638   6.487   3.167
 8780SOL     OW27238   0.945   3.197   4.616
 8780SOL    HW127239   1.034   3.187   4.661
 8780SOL    HW227240   0.879   3.234   4.681
 8781SOL     OW27241   4.094   1.248   1.978
 8781SOL    HW127242   4.005   1.232   1.935
 8781SOL    HW227243   4.120   1.344   1.966
 8782SOL     OW27244   6.476   2.237   0.075
 8782SOL    HW127245   6.513   2.197   7.018
 8782SOL    HW227246   6.409   2.307   0.052
 8783SOL     OW27247   3.714   3.936   6.288
 8783SOL    HW127248   3.677   3.943   6.380
 8783SOL    HW227249   3.702   4.023   6.240
 8784SOL     OW27250   4.467   1.095   5.578
 8784SOL    HW127251   4.425   1.158   5.512
 8784SOL    HW227252   4.542   1.045   5.533
 8785SOL     OW27253   6.902   6.924   6.128
 8785SOL    HW127254   6.810   6.895   6.100
 8785SOL    HW227255   6.906   6.933   6.227
 8786SOL     OW27256   5.403   2.503   3.184
 8786SOL    HW127257   5.365   2.499   3.091
 8786SOL    HW227258   5.502   2.501   3.179
 8787SOL     OW27259   3.410   5.274   2.516
 8787SOL    HW127260   3.383   5.355   2.569
 8787SOL    HW227261   3.329   5.237   2.470
 8788SOL     OW27262   0.008   6.886   3.731
 8788SOL    HW127263   6.960   6.950   3.751
 8788SOL    HW227264   0.073   6.886   3.807
 8789SOL     OW27265   2.331   3.615   6.984
 8789SOL    HW127266   2.406   3.613   0.023
 8789SOL    HW227267   2.245   3.633   0.005
 8790SOL     OW27268   4.856   3.201   5.180
 8790SOL    HW127269   4.870   3.208   5.081
 8790SOL    HW227270   4.797   3.122   5.200
 8791SOL     OW27271   4.092   6.478   5.321
 8791SOL    HW127272   4.132   6.389   5.297
 8791SOL    HW227273   4.052   6.519   5.240
 8792SOL     OW27274   5.257   4.790   0.666
 8792SOL    HW127275   5.323   4.862   0.646
 8792SOL    HW227276   5.306   4.705   0.686
 8793SOL     OW27277   6.467   0.377   5.672
 8793SOL    HW127278   6.565   0.396   5.668
 8793SOL    HW227279   6.452   0.284   5.708
 8794SOL     OW27280   0.323   2.958   3.298
 8794SOL    HW127281   0.304   2.876   3.244
 8794SOL    HW227282   0.243   3.018   3.297
 8795SOL     OW27283   1.791   0.367   6.954
 8795SOL    HW127284   1.826   0.413   0.009
 8795SOL    HW227285   1.753   0.435   6.891
 8796SOL     OW27286   5.884   5.170   4.216
 8796SOL    HW127287   5.922   5.233   4.283
 8796SOL    HW227288   5.949   5.096   4.197
 8797SOL     OW27289   5.386   5.896   5.224
 8797SOL    HW127290   5.310   5.834   5.211
 8797SOL    HW227291   5.456   5.878   5.155
 8798SOL     OW27292   1.618   5.379   6.994
 8798SOL    HW127293   1.690   5.332   0.020
 8798SOL    HW227294   1.588   5.320   6.919
 8799SOL     OW27295   1.627   6.424   2.244
 8799SOL    HW127296   1.657   6.424   2.148
 8799SOL    HW227297   1.685   6.485   2.297
 8800SOL     OW27298   6.629   6.170   4.426
 8800SOL    HW127299   6.569   6.116   4.367
 8800SOL    HW227300   6.688   6.110   4.479
 8801SOL     OW27301   5.001   3.232   6.497
 8801SOL    HW127302   4.907   3.239   6.530
 8801SOL    HW227303   5.060   3.289   6.554
 8802SOL     OW27304   0.950   6.785   0.176
 8802SOL    HW127305   1.048   6.768   0.181
 8802SOL    HW227306   0.927   6.861   0.237
 8803SOL     OW27307   4.597   4.702   5.503
 8803SOL    HW127308   4.610   4.753   5.418
 8803SOL    HW227309   4.594   4.766   5.580
 8804SOL     OW27310   2.200   6.375   1.580
 8804SOL    HW127311   2.287   6.414   1.552
 8804SOL    HW227312   2.126   6.435   1.550
 8805SOL     OW27313   4.507   5.296   1.038
 8805SOL    HW127314   4.550   5.380   1.072
 8805SOL    HW227315   4.493   5.304   0.939
 8806SOL     OW27316   1.514   1.302   1.949
 8806SOL    HW127317   1.607   1.325   1.980
 8806SOL    HW227318   1.449   1.322   2.022
 8807SOL     OW27319   5.669   2.483   2.088
 8807SOL    HW127320   5.768   2.488   2.079
 8807SOL    HW227321   5.645   2.423   2.164
 8808SOL     OW27322   1.878   1.255   0.837
 8808SOL    HW127323   1.841   1.265   0.745
 8808SOL    HW227324   1.833   1.321   0.898
 8809SOL     OW27325   0.777   3.399   3.013
 8809SOL    HW127326   0.842   3.437   3.080
 8809SOL    HW227327   0.689   3.444   3.023
 8810SOL     OW27328   6.182   2.582   3.640
 8810SOL    HW127329   6.225   2.596   3.730
 8810SOL    HW227330   6.115   2.655   3.624
 8811SOL     OW27331   3.814   5.727   3.034
 8811SOL    HW127332   3.897   5.683   2.998
 8811SOL    HW227333   3.786   5.680   3.118
 8812SOL     OW27334   5.479   0.552   0.035
 8812SOL    HW127335   5.440   0.466   0.066
 8812SOL    HW227336   5.419   0.628   0.060
 8813SOL     OW27337   1.414   2.441   1.560
 8813SOL    HW127338   1.346   2.389   1.612
 8813SOL    HW227339   1.425   2.531   1.602
 8814SOL     OW27340   6.035   6.778   5.156
 8814SOL    HW127341   6.101   6.827   5.099
 8814SOL    HW227342   5.944   6.785   5.115
 8815SOL     OW27343   4.488   0.428   1.059
 8815SOL    HW127344   4.446   0.379   1.135
 8815SOL    HW227345   4.421   0.439   0.985
 8816SOL     OW27346   0.352   0.906   2.932
 8816SOL    HW127347   0.305   0.833   2.983
 8816SOL    HW227348   0.310   0.915   2.841
 8817SOL     OW27349   0.944   2.620   4.631
 8817SOL    HW127350   1.016   2.672   4.586
 8817SOL    HW227351   0.862   2.678   4.642
 8818SOL     OW27352   1.348   5.704   6.210
 8818SOL    HW127353   1.302   5.781   6.167
 8818SOL    HW227354   1.301   5.619   6.185
 8819SOL     OW27355   5.525   6.451   6.524
 8819SOL    HW127356   5.475   6.535   6.547
 8819SOL    HW227357   5.465   6.372   6.539
 8820SOL     OW27358   3.416   6.570   6.014
 8820SOL    HW127359   3.345   6.571   6.085
 8820SOL    HW227360   3.389   6.508   5.941
 8821SOL     OW27361   1.729   5.173   5.391
 8821SOL    HW127362   1.670   5.252   5.374
 8821SOL    HW227363   1.787   5.157   5.312
 8822SOL     OW27364   0.386   0.620   5.366
 8822SOL    HW127365   0.315   0.690   5.370
 8822SOL    HW227366   0.439   0.620   5.451
 8823SOL     OW27367   4.217   2.324   3.015
 8823SOL    HW127368   4.129   2.335   3.060
 8823SOL    HW227369   4.266   2.247   3.056
 8824SOL     OW27370   1.588   0.465   4.184
 8824SOL    HW127371   1.624   0.487   4.093
 8824SOL    HW227372   1.591   0.366   4.197
 8825SOL     OW27373   1.084   6.971   0.456
 8825SOL    HW127374   1.007   7.024   0.421
 8825SOL    HW227375   1.050   6.885   0.493
 8826SOL     OW27376   0.469   3.678   0.248
 8826SOL    HW127377   0.382   3.645   0.284
 8826SOL    HW227378   0.544   3.632   0.295
 8827SOL     OW27379   5.303   5.767   3.973
 8827SOL    HW127380   5.214   5.812   3.982
 8827SOL    HW227381   5.314   5.699   4.045
 8828SOL     OW27382   5.063   2.776   5.595
 8828SOL    HW127383   5.100   2.860   5.556
 8828SOL    HW227384   4.986   2.743   5.540
 8829SOL     OW27385   6.440   0.648   2.948
 8829SOL    HW127386   6.509   0.583   2.980
 8829SOL    HW227387   6.407   0.703   3.025
 8830SOL     OW27388   2.789   1.138   2.525
 8830SOL    HW127389   2.880   1.178   2.514
 8830SOL    HW227390   2.745   1.177   2.606
 8831SOL     OW27391   0.822   2.028   2.673
 8831SOL    HW127392   0.869   2.116   2.684
 8831SOL    HW227393   0.781   2.001   2.760
 8832SOL     OW27394   6.118   6.989   4.970
 8832SOL    HW127395   6.206   6.985   5.016
 8832SOL    HW227396   6.122   0.030   4.896
 8833SOL     OW27397   4.859   2.704   0.980
 8833SOL    HW127398   4.820   2.663   0.898
 8833SOL    HW227399   4.878   2.801   0.963
 8834SOL     OW27400   6.446   4.372   5.948
 8834SOL    HW127401   6.406   4.462   5.964
 8834SOL    HW227402   6.527   4.359   6.005
 8835SOL     OW27403   6.552   0.901   5.440
 8835SOL    HW127404   6.642   0.941   5.456
 8835SOL    HW227405   6.482   0.973   5.450
 8836SOL     OW27406   4.569   1.580   0.673
 8836SOL    HW127407   4.633   1.564   0.748
 8836SOL    HW227408   4.557   1.495   0.621
 8837SOL     OW27409   5.743   5.060   0.264
 8837SOL    HW127410   5.694   4.978   0.234
 8837SOL    HW227411   5.780   5.045   0.356
 8838SOL     OW27412   1.487   3.431   2.043
 8838SOL    HW127413   1.409   3.489   2.021
 8838SOL    HW227414   1.529   3.398   1.958
 8839SOL     OW27415   4.756   4.621   1.739
 8839SOL    HW127416   4.699   4.550   1.697
 8839SOL    HW227417   4.808   4.581   1.815
 8840SOL     OW27418   0.274   7.003   1.242
 8840SOL    HW127419   0.363   0.017   1.263
 8840SOL    HW227420   0.210   7.023   1.315
 8841SOL     OW27421   4.745   2.087   0.371
 8841SOL    HW127422   4.792   2.166   0.333
 8841SOL    HW227423   4.682   2.116   0.443
 8842SOL     OW27424   3.889   3.044   3.726
 8842SOL    HW127425   3.969   3.068   3.782
 8842SOL    HW227426   3.828   2.985   3.778
 8843SOL     OW27427   2.563   6.271   4.864
 8843SOL    HW127428   2.548   6.212   4.944
 8843SOL    HW227429   2.578   6.214   4.784
 8844SOL     OW27430   4.077   2.815   5.314
 8844SOL    HW127431   4.097   2.724   5.277
 8844SOL    HW227432   3.995   2.852   5.270
 8845SOL     OW27433   0.560   3.970   2.356
 8845SOL    HW127434   0.585   3.878   2.327
 8845SOL    HW227435   0.619   4.037   2.310
 8846SOL     OW27436   6.213   5.233   4.634
 8846SOL    HW127437   6.184   5.155   4.690
 8846SOL    HW227438   6.156   5.238   4.552
 8847SOL     OW27439   0.810   2.672   3.893
 8847SOL    HW127440   0.816   2.738   3.819
 8847SOL    HW227441   0.843   2.714   3.978
 8848SOL     OW27442   5.677   2.664   1.111
 8848SOL    HW127443   5.682   2.579   1.059
 8848SOL    HW227444   5.744   2.728   1.075
 8849SOL     OW27445   3.341   4.999   4.787
 8849SOL    HW127446   3.431   4.966   4.815
 8849SOL    HW227447   3.298   5.047   4.863
 8850SOL     OW27448   3.965   2.056   1.179
 8850SOL    HW127449   4.023   2.127   1.139
 8850SOL    HW227450   4.013   2.013   1.255
 8851SOL     OW27451   0.037   5.537   3.398
 8851SOL    HW127452   0.035   5.582   3.309
 8851SOL    HW227453   0.070   5.443   3.388
 8852SOL     OW27454   5.912   3.900   4.819
 8852SOL    HW127455   5.836   3.840   4.843
 8852SOL    HW227456   5.916   3.975   4.885
 8853SOL     OW27457   4.657   1.965   4.251
 8853SOL    HW127458   4.571   1.934   4.291
 8853SOL    HW227459   4.638   2.034   4.181
 8854SOL     OW27460   3.205   0.475   6.411
 8854SOL    HW127461   3.264   0.471   6.492
 8854SOL    HW227462   3.175   0.570   6.397
 8855SOL     OW27463   6.440   4.902   6.335
 8855SOL    HW127464   6.525   4.912   6.386
 8855SOL    HW227465   6.427   4.983   6.277
 8856SOL     OW27466   5.485   1.837   5.742
 8856SOL    HW127467   5.516   1.930   5.760
 8856SOL    HW227468   5.385   1.835   5.743
 8857SOL     OW27469   1.486   2.907   4.332
 8857SOL    HW127470   1.531   2.996   4.342
 8857SOL    HW227471   1.462   2.893   4.236
 8858SOL     OW27472   0.692   3.402   5.660
 8858SOL    HW127473   0.605   3.386   5.613
 8858SOL    HW227474   0.737   3.315   5.679
 8859SOL     OW27475   2.299   6.132   5.177
 8859SOL    HW127476   2.367   6.059   5.180
 8859SOL    HW227477   2.230   6.112   5.108
 8860SOL     OW27478   2.176   1.368   1.564
 8860SOL    HW127479   2.129   1.353   1.651
 8860SOL    HW227480   2.126   1.322   1.491
 8861SOL     OW27481   1.880   1.768   6.885
 8861SOL    HW127482   1.962   1.728   6.843
 8861SOL    HW227483   1.888   1.764   6.985
 8862SOL     OW27484   0.147   2.976   3.891
 8862SOL    HW127485   0.143   2.876   3.893
 8862SOL    HW227486   0.059   3.013   3.861
 8863SOL     OW27487   1.645   5.578   5.116
 8863SOL    HW127488   1.629   5.524   5.198
 8863SOL    HW227489   1.653   5.675   5.140
 8864SOL     OW27490   2.040   4.505   5.761
 8864SOL    HW127491   2.139   4.516   5.758
 8864SOL    HW227492   2.017   4.408   5.767
 8865SOL     OW27493   2.695   2.051   5.854
 8865SOL    HW127494   2.621   2.030   5.918
 8865SOL    HW227495   2.659   2.106   5.778
 8866SOL     OW27496   4.939   6.976   5.583
 8866SOL    HW127497   4.946   6.932   5.673
 8866SOL    HW227498   4.936   6.906   5.512
 8867SOL     OW27499   5.791   0.828   3.261
 8867SOL    HW127500   5.850   0.851   3.339
 8867SOL    HW227501   5.830   0.751   3.211
 8868SOL     OW27502   5.963   2.933   0.714
 8868SOL    HW127503   6.001   2.867   0.649
 8868SOL    HW227504   6.001   3.023   0.696
 8869SOL     OW27505   2.241   1.904   3.731
 8869SOL    HW127506   2.259   1.822   3.785
 8869SOL    HW227507   2.221   1.878   3.637
 8870SOL     OW27508   3.987   6.736   1.834
 8870SOL    HW127509   3.952   6.643   1.837
 8870SOL    HW227510   4.046   6.747   1.754
 8871SOL     OW27511   1.467   2.303   4.147
 8871SOL    HW127512   1.552   2.355   4.159
 8871SOL    HW227513   1.420   2.338   4.066
 8872SOL     OW27514   1.187   2.024   2.479
 8872SOL    HW127515   1.246   2.092   2.435
 8872SOL    HW227516   1.144   2.064   2.560
 8873SOL     OW27517   6.958   5.614   4.680
 8873SOL    HW127518   6.949   5.677   4.758
 8873SOL    HW227519   6.887   5.543   4.687
 8874SOL     OW27520   1.323   1.203   6.110
 8874SOL    HW127521   1.330   1.301   6.094
 8874SOL    HW227522   1.287   1.157   6.029
 8875SOL     OW27523   1.552   1.390   4.337
 8875SOL    HW127524   1.523   1.439   4.419
 8875SOL    HW227525   1.539   1.448   4.257
 8876SOL     OW27526   2.722   1.218   4.752
 8876SOL    HW127527   2.640   1.167   4.778
 8876SOL    HW227528   2.701   1.316   4.750
 8877SOL     OW27529   3.115   6.370   4.520
 8877SOL    HW127530   3.127   6.295   4.584
 8877SOL    HW227531   3.018   6.384   4.502
 8878SOL     OW27532   5.368   4.501   5.823
 8878SOL    HW127533   5.358   4.502   5.724
 8878SOL    HW227534   5.371   4.406   5.856
 8879SOL     OW27535   5.871   5.410   4.771
 8879SOL    HW127536   5.957   5.412   4.822
 8879SOL    HW227537   5.796   5.435   4.833
 8880SOL     OW27538   1.212   6.971   4.827
 8880SOL    HW127539   1.250   6.942   4.740
 8880SOL    HW227540   1.166   0.033   4.815
 8881SOL     OW27541   6.840   1.965   2.323
 8881SOL    HW127542   6.806   2.023   2.397
 8881SOL    HW227543   6.803   1.998   2.236
 8882SOL     OW27544   5.469   2.112   0.749
 8882SOL    HW127545   5.463   2.017   0.781
 8882SOL    HW227546   5.564   2.135   0.729
 8883SOL     OW27547   6.134   1.341   5.500
 8883SOL    HW127548   6.154   1.348   5.598
 8883SOL    HW227549   6.217   1.317   5.451
 8884SOL     OW27550   0.356   1.185   6.620
 8884SOL    HW127551   0.449   1.205   6.649
 8884SOL    HW227552   0.357   1.118   6.546
 8885SOL     OW27553   6.209   4.027   1.132
 8885SOL    HW127554   6.231   4.073   1.219
 8885SOL    HW227555   6.249   3.935   1.132
 8886SOL     OW27556   3.351   5.822   5.982
 8886SOL    HW127557   3.372   5.794   6.076
 8886SOL    HW227558   3.388   5.754   5.918
 8887SOL     OW27559   1.474   1.100   1.077
 8887SOL    HW127560   1.438   1.185   1.038
 8887SOL    HW227561   1.555   1.120   1.133
 8888SOL     OW27562   2.614   2.152   2.984
 8888SOL    HW127563   2.681   2.080   3.005
 8888SOL    HW227564   2.576   2.188   3.070
 8889SOL     OW27565   3.347   1.415   5.004
 8889SOL    HW127566   3.406   1.408   5.084
 8889SOL    HW227567   3.397   1.457   4.929
 8890SOL     OW27568   6.795   4.714   3.922
 8890SOL    HW127569   6.826   4.727   3.828
 8890SOL    HW227570   6.829   4.627   3.957
 8891SOL     OW27571   3.759   1.593   6.114
 8891SOL    HW127572   3.693   1.522   6.135
 8891SOL    HW227573   3.826   1.601   6.188
 8892SOL     OW27574   1.172   6.792   3.050
 8892SOL    HW127575   1.136   6.732   2.978
 8892SOL    HW227576   1.241   6.853   3.011
 8893SOL     OW27577   0.118   1.026   0.491
 8893SOL    HW127578   0.120   0.977   0.403
 8893SOL    HW227579   0.133   0.961   0.566
 8894SOL     OW27580   4.546   2.434   5.687
 8894SOL    HW127581   4.560   2.509   5.752
 8894SOL    HW227582   4.565   2.466   5.594
 8895SOL     OW27583   1.188   1.072   3.396
 8895SOL    HW127584   1.282   1.079   3.363
 8895SOL    HW227585   1.180   1.118   3.484
 8896SOL     OW27586   1.629   4.194   4.970
 8896SOL    HW127587   1.664   4.126   5.034
 8896SOL    HW227588   1.701   4.217   4.905
 8897SOL     OW27589   1.210   2.285   1.771
 8897SOL    HW127590   1.184   2.193   1.800
 8897SOL    HW227591   1.247   2.335   1.849
 8898SOL     OW27592   6.780   2.671   5.383
 8898SOL    HW127593   6.684   2.686   5.407
 8898SOL    HW227594   6.837   2.736   5.432
 8899SOL     OW27595   3.635   6.133   2.461
 8899SOL    HW127596   3.665   6.171   2.548
 8899SOL    HW227597   3.701   6.064   2.431
 8900SOL     OW27598   6.872   1.677   3.616
 8900SOL    HW127599   6.827   1.588   3.607
 8900SOL    HW227600   6.835   1.725   3.695
 8901SOL     OW27601   1.885   0.269   2.267
 8901SOL    HW127602   1.797   0.224   2.252
 8901SOL    HW227603   1.901   0.335   2.194
 8902SOL     OW27604   4.001   6.959   5.931
 8902SOL    HW127605   3.958   6.869   5.930
 8902SOL    HW227606   3.956   7.017   5.999
 8903SOL     OW27607   6.629   1.127   3.143
 8903SOL    HW127608   6.637   1.035   3.181
 8903SOL    HW227609   6.717   1.174   3.152
 8904SOL     OW27610   1.684   3.644   4.104
 8904SOL    HW127611   1.591   3.673   4.126
 8904SOL    HW227612   1.685   3.604   4.012
 8905SOL     OW27613   1.971   4.235   4.891
 8905SOL    HW127614   2.012   4.171   4.826
 8905SOL    HW227615   2.044   4.281   4.942
 8906SOL     OW27616   2.117   5.236   4.709
 8906SOL    HW127617   2.187   5.289   4.757
 8906SOL    HW227618   2.136   5.235   4.611
 8907SOL     OW27619   3.723   2.851   6.222
 8907SOL    HW127620   3.753   2.936   6.265
 8907SOL    HW227621   3.662   2.802   6.284
 8908SOL     OW27622   0.543   3.452   2.646
 8908SOL    HW127623   0.590   3.539   2.628
 8908SOL    HW227624   0.610   3.378   2.646
 8909SOL     OW27625   3.123   6.410   5.353
 8909SOL    HW127626   3.186   6.450   5.287
 8909SOL    HW227627   3.032   6.403   5.314
 8910SOL     OW27628   4.442   2.473   0.106
 8910SOL    HW127629   4.538   2.461   0.134
 8910SOL    HW227630   4.394   2.385   0.113
 8911SOL     OW27631   4.981   2.883   4.537
 8911SOL    HW127632   4.979   2.968   4.484
 8911SOL    HW227633   5.051   2.822   4.500
 8912SOL     OW27634   3.999   0.743   0.388
 8912SOL    HW127635   3.992   0.644   0.397
 8912SOL    HW227636   4.002   0.768   0.292
 8913SOL     OW27637   4.014   3.946   0.975
 8913SOL    HW127638   4.101   3.929   1.020
 8913SOL    HW227639   3.946   3.975   1.043
 8914SOL     OW27640   5.147   3.462   3.734
 8914SOL    HW127641   5.199   3.382   3.764
 8914SOL    HW227642   5.139   3.462   3.635
 8915SOL     OW27643   0.816   5.472   2.091
 8915SOL    HW127644   0.830   5.520   2.177
 8915SOL    HW227645   0.904   5.437   2.057
 8916SOL     OW27646   5.887   3.714   1.437
 8916SOL    HW127647   5.916   3.794   1.383
 8916SOL    HW227648   5.835   3.745   1.516
 8917SOL     OW27649   5.751   4.165   5.785
 8917SOL    HW127650   5.760   4.067   5.805
 8917SOL    HW227651   5.797   4.186   5.699
 8918SOL     OW27652   4.763   4.233   5.945
 8918SOL    HW127653   4.686   4.193   5.995
 8918SOL    HW227654   4.800   4.310   5.997
 8919SOL     OW27655   1.904   3.245   1.417
 8919SOL    HW127656   1.809   3.212   1.417
 8919SOL    HW227657   1.966   3.166   1.414
 8920SOL     OW27658   6.238   5.653   5.826
 8920SOL    HW127659   6.286   5.659   5.913
 8920SOL    HW227660   6.228   5.745   5.787
 8921SOL     OW27661   1.079   5.675   3.462
 8921SOL    HW127662   1.119   5.584   3.467
 8921SOL    HW227663   1.150   5.744   3.472
 8922SOL     OW27664   0.592   2.636   6.752
 8922SOL    HW127665   0.499   2.640   6.714
 8922SOL    HW227666   0.592   2.674   6.845
 8923SOL     OW27667   2.174   4.620   4.359
 8923SOL    HW127668   2.140   4.616   4.453
 8923SOL    HW227669   2.109   4.670   4.302
 8924SOL     OW27670   2.340   6.426   4.546
 8924SOL    HW127671   2.240   6.431   4.549
 8924SOL    HW227672   2.369   6.347   4.493
 8925SOL     OW27673   4.409   5.652   0.926
 8925SOL    HW127674   4.352   5.598   0.988
 8925SOL    HW227675   4.408   5.748   0.953
 8926SOL     OW27676   5.740   0.002   6.716
 8926SOL    HW127677   5.806   0.053   6.772
 8926SOL    HW227678   5.655   0.054   6.710
 8927SOL     OW27679   2.903   2.126   4.890
 8927SOL    HW127680   2.911   2.225   4.903
 8927SOL    HW227681   2.927   2.079   4.975
 8928SOL     OW27682   1.679   0.670   5.275
 8928SOL    HW127683   1.596   0.707   5.317
 8928SOL    HW227684   1.717   0.737   5.212
 8929SOL     OW27685   4.689   4.837   3.036
 8929SOL    HW127686   4.767   4.778   3.015
 8929SOL    HW227687   4.606   4.794   2.999
 8930SOL     OW27688   0.301   5.690   5.310
 8930SOL    HW127689   0.301   5.739   5.397
 8930SOL    HW227690   0.222   5.628   5.306
 8931SOL     OW27691   5.178   1.131   1.714
 8931SOL    HW127692   5.167   1.129   1.814
 8931SOL    HW227693   5.095   1.094   1.671
 8932SOL     OW27694   4.526   0.727   0.361
 8932SOL    HW127695   4.459   0.693   0.427
 8932SOL    HW227696   4.480   0.784   0.293
 8933SOL     OW27697   1.739   7.017   5.476
 8933SOL    HW127698   1.681   0.058   5.430
 8933SOL    HW227699   1.802   0.037   5.538
 8934SOL     OW27700   3.129   6.578   3.942
 8934SOL    HW127701   3.071   6.581   4.023
 8934SOL    HW227702   3.071   6.566   3.860
 8935SOL     OW27703   5.889   2.111   2.417
 8935SOL    HW127704   5.833   2.073   2.491
 8935SOL    HW227705   5.917   2.037   2.356
 8936SOL     OW27706   1.092   3.899   1.758
 8936SOL    HW127707   1.060   3.813   1.796
 8936SOL    HW227708   1.160   3.939   1.819
 8937SOL     OW27709   2.980   6.242   5.049
 8937SOL    HW127710   2.942   6.253   4.957
 8937SOL    HW227711   2.962   6.325   5.102
 8938SOL     OW27712   5.074   6.710   1.929
 8938SOL    HW127713   5.108   6.732   2.021
 8938SOL    HW227714   4.976   6.692   1.933
 8939SOL     OW27715   6.490   3.243   4.593
 8939SOL    HW127716   6.495   3.146   4.569
 8939SOL    HW227717   6.450   3.294   4.517
 8940SOL     OW27718   6.056   3.948   2.603
 8940SOL    HW127719   6.082   4.003   2.523
 8940SOL    HW227720   5.959   3.963   2.623
 8941SOL     OW27721   5.593   2.321   3.459
 8941SOL    HW127722   5.542   2.377   3.523
 8941SOL    HW227723   5.533   2.292   3.384
 8942SOL     OW27724   4.989   5.813   4.370
 8942SOL    HW127725   5.072   5.864   4.392
 8942SOL    HW227726   4.940   5.793   4.455
 8943SOL     OW27727   4.357   3.706   0.325
 8943SOL    HW127728   4.435   3.713   0.387
 8943SOL    HW227729   4.365   3.775   0.253
 8944SOL     OW27730   4.611   5.794   5.451
 8944SOL    HW127731   4.565   5.705   5.454
 8944SOL    HW227732   4.546   5.866   5.475
 8945SOL     OW27733   6.802   4.827   2.090
 8945SOL    HW127734   6.728   4.883   2.051
 8945SOL    HW227735   6.864   4.799   2.017
 8946SOL     OW27736   3.850   1.996   3.685
 8946SOL    HW127737   3.921   2.045   3.736
 8946SOL    HW227738   3.760   2.029   3.713
 8947SOL     OW27739   2.653   5.341   0.648
 8947SOL    HW127740   2.600   5.357   0.731
 8947SOL    HW227741   2.640   5.246   0.618
 8948SOL     OW27742   5.684   0.303   2.684
 8948SOL    HW127743   5.696   0.302   2.783
 8948SOL    HW227744   5.588   0.323   2.662
 8949SOL     OW27745   3.903   6.640   1.096
 8949SOL    HW127746   3.982   6.610   1.150
 8949SOL    HW227747   3.874   6.567   1.034
 8950SOL     OW27748   3.532   3.788   3.853
 8950SOL    HW127749   3.576   3.740   3.929
 8950SOL    HW227750   3.601   3.836   3.799
 8951SOL     OW27751   0.738   0.912   4.084
 8951SOL    HW127752   0.680   0.835   4.058
 8951SOL    HW227753   0.803   0.932   4.010
 8952SOL     OW27754   1.821   3.496   4.974
 8952SOL    HW127755   1.768   3.573   5.009
 8952SOL    HW227756   1.852   3.517   4.881
 8953SOL     OW27757   1.128   5.872   0.983
 8953SOL    HW127758   1.153   5.777   1.005
 8953SOL    HW227759   1.199   5.934   1.017
 8954SOL     OW27760   2.314   4.182   5.608
 8954SOL    HW127761   2.333   4.083   5.614
 8954SOL    HW227762   2.353   4.218   5.523
 8955SOL     OW27763   6.427   3.084   5.556
 8955SOL    HW127764   6.338   3.046   5.532
 8955SOL    HW227765   6.415   3.161   5.619
 8956SOL     OW27766   1.221   6.484   1.219
 8956SOL    HW127767   1.205   6.403   1.276
 8956SOL    HW227768   1.164   6.559   1.251
 8957SOL     OW27769   0.503   6.952   3.257
 8957SOL    HW127770   0.411   6.920   3.234
 8957SOL    HW227771   0.517   6.947   3.355
 8958SOL     OW27772   6.939   3.077   4.854
 8958SOL    HW127773   6.996   3.012   4.804
 8958SOL    HW227774   6.988   3.164   4.864
 8959SOL     OW27775   4.948   1.295   3.777
 8959SOL    HW127776   5.041   1.297   3.741
 8959SOL    HW227777   4.947   1.335   3.869
 8960SOL     OW27778   4.029   6.251   2.008
 8960SOL    HW127779   4.081   6.326   2.050
 8960SOL    HW227780   4.062   6.235   1.915
 8961SOL     OW27781   2.389   1.959   5.510
 8961SOL    HW127782   2.372   1.892   5.583
 8961SOL    HW227783   2.409   2.048   5.550
 8962SOL     OW27784   6.498   6.134   1.333
 8962SOL    HW127785   6.409   6.116   1.290
 8962SOL    HW227786   6.540   6.213   1.290
 8963SOL     OW27787   2.487   4.866   5.960
 8963SOL    HW127788   2.583   4.843   5.972
 8963SOL    HW227789   2.447   4.804   5.892
 8964SOL     OW27790   0.952   3.040   4.389
 8964SOL    HW127791   1.044   3.016   4.420
 8964SOL    HW227792   0.908   3.097   4.459
 8965SOL     OW27793   3.260   5.766   6.846
 8965SOL    HW127794   3.338   5.710   6.873
 8965SOL    HW227795   3.205   5.717   6.778
 8966SOL     OW27796   4.971   6.687   5.013
 8966SOL    HW127797   5.027   6.635   5.078
 8966SOL    HW227798   4.973   6.784   5.038
 8967SOL     OW27799   2.376   0.335   3.505
 8967SOL    HW127800   2.301   0.376   3.453
 8967SOL    HW227801   2.363   0.354   3.602
 8968SOL     OW27802   2.821   5.694   2.190
 8968SOL    HW127803   2.864   5.726   2.105
 8968SOL    HW227804   2.786   5.773   2.241
 8969SOL     OW27805   6.909   1.125   1.869
 8969SOL    HW127806   6.933   1.153   1.776
 8969SOL    HW227807   6.922   1.027   1.878
 8970SOL     OW27808   2.468   1.848   4.282
 8970SOL    HW127809   2.538   1.915   4.257
 8970SOL    HW227810   2.403   1.839   4.206
 8971SOL     OW27811   3.119   5.332   1.532
 8971SOL    HW127812   3.048   5.379   1.585
 8971SOL    HW227813   3.198   5.315   1.591
 8972SOL     OW27814   6.574   3.680   6.160
 8972SOL    HW127815   6.526   3.759   6.120
 8972SOL    HW227816   6.634   3.639   6.092
 8973SOL     OW27817   2.542   1.623   3.377
 8973SOL    HW127818   2.532   1.722   3.362
 8973SOL    HW227819   2.612   1.607   3.446
 8974SOL     OW27820   1.470   4.739   5.179
 8974SOL    HW127821   1.391   4.702   5.227
 8974SOL    HW227822   1.554   4.700   5.217
 8975SOL     OW27823   0.603   3.815   6.038
 8975SOL    HW127824   0.597   3.826   5.939
 8975SOL    HW227825   0.546   3.738   6.067
 8976SOL     OW27826   5.671   0.135   1.219
 8976SOL    HW127827   5.693   0.038   1.230
 8976SOL    HW227828   5.755   0.189   1.221
 8977SOL     OW27829   0.864   5.208   5.945
 8977SOL    HW127830   0.783   5.265   5.937
 8977SOL    HW227831   0.898   5.185   5.854
 8978SOL     OW27832   6.542   4.969   5.202
 8978SOL    HW127833   6.538   4.889   5.143
 8978SOL    HW227834   6.469   5.033   5.176
 8979SOL     OW27835   1.862   4.194   3.540
 8979SOL    HW127836   1.877   4.108   3.491
 8979SOL    HW227837   1.914   4.194   3.625
 8980SOL     OW27838   5.323   0.720   0.286
 8980SOL    HW127839   5.345   0.711   0.383
 8980SOL    HW227840   5.241   0.777   0.275
 8981SOL     OW27841   3.900   2.144   6.768
 8981SOL    HW127842   3.833   2.100   6.827
 8981SOL    HW227843   3.986   2.154   6.818
 8982SOL     OW27844   0.606   0.420   3.212
 8982SOL    HW127845   0.686   0.362   3.196
 8982SOL    HW227846   0.568   0.400   3.302
 8983SOL     OW27847   1.801   6.530   2.410
 8983SOL    HW127848   1.787   6.514   2.508
 8983SOL    HW227849   1.852   6.616   2.398
 8984SOL     OW27850   6.013   0.751   3.790
 8984SOL    HW127851   5.994   0.787   3.881
 8984SOL    HW227852   5.926   0.738   3.741
 8985SOL     OW27853   5.127   0.831   1.448
 8985SOL    HW127854   5.125   0.750   1.507
 8985SOL    HW227855   5.104   0.804   1.354
 8986SOL     OW27856   1.059   6.888   6.590
 8986SOL    HW127857   1.068   6.790   6.609
 8986SOL    HW227858   1.126   6.915   6.522
 8987SOL     OW27859   2.935   6.669   2.446
 8987SOL    HW127860   2.889   6.595   2.398
 8987SOL    HW227861   2.866   6.731   2.484
 8988SOL     OW27862   2.331   6.639   0.976
 8988SOL    HW127863   2.376   6.725   0.951
 8988SOL    HW227864   2.233   6.655   0.987
 8989SOL     OW27865   6.652   1.526   2.666
 8989SOL    HW127866   6.745   1.560   2.651
 8989SOL    HW227867   6.657   1.442   2.721
 8990SOL     OW27868   3.860   1.146   3.189
 8990SOL    HW127869   3.836   1.049   3.185
 8990SOL    HW227870   3.839   1.182   3.280
 8991SOL     OW27871   1.462   1.696   0.502
 8991SOL    HW127872   1.465   1.788   0.541
 8991SOL    HW227873   1.369   1.662   0.504
 8992SOL     OW27874   1.354   5.659   4.967
 8992SOL    HW127875   1.391   5.684   5.057
 8992SOL    HW227876   1.375   5.563   4.949
 8993SOL     OW27877   5.672   4.228   3.798
 8993SOL    HW127878   5.733   4.266   3.867
 8993SOL    HW227879   5.701   4.134   3.776
 8994SOL     OW27880   1.355   6.371   2.112
 8994SOL    HW127881   1.350   6.378   2.012
 8994SOL    HW227882   1.450   6.383   2.141
 8995SOL     OW27883   1.931   4.290   3.831
 8995SOL    HW127884   2.023   4.277   3.868
 8995SOL    HW227885   1.921   4.383   3.798
 8996SOL     OW27886   2.867   3.559   1.420
 8996SOL    HW127887   2.851   3.518   1.510
 8996SOL    HW227888   2.786   3.608   1.390
 8997SOL     OW27889   4.256   1.713   4.552
 8997SOL    HW127890   4.247   1.811   4.532
 8997SOL    HW227891   4.294   1.666   4.472
 8998SOL     OW27892   0.952   1.502   6.599
 8998SOL    HW127893   0.923   1.410   6.571
 8998SOL    HW227894   0.962   1.504   6.698
 8999SOL     OW27895   5.865   2.810   5.314
 8999SOL    HW127896   5.920   2.812   5.398
 8999SOL    HW227897   5.843   2.903   5.286
 9000SOL     OW27898   4.907   5.145   1.293
 9000SOL    HW127899   4.965   5.123   1.215
 9000SOL    HW227900   4.811   5.133   1.267
 9001SOL     OW27901   0.407   3.030   4.417
 9001SOL    HW127902   0.478   3.091   4.384
 9001SOL    HW227903   0.428   2.936   4.390
 9002SOL     OW27904   4.870   2.912   5.877
 9002SOL    HW127905   4.891   2.826   5.923
 9002SOL    HW227906   4.820   2.972   5.940
 9003SOL     OW27907   0.522   3.731   0.002
 9003SOL    HW127908   0.508   3.696   0.094
 9003SOL    HW227909   0.611   3.701   6.994
 9004SOL     OW27910   4.983   5.840   0.271
 9004SOL    HW127911   4.938   5.792   0.347
 9004SOL    HW227912   4.932   5.924   0.250
 9005SOL     OW27913   4.876   3.834   4.131
 9005SOL    HW127914   4.813   3.839   4.054
 9005SOL    HW227915   4.970   3.838   4.098
 9006SOL     OW27916   3.336   6.372   2.073
 9006SOL    HW127917   3.392   6.444   2.113
 9006SOL    HW227918   3.334   6.293   2.134
 9007SOL     OW27919   2.207   6.669   5.546
 9007SOL    HW127920   2.186   6.572   5.556
 9007SOL    HW227921   2.154   6.707   5.470
 9008SOL     OW27922   0.226   4.608   1.572
 9008SOL    HW127923   0.215   4.669   1.493
 9008SOL    HW227924   0.234   4.662   1.655
 9009SOL     OW27925   3.830   6.838   6.936
 9009SOL    HW127926   3.901   6.787   6.889
 9009SOL    HW227927   3.866   6.876   7.021
 9010SOL     OW27928   0.046   6.003   4.775
 9010SOL    HW127929   0.059   5.926   4.712
 9010SOL    HW227930   0.035   5.968   4.868
 9011SOL     OW27931   4.638   2.632   2.248
 9011SOL    HW127932   4.598   2.684   2.173
 9011SOL    HW227933   4.707   2.688   2.294
 9012SOL     OW27934   4.271   5.138   3.029
 9012SOL    HW127935   4.284   5.077   3.107
 9012SOL    HW227936   4.194   5.104   2.974
 9013SOL     OW27937   3.710   6.179   2.017
 9013SOL    HW127938   3.659   6.093   2.026
 9013SOL    HW227939   3.755   6.182   1.928
 9014SOL     OW27940   2.083   1.540   1.772
 9014SOL    HW127941   2.059   1.444   1.786
 9014SOL    HW227942   2.166   1.562   1.823
 9015SOL     OW27943   6.144   2.313   4.434
 9015SOL    HW127944   6.095   2.227   4.439
 9015SOL    HW227945   6.126   2.368   4.516
 9016SOL     OW27946   0.266   5.130   6.370
 9016SOL    HW127947   0.328   5.160   6.296
 9016SOL    HW227948   0.201   5.203   6.391
 9017SOL     OW27949   6.029   3.127   2.882
 9017SOL    HW127950   6.069   3.035   2.879
 9017SOL    HW227951   6.000   3.154   2.790
 9018SOL     OW27952   5.377   1.093   6.677
 9018SOL    HW127953   5.324   1.123   6.756
 9018SOL    HW227954   5.315   1.082   6.598
 9019SOL     OW27955   1.780   5.752   0.190
 9019SOL    HW127956   1.717   5.829   0.203
 9019SOL    HW227957   1.730   5.670   0.164
 9020SOL     OW27958   0.672   5.033   4.379
 9020SOL    HW127959   0.607   5.014   4.306
 9020SOL    HW227960   0.693   5.131   4.380
 9021SOL     OW27961   6.439   5.281   5.347
 9021SOL    HW127962   6.368   5.296   5.278
 9021SOL    HW227963   6.495   5.364   5.355
 9022SOL     OW27964   1.039   6.618   6.045
 9022SOL    HW127965   1.110   6.616   6.115
 9022SOL    HW227966   1.073   6.577   5.960
 9023SOL     OW27967   3.421   3.481   4.099
 9023SOL    HW127968   3.342   3.425   4.120
 9023SOL    HW227969   3.417   3.566   4.152
 9024SOL     OW27970   1.048   0.094   0.067
 9024SOL    HW127971   1.119   0.029   0.040
 9024SOL    HW227972   1.075   0.187   0.042
 9025SOL     OW27973   0.514   2.999   0.495
 9025SOL    HW127974   0.436   3.000   0.433
 9025SOL    HW227975   0.594   3.036   0.447
 9026SOL     OW27976   3.158   3.884   5.885
 9026SOL    HW127977   3.130   3.963   5.829
 9026SOL    HW227978   3.098   3.877   5.965
 9027SOL     OW27979   1.221   3.215   2.217
 9027SOL    HW127980   1.203   3.269   2.134
 9027SOL    HW227981   1.186   3.264   2.296
 9028SOL     OW27982   1.544   4.523   4.893
 9028SOL    HW127983   1.563   4.491   4.800
 9028SOL    HW227984   1.594   4.467   4.959
 9029SOL     OW27985   5.450   5.254   2.568
 9029SOL    HW127986   5.393   5.212   2.639
 9029SOL    HW227987   5.457   5.353   2.586
 9030SOL     OW27988   4.978   2.564   3.105
 9030SOL    HW127989   5.047   2.627   3.070
 9030SOL    HW227990   4.936   2.515   3.029
 9031SOL     OW27991   2.766   1.085   2.248
 9031SOL    HW127992   2.741   1.117   2.339
 9031SOL    HW227993   2.717   1.000   2.227
 9032SOL     OW27994   0.393   3.870   2.627
 9032SOL    HW127995   0.417   3.887   2.531
 9032SOL    HW227996   0.319   3.802   2.631
 9033SOL     OW27997   1.216   3.646   2.799
 9033SOL    HW127998   1.289   3.659   2.732
 9033SOL    HW227999   1.128   3.638   2.751
 9034SOL     OW28000   1.480   6.652   0.389
 9034SOL    HW128001   1.478   6.612   0.481
 9034SOL    HW228002   1.547   6.602   0.333
 9035SOL     OW28003   6.033   1.113   4.262
 9035SOL    HW128004   6.065   1.018   4.263
 9035SOL    HW228005   5.934   1.115   4.269
 9036SOL     OW28006   0.338   1.569   4.657
 9036SOL    HW128007   0.431   1.533   4.651
 9036SOL    HW228008   0.342   1.668   4.671
 9037SOL     OW28009   2.757   4.376   6.041
 9037SOL    HW128010   2.711   4.321   6.111
 9037SOL    HW228011   2.852   4.347   6.032
 9038SOL     OW28012   4.183   5.634   5.670
 9038SOL    HW128013   4.248   5.630   5.746
 9038SOL    HW228014   4.095   5.597   5.699
 9039SOL     OW28015   2.760   5.026   0.145
 9039SOL    HW128016   2.832   5.061   0.084
 9039SOL    HW228017   2.681   5.087   0.140
 9040SOL     OW28018   3.352   1.349   2.279
 9040SOL    HW128019   3.434   1.384   2.325
 9040SOL    HW228020   3.352   1.379   2.183
 9041SOL     OW28021   2.112   2.703   5.221
 9041SOL    HW128022   2.171   2.626   5.244
 9041SOL    HW228023   2.022   2.690   5.263
 9042SOL     OW28024   1.885   5.224   2.170
 9042SOL    HW128025   1.860   5.183   2.258
 9042SOL    HW228026   1.899   5.153   2.102
 9043SOL     OW28027   0.545   1.420   0.371
 9043SOL    HW128028   0.614   1.378   0.312
 9043SOL    HW228029   0.461   1.436   0.319
 9044SOL     OW28030   0.633   4.294   0.435
 9044SOL    HW128031   0.630   4.206   0.483
 9044SOL    HW228032   0.542   4.337   0.439
 9045SOL     OW28033   2.237   4.698   4.872
 9045SOL    HW128034   2.184   4.771   4.830
 9045SOL    HW228035   2.215   4.692   4.969
 9046SOL     OW28036   3.490   4.321   5.824
 9046SOL    HW128037   3.482   4.316   5.725
 9046SOL    HW228038   3.506   4.416   5.852
 9047SOL     OW28039   0.893   4.408   4.106
 9047SOL    HW128040   0.879   4.446   4.015
 9047SOL    HW228041   0.989   4.418   4.132
 9048SOL     OW28042   1.373   2.724   5.517
 9048SOL    HW128043   1.421   2.793   5.463
 9048SOL    HW228044   1.435   2.686   5.585
 9049SOL     OW28045   4.703   6.366   5.811
 9049SOL    HW128046   4.603   6.374   5.817
 9049SOL    HW228047   4.733   6.390   5.718
 9050SOL     OW28048   7.000   4.016   6.619
 9050SOL    HW128049   6.953   3.935   6.655
 9050SOL    HW228050   0.023   4.061   6.693
 9051SOL     OW28051   0.106   6.172   6.620
 9051SOL    HW128052   0.037   6.237   6.588
 9051SOL    HW228053   0.083   6.144   6.714
 9052SOL     OW28054   2.502   4.880   4.958
 9052SOL    HW128055   2.432   4.937   4.912
 9052SOL    HW228056   2.512   4.794   4.908
 9053SOL     OW28057   1.293   0.501   2.685
 9053SOL    HW128058   1.379   0.515   2.637
 9053SOL    HW228059   1.307   0.436   2.760
 9054SOL     OW28060   1.830   6.937   2.028
 9054SOL    HW128061   1.929   6.937   2.045
 9054SOL    HW228062   1.796   0.005   2.033
 9055SOL     OW28063   1.530   2.437   5.062
 9055SOL    HW128064   1.548   2.500   4.986
 9055SOL    HW228065   1.474   2.483   5.131
 9056SOL     OW28066   5.003   1.982   1.353
 9056SOL    HW128067   4.981   2.051   1.285
 9056SOL    HW228068   5.022   2.026   1.440
 9057SOL     OW28069   3.450   6.829   6.008
 9057SOL    HW128070   3.448   6.730   5.997
 9057SOL    HW228071   3.502   6.853   6.089
 9058SOL     OW28072   2.209   2.928   3.769
 9058SOL    HW128073   2.116   2.897   3.790
 9058SOL    HW228074   2.205   2.999   3.699
 9059SOL     OW28075   6.920   0.431   2.393
 9059SOL    HW128076   6.888   0.408   2.301
 9059SOL    HW228077   7.020   0.445   2.390
 9060SOL     OW28078   0.329   5.190   6.940
 9060SOL    HW128079   0.304   5.177   6.845
 9060SOL    HW228080   0.250   5.173   6.999
 9061SOL     OW28081   4.339   4.630   2.586
 9061SOL    HW128082   4.286   4.642   2.670
 9061SOL    HW228083   4.407   4.558   2.599
 9062SOL     OW28084   0.458   5.864   2.546
 9062SOL    HW128085   0.543   5.851   2.495
 9062SOL    HW228086   0.476   5.858   2.644
 9063SOL     OW28087   6.035   6.740   0.947
 9063SOL    HW128088   6.081   6.714   1.032
 9063SOL    HW228089   6.010   6.837   0.950
 9064SOL     OW28090   1.337   5.625   3.177
 9064SOL    HW128091   1.372   5.718   3.163
 9064SOL    HW228092   1.376   5.587   3.261
 9065SOL     OW28093   2.872   3.861   6.929
 9065SOL    HW128094   2.825   3.875   6.842
 9065SOL    HW228095   2.929   3.940   6.950
 9066SOL     OW28096   5.360   4.651   3.253
 9066SOL    HW128097   5.415   4.568   3.246
 9066SOL    HW228098   5.399   4.722   3.194
 9067SOL     OW28099   1.953   6.771   4.369
 9067SOL    HW128100   1.886   6.842   4.389
 9067SOL    HW228101   2.018   6.763   4.445
 9068SOL     OW28102   4.958   0.222   5.636
 9068SOL    HW128103   4.982   0.125   5.646
 9068SOL    HW228104   4.914   0.236   5.547
 9069SOL     OW28105   4.530   2.251   1.964
 9069SOL    HW128106   4.478   2.203   1.894
 9069SOL    HW228107   4.475   2.327   2.001
 9070SOL     OW28108   1.674   0.598   6.854
 9070SOL    HW128109   1.605   0.665   6.882
 9070SOL    HW228110   1.756   0.646   6.824
 9071SOL     OW28111   5.032   2.761   6.834
 9071SOL    HW128112   5.081   2.847   6.853
 9071SOL    HW228113   5.097   2.685   6.836
 9072SOL     OW28114   6.417   1.188   2.025
 9072SOL    HW128115   6.465   1.106   1.995
 9072SOL    HW228116   6.428   1.260   1.957
 9073SOL     OW28117   4.912   2.728   6.073
 9073SOL    HW128118   4.843   2.733   6.145
 9073SOL    HW228119   4.921   2.634   6.041
 9074SOL     OW28120   2.100   0.756   3.450
 9074SOL    HW128121   2.185   0.742   3.399
 9074SOL    HW228122   2.100   0.846   3.492
 9075SOL     OW28123   4.853   5.522   0.922
 9075SOL    HW128124   4.822   5.470   0.842
 9075SOL    HW228125   4.773   5.562   0.968
 9076SOL     OW28126   1.179   6.547   2.233
 9076SOL    HW128127   1.254   6.494   2.195
 9076SOL    HW228128   1.145   6.503   2.316
 9077SOL     OW28129   6.532   1.425   6.396
 9077SOL    HW128130   6.556   1.330   6.415
 9077SOL    HW228131   6.483   1.464   6.474
 9078SOL     OW28132   5.094   6.864   6.410
 9078SOL    HW128133   5.055   6.954   6.391
 9078SOL    HW228134   5.106   6.854   6.509
 9079SOL     OW28135   1.802   1.859   6.224
 9079SOL    HW128136   1.901   1.853   6.207
 9079SOL    HW228137   1.753   1.854   6.138
 9080SOL     OW28138   6.378   4.529   0.889
 9080SOL    HW128139   6.386   4.444   0.941
 9080SOL    HW228140   6.315   4.591   0.937
 9081SOL     OW28141   4.754   1.440   6.694
 9081SOL    HW128142   4.756   1.524   6.749
 9081SOL    HW228143   4.748   1.361   6.754
 9082SOL     OW28144   3.035   4.735   6.720
 9082SOL    HW128145   2.948   4.741   6.769
 9082SOL    HW228146   3.108   4.714   6.785
 9083SOL     OW28147   3.991   0.264   0.885
 9083SOL    HW128148   4.018   0.173   0.853
 9083SOL    HW228149   4.024   0.333   0.821
 9084SOL     OW28150   6.904   4.962   4.555
 9084SOL    HW128151   6.834   4.921   4.496
 9084SOL    HW228152   6.937   5.047   4.513
 9085SOL     OW28153   3.316   4.904   1.465
 9085SOL    HW128154   3.265   4.975   1.416
 9085SOL    HW228155   3.308   4.818   1.415
 9086SOL     OW28156   6.602   1.765   0.467
 9086SOL    HW128157   6.586   1.863   0.468
 9086SOL    HW228158   6.689   1.745   0.513
 9087SOL     OW28159   4.854   1.241   0.646
 9087SOL    HW128160   4.861   1.223   0.744
 9087SOL    HW228161   4.908   1.322   0.624
 9088SOL     OW28162   5.150   6.683   0.132
 9088SOL    HW128163   5.230   6.719   0.082
 9088SOL    HW228164   5.181   6.631   0.212
 9089SOL     OW28165   5.270   5.585   3.031
 9089SOL    HW128166   5.324   5.626   3.104
 9089SOL    HW228167   5.183   5.553   3.067
 9090SOL     OW28168   6.075   5.396   4.941
 9090SOL    HW128169   6.153   5.449   4.972
 9090SOL    HW228170   6.045   5.334   5.014
 9091SOL     OW28171   2.335   2.116   1.531
 9091SOL    HW128172   2.256   2.056   1.518
 9091SOL    HW228173   2.370   2.104   1.624
 9092SOL     OW28174   3.134   1.884   5.471
 9092SOL    HW128175   3.119   1.891   5.569
 9092SOL    HW228176   3.073   1.815   5.432
 9093SOL     OW28177   2.092   3.293   0.383
 9093SOL    HW128178   2.080   3.252   0.473
 9093SOL    HW228179   2.048   3.236   0.313
 9094SOL     OW28180   6.583   2.231   6.847
 9094SOL    HW128181   6.555   2.265   6.757
 9094SOL    HW228182   6.641   2.151   6.835
 9095SOL     OW28183   2.234   2.697   0.391
 9095SOL    HW128184   2.296   2.628   0.353
 9095SOL    HW228185   2.279   2.786   0.391
 9096SOL     OW28186   0.029   4.290   2.404
 9096SOL    HW128187   0.050   4.252   2.314
 9096SOL    HW228188   0.077   4.237   2.474
 9097SOL     OW28189   7.008   5.773   6.270
 9097SOL    HW128190   0.039   5.846   6.307
 9097SOL    HW228191   6.947   5.739   6.342
 9098SOL     OW28192   4.054   3.406   5.607
 9098SOL    HW128193   4.039   3.452   5.520
 9098SOL    HW228194   4.008   3.317   5.605
 9099SOL     OW28195   2.128   2.727   6.685
 9099SOL    HW128196   2.107   2.822   6.662
 9099SOL    HW228197   2.203   2.695   6.628
 9100SOL     OW28198   1.348   2.760   0.721
 9100SOL    HW128199   1.278   2.794   0.784
 9100SOL    HW228200   1.371   2.831   0.655
 9101SOL     OW28201   2.391   2.260   0.096
 9101SOL    HW128202   2.393   2.360   0.092
 9101SOL    HW228203   2.472   2.227   0.145
 9102SOL     OW28204   4.468   6.585   2.267
 9102SOL    HW128205   4.456   6.620   2.360
 9102SOL    HW228206   4.424   6.647   2.202
 9103SOL     OW28207   1.072   4.291   6.077
 9103SOL    HW128208   1.000   4.337   6.025
 9103SOL    HW228209   1.131   4.239   6.015
 9104SOL     OW28210   4.509   6.877   2.765
 9104SOL    HW128211   4.446   6.953   2.781
 9104SOL    HW228212   4.499   6.809   2.837
 9105SOL     OW28213   3.550   2.498   5.944
 9105SOL    HW128214   3.461   2.526   5.980
 9105SOL    HW228215   3.547   2.496   5.844
 9106SOL     OW28216   6.295   5.442   1.613
 9106SOL    HW128217   6.389   5.413   1.596
 9106SOL    HW228218   6.254   5.475   1.529
 9107SOL     OW28219   5.204   6.075   6.576
 9107SOL    HW128220   5.209   5.981   6.610
 9107SOL    HW228221   5.147   6.129   6.637
 9108SOL     OW28222   3.730   5.507   0.703
 9108SOL    HW128223   3.708   5.568   0.626
 9108SOL    HW228224   3.672   5.530   0.781
 9109SOL     OW28225   3.559   1.924   3.961
 9109SOL    HW128226   3.570   1.967   4.050
 9109SOL    HW228227   3.573   1.992   3.889
 9110SOL     OW28228   0.879   3.651   4.017
 9110SOL    HW128229   0.792   3.604   3.999
 9110SOL    HW228230   0.920   3.679   3.930
 9111SOL     OW28231   3.571   4.043   1.564
 9111SOL    HW128232   3.573   4.034   1.663
 9111SOL    HW228233   3.614   3.962   1.522
 9112SOL     OW28234   0.894   6.379   2.353
 9112SOL    HW128235   0.987   6.368   2.386
 9112SOL    HW228236   0.851   6.289   2.342
 9113SOL     OW28237   2.661   5.698   6.939
 9113SOL    HW128238   2.592   5.684   7.011
 9113SOL    HW228239   2.633   5.774   6.880
 9114SOL     OW28240   2.500   3.546   1.638
 9114SOL    HW128241   2.568   3.598   1.691
 9114SOL    HW228242   2.453   3.482   1.699
 9115SOL     OW28243   1.499   3.917   4.523
 9115SOL    HW128244   1.455   3.956   4.442
 9115SOL    HW228245   1.495   3.983   4.599
 9116SOL     OW28246   2.800   2.427   6.312
 9116SOL    HW128247   2.872   2.388   6.369
 9116SOL    HW228248   2.824   2.416   6.215
 9117SOL     OW28249   0.759   2.823   0.232
 9117SOL    HW128250   0.814   2.750   0.273
 9117SOL    HW228251   0.748   2.898   0.297
 9118SOL     OW28252   0.376   6.575   1.764
 9118SOL    HW128253   0.364   6.528   1.851
 9118SOL    HW228254   0.372   6.508   1.689
 9119SOL     OW28255   6.008   6.883   1.310
 9119SOL    HW128256   5.964   6.812   1.255
 9119SOL    HW228257   5.977   6.874   1.405
 9120SOL     OW28258   6.127   0.339   0.231
 9120SOL    HW128259   6.056   0.410   0.239
 9120SOL    HW228260   6.188   0.344   0.311
 9121SOL     OW28261   1.406   1.275   6.585
 9121SOL    HW128262   1.395   1.335   6.505
 9121SOL    HW228263   1.316   1.236   6.609
 9122SOL     OW28264   0.680   3.128   1.184
 9122SOL    HW128265   0.619   3.197   1.144
 9122SOL    HW228266   0.775   3.155   1.169
 9123SOL     OW28267   1.248   6.617   6.247
 9123SOL    HW128268   1.174   6.568   6.294
 9123SOL    HW228269   1.336   6.584   6.281
 9124SOL     OW28270   0.300   4.280   4.987
 9124SOL    HW128271   0.226   4.241   4.932
 9124SOL    HW228272   0.387   4.240   4.958
 9125SOL     OW28273   4.692   6.035   0.929
 9125SOL    HW128274   4.667   6.125   0.965
 9125SOL    HW228275   4.633   5.965   0.969
 9126SOL     OW28276   5.593   0.528   3.353
 9126SOL    HW128277   5.523   0.488   3.294
 9126SOL    HW228278   5.679   0.478   3.341
 9127SOL     OW28279   6.027   5.491   5.794
 9127SOL    HW128280   6.113   5.541   5.784
 9127SOL    HW228281   6.002   5.488   5.890
 9128SOL     OW28282   4.837   2.890   5.380
 9128SOL    HW128283   4.785   2.955   5.325
 9128SOL    HW228284   4.799   2.886   5.473
 9129SOL     OW28285   2.988   1.255   0.456
 9129SOL    HW128286   3.060   1.282   0.521
 9129SOL    HW228287   3.017   1.280   0.363
 9130SOL     OW28288   5.724   5.646   0.780
 9130SOL    HW128289   5.728   5.712   0.855
 9130SOL    HW228290   5.792   5.670   0.711
 9131SOL     OW28291   1.371   4.797   4.133
 9131SOL    HW128292   1.395   4.705   4.101
 9131SOL    HW228293   1.367   4.798   4.233
 9132SOL     OW28294   1.393   2.873   4.061
 9132SOL    HW128295   1.308   2.820   4.056
 9132SOL    HW228296   1.389   2.948   3.995
 9133SOL     OW28297   1.489   5.186   1.039
 9133SOL    HW128298   1.440   5.268   1.011
 9133SOL    HW228299   1.526   5.198   1.131
 9134SOL     OW28300   3.070   5.006   6.186
 9134SOL    HW128301   3.162   5.011   6.226
 9134SOL    HW228302   3.010   4.955   6.247
 9135SOL     OW28303   1.374   6.379   3.874
 9135SOL    HW128304   1.294   6.336   3.917
 9135SOL    HW228305   1.343   6.436   3.798
 9136SOL     OW28306   3.293   5.222   5.296
 9136SOL    HW128307   3.236   5.186   5.371
 9136SOL    HW228308   3.337   5.307   5.326
 9137SOL     OW28309   4.168   0.586   2.154
 9137SOL    HW128310   4.211   0.509   2.200
 9137SOL    HW228311   4.069   0.585   2.173
 9138SOL     OW28312   3.365   4.686   0.869
 9138SOL    HW128313   3.432   4.647   0.932
 9138SOL    HW228314   3.279   4.635   0.876
 9139SOL     OW28315   3.585   0.662   5.675
 9139SOL    HW128316   3.520   0.715   5.622
 9139SOL    HW228317   3.545   0.638   5.763
 9140SOL     OW28318   6.471   2.765   3.090
 9140SOL    HW128319   6.512   2.773   3.181
 9140SOL    HW228320   6.442   2.855   3.058
 9141SOL     OW28321   5.539   0.422   5.898
 9141SOL    HW128322   5.461   0.360   5.906
 9141SOL    HW228323   5.513   0.513   5.931
 9142SOL     OW28324   1.372   3.845   6.819
 9142SOL    HW128325   1.460   3.855   6.864
 9142SOL    HW228326   1.316   3.778   6.869
 9143SOL     OW28327   6.246   4.322   0.062
 9143SOL    HW128328   6.340   4.352   0.048
 9143SOL    HW228329   6.232   4.235   0.014
 9144SOL     OW28330   1.025   5.656   4.530
 9144SOL    HW128331   1.098   5.679   4.466
 9144SOL    HW228332   1.028   5.559   4.551
 9145SOL     OW28333   1.018   3.636   6.282
 9145SOL    HW128334   1.036   3.694   6.362
 9145SOL    HW228335   1.006   3.694   6.201
 9146SOL     OW28336   0.815   1.267   0.848
 9146SOL    HW128337   0.870   1.334   0.796
 9146SOL    HW228338   0.801   1.301   0.941
 9147SOL     OW28339   4.417   5.496   6.578
 9147SOL    HW128340   4.470   5.562   6.525
 9147SOL    HW228341   4.454   5.489   6.670
 9148SOL     OW28342   3.362   4.950   2.899
 9148SOL    HW128343   3.405   4.984   2.816
 9148SOL    HW228344   3.263   4.939   2.883
 9149SOL     OW28345   6.572   3.317   5.120
 9149SOL    HW128346   6.581   3.337   5.023
 9149SOL    HW228347   6.565   3.218   5.134
 9150SOL     OW28348   4.148   1.190   2.810
 9150SOL    HW128349   4.193   1.244   2.739
 9150SOL    HW228350   4.089   1.250   2.864
 9151SOL     OW28351   6.407   3.090   2.061
 9151SOL    HW128352   6.423   3.188   2.045
 9151SOL    HW228353   6.490   3.050   2.100
 9152SOL     OW28354   2.469   4.793   3.183
 9152SOL    HW128355   2.520   4.744   3.112
 9152SOL    HW228356   2.449   4.886   3.152
 9153SOL     OW28357   2.378   2.836   6.928
 9153SOL    HW128358   2.410   2.769   6.861
 9153SOL    HW228359   2.281   2.820   6.948
 9154SOL     OW28360   0.854   5.608   0.812
 9154SOL    HW128361   0.888   5.542   0.744
 9154SOL    HW228362   0.843   5.697   0.770
 9155SOL     OW28363   1.583   4.824   0.313
 9155SOL    HW128364   1.571   4.725   0.308
 9155SOL    HW228365   1.524   4.862   0.385
 9156SOL     OW28366   4.791   2.652   1.661
 9156SOL    HW128367   4.712   2.657   1.723
 9156SOL    HW228368   4.841   2.738   1.664
 9157SOL     OW28369   5.587   3.458   5.561
 9157SOL    HW128370   5.518   3.454   5.488
 9157SOL    HW228371   5.563   3.531   5.625
 9158SOL     OW28372   1.150   4.409   4.162
 9158SOL    HW128373   1.242   4.370   4.161
 9158SOL    HW228374   1.140   4.471   4.240
 9159SOL     OW28375   6.970   4.755   1.874
 9159SOL    HW128376   6.949   4.760   1.776
 9159SOL    HW228377   0.013   4.822   1.897
 9160SOL     OW28378   0.521   0.075   1.303
 9160SOL    HW128379   0.603   0.028   1.273
 9160SOL    HW228380   0.538   0.118   1.392
 9161SOL     OW28381   4.932   4.370   2.488
 9161SOL    HW128382   4.954   4.284   2.442
 9161SOL    HW228383   4.995   4.442   2.456
 9162SOL     OW28384   5.018   2.769   3.382
 9162SOL    HW128385   4.919   2.776   3.372
 9162SOL    HW228386   5.058   2.733   3.297
 9163SOL     OW28387   3.732   0.945   4.847
 9163SOL    HW128388   3.680   0.914   4.767
 9163SOL    HW228389   3.763   1.039   4.831
 9164SOL     OW28390   2.830   0.527   0.907
 9164SOL    HW128391   2.854   0.445   0.855
 9164SOL    HW228392   2.863   0.518   1.001
 9165SOL     OW28393   4.894   6.186   0.518
 9165SOL    HW128394   4.866   6.152   0.428
 9165SOL    HW228395   4.883   6.113   0.586
 9166SOL     OW28396   2.987   5.607   1.286
 9166SOL    HW128397   3.016   5.545   1.213
 9166SOL    HW228398   2.902   5.574   1.326
 9167SOL     OW28399   0.385   3.739   4.691
 9167SOL    HW128400   0.308   3.782   4.738
 9167SOL    HW228401   0.362   3.726   4.595
 9168SOL     OW28402   3.474   0.481   0.582
 9168SOL    HW128403   3.508   0.524   0.666
 9168SOL    HW228404   3.510   0.388   0.575
 9169SOL     OW28405   0.272   6.696   3.420
 9169SOL    HW128406   0.261   6.610   3.470
 9169SOL    HW228407   0.240   6.772   3.476
 9170SOL     OW28408   6.391   5.792   0.105
 9170SOL    HW128409   6.464   5.854   0.131
 9170SOL    HW228410   6.395   5.709   0.160
 9171SOL     OW28411   3.700   5.421   5.328
 9171SOL    HW128412   3.737   5.414   5.421
 9171SOL    HW228413   3.741   5.499   5.281
 9172SOL     OW28414   2.581   2.412   4.065
 9172SOL    HW128415   2.513   2.371   4.126
 9172SOL    HW228416   2.546   2.500   4.032
 9173SOL     OW28417   0.108   5.494   5.274
 9173SOL    HW128418   0.064   5.470   5.187
 9173SOL    HW228419   0.042   5.485   5.348
 9174SOL     OW28420   0.375   5.774   6.459
 9174SOL    HW128421   0.289   5.724   6.451
 9174SOL    HW228422   0.373   5.832   6.541
 9175SOL     OW28423   2.484   6.191   5.787
 9175SOL    HW128424   2.459   6.111   5.843
 9175SOL    HW228425   2.573   6.175   5.745
 9176SOL     OW28426   1.444   2.272   5.520
 9176SOL    HW128427   1.479   2.262   5.613
 9176SOL    HW228428   1.514   2.241   5.455
 9177SOL     OW28429   1.279   4.503   2.995
 9177SOL    HW128430   1.197   4.540   3.038
 9177SOL    HW228431   1.254   4.456   2.910
 9178SOL     OW28432   2.035   3.924   0.638
 9178SOL    HW128433   2.029   3.982   0.720
 9178SOL    HW228434   1.954   3.866   0.633
 9179SOL     OW28435   2.801   5.066   5.348
 9179SOL    HW128436   2.863   5.022   5.413
 9179SOL    HW228437   2.728   5.003   5.322
 9180SOL     OW28438   5.132   1.936   2.474
 9180SOL    HW128439   5.117   2.004   2.403
 9180SOL    HW228440   5.055   1.937   2.538
 9181SOL     OW28441   4.214   1.145   2.369
 9181SOL    HW128442   4.243   1.132   2.274
 9181SOL    HW228443   4.115   1.132   2.376
 9182SOL     OW28444   2.321   6.780   1.832
 9182SOL    HW128445   2.377   6.727   1.769
 9182SOL    HW228446   2.377   6.853   1.872
 9183SOL     OW28447   5.311   5.478   5.849
 9183SOL    HW128448   5.308   5.418   5.929
 9183SOL    HW228449   5.368   5.558   5.868
 9184SOL     OW28450   4.969   6.892   0.146
 9184SOL    HW128451   5.022   6.808   0.157
 9184SOL    HW228452   4.896   6.877   0.080
 9185SOL     OW28453   5.145   1.844   4.569
 9185SOL    HW128454   5.122   1.921   4.509
 9185SOL    HW228455   5.243   1.849   4.592
 9186SOL     OW28456   5.432   0.589   6.113
 9186SOL    HW128457   5.411   0.491   6.110
 9186SOL    HW228458   5.347   0.641   6.104
 9187SOL     OW28459   2.322   6.141   3.207
 9187SOL    HW128460   2.299   6.077   3.134
 9187SOL    HW228461   2.282   6.230   3.186
 9188SOL     OW28462   2.412   5.416   0.808
 9188SOL    HW128463   2.345   5.359   0.761
 9188SOL    HW228464   2.374   5.506   0.825
 9189SOL     OW28465   5.070   5.051   1.886
 9189SOL    HW128466   5.033   4.958   1.883
 9189SOL    HW228467   5.052   5.091   1.975
 9190SOL     OW28468   1.276   6.047   6.949
 9190SOL    HW128469   1.294   6.143   6.927
 9190SOL    HW228470   1.212   6.009   6.882
 9191SOL     OW28471   0.299   1.071   5.694
 9191SOL    HW128472   0.304   1.117   5.782
 9191SOL    HW228473   0.243   1.126   5.631
 9192SOL     OW28474   1.142   3.507   5.387
 9192SOL    HW128475   1.192   3.444   5.327
 9192SOL    HW228476   1.058   3.536   5.342
 9193SOL     OW28477   2.914   3.935   0.587
 9193SOL    HW128478   2.835   3.952   0.528
 9193SOL    HW228479   2.914   3.839   0.615
 9194SOL     OW28480   3.146   1.051   4.037
 9194SOL    HW128481   3.202   0.969   4.044
 9194SOL    HW228482   3.201   1.132   4.057
 9195SOL     OW28483   1.640   1.057   4.086
 9195SOL    HW128484   1.728   1.083   4.126
 9195SOL    HW228485   1.587   1.139   4.066
 9196SOL     OW28486   5.296   1.219   6.031
 9196SOL    HW128487   5.374   1.269   6.070
 9196SOL    HW228488   5.323   1.125   6.012
 9197SOL     OW28489   2.399   3.343   0.769
 9197SOL    HW128490   2.300   3.331   0.771
 9197SOL    HW228491   2.429   3.358   0.674
 9198SOL     OW28492   0.874   4.707   4.671
 9198SOL    HW128493   0.779   4.704   4.639
 9198SOL    HW228494   0.903   4.616   4.697
 9199SOL     OW28495   5.887   4.538   4.988
 9199SOL    HW128496   5.868   4.630   4.955
 9199SOL    HW228497   5.968   4.501   4.941
 9200SOL     OW28498   2.882   6.705   0.446
 9200SOL    HW128499   2.959   6.687   0.384
 9200SOL    HW228500   2.909   6.773   0.514
 9201SOL     OW28501   2.056   4.312   0.718
 9201SOL    HW128502   2.018   4.225   0.750
 9201SOL    HW228503   1.986   4.383   0.724
 9202SOL     OW28504   2.429   0.679   3.543
 9202SOL    HW128505   2.529   0.674   3.543
 9202SOL    HW228506   2.399   0.725   3.459
 9203SOL     OW28507   6.834   6.592   0.853
 9203SOL    HW128508   6.873   6.532   0.783
 9203SOL    HW228509   6.843   6.687   0.825
 9204SOL     OW28510   5.963   0.642   5.314
 9204SOL    HW128511   5.913   0.557   5.329
 9204SOL    HW228512   5.898   0.718   5.308
 9205SOL     OW28513   6.829   5.488   2.134
 9205SOL    HW128514   6.801   5.477   2.230
 9205SOL    HW228515   6.773   5.429   2.076
 9206SOL     OW28516   4.104   6.868   0.175
 9206SOL    HW128517   4.122   6.950   0.230
 9206SOL    HW228518   4.059   6.799   0.232
 9207SOL     OW28519   5.649   5.908   5.879
 9207SOL    HW128520   5.680   5.917   5.785
 9207SOL    HW228521   5.633   5.999   5.918
 9208SOL     OW28522   1.108   3.839   2.532
 9208SOL    HW128523   1.044   3.874   2.600
 9208SOL    HW228524   1.186   3.797   2.577
 9209SOL     OW28525   2.150   6.252   6.700
 9209SOL    HW128526   2.216   6.195   6.651
 9209SOL    HW228527   2.189   6.344   6.711
 9210SOL     OW28528   6.476   0.388   4.164
 9210SOL    HW128529   6.418   0.464   4.193
 9210SOL    HW228530   6.508   0.405   4.071
 9211SOL     OW28531   0.428   1.425   2.891
 9211SOL    HW128532   0.358   1.373   2.939
 9211SOL    HW228533   0.489   1.467   2.958
 9212SOL     OW28534   3.625   5.279   4.267
 9212SOL    HW128535   3.638   5.275   4.168
 9212SOL    HW228536   3.532   5.252   4.290
 9213SOL     OW28537   5.951   3.834   6.852
 9213SOL    HW128538   6.008   3.869   6.926
 9213SOL    HW228539   5.861   3.809   6.889
 9214SOL     OW28540   0.313   5.365   0.460
 9214SOL    HW128541   0.311   5.265   0.452
 9214SOL    HW228542   0.264   5.392   0.543
 9215SOL     OW28543   1.486   1.315   0.881
 9215SOL    HW128544   1.481   1.302   0.782
 9215SOL    HW228545   1.415   1.378   0.910
 9216SOL     OW28546   1.902   0.214   3.765
 9216SOL    HW128547   1.929   0.283   3.697
 9216SOL    HW228548   1.983   0.187   3.818
 9217SOL     OW28549   0.338   2.335   0.502
 9217SOL    HW128550   0.434   2.337   0.529
 9217SOL    HW228551   0.294   2.420   0.531
 9218SOL     OW28552   2.540   0.651   0.731
 9218SOL    HW128553   2.454   0.677   0.776
 9218SOL    HW228554   2.529   0.661   0.632
 9219SOL     OW28555   5.869   1.711   0.503
 9219SOL    HW128556   5.830   1.623   0.477
 9219SOL    HW228557   5.949   1.696   0.560
 9220SOL     OW28558   3.113   6.456   0.563
 9220SOL    HW128559   3.190   6.391   0.564
 9220SOL    HW228560   3.127   6.525   0.633
 9221SOL     OW28561   2.632   4.689   4.817
 9221SOL    HW128562   2.699   4.685   4.891
 9221SOL    HW228563   2.580   4.603   4.814
 9222SOL     OW28564   3.085   2.133   6.715
 9222SOL    HW128565   3.051   2.120   6.622
 9222SOL    HW228566   3.172   2.084   6.725
 9223SOL     OW28567   2.858   3.173   5.205
 9223SOL    HW128568   2.780   3.123   5.168
 9223SOL    HW228569   2.899   3.229   5.132
 9224SOL     OW28570   2.123   4.729   5.122
 9224SOL    HW128571   2.151   4.643   5.165
 9224SOL    HW228572   2.057   4.776   5.181
 9225SOL     OW28573   1.565   6.110   6.952
 9225SOL    HW128574   1.480   6.162   6.945
 9225SOL    HW228575   1.548   6.022   6.997
 9226SOL     OW28576   4.471   6.347   1.000
 9226SOL    HW128577   4.435   6.266   0.953
 9226SOL    HW228578   4.449   6.341   1.098
 9227SOL     OW28579   1.212   6.413   1.647
 9227SOL    HW128580   1.132   6.361   1.679
 9227SOL    HW228581   1.192   6.510   1.652
 9228SOL     OW28582   0.763   6.718   6.588
 9228SOL    HW128583   0.784   6.813   6.566
 9228SOL    HW228584   0.671   6.695   6.556
 9229SOL     OW28585   0.994   6.044   5.313
 9229SOL    HW128586   0.906   6.053   5.267
 9229SOL    HW228587   0.979   6.021   5.409
 9230SOL     OW28588   4.910   1.662   3.557
 9230SOL    HW128589   4.882   1.599   3.485
 9230SOL    HW228590   4.939   1.611   3.638
 9231SOL     OW28591   2.167   3.554   3.408
 9231SOL    HW128592   2.186   3.651   3.395
 9231SOL    HW228593   2.134   3.514   3.323
 9232SOL     OW28594   4.461   5.136   1.437
 9232SOL    HW128595   4.403   5.215   1.420
 9232SOL    HW228596   4.409   5.067   1.488
 9233SOL     OW28597   5.608   4.823   6.879
 9233SOL    HW128598   5.667   4.881   6.824
 9233SOL    HW228599   5.521   4.870   6.897
 9234SOL     OW28600   1.557   6.314   4.048
 9234SOL    HW128601   1.496   6.335   3.972
 9234SOL    HW228602   1.592   6.220   4.039
 9235SOL     OW28603   0.845   2.501   3.222
 9235SOL    HW128604   0.823   2.599   3.223
 9235SOL    HW228605   0.888   2.476   3.309
 9236SOL     OW28606   3.332   2.619   6.474
 9236SOL    HW128607   3.283   2.539   6.442
 9236SOL    HW228608   3.314   2.696   6.413
 9237SOL     OW28609   1.453   3.635   3.266
 9237SOL    HW128610   1.530   3.618   3.327
 9237SOL    HW228611   1.382   3.566   3.282
 9238SOL     OW28612   4.350   3.415   6.859
 9238SOL    HW128613   4.428   3.409   6.922
 9238SOL    HW228614   4.323   3.323   6.831
 9239SOL     OW28615   2.277   3.091   6.374
 9239SOL    HW128616   2.322   3.040   6.447
 9239SOL    HW228617   2.268   3.032   6.293
 9240SOL     OW28618   4.820   0.858   2.860
 9240SOL    HW128619   4.917   0.873   2.840
 9240SOL    HW228620   4.768   0.859   2.775
 9241SOL     OW28621   0.489   5.563   5.976
 9241SOL    HW128622   0.454   5.639   6.031
 9241SOL    HW228623   0.415   5.523   5.923
 9242SOL     OW28624   5.374   6.353   1.836
 9242SOL    HW128625   5.430   6.319   1.760
 9242SOL    HW228626   5.434   6.392   1.906
 9243SOL     OW28627   5.905   0.110   4.435
 9243SOL    HW128628   5.909   0.025   4.383
 9243SOL    HW228629   5.831   0.168   4.399
 9244SOL     OW28630   3.760   6.155   0.210
 9244SOL    HW128631   3.729   6.063   0.183
 9244SOL    HW228632   3.855   6.168   0.182
 9245SOL     OW28633   0.455   6.799   1.904
 9245SOL    HW128634   0.384   6.793   1.974
 9245SOL    HW228635   0.443   6.725   1.838
 9246SOL     OW28636   6.968   5.096   3.983
 9246SOL    HW128637   6.967   5.153   3.901
 9246SOL    HW228638   6.913   5.140   4.054
 9247SOL     OW28639   1.244   0.357   3.406
 9247SOL    HW128640   1.281   0.419   3.337
 9247SOL    HW228641   1.144   0.358   3.403
 9248SOL     OW28642   4.176   1.695   6.280
 9248SOL    HW128643   4.129   1.607   6.281
 9248SOL    HW228644   4.218   1.712   6.369
 9249SOL     OW28645   4.077   6.383   3.791
 9249SOL    HW128646   4.108   6.405   3.884
 9249SOL    HW228647   3.979   6.399   3.784
 9250SOL     OW28648   5.024   4.087   2.909
 9250SOL    HW128649   5.097   4.031   2.871
 9250SOL    HW228650   5.004   4.162   2.846
 9251SOL     OW28651   3.903   1.654   2.164
 9251SOL    HW128652   3.842   1.623   2.237
 9251SOL    HW228653   3.895   1.592   2.085
 9252SOL     OW28654   1.644   6.716   4.199
 9252SOL    HW128655   1.661   6.675   4.289
 9252SOL    HW228656   1.725   6.705   4.142
 9253SOL     OW28657   1.236   6.890   6.363
 9253SOL    HW128658   1.285   6.954   6.304
 9253SOL    HW228659   1.232   6.800   6.318
 9254SOL     OW28660   5.088   2.325   1.199
 9254SOL    HW128661   5.178   2.333   1.158
 9254SOL    HW228662   5.095   2.331   1.298
 9255SOL     OW28663   0.207   5.480   0.670
 9255SOL    HW128664   0.192   5.576   0.646
 9255SOL    HW228665   0.251   5.475   0.759
 9256SOL     OW28666   3.950   5.257   2.834
 9256SOL    HW128667   4.006   5.179   2.804
 9256SOL    HW228668   4.005   5.341   2.829
 9257SOL     OW28669   0.483   3.534   0.874
 9257SOL    HW128670   0.397   3.510   0.828
 9257SOL    HW228671   0.490   3.633   0.881
 9258SOL     OW28672   3.485   2.926   4.546
 9258SOL    HW128673   3.393   2.954   4.575
 9258SOL    HW228674   3.478   2.852   4.479
 9259SOL     OW28675   1.510   2.343   0.394
 9259SOL    HW128676   1.452   2.264   0.409
 9259SOL    HW228677   1.464   2.426   0.428
 9260SOL     OW28678   6.880   3.606   0.075
 9260SOL    HW128679   6.976   3.600   0.047
 9260SOL    HW228680   6.875   3.638   0.169
 9261SOL     OW28681   2.990   6.916   5.710
 9261SOL    HW128682   2.964   6.904   5.806
 9261SOL    HW228683   3.034   6.833   5.677
 9262SOL     OW28684   5.985   0.012   6.200
 9262SOL    HW128685   5.909   0.076   6.209
 9262SOL    HW228686   6.032   0.003   6.288
 9263SOL     OW28687   5.878   4.178   2.275
 9263SOL    HW128688   5.799   4.173   2.214
 9263SOL    HW228689   5.878   4.266   2.323
 9264SOL     OW28690   5.852   2.802   0.267
 9264SOL    HW128691   5.776   2.794   0.203
 9264SOL    HW228692   5.832   2.872   0.335
 9265SOL     OW28693   1.582   2.217   5.274
 9265SOL    HW128694   1.571   2.291   5.209
 9265SOL    HW228695   1.502   2.157   5.272
 9266SOL     OW28696   2.790   6.213   2.331
 9266SOL    HW128697   2.749   6.186   2.418
 9266SOL    HW228698   2.761   6.149   2.259
 9267SOL     OW28699   2.786   4.870   5.904
 9267SOL    HW128700   2.861   4.815   5.943
 9267SOL    HW228701   2.798   4.966   5.931
 9268SOL     OW28702   1.319   1.167   3.161
 9268SOL    HW128703   1.348   1.072   3.164
 9268SOL    HW228704   1.263   1.183   3.079
 9269SOL     OW28705   4.131   1.334   5.320
 9269SOL    HW128706   4.213   1.278   5.304
 9269SOL    HW228707   4.105   1.329   5.416
 9270SOL     OW28708   1.569   0.672   5.616
 9270SOL    HW128709   1.650   0.625   5.652
 9270SOL    HW228710   1.510   0.606   5.570
 9271SOL     OW28711   0.413   5.071   6.077
 9271SOL    HW128712   0.476   5.017   6.022
 9271SOL    HW228713   0.384   5.152   6.025
 9272SOL     OW28714   2.322   5.414   6.715
 9272SOL    HW128715   2.297   5.383   6.807
 9272SOL    HW228716   2.305   5.341   6.649
 9273SOL     OW28717   3.789   6.129   5.868
 9273SOL    HW128718   3.755   6.040   5.899
 9273SOL    HW228719   3.822   6.121   5.774
 9274SOL     OW28720   5.128   2.156   2.307
 9274SOL    HW128721   5.176   2.132   2.223
 9274SOL    HW228722   5.031   2.170   2.287
 9275SOL     OW28723   0.268   0.182   5.883
 9275SOL    HW128724   0.205   0.125   5.935
 9275SOL    HW228725   0.250   0.279   5.903
 9276SOL     OW28726   4.367   6.580   4.048
 9276SOL    HW128727   4.375   6.680   4.041
 9276SOL    HW228728   4.449   6.543   4.091
 9277SOL     OW28729   4.939   2.567   0.038
 9277SOL    HW128730   4.937   2.539   6.968
 9277SOL    HW228731   4.884   2.650   0.049
 9278SOL     OW28732   1.246   2.189   1.241
 9278SOL    HW128733   1.338   2.177   1.204
 9278SOL    HW228734   1.238   2.141   1.328
 9279SOL     OW28735   2.319   6.253   0.499
 9279SOL    HW128736   2.348   6.312   0.424
 9279SOL    HW228737   2.390   6.184   0.517
 9280SOL     OW28738   1.400   0.335   2.901
 9280SOL    HW128739   1.485   0.362   2.855
 9280SOL    HW228740   1.417   0.252   2.955
 9281SOL     OW28741   1.967   2.431   0.271
 9281SOL    HW128742   2.033   2.501   0.300
 9281SOL    HW228743   1.875   2.458   0.302
 9282SOL     OW28744   4.096   1.280   6.773
 9282SOL    HW128745   4.000   1.294   6.751
 9282SOL    HW228746   4.104   1.226   6.857
 9283SOL     OW28747   5.224   2.497   2.938
 9283SOL    HW128748   5.216   2.464   2.844
 9283SOL    HW228749   5.195   2.425   3.001
 9284SOL     OW28750   3.716   3.696   2.027
 9284SOL    HW128751   3.724   3.628   1.954
 9284SOL    HW228752   3.625   3.739   2.023
 9285SOL     OW28753   6.531   2.978   6.275
 9285SOL    HW128754   6.630   2.987   6.292
 9285SOL    HW228755   6.483   3.051   6.324
 9286SOL     OW28756   5.922   5.368   4.390
 9286SOL    HW128757   5.947   5.431   4.464
 9286SOL    HW228758   5.871   5.418   4.320
 9287SOL     OW28759   2.757   6.837   2.574
 9287SOL    HW128760   2.701   6.792   2.643
 9287SOL    HW228761   2.753   6.936   2.587
 9288SOL     OW28762   4.769   2.063   6.316
 9288SOL    HW128763   4.688   2.055   6.374
 9288SOL    HW228764   4.831   2.132   6.354
 9289SOL     OW28765   5.719   4.431   2.608
 9289SOL    HW128766   5.652   4.487   2.657
 9289SOL    HW228767   5.743   4.351   2.663
 9290SOL     OW28768   4.529   2.190   3.790
 9290SOL    HW128769   4.530   2.263   3.722
 9290SOL    HW228770   4.487   2.109   3.750
 9291SOL     OW28771   0.841   2.095   5.000
 9291SOL    HW128772   0.817   2.090   5.097
 9291SOL    HW228773   0.894   2.179   4.983
 9292SOL     OW28774   0.222   3.874   0.241
 9292SOL    HW128775   0.223   3.968   0.276
 9292SOL    HW228776   0.316   3.843   0.225
 9293SOL     OW28777   6.250   3.695   5.854
 9293SOL    HW128778   6.331   3.749   5.830
 9293SOL    HW228779   6.269   3.639   5.934
 9294SOL     OW28780   5.405   5.834   6.302
 9294SOL    HW128781   5.483   5.894   6.284
 9294SOL    HW228782   5.402   5.810   6.399
 9295SOL     OW28783   4.745   2.789   3.307
 9295SOL    HW128784   4.709   2.751   3.221
 9295SOL    HW228785   4.682   2.766   3.381
 9296SOL     OW28786   6.430   0.257   5.120
 9296SOL    HW128787   6.341   0.267   5.163
 9296SOL    HW228788   6.427   0.296   5.028
 9297SOL     OW28789   0.944   0.475   1.811
 9297SOL    HW128790   0.940   0.568   1.849
 9297SOL    HW228791   1.000   0.417   1.870
 9298SOL     OW28792   0.797   6.912   4.975
 9298SOL    HW128793   0.703   6.915   5.008
 9298SOL    HW228794   0.798   6.929   4.876
 9299SOL     OW28795   1.863   3.019   4.135
 9299SOL    HW128796   1.841   2.927   4.104
 9299SOL    HW228797   1.950   3.017   4.185
 9300SOL     OW28798   5.790   4.772   3.383
 9300SOL    HW128799   5.748   4.687   3.350
 9300SOL    HW228800   5.889   4.768   3.368
 9301SOL     OW28801   6.472   4.792   1.085
 9301SOL    HW128802   6.510   4.728   1.151
 9301SOL    HW228803   6.386   4.830   1.120
 9302SOL     OW28804   1.559   2.135   2.272
 9302SOL    HW128805   1.488   2.111   2.206
 9302SOL    HW228806   1.518   2.181   2.351
 9303SOL     OW28807   4.920   3.975   0.407
 9303SOL    HW128808   4.859   4.045   0.444
 9303SOL    HW228809   4.916   3.977   0.307
 9304SOL     OW28810   4.561   3.696   0.832
 9304SOL    HW128811   4.465   3.681   0.854
 9304SOL    HW228812   4.590   3.785   0.867
 9305SOL     OW28813   4.851   3.781   2.042
 9305SOL    HW128814   4.800   3.847   1.987
 9305SOL    HW228815   4.946   3.779   2.011
 9306SOL     OW28816   6.847   5.853   4.148
 9306SOL    HW128817   6.757   5.881   4.181
 9306SOL    HW228818   6.862   5.892   4.057
 9307SOL     OW28819   2.005   1.065   5.732
 9307SOL    HW128820   2.043   1.080   5.823
 9307SOL    HW228821   2.013   0.968   5.708
 9308SOL     OW28822   6.822   2.522   0.332
 9308SOL    HW128823   6.856   2.433   0.364
 9308SOL    HW228824   6.724   2.515   0.313
 9309SOL     OW28825   5.282   2.823   6.266
 9309SOL    HW128826   5.261   2.765   6.187
 9309SOL    HW228827   5.209   2.891   6.278
 9310SOL     OW28828   3.796   6.957   1.541
 9310SOL    HW128829   3.845   6.908   1.469
 9310SOL    HW228830   3.851   0.007   1.574
 9311SOL     OW28831   0.049   3.771   1.720
 9311SOL    HW128832   0.067   3.761   1.622
 9311SOL    HW228833   0.110   3.840   1.758
 9312SOL     OW28834   1.891   3.837   4.895
 9312SOL    HW128835   1.959   3.811   4.827
 9312SOL    HW228836   1.872   3.935   4.887
 9313SOL     OW28837   6.421   6.683   2.274
 9313SOL    HW128838   6.397   6.732   2.190
 9313SOL    HW228839   6.368   6.598   2.278
 9314SOL     OW28840   6.680   4.245   0.353
 9314SOL    HW128841   6.766   4.199   0.331
 9314SOL    HW228842   6.603   4.186   0.329
 9315SOL     OW28843   0.235   6.427   6.232
 9315SOL    HW128844   0.297   6.503   6.214
 9315SOL    HW228845   0.183   6.446   6.315
 9316SOL     OW28846   3.363   5.301   4.370
 9316SOL    HW128847   3.356   5.386   4.422
 9316SOL    HW228848   3.342   5.224   4.431
 9317SOL     OW28849   4.472   4.234   5.673
 9317SOL    HW128850   4.427   4.154   5.635
 9317SOL    HW228851   4.566   4.212   5.698
 9318SOL     OW28852   6.708   6.592   6.155
 9318SOL    HW128853   6.692   6.684   6.191
 9318SOL    HW228854   6.624   6.538   6.161
 9319SOL     OW28855   6.203   3.603   4.558
 9319SOL    HW128856   6.104   3.622   4.560
 9319SOL    HW228857   6.240   3.633   4.470
 9320SOL     OW28858   4.271   2.875   5.971
 9320SOL    HW128859   4.261   2.871   5.871
 9320SOL    HW228860   4.239   2.789   6.011
 9321SOL     OW28861   6.066   6.101   4.268
 9321SOL    HW128862   6.011   6.126   4.188
 9321SOL    HW228863   6.154   6.149   4.264
 9322SOL     OW28864   1.073   5.980   0.606
 9322SOL    HW128865   1.137   6.036   0.553
 9322SOL    HW228866   1.028   6.036   0.676
 9323SOL     OW28867   0.856   1.129   6.718
 9323SOL    HW128868   0.852   1.082   6.806
 9323SOL    HW228869   0.871   1.062   6.645
 9324SOL     OW28870   1.552   5.270   6.765
 9324SOL    HW128871   1.466   5.219   6.757
 9324SOL    HW228872   1.543   5.357   6.715
 9325SOL     OW28873   0.087   2.590   6.876
 9325SOL    HW128874   0.135   2.605   6.962
 9325SOL    HW228875   0.064   2.493   6.867
 9326SOL     OW28876   2.401   5.801   1.515
 9326SOL    HW128877   2.318   5.838   1.558
 9326SOL    HW228878   2.467   5.875   1.503
 9327SOL     OW28879   2.720   1.598   3.565
 9327SOL    HW128880   2.785   1.524   3.579
 9327SOL    HW228881   2.763   1.685   3.591
 9328SOL     OW28882   2.647   0.807   2.229
 9328SOL    HW128883   2.728   0.748   2.227
 9328SOL    HW228884   2.590   0.782   2.308
 9329SOL     OW28885   0.958   3.671   1.814
 9329SOL    HW128886   0.972   3.630   1.904
 9329SOL    HW228887   0.860   3.677   1.795
 9330SOL     OW28888   5.065   6.195   6.796
 9330SOL    HW128889   5.137   6.261   6.818
 9330SOL    HW228890   4.985   6.244   6.760
 9331SOL     OW28891   0.758   1.816   0.275
 9331SOL    HW128892   0.666   1.850   0.297
 9331SOL    HW228893   0.751   1.750   0.200
 9332SOL     OW28894   3.748   4.018   5.364
 9332SOL    HW128895   3.789   3.965   5.290
 9332SOL    HW228896   3.729   3.959   5.442
 9333SOL     OW28897   4.886   5.986   0.735
 9333SOL    HW128898   4.859   5.925   0.660
 9333SOL    HW228899   4.805   6.027   0.776
 9334SOL     OW28900   2.533   6.710   4.215
 9334SOL    HW128901   2.587   6.627   4.227
 9334SOL    HW228902   2.588   6.789   4.240
 9335SOL     OW28903   0.480   1.679   1.993
 9335SOL    HW128904   0.391   1.671   2.039
 9335SOL    HW228905   0.520   1.768   2.015
 9336SOL     OW28906   2.806   0.123   5.204
 9336SOL    HW128907   2.805   0.123   5.104
 9336SOL    HW228908   2.804   0.029   5.238
 9337SOL     OW28909   4.867   6.911   2.773
 9337SOL    HW128910   4.827   6.870   2.691
 9337SOL    HW228911   4.867   7.011   2.764
 9338SOL     OW28912   2.854   6.812   2.094
 9338SOL    HW128913   2.949   6.812   2.064
 9338SOL    HW228914   2.837   6.733   2.153
 9339SOL     OW28915   3.691   5.760   1.707
 9339SOL    HW128916   3.675   5.735   1.611
 9339SOL    HW228917   3.654   5.689   1.767
 9340SOL     OW28918   6.536   2.738   0.828
 9340SOL    HW128919   6.589   2.729   0.743
 9340SOL    HW228920   6.457   2.797   0.812
 9341SOL     OW28921   0.886   4.375   5.912
 9341SOL    HW128922   0.814   4.438   5.943
 9341SOL    HW228923   0.907   4.394   5.816
 9342SOL     OW28924   1.698   0.734   0.292
 9342SOL    HW128925   1.633   0.796   0.335
 9342SOL    HW228926   1.754   0.690   0.363
 9343SOL     OW28927   5.797   6.525   3.578
 9343SOL    HW128928   5.885   6.494   3.613
 9343SOL    HW228929   5.745   6.446   3.544
 9344SOL     OW28930   5.319   6.851   0.547
 9344SOL    HW128931   5.265   6.771   0.573
 9344SOL    HW228932   5.411   6.822   0.519
 9345SOL     OW28933   0.385   2.694   0.637
 9345SOL    HW128934   0.440   2.681   0.554
 9345SOL    HW228935   0.446   2.699   0.717
 9346SOL     OW28936   5.804   0.788   0.278
 9346SOL    HW128937   5.790   0.698   0.318
 9346SOL    HW228938   5.793   0.783   0.178
 9347SOL     OW28939   2.025   6.496   1.908
 9347SOL    HW128940   2.062   6.535   1.824
 9347SOL    HW228941   2.090   6.510   1.983
 9348SOL     OW28942   3.081   5.244   0.600
 9348SOL    HW128943   3.031   5.314   0.549
 9348SOL    HW228944   3.035   5.156   0.588
 9349SOL     OW28945   1.172   6.394   2.467
 9349SOL    HW128946   1.265   6.431   2.467
 9349SOL    HW228947   1.175   6.296   2.487
 9350SOL     OW28948   0.226   3.243   5.797
 9350SOL    HW128949   0.314   3.195   5.796
 9350SOL    HW228950   0.158   3.189   5.747
 9351SOL     OW28951   3.203   6.842   6.518
 9351SOL    HW128952   3.164   6.925   6.557
 9351SOL    HW228953   3.301   6.855   6.501
 9352SOL     OW28954   2.875   4.632   6.083
 9352SOL    HW128955   2.882   4.666   6.176
 9352SOL    HW228956   2.779   4.611   6.062
 9353SOL     OW28957   5.969   0.618   1.064
 9353SOL    HW128958   5.962   0.658   0.973
 9353SOL    HW228959   5.879   0.587   1.094
 9354SOL     OW28960   1.143   0.818   6.197
 9354SOL    HW128961   1.214   0.805   6.128
 9354SOL    HW228962   1.179   0.873   6.273
 9355SOL     OW28963   1.021   1.686   4.986
 9355SOL    HW128964   1.055   1.671   4.893
 9355SOL    HW228965   0.935   1.737   4.982
 9356SOL     OW28966   4.085   0.153   3.791
 9356SOL    HW128967   4.173   0.194   3.816
 9356SOL    HW228968   4.075   0.157   3.692
 9357SOL     OW28969   1.899   2.215   0.100
 9357SOL    HW128970   1.816   2.181   0.144
 9357SOL    HW228971   1.932   2.295   0.149
 9358SOL     OW28972   0.861   2.098   1.000
 9358SOL    HW128973   0.838   2.148   1.084
 9358SOL    HW228974   0.959   2.108   0.981
 9359SOL     OW28975   0.877   0.621   5.143
 9359SOL    HW128976   0.842   0.673   5.065
 9359SOL    HW228977   0.890   0.526   5.117
 9360SOL     OW28978   0.149   0.614   5.762
 9360SOL    HW128979   0.071   0.566   5.802
 9360SOL    HW228980   0.192   0.556   5.693
 9361SOL     OW28981   2.238   5.572   4.629
 9361SOL    HW128982   2.290   5.511   4.688
 9361SOL    HW228983   2.174   5.519   4.573
 9362SOL     OW28984   1.682   0.545   2.542
 9362SOL    HW128985   1.646   0.557   2.449
 9362SOL    HW228986   1.639   0.612   2.603
 9363SOL     OW28987   2.021   2.789   2.262
 9363SOL    HW128988   1.989   2.882   2.282
 9363SOL    HW228989   2.120   2.787   2.266
 9364SOL     OW28990   0.276   2.217   6.800
 9364SOL    HW128991   0.340   2.268   6.742
 9364SOL    HW228992   0.325   2.143   6.846
 9365SOL     OW28993   2.324   1.324   5.404
 9365SOL    HW128994   2.419   1.313   5.430
 9365SOL    HW228995   2.264   1.295   5.479
 9366SOL     OW28996   3.571   6.848   2.273
 9366SOL    HW128997   3.556   6.761   2.321
 9366SOL    HW228998   3.554   6.835   2.176
 9367SOL     OW28999   6.973   0.173   1.409
 9367SOL    HW129000   6.902   0.178   1.479
 9367SOL    HW229001   0.023   0.117   1.442
 9368SOL     OW29002   2.177   0.512   3.400
 9368SOL    HW129003   2.129   0.594   3.434
 9368SOL    HW229004   2.197   0.524   3.303
 9369SOL     OW29005   3.971   5.171   0.911
 9369SOL    HW129006   3.899   5.131   0.854
 9369SOL    HW229007   4.042   5.209   0.853
 9370SOL     OW29008   4.520   2.468   5.152
 9370SOL    HW129009   4.487   2.554   5.190
 9370SOL    HW229010   4.597   2.486   5.090
 9371SOL     OW29011   4.185   4.675   0.815
 9371SOL    HW129012   4.219   4.611   0.746
 9371SOL    HW229013   4.090   4.700   0.793
 9372SOL     OW29014   4.547   6.930   1.281
 9372SOL    HW129015   4.519   6.886   1.196
 9372SOL    HW229016   4.569   6.861   1.349
 9373SOL     OW29017   0.218   2.789   1.690
 9373SOL    HW129018   0.181   2.697   1.701
 9373SOL    HW229019   0.231   2.830   1.780
 9374SOL     OW29020   6.948   5.268   6.243
 9374SOL    HW129021   0.006   5.301   6.286
 9374SOL    HW229022   6.950   5.168   6.236
 9375SOL     OW29023   1.768   1.157   6.883
 9375SOL    HW129024   1.726   1.239   6.843
 9375SOL    HW229025   1.814   1.106   6.811
 9376SOL     OW29026   3.190   3.471   0.166
 9376SOL    HW129027   3.094   3.489   0.188
 9376SOL    HW229028   3.230   3.410   0.234
 9377SOL     OW29029   0.952   0.385   3.378
 9377SOL    HW129030   0.928   0.360   3.284
 9377SOL    HW229031   0.891   0.336   3.441
 9378SOL     OW29032   3.745   1.534   5.233
 9378SOL    HW129033   3.800   1.450   5.227
 9378SOL    HW229034   3.790   1.599   5.295
 9379SOL     OW29035   4.057   0.173   4.573
 9379SOL    HW129036   4.005   0.257   4.560
 9379SOL    HW229037   4.046   0.140   4.666
 9380SOL     OW29038   4.872   6.084   1.173
 9380SOL    HW129039   4.832   6.045   1.090
 9380SOL    HW229040   4.935   6.018   1.214
 9381SOL     OW29041   5.471   0.855   4.741
 9381SOL    HW129042   5.456   0.794   4.820
 9381SOL    HW229043   5.455   0.949   4.769
 9382SOL     OW29044   3.203   5.474   6.378
 9382SOL    HW129045   3.253   5.400   6.422
 9382SOL    HW229046   3.113   5.442   6.350
 9383SOL     OW29047   6.293   3.910   1.407
 9383SOL    HW129048   6.239   3.854   1.470
 9383SOL    HW229049   6.247   3.998   1.395
 9384SOL     OW29050   3.522   6.858   0.772
 9384SOL    HW129051   3.561   6.807   0.849
 9384SOL    HW229052   3.519   6.955   0.796
 9385SOL     OW29053   4.130   2.256   4.026
 9385SOL    HW129054   4.222   2.288   4.002
 9385SOL    HW229055   4.069   2.335   4.035
 9386SOL     OW29056   5.520   6.806   1.053
 9386SOL    HW129057   5.593   6.774   0.993
 9386SOL    HW229058   5.553   6.805   1.148
 9387SOL     OW29059   2.227   2.078   6.698
 9387SOL    HW129060   2.138   2.112   6.670
 9387SOL    HW229061   2.272   2.147   6.755
 9388SOL     OW29062   2.439   6.666   4.646
 9388SOL    HW129063   2.385   6.738   4.603
 9388SOL    HW229064   2.426   6.580   4.598
 9389SOL     OW29065   2.226   4.008   2.152
 9389SOL    HW129066   2.237   3.988   2.250
 9389SOL    HW229067   2.186   3.929   2.106
 9390SOL     OW29068   5.896   5.177   3.740
 9390SOL    HW129069   5.843   5.142   3.663
 9390SOL    HW229070   5.851   5.151   3.826
 9391SOL     OW29071   0.752   4.700   3.985
 9391SOL    HW129072   0.817   4.643   3.935
 9391SOL    HW229073   0.789   4.722   4.075
 9392SOL     OW29074   4.081   5.082   2.356
 9392SOL    HW129075   3.992   5.126   2.368
 9392SOL    HW229076   4.083   5.035   2.267
 9393SOL     OW29077   1.872   5.180   6.763
 9393SOL    HW129078   1.779   5.187   6.728
 9393SOL    HW229079   1.876   5.220   6.855
 9394SOL     OW29080   4.467   0.487   6.825
 9394SOL    HW129081   4.488   0.504   6.922
 9394SOL    HW229082   4.504   0.562   6.770
 9395SOL     OW29083   1.107   1.538   1.506
 9395SOL    HW129084   1.152   1.616   1.548
 9395SOL    HW229085   1.026   1.513   1.559
 9396SOL     OW29086   1.157   0.637   6.397
 9396SOL    HW129087   1.151   0.711   6.331
 9396SOL    HW229088   1.073   0.634   6.451
 9397SOL     OW29089   3.153   1.640   5.095
 9397SOL    HW129090   3.217   1.565   5.080
 9397SOL    HW229091   3.176   1.687   5.180
 9398SOL     OW29092   6.771   2.041   6.762
 9398SOL    HW129093   6.732   1.956   6.727
 9398SOL    HW229094   6.830   2.082   6.691
 9399SOL     OW29095   1.243   2.262   4.331
 9399SOL    HW129096   1.326   2.286   4.281
 9399SOL    HW229097   1.260   2.265   4.429
 9400SOL     OW29098   6.174   0.965   1.272
 9400SOL    HW129099   6.199   0.971   1.368
 9400SOL    HW229100   6.076   0.943   1.264
 9401SOL     OW29101   0.242   1.873   3.222
 9401SOL    HW129102   0.330   1.918   3.208
 9401SOL    HW229103   0.174   1.913   3.162
 9402SOL     OW29104   3.299   6.155   5.572
 9402SOL    HW129105   3.264   6.159   5.478
 9402SOL    HW229106   3.385   6.104   5.573
 9403SOL     OW29107   5.259   1.880   1.213
 9403SOL    HW129108   5.291   1.788   1.191
 9403SOL    HW229109   5.186   1.874   1.281
 9404SOL     OW29110   2.440   2.683   0.619
 9404SOL    HW129111   2.534   2.689   0.586
 9404SOL    HW229112   2.408   2.589   0.613
 9405SOL     OW29113   6.058   5.808   5.073
 9405SOL    HW129114   6.124   5.776   5.142
 9405SOL    HW229115   6.102   5.875   5.014
 9406SOL     OW29116   1.697   1.132   1.227
 9406SOL    HW129117   1.763   1.205   1.205
 9406SOL    HW229118   1.744   1.058   1.274
 9407SOL     OW29119   1.234   4.676   4.619
 9407SOL    HW129120   1.169   4.751   4.629
 9407SOL    HW229121   1.245   4.630   4.707
 9408SOL     OW29122   5.834   4.851   3.642
 9408SOL    HW129123   5.819   4.793   3.562
 9408SOL    HW229124   5.747   4.880   3.680
 9409SOL     OW29125   5.785   5.683   1.594
 9409SOL    HW129126   5.836   5.601   1.620
 9409SOL    HW229127   5.849   5.753   1.562
 9410SOL     OW29128   4.602   0.065   0.365
 9410SOL    HW129129   4.616   0.122   0.284
 9410SOL    HW229130   4.689   0.021   0.390
 9411SOL     OW29131   3.024   3.460   3.909
 9411SOL    HW129132   2.967   3.540   3.930
 9411SOL    HW229133   3.116   3.491   3.884
 9412SOL     OW29134   4.195   7.013   1.511
 9412SOL    HW129135   4.114   0.025   1.556
 9412SOL    HW229136   4.277   0.032   1.545
 9413SOL     OW29137   4.029   4.776   3.552
 9413SOL    HW129138   4.078   4.731   3.477
 9413SOL    HW229139   3.952   4.828   3.515
 9414SOL     OW29140   1.937   0.941   2.098
 9414SOL    HW129141   2.027   0.943   2.141
 9414SOL    HW229142   1.872   0.993   2.153
 9415SOL     OW29143   4.905   0.367   0.882
 9415SOL    HW129144   4.992   0.318   0.879
 9415SOL    HW229145   4.914   0.454   0.832
 9416SOL     OW29146   6.489   4.871   5.484
 9416SOL    HW129147   6.492   4.882   5.384
 9416SOL    HW229148   6.394   4.875   5.515
 9417SOL     OW29149   4.039   6.173   2.960
 9417SOL    HW129150   4.064   6.111   3.035
 9417SOL    HW229151   4.081   6.262   2.976
 9418SOL     OW29152   2.924   2.076   4.599
 9418SOL    HW129153   2.966   2.092   4.688
 9418SOL    HW229154   2.908   2.163   4.553
 9419SOL     OW29155   2.254   2.336   6.303
 9419SOL    HW129156   2.237   2.335   6.205
 9419SOL    HW229157   2.256   2.430   6.336
 9420SOL     OW29158   5.767   3.260   5.829
 9420SOL    HW129159   5.828   3.248   5.750
 9420SOL    HW229160   5.741   3.170   5.865
 9421SOL     OW29161   3.756   6.550   0.354
 9421SOL    HW129162   3.843   6.594   0.334
 9421SOL    HW229163   3.769   6.451   0.362
 9422SOL     OW29164   2.281   6.438   5.947
 9422SOL    HW129165   2.334   6.439   5.862
 9422SOL    HW229166   2.224   6.355   5.949
 9423SOL     OW29167   4.688   5.091   0.537
 9423SOL    HW129168   4.775   5.041   0.538
 9423SOL    HW229169   4.616   5.031   0.500
 9424SOL     OW29170   6.165   0.004   3.367
 9424SOL    HW129171   6.208   6.996   3.451
 9424SOL    HW229172   6.117   6.956   3.321
 9425SOL     OW29173   6.698   5.648   1.023
 9425SOL    HW129174   6.776   5.598   1.062
 9425SOL    HW229175   6.704   5.744   1.049
 9426SOL     OW29176   4.172   2.106   6.425
 9426SOL    HW129177   4.123   2.069   6.345
 9426SOL    HW229178   4.198   2.030   6.485
 9427SOL     OW29179   3.930   5.594   2.247
 9427SOL    HW129180   3.858   5.609   2.316
 9427SOL    HW229181   3.985   5.515   2.273
 9428SOL     OW29182   0.365   6.263   4.834
 9428SOL    HW129183   0.309   6.224   4.760
 9428SOL    HW229184   0.455   6.220   4.834
 9429SOL     OW29185   2.988   2.230   3.926
 9429SOL    HW129186   3.031   2.145   3.894
 9429SOL    HW229187   3.058   2.302   3.934
 9430SOL     OW29188   1.327   6.946   4.001
 9430SOL    HW129189   1.299   6.880   3.931
 9430SOL    HW229190   1.280   0.006   3.986
 9431SOL     OW29191   1.435   5.263   4.699
 9431SOL    HW129192   1.353   5.312   4.727
 9431SOL    HW229193   1.423   5.165   4.717
 9432SOL     OW29194   6.850   1.275   3.188
 9432SOL    HW129195   6.798   1.356   3.163
 9432SOL    HW229196   6.913   1.297   3.263
 9433SOL     OW29197   3.876   5.386   1.826
 9433SOL    HW129198   3.799   5.362   1.885
 9433SOL    HW229199   3.902   5.481   1.841
 9434SOL     OW29200   4.842   5.631   5.428
 9434SOL    HW129201   4.794   5.593   5.349
 9434SOL    HW229202   4.802   5.719   5.453
 9435SOL     OW29203   6.470   3.978   6.553
 9435SOL    HW129204   6.521   3.974   6.468
 9435SOL    HW229205   6.373   3.964   6.534
 9436SOL     OW29206   2.906   1.996   2.441
 9436SOL    HW129207   2.986   1.937   2.454
 9436SOL    HW229208   2.933   2.092   2.455
 9437SOL     OW29209   4.951   1.415   4.013
 9437SOL    HW129210   4.880   1.347   4.033
 9437SOL    HW229211   4.961   1.476   4.091
 9438SOL     OW29212   5.500   0.480   2.944
 9438SOL    HW129213   5.559   0.561   2.940
 9438SOL    HW229214   5.439   0.486   3.023
 9439SOL     OW29215   1.973   4.714   1.201
 9439SOL    HW129216   1.950   4.717   1.298
 9439SOL    HW229217   2.072   4.728   1.190
 9440SOL     OW29218   2.038   5.571   5.372
 9440SOL    HW129219   2.033   5.615   5.282
 9440SOL    HW229220   2.097   5.491   5.366
 9441SOL     OW29221   6.646   6.110   3.821
 9441SOL    HW129222   6.583   6.038   3.850
 9441SOL    HW229223   6.698   6.142   3.901
 9442SOL     OW29224   6.360   2.551   0.962
 9442SOL    HW129225   6.441   2.610   0.960
 9442SOL    HW229226   6.370   2.484   1.035
 9443SOL     OW29227   1.748   4.525   1.552
 9443SOL    HW129228   1.769   4.472   1.469
 9443SOL    HW229229   1.684   4.474   1.609
 9444SOL     OW29230   2.172   5.836   5.966
 9444SOL    HW129231   2.126   5.764   6.019
 9444SOL    HW229232   2.106   5.879   5.904
 9445SOL     OW29233   0.777   0.610   4.202
 9445SOL    HW129234   0.815   0.625   4.293
 9445SOL    HW229235   0.678   0.624   4.204
 9446SOL     OW29236   5.480   5.440   3.937
 9446SOL    HW129237   5.524   5.473   3.853
 9446SOL    HW229238   5.412   5.370   3.913
 9447SOL     OW29239   5.681   5.262   2.064
 9447SOL    HW129240   5.634   5.178   2.037
 9447SOL    HW229241   5.620   5.318   2.121
 9448SOL     OW29242   4.692   2.450   6.135
 9448SOL    HW129243   4.778   2.410   6.166
 9448SOL    HW229244   4.624   2.378   6.125
 9449SOL     OW29245   4.769   6.713   2.982
 9449SOL    HW129246   4.742   6.781   2.914
 9449SOL    HW229247   4.846   6.749   3.036
 9450SOL     OW29248   0.860   0.393   2.155
 9450SOL    HW129249   0.774   0.404   2.205
 9450SOL    HW229250   0.881   0.477   2.105
 9451SOL     OW29251   3.985   5.523   0.648
 9451SOL    HW129252   3.891   5.507   0.678
 9451SOL    HW229253   3.991   5.509   0.549
 9452SOL     OW29254   6.163   3.039   6.216
 9452SOL    HW129255   6.242   3.095   6.239
 9452SOL    HW229256   6.161   3.023   6.117
 9453SOL     OW29257   6.951   4.862   2.330
 9453SOL    HW129258   6.920   4.887   2.238
 9453SOL    HW229259   6.872   4.847   2.389
 9454SOL     OW29260   5.135   5.413   0.432
 9454SOL    HW129261   5.221   5.438   0.475
 9454SOL    HW229262   5.107   5.322   0.463
 9455SOL     OW29263   4.851   0.584   1.664
 9455SOL    HW129264   4.792   0.665   1.659
 9455SOL    HW229265   4.842   0.532   1.579
 9456SOL     OW29266   6.637   2.961   2.190
 9456SOL    HW129267   6.621   2.871   2.150
 9456SOL    HW229268   6.725   2.961   2.239
 9457SOL     OW29269   6.678   6.456   4.411
 9457SOL    HW129270   6.694   6.357   4.421
 9457SOL    HW229271   6.616   6.487   4.482
 9458SOL     OW29272   0.004   4.309   0.088
 9458SOL    HW129273   0.046   4.389   0.132
 9458SOL    HW229274   6.973   4.340   0.013
 9459SOL     OW29275   5.064   4.567   5.204
 9459SOL    HW129276   5.026   4.611   5.123
 9459SOL    HW229277   5.154   4.607   5.224
 9460SOL     OW29278   1.996   2.880   3.021
 9460SOL    HW129279   1.957   2.804   3.074
 9460SOL    HW229280   2.085   2.905   3.060
 9461SOL     OW29281   1.776   1.835   1.421
 9461SOL    HW129282   1.738   1.777   1.350
 9461SOL    HW229283   1.817   1.917   1.378
 9462SOL     OW29284   0.077   1.132   5.516
 9462SOL    HW129285   0.126   1.178   5.442
 9462SOL    HW229286   0.079   1.033   5.502
 9463SOL     OW29287   6.795   5.447   0.465
 9463SOL    HW129288   6.703   5.473   0.496
 9463SOL    HW229289   6.842   5.399   0.538
 9464SOL     OW29290   1.440   0.389   2.365
 9464SOL    HW129291   1.484   0.465   2.317
 9464SOL    HW229292   1.503   0.312   2.371
 9465SOL     OW29293   0.232   6.055   0.185
 9465SOL    HW129294   0.206   5.994   0.261
 9465SOL    HW229295   0.316   6.022   0.143
 9466SOL     OW29296   4.236   4.173   5.966
 9466SOL    HW129297   4.226   4.255   5.909
 9466SOL    HW229298   4.170   4.177   6.041
 9467SOL     OW29299   1.391   3.858   1.263
 9467SOL    HW129300   1.397   3.886   1.359
 9467SOL    HW229301   1.295   3.852   1.236
 9468SOL     OW29302   6.555   1.620   1.297
 9468SOL    HW129303   6.634   1.603   1.356
 9468SOL    HW229304   6.471   1.610   1.350
 9469SOL     OW29305   6.393   6.485   1.800
 9469SOL    HW129306   6.447   6.440   1.729
 9469SOL    HW229307   6.338   6.416   1.847
 9470SOL     OW29308   3.804   3.502   1.178
 9470SOL    HW129309   3.848   3.547   1.256
 9470SOL    HW229310   3.872   3.485   1.107
 9471SOL     OW29311   6.424   3.386   4.374
 9471SOL    HW129312   6.351   3.453   4.362
 9471SOL    HW229313   6.491   3.396   4.300
 9472SOL     OW29314   2.394   3.960   6.207
 9472SOL    HW129315   2.299   3.991   6.205
 9472SOL    HW229316   2.414   3.909   6.123
 9473SOL     OW29317   3.005   3.149   1.641
 9473SOL    HW129318   2.929   3.211   1.623
 9473SOL    HW229319   2.974   3.055   1.629
 9474SOL     OW29320   6.401   4.260   0.732
 9474SOL    HW129321   6.334   4.332   0.747
 9474SOL    HW229322   6.356   4.181   0.690
 9475SOL     OW29323   6.071   3.446   6.997
 9475SOL    HW129324   6.086   3.458   6.898
 9475SOL    HW229325   6.036   3.531   0.009
 9476SOL     OW29326   3.640   4.049   0.860
 9476SOL    HW129327   3.628   3.970   0.800
 9476SOL    HW229328   3.723   4.098   0.834
 9477SOL     OW29329   1.477   5.931   0.535
 9477SOL    HW129330   1.457   5.839   0.567
 9477SOL    HW229331   1.403   5.993   0.561
 9478SOL     OW29332   7.000   3.337   5.566
 9478SOL    HW129333   6.913   3.385   5.556
 9478SOL    HW229334   0.046   3.393   5.526
 9479SOL     OW29335   4.666   1.041   1.941
 9479SOL    HW129336   4.693   1.111   2.006
 9479SOL    HW229337   4.570   1.052   1.917
 9480SOL     OW29338   5.422   0.464   0.684
 9480SOL    HW129339   5.463   0.460   0.776
 9480SOL    HW229340   5.394   0.558   0.664
 9481SOL     OW29341   4.519   0.070   3.787
 9481SOL    HW129342   4.440   0.109   3.834
 9481SOL    HW229343   4.504   6.999   3.771
 9482SOL     OW29344   6.245   4.472   5.708
 9482SOL    HW129345   6.179   4.398   5.718
 9482SOL    HW229346   6.326   4.440   5.659
 9483SOL     OW29347   6.369   5.137   6.615
 9483SOL    HW129348   6.377   5.156   6.517
 9483SOL    HW229349   6.333   5.045   6.628
 9484SOL     OW29350   1.637   5.794   4.129
 9484SOL    HW129351   1.568   5.721   4.134
 9484SOL    HW229352   1.663   5.808   4.034
 9485SOL     OW29353   0.537   1.210   5.246
 9485SOL    HW129354   0.605   1.283   5.245
 9485SOL    HW229355   0.555   1.149   5.323
 9486SOL     OW29356   6.864   5.618   6.459
 9486SOL    HW129357   6.829   5.532   6.424
 9486SOL    HW229358   6.800   5.655   6.527
 9487SOL     OW29359   3.176   3.133   3.316
 9487SOL    HW129360   3.214   3.224   3.334
 9487SOL    HW229361   3.204   3.103   3.225
 9488SOL     OW29362   0.888   0.895   2.534
 9488SOL    HW129363   0.892   0.966   2.464
 9488SOL    HW229364   0.973   0.843   2.533
 9489SOL     OW29365   6.864   4.259   6.686
 9489SOL    HW129366   6.877   4.197   6.608
 9489SOL    HW229367   6.909   4.346   6.667
 9490SOL     OW29368   5.655   3.555   5.202
 9490SOL    HW129369   5.711   3.495   5.259
 9490SOL    HW229370   5.685   3.650   5.213
 9491SOL     OW29371   4.792   6.712   1.864
 9491SOL    HW129372   4.829   6.792   1.817
 9491SOL    HW229373   4.736   6.741   1.941
 9492SOL     OW29374   4.933   3.167   3.896
 9492SOL    HW129375   5.020   3.209   3.921
 9492SOL    HW229376   4.889   3.221   3.824
 9493SOL     OW29377   3.088   6.244   2.256
 9493SOL    HW129378   3.050   6.154   2.235
 9493SOL    HW229379   3.047   6.312   2.196
 9494SOL     OW29380   5.005   2.351   2.651
 9494SOL    HW129381   4.913   2.317   2.669
 9494SOL    HW229382   5.071   2.279   2.669
 9495SOL     OW29383   5.162   3.440   1.192
 9495SOL    HW129384   5.091   3.507   1.172
 9495SOL    HW229385   5.195   3.453   1.285
 9496SOL     OW29386   6.286   3.224   1.255
 9496SOL    HW129387   6.224   3.266   1.189
 9496SOL    HW229388   6.233   3.191   1.334
 9497SOL     OW29389   4.850   4.074   4.955
 9497SOL    HW129390   4.832   4.077   4.857
 9497SOL    HW229391   4.879   4.164   4.987
 9498SOL     OW29392   0.898   6.245   5.891
 9498SOL    HW129393   0.878   6.147   5.886
 9498SOL    HW229394   0.994   6.258   5.918
 9499SOL     OW29395   5.656   6.677   3.780
 9499SOL    HW129396   5.641   6.772   3.753
 9499SOL    HW229397   5.672   6.621   3.699
 9500SOL     OW29398   2.957   1.953   0.705
 9500SOL    HW129399   2.910   1.987   0.624
 9500SOL    HW229400   3.029   2.018   0.732
 9501SOL     OW29401   1.605   3.467   5.440
 9501SOL    HW129402   1.565   3.476   5.531
 9501SOL    HW229403   1.705   3.476   5.446
 9502SOL     OW29404   5.802   4.301   4.068
 9502SOL    HW129405   5.766   4.394   4.068
 9502SOL    HW229406   5.849   4.284   4.154
 9503SOL     OW29407   6.340   1.144   0.039
 9503SOL    HW129408   6.349   1.199   0.122
 9503SOL    HW229409   6.254   1.167   7.020
 9504SOL     OW29410   6.541   5.070   2.748
 9504SOL    HW129411   6.544   5.024   2.836
 9504SOL    HW229412   6.621   5.129   2.738
 9505SOL     OW29413   4.630   3.119   0.071
 9505SOL    HW129414   4.576   3.099   7.015
 9505SOL    HW229415   4.719   3.156   0.044
 9506SOL     OW29416   3.735   1.465   1.685
 9506SOL    HW129417   3.658   1.402   1.694
 9506SOL    HW229418   3.708   1.543   1.628
 9507SOL     OW29419   6.604   5.996   1.813
 9507SOL    HW129420   6.645   5.938   1.883
 9507SOL    HW229421   6.639   6.089   1.822
 9508SOL     OW29422   5.125   1.174   2.340
 9508SOL    HW129423   5.115   1.094   2.399
 9508SOL    HW229424   5.192   1.237   2.380
 9509SOL     OW29425   5.841   1.600   3.945
 9509SOL    HW129426   5.868   1.505   3.958
 9509SOL    HW229427   5.881   1.656   4.017
 9510SOL     OW29428   1.542   3.765   2.102
 9510SOL    HW129429   1.505   3.812   2.182
 9510SOL    HW229430   1.613   3.822   2.060
 9511SOL     OW29431   0.777   1.692   0.677
 9511SOL    HW129432   0.771   1.781   0.722
 9511SOL    HW229433   0.828   1.629   0.734
 9512SOL     OW29434   6.161   2.809   1.416
 9512SOL    HW129435   6.231   2.773   1.477
 9512SOL    HW229436   6.200   2.825   1.326
 9513SOL     OW29437   4.826   4.006   4.650
 9513SOL    HW129438   4.782   4.090   4.617
 9513SOL    HW229439   4.840   3.943   4.573
 9514SOL     OW29440   3.517   3.463   1.353
 9514SOL    HW129441   3.478   3.516   1.278
 9514SOL    HW229442   3.541   3.371   1.320
 9515SOL     OW29443   6.704   6.212   2.990
 9515SOL    HW129444   6.661   6.150   2.924
 9515SOL    HW229445   6.750   6.286   2.942
 9516SOL     OW29446   0.783   3.522   6.535
 9516SOL    HW129447   0.753   3.602   6.588
 9516SOL    HW229448   0.883   3.520   6.532
 9517SOL     OW29449   1.081   6.299   2.056
 9517SOL    HW129450   1.177   6.272   2.066
 9517SOL    HW229451   1.066   6.385   2.104
 9518SOL     OW29452   0.385   0.421   1.373
 9518SOL    HW129453   0.292   0.438   1.342
 9518SOL    HW229454   0.444   0.397   1.295
 9519SOL     OW29455   1.776   2.796   5.873
 9519SOL    HW129456   1.859   2.758   5.833
 9519SOL    HW229457   1.705   2.803   5.802
 9520SOL     OW29458   4.407   6.901   2.086
 9520SOL    HW129459   4.398   7.001   2.081
 9520SOL    HW229460   4.340   6.865   2.149
 9521SOL     OW29461   5.215   4.900   3.338
 9521SOL    HW129462   5.271   4.980   3.361
 9521SOL    HW229463   5.268   4.817   3.355
 9522SOL     OW29464   3.395   5.179   5.834
 9522SOL    HW129465   3.477   5.123   5.846
 9522SOL    HW229466   3.319   5.138   5.884
 9523SOL     OW29467   1.476   0.144   4.980
 9523SOL    HW129468   1.442   0.088   5.056
 9523SOL    HW229469   1.510   0.231   5.017
 9524SOL     OW29470   6.222   3.279   0.473
 9524SOL    HW129471   6.231   3.216   0.396
 9524SOL    HW229472   6.261   3.368   0.448
 9525SOL     OW29473   3.851   0.220   4.258
 9525SOL    HW129474   3.888   0.132   4.286
 9525SOL    HW229475   3.752   0.221   4.270
 9526SOL     OW29476   4.744   5.315   0.391
 9526SOL    HW129477   4.722   5.245   0.459
 9526SOL    HW229478   4.798   5.274   0.317
 9527SOL     OW29479   6.882   1.659   0.591
 9527SOL    HW129480   6.953   1.683   0.524
 9527SOL    HW229481   6.906   1.697   0.680
 9528SOL     OW29482   5.776   1.138   1.466
 9528SOL    HW129483   5.801   1.042   1.455
 9528SOL    HW229484   5.704   1.162   1.401
 9529SOL     OW29485   1.969   2.737   5.688
 9529SOL    HW129486   1.982   2.817   5.629
 9529SOL    HW229487   2.017   2.659   5.649
 9530SOL     OW29488   2.027   1.203   3.803
 9530SOL    HW129489   2.107   1.263   3.810
 9530SOL    HW229490   1.944   1.259   3.801
 9531SOL     OW29491   2.464   6.095   4.151
 9531SOL    HW129492   2.437   6.162   4.220
 9531SOL    HW229493   2.432   6.125   4.061
 9532SOL     OW29494   3.482   1.324   1.723
 9532SOL    HW129495   3.499   1.226   1.718
 9532SOL    HW229496   3.386   1.343   1.704
 9533SOL     OW29497   0.330   1.789   4.330
 9533SOL    HW129498   0.294   1.696   4.318
 9533SOL    HW229499   0.280   1.834   4.405
 9534SOL     OW29500   5.445   1.186   4.127
 9534SOL    HW129501   5.515   1.258   4.127
 9534SOL    HW229502   5.365   1.216   4.075
 9535SOL     OW29503   2.694   1.482   4.665
 9535SOL    HW129504   2.685   1.574   4.702
 9535SOL    HW229505   2.628   1.468   4.592
 9536SOL     OW29506   2.164   5.720   6.951
 9536SOL    HW129507   2.205   5.729   0.015
 9536SOL    HW229508   2.203   5.788   6.889
 9537SOL     OW29509   2.018   7.026   0.342
 9537SOL    HW129510   1.950   6.955   0.327
 9537SOL    HW229511   2.071   7.005   0.424
 9538SOL     OW29512   5.756   4.183   2.732
 9538SOL    HW129513   5.769   4.103   2.674
 9538SOL    HW229514   5.819   4.179   2.810
 9539SOL     OW29515   0.816   3.656   6.933
 9539SOL    HW129516   0.893   3.593   6.920
 9539SOL    HW229517   0.851   3.744   6.965
 9540SOL     OW29518   5.772   3.048   5.243
 9540SOL    HW129519   5.791   3.122   5.308
 9540SOL    HW229520   5.677   3.055   5.212
 9541SOL     OW29521   6.334   2.071   3.508
 9541SOL    HW129522   6.372   2.138   3.443
 9541SOL    HW229523   6.237   2.056   3.487
 9542SOL     OW29524   4.949   3.587   4.538
 9542SOL    HW129525   4.979   3.493   4.555
 9542SOL    HW229526   4.916   3.628   4.623
 9543SOL     OW29527   4.394   1.951   0.494
 9543SOL    HW129528   4.312   1.893   0.492
 9543SOL    HW229529   4.384   2.024   0.426
 9544SOL     OW29530   5.226   0.186   1.491
 9544SOL    HW129531   5.157   0.231   1.435
 9544SOL    HW229532   5.185   0.109   1.541
 9545SOL     OW29533   1.368   6.715   4.565
 9545SOL    HW129534   1.295   6.649   4.584
 9545SOL    HW229535   1.328   6.803   4.542
 9546SOL     OW29536   2.916   3.784   1.621
 9546SOL    HW129537   2.988   3.741   1.674
 9546SOL    HW229538   2.913   3.745   1.529
 9547SOL     OW29539   5.363   6.379   2.452
 9547SOL    HW129540   5.444   6.323   2.470
 9547SOL    HW229541   5.352   6.390   2.353
 9548SOL     OW29542   6.167   6.526   2.064
 9548SOL    HW129543   6.077   6.483   2.073
 9548SOL    HW229544   6.235   6.472   2.112
 9549SOL     OW29545   1.967   5.933   7.006
 9549SOL    HW129546   1.962   5.966   0.074
 9549SOL    HW229547   1.982   5.834   7.006
 9550SOL     OW29548   1.702   0.395   0.560
 9550SOL    HW129549   1.769   0.456   0.517
 9550SOL    HW229550   1.640   0.359   0.490
 9551SOL     OW29551   1.380   5.710   4.690
 9551SOL    HW129552   1.376   5.694   4.789
 9551SOL    HW229553   1.346   5.803   4.671
 9552SOL     OW29554   6.744   5.263   2.829
 9552SOL    HW129555   6.712   5.357   2.827
 9552SOL    HW229556   6.835   5.258   2.787
 9553SOL     OW29557   6.105   4.371   6.776
 9553SOL    HW129558   6.073   4.312   6.702
 9553SOL    HW229559   6.140   4.456   6.738
 9554SOL     OW29560   1.814   2.436   1.697
 9554SOL    HW129561   1.755   2.389   1.631
 9554SOL    HW229562   1.874   2.369   1.741
 9555SOL     OW29563   6.991   2.495   6.578
 9555SOL    HW129564   6.946   2.512   6.490
 9555SOL    HW229565   6.928   2.517   6.652
 9556SOL     OW29566   6.260   7.009   1.335
 9556SOL    HW129567   6.253   0.008   1.431
 9556SOL    HW229568   6.177   6.960   1.307
 9557SOL     OW29569   5.243   2.032   1.806
 9557SOL    HW129570   5.237   2.106   1.873
 9557SOL    HW229571   5.321   1.974   1.828
 9558SOL     OW29572   6.936   3.866   1.429
 9558SOL    HW129573   6.898   3.954   1.458
 9558SOL    HW229574   6.862   3.807   1.397
 9559SOL     OW29575   0.816   4.929   3.330
 9559SOL    HW129576   0.827   4.937   3.231
 9559SOL    HW229577   0.733   4.878   3.350
 9560SOL     OW29578   3.895   1.823   6.011
 9560SOL    HW129579   3.854   1.908   5.977
 9560SOL    HW229580   3.823   1.755   6.025
 9561SOL     OW29581   3.428   4.949   6.972
 9561SOL    HW129582   3.387   5.038   6.951
 9561SOL    HW229583   3.398   4.882   6.904
 9562SOL     OW29584   6.583   5.438   4.087
 9562SOL    HW129585   6.680   5.449   4.111
 9562SOL    HW229586   6.564   5.342   4.068
 9563SOL     OW29587   0.586   0.471   6.174
 9563SOL    HW129588   0.541   0.382   6.186
 9563SOL    HW229589   0.640   0.469   6.090
 9564SOL     OW29590   0.625   0.501   5.859
 9564SOL    HW129591   0.721   0.502   5.888
 9564SOL    HW229592   0.589   0.408   5.863
 9565SOL     OW29593   2.671   5.387   5.326
 9565SOL    HW129594   2.747   5.332   5.291
 9565SOL    HW229595   2.595   5.327   5.351
 9566SOL     OW29596   2.282   5.775   5.126
 9566SOL    HW129597   2.196   5.823   5.144
 9566SOL    HW229598   2.356   5.822   5.174
 9567SOL     OW29599   6.294   5.315   4.091
 9567SOL    HW129600   6.257   5.370   4.016
 9567SOL    HW229601   6.281   5.363   4.178
 9568SOL     OW29602   6.047   3.526   5.452
 9568SOL    HW129603   6.091   3.445   5.491
 9568SOL    HW229604   6.117   3.592   5.425
 9569SOL     OW29605   5.199   7.024   1.063
 9569SOL    HW129606   5.209   6.973   0.977
 9569SOL    HW229607   5.287   0.038   1.088
 9570SOL     OW29608   0.333   2.765   6.655
 9570SOL    HW129609   0.343   2.809   6.744
 9570SOL    HW229610   0.339   2.834   6.583
 9571SOL     OW29611   3.579   1.723   0.418
 9571SOL    HW129612   3.607   1.700   0.325
 9571SOL    HW229613   3.638   1.795   0.454
 9572SOL     OW29614   0.747   3.476   0.811
 9572SOL    HW129615   0.653   3.465   0.843
 9572SOL    HW229616   0.754   3.558   0.755
 9573SOL     OW29617   4.803   2.169   1.983
 9573SOL    HW129618   4.727   2.233   1.993
 9573SOL    HW229619   4.774   2.078   2.013
 9574SOL     OW29620   1.752   1.534   4.064
 9574SOL    HW129621   1.670   1.593   4.064
 9574SOL    HW229622   1.787   1.526   4.157
 9575SOL     OW29623   3.543   1.668   2.619
 9575SOL    HW129624   3.492   1.639   2.537
 9575SOL    HW229625   3.479   1.680   2.695
 9576SOL     OW29626   4.223   3.143   6.018
 9576SOL    HW129627   4.227   3.047   5.989
 9576SOL    HW229628   4.312   3.186   6.005
 9577SOL     OW29629   0.401   5.118   3.699
 9577SOL    HW129630   0.447   5.053   3.760
 9577SOL    HW229631   0.464   5.145   3.627
 9578SOL     OW29632   6.668   4.528   0.877
 9578SOL    HW129633   6.576   4.560   0.855
 9578SOL    HW229634   6.664   4.468   0.958
 9579SOL     OW29635   1.405   4.854   2.941
 9579SOL    HW129636   1.353   4.908   2.874
 9579SOL    HW229637   1.440   4.772   2.896
 9580SOL     OW29638   3.896   4.128   5.004
 9580SOL    HW129639   3.806   4.162   5.031
 9580SOL    HW229640   3.896   4.109   4.905
 9581SOL     OW29641   0.989   0.114   6.700
 9581SOL    HW129642   0.909   0.150   6.748
 9581SOL    HW229643   0.968   0.024   6.661
 9582SOL     OW29644   4.274   5.927   3.799
 9582SOL    HW129645   4.237   5.842   3.762
 9582SOL    HW229646   4.231   6.005   3.753
 9583SOL     OW29647   0.987   4.609   2.744
 9583SOL    HW129648   1.082   4.638   2.756
 9583SOL    HW229649   0.978   4.560   2.657
 9584SOL     OW29650   5.420   4.144   6.617
 9584SOL    HW129651   5.415   4.199   6.533
 9584SOL    HW229652   5.512   4.152   6.655
 9585SOL     OW29653   6.173   0.928   2.772
 9585SOL    HW129654   6.135   0.938   2.680
 9585SOL    HW229655   6.177   0.831   2.796
 9586SOL     OW29656   4.531   4.426   2.579
 9586SOL    HW129657   4.539   4.460   2.486
 9586SOL    HW229658   4.557   4.329   2.582
 9587SOL     OW29659   4.394   6.337   1.653
 9587SOL    HW129660   4.302   6.334   1.613
 9587SOL    HW229661   4.429   6.244   1.664
 9588SOL     OW29662   6.117   1.321   3.757
 9588SOL    HW129663   6.086   1.401   3.706
 9588SOL    HW229664   6.214   1.331   3.780
 9589SOL     OW29665   4.181   1.912   5.027
 9589SOL    HW129666   4.093   1.865   5.020
 9589SOL    HW229667   4.166   2.004   5.063
 9590SOL     OW29668   0.218   4.851   4.583
 9590SOL    HW129669   0.294   4.786   4.591
 9590SOL    HW229670   0.159   4.843   4.663
 9591SOL     OW29671   6.789   4.542   2.347
 9591SOL    HW129672   6.850   4.505   2.277
 9591SOL    HW229673   6.701   4.564   2.305
 9592SOL     OW29674   4.246   5.408   0.467
 9592SOL    HW129675   4.254   5.503   0.498
 9592SOL    HW229676   4.336   5.376   0.437
 9593SOL     OW29677   2.205   2.434   3.789
 9593SOL    HW129678   2.224   2.357   3.729
 9593SOL    HW229679   2.123   2.482   3.757
 9594SOL     OW29680   5.701   0.031   0.580
 9594SOL    HW129681   5.676   0.128   0.574
 9594SOL    HW229682   5.770   0.019   0.651
 9595SOL     OW29683   2.325   4.853   5.468
 9595SOL    HW129684   2.334   4.922   5.540
 9595SOL    HW229685   2.229   4.843   5.444
 9596SOL     OW29686   5.538   4.948   2.208
 9596SOL    HW129687   5.578   5.021   2.264
 9596SOL    HW229688   5.444   4.932   2.236
 9597SOL     OW29689   1.649   4.221   1.940
 9597SOL    HW129690   1.613   4.310   1.912
 9597SOL    HW229691   1.615   4.199   2.031
 9598SOL     OW29692   0.692   6.313   5.232
 9598SOL    HW129693   0.749   6.279   5.157
 9598SOL    HW229694   0.612   6.361   5.194
 9599SOL     OW29695   3.541   1.802   5.633
 9599SOL    HW129696   3.579   1.713   5.611
 9599SOL    HW229697   3.493   1.839   5.553
 9600SOL     OW29698   1.530   5.632   6.935
 9600SOL    HW129699   1.564   5.539   6.948
 9600SOL    HW229700   1.607   5.694   6.919
 9601SOL     OW29701   1.275   6.976   4.525
 9601SOL    HW129702   1.184   7.006   4.495
 9601SOL    HW229703   1.342   0.020   4.502
 9602SOL     OW29704   0.966   5.625   6.158
 9602SOL    HW129705   0.969   5.722   6.132
 9602SOL    HW229706   0.897   5.578   6.104
 9603SOL     OW29707   1.493   5.261   2.129
 9603SOL    HW129708   1.535   5.176   2.099
 9603SOL    HW229709   1.440   5.245   2.212
 9604SOL     OW29710   6.787   0.783   6.111
 9604SOL    HW129711   6.836   0.696   6.126
 9604SOL    HW229712   6.820   0.825   6.027
 9605SOL     OW29713   3.622   4.353   0.920
 9605SOL    HW129714   3.541   4.371   0.864
 9605SOL    HW229715   3.608   4.269   0.973
 9606SOL     OW29716   6.692   1.906   4.957
 9606SOL    HW129717   6.655   1.962   5.032
 9606SOL    HW229718   6.657   1.940   4.870
 9607SOL     OW29719   6.959   3.160   3.387
 9607SOL    HW129720   0.029   3.151   3.412
 9607SOL    HW229721   6.904   3.099   3.444
 9608SOL     OW29722   5.579   1.040   1.289
 9608SOL    HW129723   5.598   0.976   1.362
 9608SOL    HW229724   5.627   1.013   1.206
 9609SOL     OW29725   1.083   2.065   4.272
 9609SOL    HW129726   1.119   2.024   4.188
 9609SOL    HW229727   1.148   2.133   4.307
 9610SOL     OW29728   4.936   1.121   6.047
 9610SOL    HW129729   4.883   1.168   5.977
 9610SOL    HW229730   4.988   1.189   6.100
 9611SOL     OW29731   4.825   5.742   1.551
 9611SOL    HW129732   4.921   5.767   1.534
 9611SOL    HW229733   4.809   5.648   1.520
 9612SOL     OW29734   4.821   3.815   3.851
 9612SOL    HW129735   4.875   3.738   3.886
 9612SOL    HW229736   4.875   3.866   3.784
 9613SOL     OW29737   5.475   0.804   5.068
 9613SOL    HW129738   5.395   0.847   5.110
 9613SOL    HW229739   5.491   0.714   5.110
 9614SOL     OW29740   3.207   2.419   0.300
 9614SOL    HW129741   3.192   2.494   0.235
 9614SOL    HW229742   3.299   2.382   0.288
 9615SOL     OW29743   6.245   6.464   3.482
 9615SOL    HW129744   6.273   6.545   3.534
 9615SOL    HW229745   6.325   6.414   3.451
 9616SOL     OW29746   0.175   2.152   1.174
 9616SOL    HW129747   0.236   2.231   1.176
 9616SOL    HW229748   0.091   2.174   1.225
 9617SOL     OW29749   0.590   3.722   3.634
 9617SOL    HW129750   0.658   3.649   3.629
 9617SOL    HW229751   0.633   3.805   3.670
 9618SOL     OW29752   5.296   4.195   2.269
 9618SOL    HW129753   5.351   4.114   2.291
 9618SOL    HW229754   5.241   4.177   2.188
 9619SOL     OW29755   1.383   0.611   1.160
 9619SOL    HW129756   1.362   0.697   1.114
 9619SOL    HW229757   1.332   0.607   1.247
 9620SOL     OW29758   4.089   1.229   6.233
 9620SOL    HW129759   4.018   1.273   6.288
 9620SOL    HW229760   4.172   1.216   6.287
 9621SOL     OW29761   6.380   1.237   0.742
 9621SOL    HW129762   6.462   1.228   0.687
 9621SOL    HW229763   6.309   1.176   0.706
 9622SOL     OW29764   6.573   6.515   4.931
 9622SOL    HW129765   6.547   6.587   4.995
 9622SOL    HW229766   6.492   6.461   4.906
 9623SOL     OW29767   2.430   5.892   6.269
 9623SOL    HW129768   2.458   5.988   6.262
 9623SOL    HW229769   2.332   5.884   6.249
 9624SOL     OW29770   4.194   4.862   6.612
 9624SOL    HW129771   4.266   4.824   6.554
 9624SOL    HW229772   4.234   4.893   6.698
 9625SOL     OW29773   5.481   4.641   6.044
 9625SOL    HW129774   5.429   4.580   5.985
 9625SOL    HW229775   5.450   4.630   6.139
 9626SOL     OW29776   2.863   2.712   6.482
 9626SOL    HW129777   2.833   2.660   6.403
 9626SOL    HW229778   2.861   2.655   6.564
 9627SOL     OW29779   6.389   5.887   0.442
 9627SOL    HW129780   6.347   5.819   0.501
 9627SOL    HW229781   6.387   5.976   0.487
 9628SOL     OW29782   6.140   1.619   5.484
 9628SOL    HW129783   6.120   1.521   5.481
 9628SOL    HW229784   6.136   1.651   5.579
 9629SOL     OW29785   0.793   5.735   4.149
 9629SOL    HW129786   0.722   5.668   4.170
 9629SOL    HW229787   0.765   5.788   4.069
 9630SOL     OW29788   6.365   0.214   5.980
 9630SOL    HW129789   6.282   0.242   6.028
 9630SOL    HW229790   6.343   0.192   5.885
 9631SOL     OW29791   4.579   6.324   0.318
 9631SOL    HW129792   4.528   6.278   0.391
 9631SOL    HW229793   4.566   6.275   0.232
 9632SOL     OW29794   2.741   5.861   2.392
 9632SOL    HW129795   2.703   5.818   2.474
 9632SOL    HW229796   2.839   5.876   2.405
 9633SOL     OW29797   3.402   3.067   5.357
 9633SOL    HW129798   3.455   3.025   5.431
 9633SOL    HW229799   3.461   3.126   5.302
 9634SOL     OW29800   6.469   4.680   3.171
 9634SOL    HW129801   6.491   4.589   3.137
 9634SOL    HW229802   6.373   4.701   3.150
 9635SOL     OW29803   0.602   5.332   4.163
 9635SOL    HW129804   0.523   5.286   4.203
 9635SOL    HW229805   0.590   5.431   4.171
 9636SOL     OW29806   5.134   3.774   3.784
 9636SOL    HW129807   5.088   3.702   3.733
 9636SOL    HW229808   5.219   3.739   3.823
 9637SOL     OW29809   3.284   2.852   6.620
 9637SOL    HW129810   3.302   2.759   6.588
 9637SOL    HW229811   3.188   2.875   6.602
 9638SOL     OW29812   0.624   4.620   5.919
 9638SOL    HW129813   0.544   4.676   5.896
 9638SOL    HW229814   0.703   4.652   5.867
 9639SOL     OW29815   5.446   3.083   1.693
 9639SOL    HW129816   5.508   3.009   1.720
 9639SOL    HW229817   5.352   3.052   1.701
 9640SOL     OW29818   3.493   0.233   3.368
 9640SOL    HW129819   3.512   0.216   3.465
 9640SOL    HW229820   3.494   0.146   3.318
 9641SOL     OW29821   0.753   2.423   4.743
 9641SOL    HW129822   0.821   2.471   4.688
 9641SOL    HW229823   0.711   2.350   4.689
 9642SOL     OW29824   0.576   2.616   4.875
 9642SOL    HW129825   0.604   2.623   4.971
 9642SOL    HW229826   0.622   2.539   4.832
 9643SOL     OW29827   6.428   5.216   4.343
 9643SOL    HW129828   6.367   5.294   4.357
 9643SOL    HW229829   6.461   5.217   4.248
 9644SOL     OW29830   0.602   4.736   3.340
 9644SOL    HW129831   0.606   4.636   3.336
 9644SOL    HW229832   0.510   4.767   3.318
 9645SOL     OW29833   0.630   4.955   0.120
 9645SOL    HW129834   0.544   4.926   0.162
 9645SOL    HW229835   0.706   4.904   0.162
 9646SOL     OW29836   2.879   5.040   0.591
 9646SOL    HW129837   2.889   4.964   0.656
 9646SOL    HW229838   2.790   5.083   0.604
 9647SOL     OW29839   5.413   0.141   3.061
 9647SOL    HW129840   5.329   0.154   3.008
 9647SOL    HW229841   5.460   0.059   3.029
 9648SOL     OW29842   3.690   2.268   0.880
 9648SOL    HW129843   3.788   2.286   0.887
 9648SOL    HW229844   3.646   2.289   0.967
 9649SOL     OW29845   0.085   6.044   0.677
 9649SOL    HW129846   0.021   6.061   0.752
 9649SOL    HW229847   0.173   6.087   0.698
 9650SOL     OW29848   6.946   5.746   5.123
 9650SOL    HW129849   6.850   5.752   5.150
 9650SOL    HW229850   6.981   5.655   5.143
 9651SOL     OW29851   3.811   1.360   6.895
 9651SOL    HW129852   3.875   1.412   6.951
 9651SOL    HW229853   3.737   1.421   6.864
 9652SOL     OW29854   0.166   3.796   0.521
 9652SOL    HW129855   0.248   3.829   0.472
 9652SOL    HW229856   0.188   3.783   0.617
 9653SOL     OW29857   5.837   3.767   5.284
 9653SOL    HW129858   5.883   3.843   5.329
 9653SOL    HW229859   5.866   3.762   5.189
 9654SOL     OW29860   4.136   3.483   4.921
 9654SOL    HW129861   4.235   3.488   4.935
 9654SOL    HW229862   4.117   3.474   4.823
 9655SOL     OW29863   4.649   0.289   0.862
 9655SOL    HW129864   4.743   0.301   0.892
 9655SOL    HW229865   4.590   0.353   0.910
 9656SOL     OW29866   5.084   4.563   5.813
 9656SOL    HW129867   5.182   4.547   5.818
 9656SOL    HW229868   5.045   4.512   5.737
 9657SOL     OW29869   5.064   5.368   2.607
 9657SOL    HW129870   5.023   5.350   2.697
 9657SOL    HW229871   5.102   5.283   2.570
 9658SOL     OW29872   5.419   1.024   2.995
 9658SOL    HW129873   5.372   1.084   2.931
 9658SOL    HW229874   5.407   1.059   3.088
 9659SOL     OW29875   3.698   3.204   0.591
 9659SOL    HW129876   3.731   3.154   0.671
 9659SOL    HW229877   3.627   3.151   0.545
 9660SOL     OW29878   2.589   6.813   1.671
 9660SOL    HW129879   2.518   6.805   1.601
 9660SOL    HW229880   2.598   6.727   1.721
 9661SOL     OW29881   4.060   3.789   2.194
 9661SOL    HW129882   3.984   3.726   2.214
 9661SOL    HW229883   4.068   3.856   2.267
 9662SOL     OW29884   4.092   0.510   4.844
 9662SOL    HW129885   4.159   0.462   4.901
 9662SOL    HW229886   4.003   0.464   4.853
 9663SOL     OW29887   1.315   5.918   2.647
 9663SOL    HW129888   1.274   6.003   2.614
 9663SOL    HW229889   1.409   5.936   2.676
 9664SOL     OW29890   2.234   4.416   3.083
 9664SOL    HW129891   2.240   4.463   3.171
 9664SOL    HW229892   2.324   4.413   3.040
 9665SOL     OW29893   6.293   3.679   6.479
 9665SOL    HW129894   6.265   3.596   6.528
 9665SOL    HW229895   6.391   3.676   6.461
 9666SOL     OW29896   5.074   4.300   0.763
 9666SOL    HW129897   4.993   4.345   0.799
 9666SOL    HW229898   5.136   4.276   0.838
 9667SOL     OW29899   6.133   6.287   6.857
 9667SOL    HW129900   6.151   6.384   6.869
 9667SOL    HW229901   6.039   6.274   6.825
 9668SOL     OW29902   2.297   0.271   0.566
 9668SOL    HW129903   2.378   0.324   0.590
 9668SOL    HW229904   2.260   0.304   0.479
 9669SOL     OW29905   3.465   0.027   0.137
 9669SOL    HW129906   3.496   6.959   0.142
 9669SOL    HW229907   3.391   0.035   0.071
 9670SOL     OW29908   0.951   0.034   2.455
 9670SOL    HW129909   0.861   0.065   2.424
 9670SOL    HW229910   1.022   0.085   2.406
 9671SOL     OW29911   0.968   6.144   6.223
 9671SOL    HW129912   0.995   6.142   6.319
 9671SOL    HW229913   0.881   6.192   6.214
 9672SOL     OW29914   0.710   4.833   5.322
 9672SOL    HW129915   0.715   4.918   5.269
 9672SOL    HW229916   0.651   4.768   5.275
 9673SOL     OW29917   2.368   2.989   5.653
 9673SOL    HW129918   2.382   2.934   5.570
 9673SOL    HW229919   2.453   3.038   5.675
 9674SOL     OW29920   1.650   0.150   3.695
 9674SOL    HW129921   1.606   0.149   3.785
 9674SOL    HW229922   1.746   0.175   3.705
 9675SOL     OW29923   6.465   3.888   6.042
 9675SOL    HW129924   6.532   3.929   5.981
 9675SOL    HW229925   6.412   3.960   6.087
 9676SOL     OW29926   0.804   2.850   6.306
 9676SOL    HW129927   0.813   2.802   6.394
 9676SOL    HW229928   0.717   2.899   6.304
 9677SOL     OW29929   0.435   5.103   2.727
 9677SOL    HW129930   0.390   5.016   2.747
 9677SOL    HW229931   0.467   5.144   2.813
 9678SOL     OW29932   4.843   3.437   6.294
 9678SOL    HW129933   4.867   3.384   6.213
 9678SOL    HW229934   4.878   3.391   6.376
 9679SOL     OW29935   1.772   1.080   4.739
 9679SOL    HW129936   1.807   1.171   4.761
 9679SOL    HW229937   1.722   1.083   4.652
 9680SOL     OW29938   4.641   0.156   2.266
 9680SOL    HW129939   4.553   0.152   2.219
 9680SOL    HW229940   4.703   0.089   2.224
 9681SOL     OW29941   0.348   2.668   1.371
 9681SOL    HW129942   0.374   2.751   1.422
 9681SOL    HW229943   0.383   2.588   1.419
 9682SOL     OW29944   3.844   6.244   5.133
 9682SOL    HW129945   3.773   6.196   5.081
 9682SOL    HW229946   3.913   6.177   5.163
 9683SOL     OW29947   3.151   5.822   3.691
 9683SOL    HW129948   3.196   5.905   3.661
 9683SOL    HW229949   3.058   5.820   3.654
 9684SOL     OW29950   1.140   2.596   6.403
 9684SOL    HW129951   1.201   2.518   6.387
 9684SOL    HW229952   1.191   2.681   6.389
 9685SOL     OW29953   3.713   4.519   1.642
 9685SOL    HW129954   3.668   4.581   1.706
 9685SOL    HW229955   3.690   4.546   1.548
 9686SOL     OW29956   0.778   1.574   5.902
 9686SOL    HW129957   0.801   1.672   5.895
 9686SOL    HW229958   0.841   1.531   5.967
 9687SOL     OW29959   5.685   0.693   4.114
 9687SOL    HW129960   5.737   0.615   4.078
 9687SOL    HW229961   5.598   0.661   4.151
 9688SOL     OW29962   0.465   5.363   2.391
 9688SOL    HW129963   0.422   5.453   2.394
 9688SOL    HW229964   0.546   5.366   2.333
 9689SOL     OW29965   1.721   5.367   1.263
 9689SOL    HW129966   1.787   5.377   1.189
 9689SOL    HW229967   1.685   5.457   1.288
 9690SOL     OW29968   6.331   4.784   4.518
 9690SOL    HW129969   6.428   4.780   4.496
 9690SOL    HW229970   6.277   4.751   4.441
 9691SOL     OW29971   3.841   3.616   2.286
 9691SOL    HW129972   3.769   3.632   2.219
 9691SOL    HW229973   3.825   3.673   2.366
 9692SOL     OW29974   5.818   5.010   0.564
 9692SOL    HW129975   5.803   5.018   0.663
 9692SOL    HW229976   5.867   4.925   0.545
 9693SOL     OW29977   4.515   3.175   6.703
 9693SOL    HW129978   4.564   3.102   6.750
 9693SOL    HW229979   4.464   3.137   6.626
 9694SOL     OW29980   2.929   6.200   0.923
 9694SOL    HW129981   3.018   6.239   0.947
 9694SOL    HW229982   2.907   6.223   0.828
 9695SOL     OW29983   2.117   2.621   3.483
 9695SOL    HW129984   2.058   2.691   3.442
 9695SOL    HW229985   2.091   2.607   3.579
 9696SOL     OW29986   4.958   4.002   3.450
 9696SOL    HW129987   4.912   4.038   3.532
 9696SOL    HW229988   4.891   3.991   3.377
 9697SOL     OW29989   6.357   7.018   2.260
 9697SOL    HW129990   6.299   7.009   2.341
 9697SOL    HW229991   6.451   0.008   2.287
 9698SOL     OW29992   6.910   2.924   1.097
 9698SOL    HW129993   6.971   2.901   1.173
 9698SOL    HW229994   6.847   2.997   1.126
 9699SOL     OW29995   1.553   6.872   2.309
 9699SOL    HW129996   1.526   6.827   2.394
 9699SOL    HW229997   1.561   6.803   2.237
 9700SOL     OW29998   6.221   0.480   5.719
 9700SOL    HW129999   6.177   0.390   5.715
 9700SOL    HW230000   6.319   0.470   5.703
 9701SOL     OW30001   5.984   3.955   6.635
 9701SOL    HW130002   5.974   3.905   6.721
 9701SOL    HW230003   5.909   3.931   6.574
 9702SOL     OW30004   3.060   3.640   1.800
 9702SOL    HW130005   3.133   3.578   1.829
 9702SOL    HW230006   2.991   3.646   1.872
 9703SOL     OW30007   7.018   4.624   2.546
 9703SOL    HW130008   6.988   4.552   2.483
 9703SOL    HW230009   0.055   4.685   2.499
 9704SOL     OW30010   0.697   5.047   2.176
 9704SOL    HW130011   0.699   5.062   2.077
 9704SOL    HW230012   0.730   4.955   2.197
 9705SOL     OW30013   0.166   4.270   5.658
 9705SOL    HW130014   0.202   4.178   5.675
 9705SOL    HW230015   0.087   4.264   5.598
 9706SOL     OW30016   0.547   6.689   2.365
 9706SOL    HW130017   0.509   6.776   2.334
 9706SOL    HW230018   0.621   6.661   2.305
 9707SOL     OW30019   1.340   4.657   2.107
 9707SOL    HW130020   1.286   4.634   2.189
 9707SOL    HW230021   1.429   4.693   2.135
 9708SOL     OW30022   2.794   1.024   1.632
 9708SOL    HW130023   2.704   0.994   1.663
 9708SOL    HW230024   2.846   1.058   1.711
 9709SOL     OW30025   4.370   1.578   2.240
 9709SOL    HW130026   4.380   1.482   2.213
 9709SOL    HW230027   4.275   1.606   2.229
 9710SOL     OW30028   5.058   4.542   4.490
 9710SOL    HW130029   4.979   4.593   4.523
 9710SOL    HW230030   5.093   4.585   4.407
 9711SOL     OW30031   2.805   0.173   6.968
 9711SOL    HW130032   2.832   0.088   6.924
 9711SOL    HW230033   2.865   0.247   6.937
 9712SOL     OW30034   4.670   6.722   5.326
 9712SOL    HW130035   4.613   6.662   5.270
 9712SOL    HW230036   4.654   6.818   5.300
 9713SOL     OW30037   1.082   0.640   3.076
 9713SOL    HW130038   1.081   0.629   3.176
 9713SOL    HW230039   1.068   0.737   3.054
 9714SOL     OW30040   2.376   2.591   3.964
 9714SOL    HW130041   2.349   2.620   4.055
 9714SOL    HW230042   2.311   2.522   3.931
 9715SOL     OW30043   6.741   1.601   6.522
 9715SOL    HW130044   6.800   1.537   6.572
 9715SOL    HW230045   6.694   1.552   6.449
 9716SOL     OW30046   1.784   6.274   0.350
 9716SOL    HW130047   1.873   6.281   0.395
 9716SOL    HW230048   1.715   6.246   0.417
 9717SOL     OW30049   4.475   2.085   6.032
 9717SOL    HW130050   4.502   2.072   5.937
 9717SOL    HW230051   4.421   2.006   6.062
 9718SOL     OW30052   2.882   2.176   6.467
 9718SOL    HW130053   2.832   2.119   6.403
 9718SOL    HW230054   2.823   2.200   6.544
 9719SOL     OW30055   4.034   0.081   5.413
 9719SOL    HW130056   4.011   0.113   5.505
 9719SOL    HW230057   3.949   0.065   5.362
 9720SOL     OW30058   2.120   2.459   2.099
 9720SOL    HW130059   2.106   2.456   2.198
 9720SOL    HW230060   2.209   2.502   2.080
 9721SOL     OW30061   0.800   2.136   1.664
 9721SOL    HW130062   0.848   2.222   1.677
 9721SOL    HW230063   0.770   2.128   1.569
 9722SOL     OW30064   3.489   2.982   5.593
 9722SOL    HW130065   3.546   2.914   5.640
 9722SOL    HW230066   3.393   2.964   5.612
 9723SOL     OW30067   5.605   1.092   5.279
 9723SOL    HW130068   5.512   1.102   5.312
 9723SOL    HW230069   5.604   1.061   5.184
 9724SOL     OW30070   1.825   5.140   1.342
 9724SOL    HW130071   1.771   5.089   1.409
 9724SOL    HW230072   1.781   5.229   1.324
 9725SOL     OW30073   5.591   5.466   4.204
 9725SOL    HW130074   5.542   5.475   4.118
 9725SOL    HW230075   5.580   5.374   4.240
 9726SOL     OW30076   0.036   6.930   3.347
 9726SOL    HW130077   0.099   6.895   3.416
 9726SOL    HW230078   6.968   6.916   3.378
 9727SOL     OW30079   6.493   3.130   1.493
 9727SOL    HW130080   6.520   3.096   1.583
 9727SOL    HW230081   6.393   3.130   1.486
 9728SOL     OW30082   5.655   1.621   5.090
 9728SOL    HW130083   5.561   1.645   5.114
 9728SOL    HW230084   5.661   1.603   4.991
 9729SOL     OW30085   0.102   3.810   2.292
 9729SOL    HW130086   0.088   3.719   2.332
 9729SOL    HW230087   0.099   3.804   2.192
 9730SOL     OW30088   0.926   5.912   3.801
 9730SOL    HW130089   0.916   5.989   3.739
 9730SOL    HW230090   0.854   5.916   3.871
 9731SOL     OW30091   6.343   1.606   1.478
 9731SOL    HW130092   6.296   1.520   1.460
 9731SOL    HW230093   6.365   1.613   1.575
 9732SOL     OW30094   0.031   2.447   3.254
 9732SOL    HW130095   6.964   2.471   3.228
 9732SOL    HW230096   0.066   2.376   3.193
 9733SOL     OW30097   5.272   5.756   0.220
 9733SOL    HW130098   5.188   5.807   0.239
 9733SOL    HW230099   5.338   5.771   0.293
 9734SOL     OW30100   3.976   3.789   0.117
 9734SOL    HW130101   4.060   3.737   0.100
 9734SOL    HW230102   3.920   3.741   0.184
 9735SOL     OW30103   1.200   1.594   0.182
 9735SOL    HW130104   1.185   1.638   0.270
 9735SOL    HW230105   1.149   1.642   0.111
 9736SOL     OW30106   5.214   2.364   5.997
 9736SOL    HW130107   5.210   2.269   5.966
 9736SOL    HW230108   5.122   2.395   6.021
 9737SOL     OW30109   5.183   3.262   5.222
 9737SOL    HW130110   5.185   3.275   5.321
 9737SOL    HW230111   5.270   3.292   5.182
 9738SOL     OW30112   2.527   6.208   1.365
 9738SOL    HW130113   2.516   6.280   1.433
 9738SOL    HW230114   2.604   6.149   1.391
 9739SOL     OW30115   5.625   6.494   0.679
 9739SOL    HW130116   5.551   6.517   0.741
 9739SOL    HW230117   5.707   6.470   0.732
 9740SOL     OW30118   6.567   0.829   0.977
 9740SOL    HW130119   6.657   0.849   1.017
 9740SOL    HW230120   6.572   0.838   0.878
 9741SOL     OW30121   2.428   2.670   2.880
 9741SOL    HW130122   2.465   2.586   2.838
 9741SOL    HW230123   2.438   2.663   2.979
 9742SOL     OW30124   4.149   0.419   0.046
 9742SOL    HW130125   4.210   0.370   7.011
 9742SOL    HW230126   4.200   0.492   0.093
 9743SOL     OW30127   6.282   3.653   4.318
 9743SOL    HW130128   6.235   3.661   4.230
 9743SOL    HW230129   6.370   3.701   4.314
 9744SOL     OW30130   1.592   2.744   2.118
 9744SOL    HW130131   1.628   2.662   2.074
 9744SOL    HW230132   1.545   2.800   2.050
 9745SOL     OW30133   1.368   6.698   5.772
 9745SOL    HW130134   1.288   6.642   5.794
 9745SOL    HW230135   1.340   6.776   5.717
 9746SOL     OW30136   3.412   6.144   5.861
 9746SOL    HW130137   3.337   6.088   5.895
 9746SOL    HW230138   3.378   6.235   5.837
 9747SOL     OW30139   4.243   1.638   3.527
 9747SOL    HW130140   4.306   1.615   3.453
 9747SOL    HW230141   4.215   1.734   3.519
 9748SOL     OW30142   0.577   2.191   2.555
 9748SOL    HW130143   0.647   2.255   2.523
 9748SOL    HW230144   0.600   2.098   2.524
 9749SOL     OW30145   6.845   0.178   1.649
 9749SOL    HW130146   6.883   0.099   1.698
 9749SOL    HW230147   6.747   0.184   1.667
 9750SOL     OW30148   5.907   1.946   4.845
 9750SOL    HW130149   5.981   1.879   4.839
 9750SOL    HW230150   5.903   1.983   4.937
 9751SOL     OW30151   2.666   5.457   1.016
 9751SOL    HW130152   2.754   5.497   0.989
 9751SOL    HW230153   2.596   5.482   0.949
 9752SOL     OW30154   4.041   3.717   0.819
 9752SOL    HW130155   3.970   3.650   0.843
 9752SOL    HW230156   4.038   3.793   0.884
 9753SOL     OW30157   6.309   6.768   3.011
 9753SOL    HW130158   6.282   6.728   3.098
 9753SOL    HW230159   6.267   6.717   2.936
 9754SOL     OW30160   3.128   0.450   1.814
 9754SOL    HW130161   3.098   0.358   1.842
 9754SOL    HW230162   3.050   0.512   1.816
 9755SOL     OW30163   3.069   4.267   1.061
 9755SOL    HW130164   3.095   4.181   1.104
 9755SOL    HW230165   3.029   4.249   0.971
 9756SOL     OW30166   4.832   6.852   6.964
 9756SOL    HW130167   4.842   6.845   6.865
 9756SOL    HW230168   4.758   6.917   6.985
 9757SOL     OW30169   5.061   4.039   4.446
 9757SOL    HW130170   5.000   3.960   4.445
 9757SOL    HW230171   5.080   4.065   4.541
 9758SOL     OW30172   3.584   1.037   1.766
 9758SOL    HW130173   3.569   0.959   1.704
 9758SOL    HW230174   3.651   1.011   1.836
 9759SOL     OW30175   6.565   1.719   0.842
 9759SOL    HW130176   6.535   1.808   0.808
 9759SOL    HW230177   6.490   1.653   0.835
 9760SOL     OW30178   4.612   1.066   6.716
 9760SOL    HW130179   4.534   1.027   6.764
 9760SOL    HW230180   4.672   0.991   6.685
 9761SOL     OW30181   0.930   2.059   2.043
 9761SOL    HW130182   0.952   2.011   2.128
 9761SOL    HW230183   1.014   2.070   1.989
 9762SOL     OW30184   3.786   0.836   5.755
 9762SOL    HW130185   3.730   0.755   5.736
 9762SOL    HW230186   3.849   0.816   5.831
 9763SOL     OW30187   5.555   1.694   1.067
 9763SOL    HW130188   5.585   1.657   1.155
 9763SOL    HW230189   5.618   1.766   1.039
 9764SOL     OW30190   0.356   2.288   3.415
 9764SOL    HW130191   0.410   2.213   3.376
 9764SOL    HW230192   0.316   2.259   3.501
 9765SOL     OW30193   6.025   2.308   1.036
 9765SOL    HW130194   5.993   2.401   1.021
 9765SOL    HW230195   6.109   2.309   1.089
 9766SOL     OW30196   0.249   2.602   2.701
 9766SOL    HW130197   0.333   2.557   2.671
 9766SOL    HW230198   0.170   2.546   2.676
 9767SOL     OW30199   3.576   1.632   4.535
 9767SOL    HW130200   3.609   1.711   4.484
 9767SOL    HW230201   3.559   1.556   4.472
 9768SOL     OW30202   4.831   2.432   6.472
 9768SOL    HW130203   4.837   2.340   6.509
 9768SOL    HW230204   4.923   2.467   6.454
 9769SOL     OW30205   3.815   0.976   5.298
 9769SOL    HW130206   3.731   0.923   5.303
 9769SOL    HW230207   3.869   0.946   5.219
 9770SOL     OW30208   2.291   3.218   5.414
 9770SOL    HW130209   2.236   3.233   5.497
 9770SOL    HW230210   2.278   3.124   5.382
 9771SOL     OW30211   3.489   0.968   2.228
 9771SOL    HW130212   3.438   1.013   2.155
 9771SOL    HW230213   3.434   0.893   2.265
 9772SOL     OW30214   0.357   0.591   1.935
 9772SOL    HW130215   0.328   0.686   1.925
 9772SOL    HW230216   0.352   0.546   1.845
 9773SOL     OW30217   4.567   6.201   2.019
 9773SOL    HW130218   4.592   6.279   1.961
 9773SOL    HW230219   4.514   6.234   2.097
 9774SOL     OW30220   1.614   5.482   4.659
 9774SOL    HW130221   1.564   5.396   4.668
 9774SOL    HW230222   1.554   5.550   4.617
 9775SOL     OW30223   1.557   1.066   3.310
 9775SOL    HW130224   1.618   1.106   3.378
 9775SOL    HW230225   1.589   1.092   3.218
 9776SOL     OW30226   1.247   5.763   1.728
 9776SOL    HW130227   1.288   5.853   1.712
 9776SOL    HW230228   1.264   5.735   1.822
 9777SOL     OW30229   4.435   1.831   5.180
 9777SOL    HW130230   4.351   1.854   5.132
 9777SOL    HW230231   4.452   1.898   5.252
 9778SOL     OW30232   1.352   3.749   3.048
 9778SOL    HW130233   1.373   3.719   3.140
 9778SOL    HW230234   1.315   3.673   2.995
 9779SOL     OW30235   2.426   1.138   2.526
 9779SOL    HW130236   2.461   1.152   2.619
 9779SOL    HW230237   2.369   1.217   2.500
 9780SOL     OW30238   1.436   1.705   0.939
 9780SOL    HW130239   1.385   1.671   0.860
 9780SOL    HW230240   1.373   1.721   1.015
 9781SOL     OW30241   1.654   1.063   2.410
 9781SOL    HW130242   1.655   1.096   2.315
 9781SOL    HW230243   1.584   1.114   2.462
 9782SOL     OW30244   6.986   2.788   0.219
 9782SOL    HW130245   0.035   2.789   0.285
 9782SOL    HW230246   6.930   2.707   0.235
 9783SOL     OW30247   4.747   1.359   2.494
 9783SOL    HW130248   4.654   1.366   2.456
 9783SOL    HW230249   4.800   1.295   2.439
 9784SOL     OW30250   2.439   1.118   0.464
 9784SOL    HW130251   2.378   1.096   0.540
 9784SOL    HW230252   2.392   1.099   0.377
 9785SOL     OW30253   1.467   3.413   4.592
 9785SOL    HW130254   1.422   3.345   4.650
 9785SOL    HW230255   1.465   3.502   4.637
 9786SOL     OW30256   2.903   4.290   6.734
 9786SOL    HW130257   2.894   4.363   6.802
 9786SOL    HW230258   2.813   4.256   6.709
 9787SOL     OW30259   2.505   3.041   0.604
 9787SOL    HW130260   2.500   3.028   0.703
 9787SOL    HW230261   2.544   3.131   0.584
 9788SOL     OW30262   2.168   0.055   2.527
 9788SOL    HW130263   2.260   0.082   2.556
 9788SOL    HW230264   2.101   0.115   2.570
 9789SOL     OW30265   4.630   1.837   0.218
 9789SOL    HW130266   4.607   1.782   0.298
 9789SOL    HW230267   4.704   1.900   0.241
 9790SOL     OW30268   4.585   5.991   5.019
 9790SOL    HW130269   4.654   5.984   5.091
 9790SOL    HW230270   4.520   5.915   5.027
 9791SOL     OW30271   0.034   1.147   1.354
 9791SOL    HW130272   6.972   1.151   1.309
 9791SOL    HW230273   0.092   1.221   1.320
 9792SOL     OW30274   3.407   3.443   0.539
 9792SOL    HW130275   3.459   3.377   0.594
 9792SOL    HW230276   3.376   3.518   0.598
 9793SOL     OW30277   6.044   1.255   1.887
 9793SOL    HW130278   6.046   1.164   1.927
 9793SOL    HW230279   5.963   1.265   1.829
 9794SOL     OW30280   4.186   5.785   4.812
 9794SOL    HW130281   4.234   5.857   4.863
 9794SOL    HW230282   4.239   5.760   4.731
 9795SOL     OW30283   1.876   4.199   3.045
 9795SOL    HW130284   1.974   4.185   3.039
 9795SOL    HW230285   1.849   4.208   3.141
 9796SOL     OW30286   3.873   3.626   5.079
 9796SOL    HW130287   3.957   3.623   5.133
 9796SOL    HW230288   3.895   3.633   4.982
 9797SOL     OW30289   3.392   5.524   6.927
 9797SOL    HW130290   3.478   5.543   6.880
 9797SOL    HW230291   3.328   5.483   6.862
 9798SOL     OW30292   0.288   4.473   6.447
 9798SOL    HW130293   0.304   4.375   6.453
 9798SOL    HW230294   0.224   4.492   6.372
 9799SOL     OW30295   3.829   6.399   6.300
 9799SOL    HW130296   3.869   6.485   6.332
 9799SOL    HW230297   3.789   6.412   6.210
 9800SOL     OW30298   6.969   4.372   4.805
 9800SOL    HW130299   6.989   4.424   4.888
 9800SOL    HW230300   0.026   4.359   4.753
 9801SOL     OW30301   4.110   0.026   0.857
 9801SOL    HW130302   4.157   0.005   0.943
 9801SOL    HW230303   4.176   0.022   0.782
 9802SOL     OW30304   4.099   3.005   0.368
 9802SOL    HW130305   4.099   3.057   0.453
 9802SOL    HW230306   4.006   2.975   0.346
 9803SOL     OW30307   2.665   3.763   0.548
 9803SOL    HW130308   2.661   3.774   0.648
 9803SOL    HW230309   2.729   3.689   0.526
 9804SOL     OW30310   0.940   4.112   2.703
 9804SOL    HW130311   1.022   4.154   2.741
 9804SOL    HW230312   0.862   4.172   2.719
 9805SOL     OW30313   7.005   5.239   5.118
 9805SOL    HW130314   0.050   5.244   5.048
 9805SOL    HW230315   0.013   5.188   5.197
 9806SOL     OW30316   3.392   0.797   6.641
 9806SOL    HW130317   3.424   0.812   6.547
 9806SOL    HW230318   3.421   0.873   6.699
 9807SOL     OW30319   3.699   3.475   4.410
 9807SOL    HW130320   3.692   3.383   4.373
 9807SOL    HW230321   3.625   3.490   4.476
 9808SOL     OW30322   2.518   5.915   2.596
 9808SOL    HW130323   2.477   5.827   2.571
 9808SOL    HW230324   2.512   5.977   2.518
 9809SOL     OW30325   6.336   3.498   1.461
 9809SOL    HW130326   6.336   3.419   1.400
 9809SOL    HW230327   6.241   3.524   1.481
 9810SOL     OW30328   4.146   2.846   0.947
 9810SOL    HW130329   4.132   2.938   0.911
 9810SOL    HW230330   4.243   2.823   0.941
 9811SOL     OW30331   5.362   3.702   3.962
 9811SOL    HW130332   5.443   3.644   3.971
 9811SOL    HW230333   5.292   3.673   4.027
 9812SOL     OW30334   3.235   5.019   6.512
 9812SOL    HW130335   3.262   5.111   6.541
 9812SOL    HW230336   3.170   4.982   6.578
 9813SOL     OW30337   4.699   0.674   2.079
 9813SOL    HW130338   4.759   0.594   2.072
 9813SOL    HW230339   4.667   0.700   1.988
 9814SOL     OW30340   6.685   1.305   6.145
 9814SOL    HW130341   6.744   1.381   6.116
 9814SOL    HW230342   6.635   1.332   6.227
 9815SOL     OW30343   5.883   2.572   4.569
 9815SOL    HW130344   5.964   2.530   4.609
 9815SOL    HW230345   5.908   2.620   4.485
 9816SOL     OW30346   3.346   0.389   0.345
 9816SOL    HW130347   3.377   0.422   0.435
 9816SOL    HW230348   3.425   0.374   0.286
 9817SOL     OW30349   6.249   0.302   1.321
 9817SOL    HW130350   6.240   0.218   1.374
 9817SOL    HW230351   6.200   0.376   1.368
 9818SOL     OW30352   3.774   2.305   5.316
 9818SOL    HW130353   3.840   2.327   5.244
 9818SOL    HW230354   3.821   2.295   5.403
 9819SOL     OW30355   2.574   0.860   1.713
 9819SOL    HW130356   2.484   0.846   1.673
 9819SOL    HW230357   2.566   0.867   1.812
 9820SOL     OW30358   3.685   2.658   0.064
 9820SOL    HW130359   3.706   2.567   0.029
 9820SOL    HW230360   3.723   2.727   0.002
 9821SOL     OW30361   0.592   6.161   6.877
 9821SOL    HW130362   0.599   6.065   6.850
 9821SOL    HW230363   0.625   6.171   6.971
 9822SOL     OW30364   0.269   0.579   2.335
 9822SOL    HW130365   0.192   0.550   2.391
 9822SOL    HW230366   0.258   0.545   2.241
 9823SOL     OW30367   3.552   6.786   2.007
 9823SOL    HW130368   3.495   6.713   1.971
 9823SOL    HW230369   3.617   6.816   1.937
 9824SOL     OW30370   2.222   3.982   5.363
 9824SOL    HW130371   2.240   3.887   5.390
 9824SOL    HW230372   2.283   4.008   5.288
 9825SOL     OW30373   3.871   4.976   5.071
 9825SOL    HW130374   3.787   5.028   5.057
 9825SOL    HW230375   3.918   5.009   5.153
 9826SOL     OW30376   5.474   6.604   5.474
 9826SOL    HW130377   5.452   6.661   5.395
 9826SOL    HW230378   5.396   6.544   5.494
 9827SOL     OW30379   0.772   5.372   4.894
 9827SOL    HW130380   0.823   5.429   4.829
 9827SOL    HW230381   0.816   5.283   4.902
 9828SOL     OW30382   2.428   1.461   7.017
 9828SOL    HW130383   2.383   1.379   6.983
 9828SOL    HW230384   2.359   1.529   0.015
 9829SOL     OW30385   2.804   4.045   1.625
 9829SOL    HW130386   2.865   4.117   1.659
 9829SOL    HW230387   2.842   3.955   1.647
 9830SOL     OW30388   6.077   1.647   1.142
 9830SOL    HW130389   6.150   1.583   1.165
 9830SOL    HW230390   5.991   1.597   1.128
 9831SOL     OW30391   6.031   6.451   1.328
 9831SOL    HW130392   6.008   6.545   1.305
 9831SOL    HW230393   6.023   6.394   1.246
 9832SOL     OW30394   2.970   3.684   0.639
 9832SOL    HW130395   2.926   3.605   0.596
 9832SOL    HW230396   3.069   3.672   0.639
 9833SOL     OW30397   4.969   4.461   6.872
 9833SOL    HW130398   5.067   4.478   6.861
 9833SOL    HW230399   4.938   4.498   6.959
 9834SOL     OW30400   1.973   2.514   3.681
 9834SOL    HW130401   1.927   2.497   3.594
 9834SOL    HW230402   1.932   2.593   3.726
 9835SOL     OW30403   5.253   1.942   4.173
 9835SOL    HW130404   5.292   1.851   4.158
 9835SOL    HW230405   5.319   2.012   4.143
 9836SOL     OW30406   5.414   5.367   1.673
 9836SOL    HW130407   5.510   5.395   1.674
 9836SOL    HW230408   5.389   5.335   1.581
 9837SOL     OW30409   2.748   5.884   5.785
 9837SOL    HW130410   2.672   5.825   5.811
 9837SOL    HW230411   2.717   5.950   5.716
 9838SOL     OW30412   6.935   6.220   4.993
 9838SOL    HW130413   6.961   6.308   5.033
 9838SOL    HW230414   6.969   6.146   5.051
 9839SOL     OW30415   5.576   3.444   2.652
 9839SOL    HW130416   5.579   3.344   2.660
 9839SOL    HW230417   5.501   3.479   2.707
 9840SOL     OW30418   5.804   0.221   0.032
 9840SOL    HW130419   5.798   0.320   0.049
 9840SOL    HW230420   5.843   0.205   6.968
 9841SOL     OW30421   2.238   3.011   4.523
 9841SOL    HW130422   2.323   3.059   4.502
 9841SOL    HW230423   2.170   3.076   4.557
 9842SOL     OW30424   3.271   3.262   3.856
 9842SOL    HW130425   3.285   3.360   3.844
 9842SOL    HW230426   3.174   3.244   3.873
 9843SOL     OW30427   6.222   4.752   3.096
 9843SOL    HW130428   6.135   4.760   3.144
 9843SOL    HW230429   6.210   4.782   3.001
 9844SOL     OW30430   4.999   0.175   1.798
 9844SOL    HW130431   4.902   0.185   1.772
 9844SOL    HW230432   5.049   0.258   1.773
 9845SOL     OW30433   1.525   1.631   4.177
 9845SOL    HW130434   1.556   1.697   4.245
 9845SOL    HW230435   1.442   1.666   4.133
 9846SOL     OW30436   3.004   3.206   4.192
 9846SOL    HW130437   3.063   3.126   4.185
 9846SOL    HW230438   2.922   3.192   4.136
 9847SOL     OW30439   2.108   4.286   4.599
 9847SOL    HW130440   2.135   4.202   4.646
 9847SOL    HW230441   2.081   4.264   4.505
 9848SOL     OW30442   6.170   4.118   0.291
 9848SOL    HW130443   6.228   4.171   0.353
 9848SOL    HW230444   6.202   4.023   0.289
 9849SOL     OW30445   6.759   6.047   5.229
 9849SOL    HW130446   6.769   5.979   5.301
 9849SOL    HW230447   6.804   6.132   5.257
 9850SOL     OW30448   4.865   0.726   3.282
 9850SOL    HW130449   4.939   0.660   3.297
 9850SOL    HW230450   4.814   0.701   3.200
 9851SOL     OW30451   5.111   2.537   5.306
 9851SOL    HW130452   5.021   2.561   5.343
 9851SOL    HW230453   5.182   2.559   5.373
 9852SOL     OW30454   5.676   1.733   4.255
 9852SOL    HW130455   5.702   1.656   4.313
 9852SOL    HW230456   5.608   1.702   4.188
 9853SOL     OW30457   0.756   5.268   1.180
 9853SOL    HW130458   0.708   5.195   1.228
 9853SOL    HW230459   0.758   5.350   1.237
 9854SOL     OW30460   3.639   6.779   3.920
 9854SOL    HW130461   3.702   6.715   3.964
 9854SOL    HW230462   3.667   6.873   3.941
 9855SOL     OW30463   1.830   4.521   0.738
 9855SOL    HW130464   1.764   4.536   0.812
 9855SOL    HW230465   1.824   4.596   0.673
 9856SOL     OW30466   3.848   3.214   1.472
 9856SOL    HW130467   3.777   3.284   1.475
 9856SOL    HW230468   3.808   3.127   1.442
 9857SOL     OW30469   6.437   4.620   2.823
 9857SOL    HW130470   6.406   4.710   2.793
 9857SOL    HW230471   6.359   4.568   2.859
 9858SOL     OW30472   3.487   1.634   1.255
 9858SOL    HW130473   3.512   1.557   1.196
 9858SOL    HW230474   3.425   1.603   1.327
 9859SOL     OW30475   0.326   6.686   1.007
 9859SOL    HW130476   0.346   6.643   1.095
 9859SOL    HW230477   0.347   6.621   0.933
 9860SOL     OW30478   0.869   0.980   2.793
 9860SOL    HW130479   0.786   1.017   2.835
 9860SOL    HW230480   0.855   0.967   2.695
 9861SOL     OW30481   2.812   6.485   3.747
 9861SOL    HW130482   2.744   6.553   3.772
 9861SOL    HW230483   2.768   6.412   3.694
 9862SOL     OW30484   0.354   1.999   1.025
 9862SOL    HW130485   0.296   2.066   1.071
 9862SOL    HW230486   0.448   2.011   1.054
 9863SOL     OW30487   3.887   0.250   0.547
 9863SOL    HW130488   3.942   0.166   0.548
 9863SOL    HW230489   3.843   0.261   0.636
 9864SOL     OW30490   4.590   5.983   3.386
 9864SOL    HW130491   4.587   6.083   3.382
 9864SOL    HW230492   4.644   5.949   3.309
 9865SOL     OW30493   1.843   3.221   3.956
 9865SOL    HW130494   1.855   3.177   3.867
 9865SOL    HW230495   1.830   3.152   4.027
 9866SOL     OW30496   3.143   4.874   3.500
 9866SOL    HW130497   3.096   4.963   3.500
 9866SOL    HW230498   3.193   4.862   3.585
 9867SOL     OW30499   3.937   6.633   6.323
 9867SOL    HW130500   3.910   6.702   6.256
 9867SOL    HW230501   4.034   6.613   6.314
 9868SOL     OW30502   1.467   4.969   5.458
 9868SOL    HW130503   1.464   5.056   5.505
 9868SOL    HW230504   1.471   4.984   5.359
 9869SOL     OW30505   1.664   4.314   2.945
 9869SOL    HW130506   1.740   4.251   2.962
 9869SOL    HW230507   1.695   4.389   2.887
 9870SOL     OW30508   3.870   5.267   1.581
 9870SOL    HW130509   3.962   5.271   1.541
 9870SOL    HW230510   3.862   5.337   1.652
 9871SOL     OW30511   1.824   2.464   5.660
 9871SOL    HW130512   1.826   2.396   5.733
 9871SOL    HW230513   1.917   2.495   5.640
 9872SOL     OW30514   1.322   4.049   3.302
 9872SOL    HW130515   1.421   4.036   3.309
 9872SOL    HW230516   1.276   3.988   3.367
 9873SOL     OW30517   1.729   1.604   0.720
 9873SOL    HW130518   1.682   1.640   0.639
 9873SOL    HW230519   1.800   1.539   0.692
 9874SOL     OW30520   1.346   4.123   5.074
 9874SOL    HW130521   1.389   4.090   5.158
 9874SOL    HW230522   1.411   4.179   5.023
 9875SOL     OW30523   1.341   1.453   2.866
 9875SOL    HW130524   1.278   1.531   2.864
 9875SOL    HW230525   1.289   1.370   2.883
 9876SOL     OW30526   6.613   5.860   2.568
 9876SOL    HW130527   6.540   5.805   2.609
 9876SOL    HW230528   6.596   5.872   2.471
 9877SOL     OW30529   4.072   0.378   1.400
 9877SOL    HW130530   4.108   0.333   1.318
 9877SOL    HW230531   3.994   0.434   1.375
 9878SOL     OW30532   0.147   0.852   5.462
 9878SOL    HW130533   0.228   0.826   5.516
 9878SOL    HW230534   0.076   0.781   5.473
 9879SOL     OW30535   5.150   5.365   4.773
 9879SOL    HW130536   5.151   5.294   4.843
 9879SOL    HW230537   5.064   5.360   4.721
 9880SOL     OW30538   1.131   2.237   4.028
 9880SOL    HW130539   1.115   2.244   4.127
 9880SOL    HW230540   1.064   2.291   3.979
 9881SOL     OW30541   0.420   1.500   6.195
 9881SOL    HW130542   0.377   1.443   6.265
 9881SOL    HW230543   0.513   1.468   6.179
 9882SOL     OW30544   2.277   2.274   3.142
 9882SOL    HW130545   2.274   2.276   3.042
 9882SOL    HW230546   2.207   2.336   3.178
 9883SOL     OW30547   3.037   1.243   2.525
 9883SOL    HW130548   3.092   1.255   2.607
 9883SOL    HW230549   2.971   1.317   2.517
 9884SOL     OW30550   3.224   0.533   3.946
 9884SOL    HW130551   3.291   0.576   3.886
 9884SOL    HW230552   3.133   0.571   3.927
 9885SOL     OW30553   6.545   3.528   4.116
 9885SOL    HW130554   6.638   3.492   4.121
 9885SOL    HW230555   6.487   3.465   4.064
 9886SOL     OW30556   0.407   2.898   1.529
 9886SOL    HW130557   0.479   2.933   1.589
 9886SOL    HW230558   0.332   2.861   1.585
 9887SOL     OW30559   4.696   6.560   6.020
 9887SOL    HW130560   4.613   6.514   6.051
 9887SOL    HW230561   4.730   6.514   5.938
 9888SOL     OW30562   6.663   5.128   6.185
 9888SOL    HW130563   6.575   5.112   6.140
 9888SOL    HW230564   6.726   5.171   6.120
 9889SOL     OW30565   0.339   5.771   0.829
 9889SOL    HW130566   0.406   5.713   0.782
 9889SOL    HW230567   0.251   5.723   0.834
 9890SOL     OW30568   0.864   2.828   0.560
 9890SOL    HW130569   0.830   2.920   0.583
 9890SOL    HW230570   0.947   2.836   0.505
 9891SOL     OW30571   5.132   1.212   2.031
 9891SOL    HW130572   5.110   1.213   2.129
 9891SOL    HW230573   5.048   1.202   1.978
 9892SOL     OW30574   0.869   6.889   6.968
 9892SOL    HW130575   0.902   6.983   6.962
 9892SOL    HW230576   0.884   6.855   0.034
 9893SOL     OW30577   2.346   0.972   6.834
 9893SOL    HW130578   2.347   0.884   6.882
 9893SOL    HW230579   2.392   0.963   6.746
 9894SOL     OW30580   2.047   0.788   1.319
 9894SOL    HW130581   2.116   0.739   1.267
 9894SOL    HW230582   2.084   0.876   1.349
 9895SOL     OW30583   4.496   2.898   5.410
 9895SOL    HW130584   4.478   2.869   5.504
 9895SOL    HW230585   4.441   2.979   5.390
 9896SOL     OW30586   6.746   6.545   5.859
 9896SOL    HW130587   6.765   6.566   5.954
 9896SOL    HW230588   6.774   6.451   5.839
 9897SOL     OW30589   5.209   4.857   5.046
 9897SOL    HW130590   5.265   4.792   5.098
 9897SOL    HW230591   5.260   4.942   5.033
 9898SOL     OW30592   2.896   0.038   5.973
 9898SOL    HW130593   2.844   6.984   6.000
 9898SOL    HW230594   2.834   0.116   5.965
 9899SOL     OW30595   0.152   4.511   0.203
 9899SOL    HW130596   0.102   4.558   0.276
 9899SOL    HW230597   0.153   4.568   0.121
 9900SOL     OW30598   2.390   4.322   3.446
 9900SOL    HW130599   2.353   4.244   3.395
 9900SOL    HW230600   2.431   4.387   3.382
 9901SOL     OW30601   1.871   2.929   5.433
 9901SOL    HW130602   1.818   3.013   5.446
 9901SOL    HW230603   1.956   2.934   5.485
 9902SOL     OW30604   2.549   4.543   0.868
 9902SOL    HW130605   2.478   4.598   0.912
 9902SOL    HW230606   2.532   4.446   0.884
 9903SOL     OW30607   5.497   1.406   4.506
 9903SOL    HW130608   5.590   1.368   4.508
 9903SOL    HW230609   5.444   1.367   4.581
 9904SOL     OW30610   6.178   2.123   0.737
 9904SOL    HW130611   6.222   2.212   0.725
 9904SOL    HW230612   6.228   2.069   0.806
 9905SOL     OW30613   4.860   0.274   0.090
 9905SOL    HW130614   4.937   0.216   0.119
 9905SOL    HW230615   4.881   0.370   0.109
 9906SOL     OW30616   3.045   3.277   4.977
 9906SOL    HW130617   3.017   3.347   5.043
 9906SOL    HW230618   3.058   3.320   4.888
 9907SOL     OW30619   1.477   6.460   1.547
 9907SOL    HW130620   1.392   6.408   1.550
 9907SOL    HW230621   1.542   6.414   1.486
 9908SOL     OW30622   5.080   3.829   1.922
 9908SOL    HW130623   5.106   3.917   1.882
 9908SOL    HW230624   5.154   3.795   1.979
 9909SOL     OW30625   2.094   0.480   5.043
 9909SOL    HW130626   2.031   0.447   5.113
 9909SOL    HW230627   2.042   0.511   4.963
 9910SOL     OW30628   6.639   4.549   3.483
 9910SOL    HW130629   6.669   4.644   3.472
 9910SOL    HW230630   6.572   4.544   3.558
 9911SOL     OW30631   2.494   5.952   2.278
 9911SOL    HW130632   2.593   5.954   2.263
 9911SOL    HW230633   2.460   5.860   2.258
 9912SOL     OW30634   4.440   0.938   6.218
 9912SOL    HW130635   4.459   0.957   6.122
 9912SOL    HW230636   4.518   0.890   6.259
 9913SOL     OW30637   5.114   3.454   0.584
 9913SOL    HW130638   5.065   3.508   0.654
 9913SOL    HW230639   5.132   3.512   0.505
 9914SOL     OW30640   7.007   4.124   4.963
 9914SOL    HW130641   0.061   4.094   4.913
 9914SOL    HW230642   6.972   4.209   4.923
 9915SOL     OW30643   4.643   1.664   3.663
 9915SOL    HW130644   4.735   1.627   3.672
 9915SOL    HW230645   4.595   1.658   3.750
 9916SOL     OW30646   1.328   3.050   1.687
 9916SOL    HW130647   1.391   3.103   1.743
 9916SOL    HW230648   1.239   3.097   1.683
 9917SOL     OW30649   6.358   4.427   5.082
 9917SOL    HW130650   6.378   4.492   5.156
 9917SOL    HW230651   6.440   4.373   5.062
 9918SOL     OW30652   4.857   3.059   2.366
 9918SOL    HW130653   4.937   3.015   2.326
 9918SOL    HW230654   4.780   3.051   2.302
 9919SOL     OW30655   5.491   5.869   0.797
 9919SOL    HW130656   5.585   5.846   0.822
 9919SOL    HW230657   5.480   5.968   0.795
 9920SOL     OW30658   4.980   1.434   2.651
 9920SOL    HW130659   4.900   1.419   2.593
 9920SOL    HW230660   4.986   1.361   2.719
 9921SOL     OW30661   4.297   5.170   6.685
 9921SOL    HW130662   4.377   5.116   6.660
 9921SOL    HW230663   4.258   5.135   6.770
 9922SOL     OW30664   0.187   6.005   1.502
 9922SOL    HW130665   0.219   6.004   1.408
 9922SOL    HW230666   0.114   6.074   1.512
 9923SOL     OW30667   5.887   4.611   0.957
 9923SOL    HW130668   5.840   4.689   0.999
 9923SOL    HW230669   5.893   4.536   1.022
 9924SOL     OW30670   1.507   3.672   4.738
 9924SOL    HW130671   1.494   3.699   4.834
 9924SOL    HW230672   1.467   3.741   4.678
 9925SOL     OW30673   5.066   2.261   4.119
 9925SOL    HW130674   5.045   2.352   4.083
 9925SOL    HW230675   5.041   2.258   4.216
 9926SOL     OW30676   3.174   5.076   1.325
 9926SOL    HW130677   3.230   5.106   1.247
 9926SOL    HW230678   3.095   5.137   1.334
 9927SOL     OW30679   5.103   6.932   4.151
 9927SOL    HW130680   5.077   6.841   4.183
 9927SOL    HW230681   5.021   6.986   4.133
 9928SOL     OW30682   4.769   4.524   2.084
 9928SOL    HW130683   4.765   4.624   2.091
 9928SOL    HW230684   4.814   4.499   1.998
 9929SOL     OW30685   1.054   4.351   2.889
 9929SOL    HW130686   1.029   4.385   2.979
 9929SOL    HW230687   0.979   4.367   2.825
 9930SOL     OW30688   5.722   1.145   3.255
 9930SOL    HW130689   5.720   1.184   3.163
 9930SOL    HW230690   5.701   1.048   3.250
 9931SOL     OW30691   1.186   5.569   5.725
 9931SOL    HW130692   1.241   5.521   5.794
 9931SOL    HW230693   1.224   5.551   5.634
 9932SOL     OW30694   0.905   6.101   4.816
 9932SOL    HW130695   0.899   6.037   4.740
 9932SOL    HW230696   0.992   6.151   4.812
 9933SOL     OW30697   6.948   6.722   3.024
 9933SOL    HW130698   7.000   6.790   3.075
 9933SOL    HW230699   6.868   6.693   3.077
 9934SOL     OW30700   0.206   1.896   4.899
 9934SOL    HW130701   0.201   1.978   4.842
 9934SOL    HW230702   0.210   1.923   4.996
 9935SOL     OW30703   2.273   0.249   6.354
 9935SOL    HW130704   2.228   0.219   6.270
 9935SOL    HW230705   2.291   0.169   6.413
 9936SOL     OW30706   1.495   3.682   3.741
 9936SOL    HW130707   1.569   3.639   3.690
 9936SOL    HW230708   1.480   3.633   3.827
 9937SOL     OW30709   6.507   2.212   5.999
 9937SOL    HW130710   6.467   2.219   5.908
 9937SOL    HW230711   6.483   2.292   6.053
 9938SOL     OW30712   6.806   6.401   2.848
 9938SOL    HW130713   6.805   6.486   2.899
 9938SOL    HW230714   6.782   6.418   2.752
 9939SOL     OW30715   3.117   3.514   3.486
 9939SOL    HW130716   3.039   3.567   3.455
 9939SOL    HW230717   3.178   3.573   3.540
 9940SOL     OW30718   0.511   1.113   1.144
 9940SOL    HW130719   0.487   1.069   1.058
 9940SOL    HW230720   0.604   1.087   1.170
 9941SOL     OW30721   3.133   5.624   4.395
 9941SOL    HW130722   3.162   5.669   4.311
 9941SOL    HW230723   3.210   5.575   4.435
 9942SOL     OW30724   2.641   5.337   4.001
 9942SOL    HW130725   2.689   5.363   3.917
 9942SOL    HW230726   2.645   5.237   4.011
 9943SOL     OW30727   0.461   6.852   4.736
 9943SOL    HW130728   0.395   6.922   4.710
 9943SOL    HW230729   0.552   6.894   4.744
 9944SOL     OW30730   1.411   4.382   6.403
 9944SOL    HW130731   1.354   4.408   6.325
 9944SOL    HW230732   1.483   4.451   6.416
 9945SOL     OW30733   0.333   5.579   6.788
 9945SOL    HW130734   0.408   5.517   6.763
 9945SOL    HW230735   0.282   5.540   6.865
 9946SOL     OW30736   5.557   1.006   4.285
 9946SOL    HW130737   5.491   1.067   4.240
 9946SOL    HW230738   5.510   0.926   4.322
 9947SOL     OW30739   6.209   4.557   3.687
 9947SOL    HW130740   6.219   4.648   3.646
 9947SOL    HW230741   6.186   4.491   3.616
 9948SOL     OW30742   5.455   3.809   3.585
 9948SOL    HW130743   5.389   3.883   3.598
 9948SOL    HW230744   5.408   3.721   3.588
 9949SOL     OW30745   6.154   5.300   1.832
 9949SOL    HW130746   6.226   5.354   1.790
 9949SOL    HW230747   6.194   5.235   1.897
 9950SOL     OW30748   3.679   6.662   6.523
 9950SOL    HW130749   3.676   6.629   6.617
 9950SOL    HW230750   3.770   6.647   6.485
 9951SOL     OW30751   6.510   3.102   2.808
 9951SOL    HW130752   6.512   3.086   2.709
 9951SOL    HW230753   6.453   3.033   2.852
 9952SOL     OW30754   0.198   3.746   6.314
 9952SOL    HW130755   0.228   3.777   6.404
 9952SOL    HW230756   0.232   3.654   6.297
 9953SOL     OW30757   5.349   3.237   3.773
 9953SOL    HW130758   5.431   3.262   3.722
 9953SOL    HW230759   5.326   3.141   3.756
 9954SOL     OW30760   4.377   0.296   4.747
 9954SOL    HW130761   4.339   0.263   4.660
 9954SOL    HW230762   4.401   0.393   4.738
 9955SOL     OW30763   0.482   4.580   4.095
 9955SOL    HW130764   0.537   4.638   4.035
 9955SOL    HW230765   0.511   4.593   4.190
 9956SOL     OW30766   1.350   6.373   0.396
 9956SOL    HW130767   1.304   6.399   0.482
 9956SOL    HW230768   1.443   6.343   0.416
 9957SOL     OW30769   5.707   5.414   2.416
 9957SOL    HW130770   5.776   5.472   2.372
 9957SOL    HW230771   5.632   5.397   2.352
 9958SOL     OW30772   3.142   4.538   0.933
 9958SOL    HW130773   3.145   4.459   0.993
 9958SOL    HW230774   3.051   4.579   0.935
 9959SOL     OW30775   3.153   4.002   1.120
 9959SOL    HW130776   3.136   3.972   1.213
 9959SOL    HW230777   3.251   4.005   1.102
 9960SOL     OW30778   0.680   0.724   2.509
 9960SOL    HW130779   0.705   0.818   2.534
 9960SOL    HW230780   0.730   0.660   2.567
 9961SOL     OW30781   2.139   3.717   4.739
 9961SOL    HW130782   2.083   3.636   4.728
 9961SOL    HW230783   2.198   3.707   4.819
 9962SOL     OW30784   5.239   6.116   4.810
 9962SOL    HW130785   5.325   6.087   4.852
 9962SOL    HW230786   5.257   6.144   4.716
 9963SOL     OW30787   2.992   1.735   0.530
 9963SOL    HW130788   2.908   1.695   0.492
 9963SOL    HW230789   2.969   1.793   0.608
 9964SOL     OW30790   5.658   6.642   4.859
 9964SOL    HW130791   5.618   6.657   4.769
 9964SOL    HW230792   5.669   6.544   4.875
 9965SOL     OW30793   5.451   6.510   0.873
 9965SOL    HW130794   5.420   6.420   0.903
 9965SOL    HW230795   5.373   6.573   0.872
 9966SOL     OW30796   6.423   1.030   2.760
 9966SOL    HW130797   6.477   0.962   2.810
 9966SOL    HW230798   6.333   0.992   2.740
 9967SOL     OW30799   1.112   5.669   0.499
 9967SOL    HW130800   1.101   5.711   0.409
 9967SOL    HW230801   1.126   5.741   0.567
 9968SOL     OW30802   3.602   3.644   2.891
 9968SOL    HW130803   3.562   3.606   2.975
 9968SOL    HW230804   3.686   3.595   2.869
 9969SOL     OW30805   1.371   3.053   1.419
 9969SOL    HW130806   1.355   3.055   1.518
 9969SOL    HW230807   1.467   3.074   1.401
 9970SOL     OW30808   6.172   4.759   2.131
 9970SOL    HW130809   6.122   4.681   2.170
 9970SOL    HW230810   6.108   4.834   2.114
 9971SOL     OW30811   2.908   6.679   6.699
 9971SOL    HW130812   2.909   6.580   6.683
 9971SOL    HW230813   3.002   6.712   6.706
 9972SOL     OW30814   6.790   5.173   1.645
 9972SOL    HW130815   6.801   5.192   1.547
 9972SOL    HW230816   6.736   5.090   1.656
 9973SOL     OW30817   5.416   6.266   3.723
 9973SOL    HW130818   5.432   6.327   3.645
 9973SOL    HW230819   5.487   6.282   3.792
 9974SOL     OW30820   2.219   0.576   4.311
 9974SOL    HW130821   2.255   0.503   4.252
 9974SOL    HW230822   2.183   0.650   4.253
 9975SOL     OW30823   0.184   4.333   0.990
 9975SOL    HW130824   0.209   4.258   0.929
 9975SOL    HW230825   0.087   4.325   1.016
 9976SOL     OW30826   3.563   6.636   4.243
 9976SOL    HW130827   3.496   6.563   4.248
 9976SOL    HW230828   3.650   6.599   4.210
 9977SOL     OW30829   6.504   4.800   3.800
 9977SOL    HW130830   6.594   4.795   3.844
 9977SOL    HW230831   6.511   4.857   3.717
 9978SOL     OW30832   6.686   2.793   4.283
 9978SOL    HW130833   6.687   2.872   4.222
 9978SOL    HW230834   6.701   2.822   4.377
 9979SOL     OW30835   0.958   3.837   5.134
 9979SOL    HW130836   0.937   3.774   5.209
 9979SOL    HW230837   0.882   3.837   5.068
 9980SOL     OW30838   2.720   6.106   5.101
 9980SOL    HW130839   2.719   6.018   5.054
 9980SOL    HW230840   2.812   6.144   5.099
 9981SOL     OW30841   3.982   2.217   3.134
 9981SOL    HW130842   4.062   2.163   3.163
 9981SOL    HW230843   3.923   2.233   3.213
 9982SOL     OW30844   6.389   6.827   2.511
 9982SOL    HW130845   6.392   6.759   2.584
 9982SOL    HW230846   6.424   6.787   2.426
 9983SOL     OW30847   6.810   0.493   1.363
 9983SOL    HW130848   6.833   0.577   1.314
 9983SOL    HW230849   6.726   0.454   1.325
 9984SOL     OW30850   3.186   0.732   6.447
 9984SOL    HW130851   3.245   0.764   6.521
 9984SOL    HW230852   3.124   0.805   6.419
 9985SOL     OW30853   1.938   1.237   1.486
 9985SOL    HW130854   1.886   1.262   1.567
 9985SOL    HW230855   1.875   1.219   1.410
 9986SOL     OW30856   5.076   4.035   4.715
 9986SOL    HW130857   4.984   4.003   4.696
 9986SOL    HW230858   5.083   4.133   4.695
 9987SOL     OW30859   0.347   4.060   5.678
 9987SOL    HW130860   0.375   3.986   5.739
 9987SOL    HW230861   0.423   4.085   5.618
 9988SOL     OW30862   6.634   0.871   4.223
 9988SOL    HW130863   6.648   0.942   4.293
 9988SOL    HW230864   6.649   0.781   4.264
 9989SOL     OW30865   2.148   2.472   4.403
 9989SOL    HW130866   2.113   2.413   4.476
 9989SOL    HW230867   2.211   2.539   4.441
 9990SOL     OW30868   0.809   4.786   1.576
 9990SOL    HW130869   0.782   4.877   1.546
 9990SOL    HW230870   0.795   4.777   1.675
 9991SOL     OW30871   3.722   1.883   3.473
 9991SOL    HW130872   3.764   1.947   3.538
 9991SOL    HW230873   3.704   1.930   3.387
 9992SOL     OW30874   6.123   5.204   6.329
 9992SOL    HW130875   6.158   5.295   6.349
 9992SOL    HW230876   6.048   5.183   6.392
 9993SOL     OW30877   1.103   0.688   2.311
 9993SOL    HW130878   1.022   0.708   2.255
 9993SOL    HW230879   1.165   0.629   2.260
 9994SOL     OW30880   6.243   4.244   3.675
 9994SOL    HW130881   6.256   4.245   3.774
 9994SOL    HW230882   6.151   4.210   3.654
 9995SOL     OW30883   5.401   1.848   4.674
 9995SOL    HW130884   5.406   1.748   4.672
 9995SOL    HW230885   5.490   1.886   4.651
 9996SOL     OW30886   3.152   3.153   0.546
 9996SOL    HW130887   3.188   3.203   0.467
 9996SOL    HW230888   3.182   3.058   0.542
 9997SOL     OW30889   2.647   0.970   4.386
 9997SOL    HW130890   2.694   0.900   4.440
 9997SOL    HW230891   2.552   0.977   4.416
 9998SOL     OW30892   6.012   6.120   4.798
 9998SOL    HW130893   6.023   6.079   4.707
 9998SOL    HW230894   6.070   6.072   4.863
 9999SOL     OW30895   0.210   1.117   5.218
 9999SOL    HW130896   0.143   1.055   5.177
 9999SOL    HW230897   0.236   1.187   5.152
10000SOL     OW30898   6.757   4.705   0.461
10000SOL    HW130899   6.701   4.762   0.520
10000SOL    HW230900   6.780   4.756   0.378
10001SOL     OW30901   3.934   0.653   3.848
10001SOL    HW130902   3.908   0.669   3.753
10001SOL    HW230903   3.867   0.593   3.891
10002SOL     OW30904   1.074   1.734   1.286
10002SOL    HW130905   1.090   1.666   1.357
10002SOL    HW230906   1.081   1.826   1.326
10003SOL     OW30907   5.169   4.063   1.824
10003SOL    HW130908   5.159   4.123   1.903
10003SOL    HW230909   5.259   4.078   1.782
10004SOL     OW30910   7.002   3.648   4.034
10004SOL    HW130911   6.963   3.703   3.960
10004SOL    HW230912   7.005   3.552   4.006
10005SOL     OW30913   4.583   0.544   3.610
10005SOL    HW130914   4.654   0.506   3.550
10005SOL    HW230915   4.619   0.552   3.703
10006SOL     OW30916   4.985   2.528   3.956
10006SOL    HW130917   5.053   2.598   3.934
10006SOL    HW230918   4.941   2.496   3.872
10007SOL     OW30919   5.534   5.227   4.310
10007SOL    HW130920   5.606   5.247   4.376
10007SOL    HW230921   5.522   5.128   4.302
10008SOL     OW30922   3.076   0.105   4.026
10008SOL    HW130923   3.174   0.127   4.029
10008SOL    HW230924   3.047   0.070   4.115
10009SOL     OW30925   2.029   4.280   1.412
10009SOL    HW130926   2.053   4.209   1.346
10009SOL    HW230927   2.000   4.363   1.364
10010SOL     OW30928   5.859   0.704   6.073
10010SOL    HW130929   5.925   0.715   6.148
10010SOL    HW230930   5.899   0.647   6.002
10011SOL     OW30931   6.991   6.625   3.646
10011SOL    HW130932   6.995   6.718   3.682
10011SOL    HW230933   6.947   6.626   3.556
10012SOL     OW30934   4.942   0.752   5.232
10012SOL    HW130935   4.961   0.724   5.327
10012SOL    HW230936   4.943   0.671   5.173
10013SOL     OW30937   1.163   0.524   1.313
10013SOL    HW130938   1.151   0.480   1.402
10013SOL    HW230939   1.181   0.455   1.243
10014SOL     OW30940   1.615   4.723   5.885
10014SOL    HW130941   1.597   4.720   5.787
10014SOL    HW230942   1.529   4.726   5.936
10015SOL     OW30943   2.508   6.164   6.241
10015SOL    HW130944   2.471   6.253   6.267
10015SOL    HW230945   2.606   6.173   6.223
10016SOL     OW30946   2.122   1.480   5.304
10016SOL    HW130947   2.204   1.426   5.323
10016SOL    HW230948   2.042   1.420   5.302
10017SOL     OW30949   7.010   2.149   3.552
10017SOL    HW130950   7.018   2.249   3.548
10017SOL    HW230951   6.916   2.123   3.527
10018SOL     OW30952   5.200   6.558   6.613
10018SOL    HW130953   5.201   6.522   6.520
10018SOL    HW230954   5.105   6.571   6.643
10019SOL     OW30955   1.043   0.631   3.359
10019SOL    HW130956   1.014   0.675   3.444
10019SOL    HW230957   1.014   0.535   3.359
10020SOL     OW30958   1.099   3.884   0.180
10020SOL    HW130959   1.055   3.811   0.232
10020SOL    HW230960   1.110   3.965   0.237
10021SOL     OW30961   4.975   2.903   1.233
10021SOL    HW130962   5.029   2.839   1.178
10021SOL    HW230963   4.879   2.895   1.206
10022SOL     OW30964   2.138   0.934   6.555
10022SOL    HW130965   2.060   0.996   6.541
10022SOL    HW230966   2.221   0.988   6.569
10023SOL     OW30967   0.236   3.580   0.362
10023SOL    HW130968   0.173   3.502   0.354
10023SOL    HW230969   0.193   3.651   0.417
10024SOL     OW30970   0.882   3.844   2.736
10024SOL    HW130971   0.888   3.851   2.836
10024SOL    HW230972   0.889   3.935   2.696
10025SOL     OW30973   0.997   1.445   0.723
10025SOL    HW130974   1.076   1.493   0.760
10025SOL    HW230975   1.016   1.417   0.629
10026SOL     OW30976   6.174   1.117   4.678
10026SOL    HW130977   6.220   1.133   4.591
10026SOL    HW230978   6.208   1.033   4.719
10027SOL     OW30979   5.656   2.977   5.831
10027SOL    HW130980   5.595   2.904   5.862
10027SOL    HW230981   5.644   2.990   5.732
10028SOL     OW30982   1.702   1.581   1.882
10028SOL    HW130983   1.603   1.586   1.873
10028SOL    HW230984   1.744   1.648   1.819
10029SOL     OW30985   3.559   1.391   4.401
10029SOL    HW130986   3.646   1.373   4.355
10029SOL    HW230987   3.539   1.316   4.465
10030SOL     OW30988   0.624   1.042   2.160
10030SOL    HW130989   0.597   1.130   2.122
10030SOL    HW230990   0.613   0.971   2.090
10031SOL     OW30991   0.252   5.265   3.087
10031SOL    HW130992   0.207   5.347   3.051
10031SOL    HW230993   0.199   5.184   3.060
10032SOL     OW30994   3.660   2.061   5.286
10032SOL    HW130995   3.571   2.065   5.332
10032SOL    HW230996   3.705   2.150   5.294
10033SOL     OW30997   5.972   2.787   3.581
10033SOL    HW130998   5.884   2.757   3.543
10033SOL    HW230999   5.963   2.880   3.615
10034SOL     OW31000   3.618   6.351   5.866
10034SOL    HW131001   3.651   6.259   5.884
10034SOL    HW231002   3.606   6.363   5.767
10035SOL     OW31003   0.480   6.831   3.941
10035SOL    HW131004   0.475   6.756   4.007
10035SOL    HW231005   0.575   6.849   3.916
10036SOL     OW31006   6.179   0.671   0.581
10036SOL    HW131007   6.249   0.674   0.509
10036SOL    HW231008   6.213   0.719   0.662
10037SOL     OW31009   0.129   6.861   1.035
10037SOL    HW131010   0.155   6.942   1.089
10037SOL    HW231011   0.203   6.794   1.039
10038SOL     OW31012   5.999   7.015   1.038
10038SOL    HW131013   6.010   0.088   1.036
10038SOL    HW231014   6.026   6.981   1.128
10039SOL     OW31015   4.240   0.965   2.899
10039SOL    HW131016   4.195   1.045   2.861
10039SOL    HW231017   4.328   0.992   2.940
10040SOL     OW31018   0.914   1.925   0.461
10040SOL    HW131019   0.866   1.887   0.382
10040SOL    HW231020   0.851   1.980   0.516
10041SOL     OW31021   1.182   6.662   0.318
10041SOL    HW131022   1.267   6.613   0.334
10041SOL    HW231023   1.136   6.680   0.405
10042SOL     OW31024   6.548   1.894   3.529
10042SOL    HW131025   6.516   1.811   3.575
10042SOL    HW231026   6.469   1.948   3.500
10043SOL     OW31027   2.367   2.623   5.602
10043SOL    HW131028   2.363   2.672   5.515
10043SOL    HW231029   2.338   2.684   5.675
10044SOL     OW31030   4.053   0.807   0.128
10044SOL    HW131031   3.984   0.799   0.056
10044SOL    HW231032   4.088   0.901   0.129
10045SOL     OW31033   2.472   0.405   1.219
10045SOL    HW131034   2.518   0.317   1.206
10045SOL    HW231035   2.453   0.446   1.129
10046SOL     OW31036   0.749   5.876   0.091
10046SOL    HW131037   0.790   5.791   0.059
10046SOL    HW231038   0.804   5.953   0.058
10047SOL     OW31039   1.654   3.756   0.866
10047SOL    HW131040   1.633   3.749   0.963
10047SOL    HW231041   1.698   3.845   0.848
10048SOL     OW31042   6.352   3.507   1.087
10048SOL    HW131043   6.273   3.464   1.131
10048SOL    HW231044   6.352   3.485   0.989
10049SOL     OW31045   6.589   1.950   4.675
10049SOL    HW131046   6.666   1.953   4.611
10049SOL    HW231047   6.513   2.005   4.639
10050SOL     OW31048   0.057   2.309   6.218
10050SOL    HW131049   6.999   2.359   6.200
10050SOL    HW231050   0.129   2.373   6.244
10051SOL     OW31051   1.754   0.510   3.226
10051SOL    HW131052   1.845   0.552   3.230
10051SOL    HW231053   1.733   0.467   3.314
10052SOL     OW31054   1.019   0.216   4.120
10052SOL    HW131055   0.967   0.283   4.067
10052SOL    HW231056   1.099   0.187   4.068
10053SOL     OW31057   5.900   5.676   2.555
10053SOL    HW131058   5.897   5.775   2.542
10053SOL    HW231059   5.822   5.647   2.610
10054SOL     OW31060   5.264   4.012   3.566
10054SOL    HW131061   5.265   4.105   3.600
10054SOL    HW231062   5.173   3.972   3.580
10055SOL     OW31063   1.618   1.893   6.796
10055SOL    HW131064   1.583   1.829   6.728
10055SOL    HW231065   1.714   1.873   6.814
10056SOL     OW31066   5.169   2.702   4.492
10056SOL    HW131067   5.214   2.654   4.416
10056SOL    HW231068   5.101   2.642   4.533
10057SOL     OW31069   5.916   4.181   4.950
10057SOL    HW131070   5.830   4.182   5.000
10057SOL    HW231071   5.917   4.254   4.882
10058SOL     OW31072   6.164   3.849   3.702
10058SOL    HW131073   6.089   3.912   3.719
10058SOL    HW231074   6.240   3.897   3.659
10059SOL     OW31075   5.421   6.077   5.553
10059SOL    HW131076   5.366   6.085   5.636
10059SOL    HW231077   5.436   5.981   5.532
10060SOL     OW31078   3.016   1.823   2.013
10060SOL    HW131079   3.094   1.785   1.962
10060SOL    HW231080   2.938   1.762   2.003
10061SOL     OW31081   4.125   6.763   3.500
10061SOL    HW131082   4.053   6.773   3.568
10061SOL    HW231083   4.129   6.668   3.468
10062SOL     OW31084   6.824   0.480   4.768
10062SOL    HW131085   6.915   0.485   4.811
10062SOL    HW231086   6.831   0.509   4.673
10063SOL     OW31087   3.972   2.154   3.426
10063SOL    HW131088   4.070   2.167   3.443
10063SOL    HW231089   3.922   2.164   3.512
10064SOL     OW31090   2.360   6.525   2.698
10064SOL    HW131091   2.400   6.480   2.777
10064SOL    HW231092   2.389   6.621   2.696
10065SOL     OW31093   6.503   1.902   1.523
10065SOL    HW131094   6.573   1.935   1.460
10065SOL    HW231095   6.503   1.802   1.522
10066SOL     OW31096   6.353   4.231   3.414
10066SOL    HW131097   6.316   4.250   3.505
10066SOL    HW231098   6.440   4.182   3.423
10067SOL     OW31099   5.446   3.308   5.164
10067SOL    HW131100   5.467   3.214   5.136
10067SOL    HW231101   5.515   3.339   5.229
10068SOL     OW31102   1.946   3.415   2.868
10068SOL    HW131103   2.031   3.434   2.819
10068SOL    HW231104   1.919   3.320   2.851
10069SOL     OW31105   3.097   5.430   1.954
10069SOL    HW131106   3.012   5.481   1.939
10069SOL    HW231107   3.144   5.467   2.034
10070SOL     OW31108   5.017   0.836   6.936
10070SOL    HW131109   4.958   0.907   6.973
10070SOL    HW231110   4.967   0.750   6.932
10071SOL     OW31111   5.209   0.848   5.274
10071SOL    HW131112   5.115   0.817   5.259
10071SOL    HW231113   5.215   0.947   5.261
10072SOL     OW31114   5.769   3.322   2.190
10072SOL    HW131115   5.752   3.228   2.163
10072SOL    HW231116   5.682   3.368   2.210
10073SOL     OW31117   5.746   5.672   5.284
10073SOL    HW131118   5.787   5.755   5.321
10073SOL    HW231119   5.665   5.696   5.231
10074SOL     OW31120   1.649   4.513   0.943
10074SOL    HW131121   1.562   4.468   0.925
10074SOL    HW231122   1.656   4.534   1.040
10075SOL     OW31123   0.698   3.245   1.455
10075SOL    HW131124   0.785   3.201   1.432
10075SOL    HW231125   0.628   3.215   1.390
10076SOL     OW31126   6.108   4.842   3.625
10076SOL    HW131127   6.010   4.839   3.644
10076SOL    HW231128   6.156   4.878   3.704
10077SOL     OW31129   4.086   3.699   6.893
10077SOL    HW131130   3.988   3.714   6.901
10077SOL    HW231131   4.113   3.621   6.949
10078SOL     OW31132   5.838   5.925   3.790
10078SOL    HW131133   5.809   5.838   3.750
10078SOL    HW231134   5.864   5.988   3.717
10079SOL     OW31135   5.913   5.033   3.181
10079SOL    HW131136   5.973   5.113   3.187
10079SOL    HW231137   5.826   5.053   3.226
10080SOL     OW31138   5.298   2.591   4.985
10080SOL    HW131139   5.250   2.668   4.942
10080SOL    HW231140   5.276   2.507   4.936
10081SOL     OW31141   1.291   5.004   1.026
10081SOL    HW131142   1.340   4.917   1.029
10081SOL    HW231143   1.346   5.075   1.070
10082SOL     OW31144   0.310   4.188   1.629
10082SOL    HW131145   0.310   4.154   1.534
10082SOL    HW231146   0.238   4.257   1.640
10083SOL     OW31147   3.331   6.225   2.673
10083SOL    HW131148   3.407   6.185   2.725
10083SOL    HW231149   3.264   6.263   2.736
10084SOL     OW31150   1.659   2.956   4.634
10084SOL    HW131151   1.670   3.015   4.555
10084SOL    HW231152   1.746   2.909   4.653
10085SOL     OW31153   3.739   6.831   1.818
10085SOL    HW131154   3.745   6.889   1.736
10085SOL    HW231155   3.826   6.783   1.830
10086SOL     OW31156   2.602   0.904   3.197
10086SOL    HW131157   2.606   0.806   3.216
10086SOL    HW231158   2.520   0.943   3.240
10087SOL     OW31159   1.616   5.782   6.168
10087SOL    HW131160   1.658   5.757   6.256
10087SOL    HW231161   1.519   5.757   6.170
10088SOL     OW31162   5.825   1.591   0.903
10088SOL    HW131163   5.806   1.679   0.947
10088SOL    HW231164   5.809   1.517   0.969
10089SOL     OW31165   3.551   6.571   3.046
10089SOL    HW131166   3.492   6.513   2.991
10089SOL    HW231167   3.498   6.647   3.083
10090SOL     OW31168   3.465   6.205   2.268
10090SOL    HW131169   3.478   6.135   2.198
10090SOL    HW231170   3.529   6.189   2.343
10091SOL     OW31171   5.257   6.261   2.912
10091SOL    HW131172   5.262   6.361   2.907
10091SOL    HW231173   5.296   6.231   2.999
10092SOL     OW31174   7.009   1.431   2.696
10092SOL    HW131175   6.990   1.423   2.794
10092SOL    HW231176   6.978   1.348   2.649
10093SOL     OW31177   4.626   4.112   6.442
10093SOL    HW131178   4.635   4.121   6.541
10093SOL    HW231179   4.529   4.112   6.417
10094SOL     OW31180   3.954   2.677   0.260
10094SOL    HW131181   3.994   2.642   0.176
10094SOL    HW231182   3.920   2.601   0.316
10095SOL     OW31183   4.416   2.656   5.340
10095SOL    HW131184   4.326   2.665   5.297
10095SOL    HW231185   4.453   2.747   5.359
10096SOL     OW31186   6.740   4.882   1.724
10096SOL    HW131187   6.800   4.835   1.659
10096SOL    HW231188   6.707   4.816   1.792
10097SOL     OW31189   0.969   1.035   1.358
10097SOL    HW131190   0.973   0.936   1.358
10097SOL    HW231191   1.045   1.072   1.411
10098SOL     OW31192   3.931   5.180   0.407
10098SOL    HW131193   3.903   5.165   0.313
10098SOL    HW231194   4.022   5.141   0.421
10099SOL     OW31195   6.844   6.227   3.424
10099SOL    HW131196   6.883   6.200   3.336
10099SOL    HW231197   6.906   6.202   3.498
10100SOL     OW31198   5.309   5.556   4.141
10100SOL    HW131199   5.281   5.486   4.206
10100SOL    HW231200   5.372   5.517   4.074
10101SOL     OW31201   6.928   2.093   6.529
10101SOL    HW131202   6.899   2.029   6.457
10101SOL    HW231203   7.022   2.121   6.511
10102SOL     OW31204   0.524   5.222   2.953
10102SOL    HW131205   0.608   5.183   2.990
10102SOL    HW231206   0.460   5.240   3.028
10103SOL     OW31207   0.239   0.544   6.946
10103SOL    HW131208   0.241   0.641   6.924
10103SOL    HW231209   0.169   0.527   7.015
10104SOL     OW31210   2.534   1.472   4.448
10104SOL    HW131211   2.486   1.557   4.470
10104SOL    HW231212   2.469   1.397   4.440
10105SOL     OW31213   3.506   1.506   3.983
10105SOL    HW131214   3.465   1.580   3.930
10105SOL    HW231215   3.465   1.504   4.075
10106SOL     OW31216   6.863   3.766   1.028
10106SOL    HW131217   6.846   3.854   0.983
10106SOL    HW231218   6.961   3.751   1.037
10107SOL     OW31219   5.006   5.516   5.939
10107SOL    HW131220   4.955   5.532   5.854
10107SOL    HW231221   5.081   5.452   5.921
10108SOL     OW31222   3.200   1.839   4.900
10108SOL    HW131223   3.221   1.759   4.956
10108SOL    HW231224   3.101   1.849   4.891
10109SOL     OW31225   1.124   2.811   0.873
10109SOL    HW131226   1.159   2.768   0.956
10109SOL    HW231227   1.038   2.856   0.892
10110SOL     OW31228   6.163   6.332   1.538
10110SOL    HW131229   6.094   6.290   1.597
10110SOL    HW231230   6.119   6.363   1.454
10111SOL     OW31231   6.207   2.403   2.048
10111SOL    HW131232   6.242   2.412   1.955
10111SOL    HW231233   6.205   2.306   2.074
10112SOL     OW31234   0.161   2.826   3.635
10112SOL    HW131235   0.072   2.867   3.657
10112SOL    HW231236   0.219   2.895   3.592
10113SOL     OW31237   6.979   6.852   6.399
10113SOL    HW131238   0.029   6.806   6.443
10113SOL    HW231239   6.895   6.799   6.415
10114SOL     OW31240   6.093   4.362   1.227
10114SOL    HW131241   6.065   4.453   1.256
10114SOL    HW231242   6.040   4.336   1.146
10115SOL     OW31243   3.295   1.887   6.505
10115SOL    HW131244   3.267   1.940   6.425
10115SOL    HW231245   3.338   1.948   6.572
10116SOL     OW31246   0.986   6.597   6.625
10116SOL    HW131247   1.020   6.534   6.555
10116SOL    HW231248   0.888   6.613   6.611
10117SOL     OW31249   0.743   4.297   1.224
10117SOL    HW131250   0.693   4.252   1.298
10117SOL    HW231251   0.678   4.343   1.163
10118SOL     OW31252   3.693   5.291   4.009
10118SOL    HW131253   3.724   5.381   3.978
10118SOL    HW231254   3.769   5.227   4.007
10119SOL     OW31255   5.604   5.885   6.701
10119SOL    HW131256   5.664   5.815   6.739
10119SOL    HW231257   5.653   5.939   6.633
10120SOL     OW31258   2.592   2.444   2.774
10120SOL    HW131259   2.597   2.437   2.675
10120SOL    HW231260   2.667   2.392   2.815
10121SOL     OW31261   6.581   5.861   1.198
10121SOL    HW131262   6.610   5.806   1.277
10121SOL    HW231263   6.579   5.957   1.224
10122SOL     OW31264   2.056   6.941   3.355
10122SOL    HW131265   2.150   6.908   3.367
10122SOL    HW231266   1.992   6.872   3.388
10123SOL     OW31267   6.296   6.664   6.664
10123SOL    HW131268   6.197   6.662   6.674
10123SOL    HW231269   6.332   6.748   6.705
10124SOL     OW31270   0.412   4.957   3.395
10124SOL    HW131271   0.457   5.034   3.440
10124SOL    HW231272   0.358   4.991   3.318
10125SOL     OW31273   1.777   2.461   3.995
10125SOL    HW131274   1.851   2.417   3.942
10125SOL    HW231275   1.792   2.444   4.092
10126SOL     OW31276   6.767   6.019   4.589
10126SOL    HW131277   6.694   5.956   4.613
10126SOL    HW231278   6.826   5.977   4.519
10127SOL     OW31279   2.522   1.131   4.890
10127SOL    HW131280   2.581   1.138   4.971
10127SOL    HW231281   2.429   1.110   4.919
10128SOL     OW31282   2.891   0.974   0.757
10128SOL    HW131283   2.971   0.931   0.715
10128SOL    HW231284   2.916   1.065   0.790
10129SOL     OW31285   6.628   1.569   5.808
10129SOL    HW131286   6.667   1.479   5.789
10129SOL    HW231287   6.702   1.632   5.832
10130SOL     OW31288   1.187   2.843   3.276
10130SOL    HW131289   1.151   2.827   3.368
10130SOL    HW231290   1.274   2.796   3.266
10131SOL     OW31291   2.658   1.191   5.160
10131SOL    HW131292   2.606   1.275   5.163
10131SOL    HW231293   2.753   1.211   5.133
10132SOL     OW31294   6.038   0.392   2.040
10132SOL    HW131295   6.022   0.300   2.004
10132SOL    HW231296   5.951   0.437   2.055
10133SOL     OW31297   4.722   5.498   1.486
10133SOL    HW131298   4.644   5.484   1.426
10133SOL    HW231299   4.698   5.472   1.579
10134SOL     OW31300   6.621   1.309   2.849
10134SOL    HW131301   6.521   1.303   2.845
10134SOL    HW231302   6.658   1.220   2.876
10135SOL     OW31303   6.724   6.584   3.147
10135SOL    HW131304   6.644   6.523   3.141
10135SOL    HW231305   6.785   6.550   3.218
10136SOL     OW31306   4.909   0.598   3.010
10136SOL    HW131307   4.889   0.578   2.914
10136SOL    HW231308   4.970   0.677   3.015
10137SOL     OW31309   5.909   6.106   2.635
10137SOL    HW131310   5.992   6.159   2.650
10137SOL    HW231311   5.924   6.041   2.561
10138SOL     OW31312   0.127   1.925   2.052
10138SOL    HW131313   0.066   1.896   1.979
10138SOL    HW231314   0.087   1.902   2.141
10139SOL     OW31315   4.539   2.809   0.811
10139SOL    HW131316   4.618   2.760   0.774
10139SOL    HW231317   4.556   2.832   0.906
10140SOL     OW31318   5.931   6.247   3.736
10140SOL    HW131319   5.995   6.324   3.738
10140SOL    HW231320   5.858   6.263   3.804
10141SOL     OW31321   1.007   1.944   4.510
10141SOL    HW131322   1.040   1.957   4.416
10141SOL    HW231323   0.970   2.031   4.544
10142SOL     OW31324   4.477   6.599   1.645
10142SOL    HW131325   4.449   6.646   1.729
10142SOL    HW231326   4.431   6.510   1.641
10143SOL     OW31327   6.797   3.323   7.004
10143SOL    HW131328   6.784   3.422   7.018
10143SOL    HW231329   6.892   3.306   6.979
10144SOL     OW31330   5.067   0.308   2.518
10144SOL    HW131331   4.975   0.332   2.487
10144SOL    HW231332   5.087   0.356   2.603
10145SOL     OW31333   6.264   0.316   5.409
10145SOL    HW131334   6.343   0.305   5.470
10145SOL    HW231335   6.245   0.413   5.396
10146SOL     OW31336   1.503   1.614   5.534
10146SOL    HW131337   1.499   1.568   5.445
10146SOL    HW231338   1.419   1.595   5.585
10147SOL     OW31339   3.316   4.550   0.524
10147SOL    HW131340   3.301   4.514   0.432
10147SOL    HW231341   3.293   4.648   0.526
10148SOL     OW31342   6.890   5.632   6.917
10148SOL    HW131343   6.937   5.560   6.967
10148SOL    HW231344   6.798   5.601   6.892
10149SOL     OW31345   3.718   2.897   4.150
10149SOL    HW131346   3.641   2.856   4.198
10149SOL    HW231347   3.696   2.905   4.053
10150SOL     OW31348   6.522   4.388   0.089
10150SOL    HW131349   6.588   4.314   0.085
10150SOL    HW231350   6.509   4.427   7.025
10151SOL     OW31351   0.313   0.352   0.342
10151SOL    HW131352   0.334   0.447   0.319
10151SOL    HW231353   0.348   0.331   0.433
10152SOL     OW31354   3.665   6.271   3.923
10152SOL    HW131355   3.637   6.277   4.019
10152SOL    HW231356   3.584   6.261   3.865
10153SOL     OW31357   4.581   4.153   1.177
10153SOL    HW131358   4.603   4.224   1.110
10153SOL    HW231359   4.542   4.073   1.130
10154SOL     OW31360   4.998   4.828   6.163
10154SOL    HW131361   5.064   4.893   6.126
10154SOL    HW231362   4.998   4.746   6.106
10155SOL     OW31363   4.767   2.507   5.016
10155SOL    HW131364   4.745   2.504   4.919
10155SOL    HW231365   4.866   2.511   5.028
10156SOL     OW31366   3.338   2.010   6.782
10156SOL    HW131367   3.418   2.066   6.763
10156SOL    HW231368   3.367   1.929   6.834
10157SOL     OW31369   6.806   5.745   2.227
10157SOL    HW131370   6.852   5.692   2.156
10157SOL    HW231371   6.823   5.702   2.316
10158SOL     OW31372   6.969   4.948   6.229
10158SOL    HW131373   6.931   4.862   6.197
10158SOL    HW231374   0.024   4.970   6.176
10159SOL     OW31375   4.103   3.167   1.568
10159SOL    HW131376   4.140   3.217   1.647
10159SOL    HW231377   4.010   3.198   1.550
10160SOL     OW31378   0.137   4.214   2.138
10160SOL    HW131379   0.086   4.169   2.065
10160SOL    HW231380   0.200   4.150   2.179
10161SOL     OW31381   6.496   2.468   0.518
10161SOL    HW131382   6.575   2.449   0.577
10161SOL    HW231383   6.522   2.452   0.422
10162SOL     OW31384   2.139   2.218   1.942
10162SOL    HW131385   2.121   2.293   2.005
10162SOL    HW231386   2.137   2.252   1.848
10163SOL     OW31387   3.602   5.241   4.876
10163SOL    HW131388   3.608   5.145   4.849
10163SOL    HW231389   3.689   5.287   4.858
10164SOL     OW31390   0.640   1.218   3.763
10164SOL    HW131391   0.704   1.245   3.835
10164SOL    HW231392   0.626   1.119   3.767
10165SOL     OW31393   2.128   3.124   3.581
10165SOL    HW131394   2.174   3.098   3.497
10165SOL    HW231395   2.144   3.221   3.600
10166SOL     OW31396   2.951   6.220   3.237
10166SOL    HW131397   2.936   6.248   3.332
10166SOL    HW231398   3.009   6.286   3.191
10167SOL     OW31399   4.005   1.329   0.253
10167SOL    HW131400   3.921   1.364   0.293
10167SOL    HW231401   4.036   1.250   0.305
10168SOL     OW31402   0.544   0.937   0.004
10168SOL    HW131403   0.530   0.878   0.083
10168SOL    HW231404   0.477   0.915   6.960
10169SOL     OW31405   4.541   5.196   2.925
10169SOL    HW131406   4.444   5.172   2.935
10169SOL    HW231407   4.593   5.113   2.903
10170SOL     OW31408   4.638   6.618   6.985
10170SOL    HW131409   4.711   6.680   6.955
10170SOL    HW231410   4.655   6.590   0.053
10171SOL     OW31411   1.486   4.388   3.144
10171SOL    HW131412   1.409   4.435   3.101
10171SOL    HW231413   1.547   4.352   3.074
10172SOL     OW31414   0.771   0.761   3.295
10172SOL    HW131415   0.836   0.695   3.255
10172SOL    HW231416   0.818   0.848   3.310
10173SOL     OW31417   4.421   2.429   4.629
10173SOL    HW131418   4.328   2.409   4.600
10173SOL    HW231419   4.478   2.444   4.548
10174SOL     OW31420   4.635   5.063   1.206
10174SOL    HW131421   4.667   4.974   1.239
10174SOL    HW231422   4.563   5.097   1.266
10175SOL     OW31423   6.502   6.506   4.155
10175SOL    HW131424   6.582   6.491   4.213
10175SOL    HW231425   6.444   6.577   4.195
10176SOL     OW31426   0.066   1.373   5.046
10176SOL    HW131427   0.156   1.392   5.086
10176SOL    HW231428   0.065   1.403   4.951
10177SOL     OW31429   3.080   0.916   4.738
10177SOL    HW131430   3.008   0.974   4.701
10177SOL    HW231431   3.159   0.973   4.763
10178SOL     OW31432   6.311   1.521   2.226
10178SOL    HW131433   6.266   1.433   2.236
10178SOL    HW231434   6.388   1.527   2.289
10179SOL     OW31435   6.914   6.080   0.889
10179SOL    HW131436   6.909   6.178   0.912
10179SOL    HW231437   6.931   6.027   0.972
10180SOL     OW31438   1.568   0.202   6.169
10180SOL    HW131439   1.565   0.237   6.262
10180SOL    HW231440   1.634   0.127   6.164
10181SOL     OW31441   0.512   3.948   1.928
10181SOL    HW131442   0.605   3.944   1.892
10181SOL    HW231443   0.502   4.027   1.988
10182SOL     OW31444   2.982   6.519   6.345
10182SOL    HW131445   2.933   6.448   6.293
10182SOL    HW231446   3.013   6.480   6.432
10183SOL     OW31447   3.661   5.790   6.181
10183SOL    HW131448   3.747   5.807   6.228
10183SOL    HW231449   3.622   5.877   6.150
10184SOL     OW31450   4.699   2.783   4.009
10184SOL    HW131451   4.728   2.872   4.045
10184SOL    HW231452   4.746   2.766   3.922
10185SOL     OW31453   3.025   4.625   1.660
10185SOL    HW131454   2.990   4.558   1.726
10185SOL    HW231455   3.074   4.697   1.709
10186SOL     OW31456   3.534   2.861   1.848
10186SOL    HW131457   3.536   2.768   1.812
10186SOL    HW231458   3.626   2.900   1.841
10187SOL     OW31459   1.213   3.531   5.662
10187SOL    HW131460   1.138   3.553   5.724
10187SOL    HW231461   1.201   3.578   5.575
10188SOL     OW31462   2.284   6.492   6.747
10188SOL    HW131463   2.353   6.449   6.805
10188SOL    HW231464   2.282   6.590   6.766
10189SOL     OW31465   2.171   1.701   5.482
10189SOL    HW131466   2.222   1.763   5.423
10189SOL    HW231467   2.138   1.624   5.428
10190SOL     OW31468   2.901   3.968   1.009
10190SOL    HW131469   2.883   3.998   0.915
10190SOL    HW231470   2.999   3.972   1.027
10191SOL     OW31471   6.106   0.657   0.183
10191SOL    HW131472   6.199   0.674   0.217
10191SOL    HW231473   6.092   0.708   0.098
10192SOL     OW31474   2.874   0.764   4.163
10192SOL    HW131475   2.932   0.842   4.142
10192SOL    HW231476   2.781   0.796   4.183
10193SOL     OW31477   3.644   3.650   3.538
10193SOL    HW131478   3.564   3.591   3.545
10193SOL    HW231479   3.727   3.594   3.541
10194SOL     OW31480   3.094   5.854   2.900
10194SOL    HW131481   3.051   5.882   2.987
10194SOL    HW231482   3.174   5.911   2.882
10195SOL     OW31483   5.229   0.179   2.338
10195SOL    HW131484   5.179   0.180   2.252
10195SOL    HW231485   5.182   0.237   2.405
10196SOL     OW31486   4.757   4.689   4.141
10196SOL    HW131487   4.760   4.765   4.077
10196SOL    HW231488   4.705   4.614   4.101
10197SOL     OW31489   5.480   1.771   2.752
10197SOL    HW131490   5.544   1.751   2.678
10197SOL    HW231491   5.387   1.772   2.716
10198SOL     OW31492   3.861   1.200   1.850
10198SOL    HW131493   3.870   1.106   1.883
10198SOL    HW231494   3.920   1.214   1.771
10199SOL     OW31495   1.069   1.790   7.020
10199SOL    HW131496   1.052   1.871   0.050
10199SOL    HW231497   1.155   1.802   6.970
10200SOL     OW31498   4.925   6.869   3.852
10200SOL    HW131499   4.877   6.837   3.771
10200SOL    HW231500   4.880   6.950   3.889
10201SOL     OW31501   0.752   5.425   3.503
10201SOL    HW131502   0.834   5.443   3.448
10201SOL    HW231503   0.680   5.489   3.477
10202SOL     OW31504   1.352   2.441   3.404
10202SOL    HW131505   1.430   2.394   3.444
10202SOL    HW231506   1.293   2.477   3.476
10203SOL     OW31507   5.898   2.448   1.491
10203SOL    HW131508   5.875   2.544   1.480
10203SOL    HW231509   5.815   2.393   1.488
10204SOL     OW31510   1.738   6.164   4.440
10204SOL    HW131511   1.686   6.083   4.412
10204SOL    HW231512   1.712   6.242   4.382
10205SOL     OW31513   3.737   6.611   0.639
10205SOL    HW131514   3.716   6.513   0.633
10205SOL    HW231515   3.710   6.656   0.554
10206SOL     OW31516   5.906   5.943   6.730
10206SOL    HW131517   5.985   5.904   6.683
10206SOL    HW231518   5.913   5.925   6.828
10207SOL     OW31519   3.532   1.575   1.984
10207SOL    HW131520   3.436   1.594   1.962
10207SOL    HW231521   3.544   1.476   1.994
10208SOL     OW31522   0.333   2.135   6.331
10208SOL    HW131523   0.274   2.215   6.321
10208SOL    HW231524   0.428   2.164   6.324
10209SOL     OW31525   3.619   6.236   6.812
10209SOL    HW131526   3.635   6.142   6.782
10209SOL    HW231527   3.533   6.239   6.864
10210SOL     OW31528   4.513   6.400   6.562
10210SOL    HW131529   4.418   6.428   6.549
10210SOL    HW231530   4.532   6.394   6.660
10211SOL     OW31531   3.975   5.145   4.718
10211SOL    HW131532   3.936   5.228   4.757
10211SOL    HW231533   4.064   5.127   4.759
10212SOL     OW31534   6.566   6.067   5.598
10212SOL    HW131535   6.570   5.995   5.667
10212SOL    HW231536   6.658   6.094   5.571
10213SOL     OW31537   3.884   0.004   4.450
10213SOL    HW131538   3.960   0.058   4.486
10213SOL    HW231539   3.917   6.938   4.427
10214SOL     OW31540   6.770   0.812   0.503
10214SOL    HW131541   6.738   0.729   0.548
10214SOL    HW231542   6.814   0.872   0.570
10215SOL     OW31543   4.961   2.627   0.330
10215SOL    HW131544   4.947   2.587   0.239
10215SOL    HW231545   5.020   2.567   0.384
10216SOL     OW31546   5.337   0.631   2.472
10216SOL    HW131547   5.337   0.726   2.439
10216SOL    HW231548   5.411   0.581   2.428
10217SOL     OW31549   2.898   1.864   6.592
10217SOL    HW131550   2.881   1.785   6.652
10217SOL    HW231551   2.907   1.832   6.498
10218SOL     OW31552   3.841   0.811   6.329
10218SOL    HW131553   3.805   0.727   6.289
10218SOL    HW231554   3.930   0.792   6.372
10219SOL     OW31555   0.219   5.491   1.203
10219SOL    HW131556   0.122   5.515   1.216
10219SOL    HW231557   0.272   5.524   1.281
10220SOL     OW31558   4.113   2.789   6.373
10220SOL    HW131559   4.049   2.713   6.360
10220SOL    HW231560   4.206   2.753   6.380
10221SOL     OW31561   2.352   6.965   4.623
10221SOL    HW131562   2.378   7.006   4.711
10221SOL    HW231563   2.420   6.988   4.554
10222SOL     OW31564   2.524   4.968   5.310
10222SOL    HW131565   2.578   4.899   5.262
10222SOL    HW231566   2.442   4.925   5.349
10223SOL     OW31567   2.050   5.651   6.122
10223SOL    HW131568   1.996   5.569   6.135
10223SOL    HW231569   2.052   5.704   6.206
10224SOL     OW31570   3.972   5.908   5.521
10224SOL    HW131571   4.062   5.900   5.563
10224SOL    HW231572   3.913   5.833   5.551
10225SOL     OW31573   5.084   6.978   4.839
10225SOL    HW131574   5.050   6.962   4.931
10225SOL    HW231575   5.184   6.983   4.841
10226SOL     OW31576   6.418   2.412   6.351
10226SOL    HW131577   6.390   2.500   6.388
10226SOL    HW231578   6.444   2.351   6.426
10227SOL     OW31579   4.328   4.627   5.479
10227SOL    HW131580   4.274   4.612   5.562
10227SOL    HW231581   4.423   4.645   5.504
10228SOL     OW31582   1.320   2.451   1.277
10228SOL    HW131583   1.291   2.362   1.241
10228SOL    HW231584   1.334   2.444   1.375
10229SOL     OW31585   2.930   0.643   1.777
10229SOL    HW131586   2.928   0.708   1.852
10229SOL    HW231587   2.869   0.674   1.704
10230SOL     OW31588   5.361   0.404   3.143
10230SOL    HW131589   5.393   0.309   3.135
10230SOL    HW231590   5.267   0.404   3.178
10231SOL     OW31591   5.318   6.854   4.642
10231SOL    HW131592   5.248   6.803   4.692
10231SOL    HW231593   5.379   6.900   4.707
10232SOL     OW31594   4.179   2.262   2.758
10232SOL    HW131595   4.206   2.283   2.853
10232SOL    HW231596   4.255   2.282   2.697
10233SOL     OW31597   5.262   6.272   5.431
10233SOL    HW131598   5.330   6.211   5.472
10233SOL    HW231599   5.171   6.243   5.460
10234SOL     OW31600   4.065   4.339   0.893
10234SOL    HW131601   4.148   4.300   0.934
10234SOL    HW231602   4.086   4.429   0.855
10235SOL     OW31603   4.755   0.319   6.881
10235SOL    HW131604   4.772   0.275   6.970
10235SOL    HW231605   4.792   0.411   6.882
10236SOL     OW31606   1.355   4.497   1.415
10236SOL    HW131607   1.399   4.538   1.335
10236SOL    HW231608   1.256   4.516   1.412
10237SOL     OW31609   6.011   2.451   2.807
10237SOL    HW131610   6.013   2.359   2.767
10237SOL    HW231611   6.049   2.516   2.742
10238SOL     OW31612   5.389   5.030   5.983
10238SOL    HW131613   5.416   4.962   5.916
10238SOL    HW231614   5.442   5.016   6.067
10239SOL     OW31615   5.576   3.804   4.240
10239SOL    HW131616   5.490   3.819   4.291
10239SOL    HW231617   5.564   3.835   4.146
10240SOL     OW31618   4.844   4.032   2.652
10240SOL    HW131619   4.930   4.072   2.621
10240SOL    HW231620   4.831   4.051   2.749
10241SOL     OW31621   1.259   2.587   2.194
10241SOL    HW131622   1.302   2.530   2.124
10241SOL    HW231623   1.329   2.646   2.236
10242SOL     OW31624   0.871   5.170   6.875
10242SOL    HW131625   0.773   5.188   6.869
10242SOL    HW231626   0.909   5.161   6.782
10243SOL     OW31627   0.162   5.502   3.803
10243SOL    HW131628   0.135   5.596   3.783
10243SOL    HW231629   0.262   5.494   3.795
10244SOL     OW31630   2.908   5.828   0.235
10244SOL    HW131631   2.954   5.859   0.319
10244SOL    HW231632   2.848   5.901   0.202
10245SOL     OW31633   3.601   3.644   1.085
10245SOL    HW131634   3.609   3.739   1.116
10245SOL    HW231635   3.682   3.593   1.114
10246SOL     OW31636   3.063   3.978   4.637
10246SOL    HW131637   3.160   4.002   4.644
10246SOL    HW231638   3.008   4.055   4.672
10247SOL     OW31639   1.175   5.444   6.428
10247SOL    HW131640   1.261   5.496   6.430
10247SOL    HW231641   1.098   5.506   6.441
10248SOL     OW31642   6.084   0.197   3.820
10248SOL    HW131643   6.064   0.141   3.901
10248SOL    HW231644   6.118   0.286   3.848
10249SOL     OW31645   4.777   1.251   5.878
10249SOL    HW131646   4.703   1.227   5.816
10249SOL    HW231647   4.809   1.344   5.858
10250SOL     OW31648   4.298   5.653   0.567
10250SOL    HW131649   4.223   5.659   0.633
10250SOL    HW231650   4.381   5.692   0.607
10251SOL     OW31651   3.754   4.496   1.280
10251SOL    HW131652   3.823   4.528   1.344
10251SOL    HW231653   3.797   4.440   1.210
10252SOL     OW31654   7.026   4.637   0.387
10252SOL    HW131655   6.982   4.667   0.302
10252SOL    HW231656   6.957   4.603   0.451
10253SOL     OW31657   5.284   4.406   0.008
10253SOL    HW131658   5.214   4.436   6.970
10253SOL    HW231659   5.366   4.378   6.985
10254SOL     OW31660   3.139   2.459   5.824
10254SOL    HW131661   3.206   2.404   5.874
10254SOL    HW231662   3.104   2.406   5.747
10255SOL     OW31663   3.078   4.894   3.892
10255SOL    HW131664   3.031   4.846   3.966
10255SOL    HW231665   3.052   4.991   3.894
10256SOL     OW31666   5.460   5.529   0.161
10256SOL    HW131667   5.407   5.613   0.151
10256SOL    HW231668   5.398   5.451   0.168
10257SOL     OW31669   1.823   4.060   4.745
10257SOL    HW131670   1.857   4.145   4.784
10257SOL    HW231671   1.811   4.071   4.646
10258SOL     OW31672   4.563   0.740   2.632
10258SOL    HW131673   4.592   0.694   2.548
10258SOL    HW231674   4.505   0.819   2.609
10259SOL     OW31675   5.938   3.554   3.923
10259SOL    HW131676   5.889   3.640   3.914
10259SOL    HW231677   5.906   3.505   4.004
10260SOL     OW31678   6.677   5.713   2.869
10260SOL    HW131679   6.685   5.635   2.929
10260SOL    HW231680   6.633   5.789   2.917
10261SOL     OW31681   2.250   0.008   2.047
10261SOL    HW131682   2.344   0.013   2.015
10261SOL    HW231683   2.237   0.073   2.122
10262SOL     OW31684   6.888   6.427   3.830
10262SOL    HW131685   6.927   6.500   3.774
10262SOL    HW231686   6.956   6.396   3.897
10263SOL     OW31687   6.834   3.381   5.244
10263SOL    HW131688   6.746   3.346   5.211
10263SOL    HW231689   6.820   3.469   5.289
10264SOL     OW31690   0.360   0.550   0.625
10264SOL    HW131691   0.445   0.535   0.575
10264SOL    HW231692   0.371   0.522   0.720
10265SOL     OW31693   5.312   2.573   4.285
10265SOL    HW131694   5.336   2.489   4.235
10265SOL    HW231695   5.363   2.650   4.247
10266SOL     OW31696   3.239   3.692   0.001
10266SOL    HW131697   3.161   3.727   6.977
10266SOL    HW231698   3.212   3.611   0.053
10267SOL     OW31699   0.025   0.641   6.203
10267SOL    HW131700   0.068   0.724   6.167
10267SOL    HW231701   0.021   0.646   6.303
10268SOL     OW31702   6.948   4.800   0.159
10268SOL    HW131703   6.867   4.750   0.129
10268SOL    HW231704   6.975   4.866   0.089
10269SOL     OW31705   4.458   1.649   5.903
10269SOL    HW131706   4.473   1.623   5.999
10269SOL    HW231707   4.402   1.732   5.900
10270SOL     OW31708   3.760   6.207   3.109
10270SOL    HW131709   3.780   6.292   3.158
10270SOL    HW231710   3.829   6.138   3.131
10271SOL     OW31711   1.594   4.619   1.198
10271SOL    HW131712   1.602   4.713   1.232
10271SOL    HW231713   1.645   4.558   1.259
10272SOL     OW31714   2.033   3.388   4.104
10272SOL    HW131715   1.976   3.361   4.027
10272SOL    HW231716   2.027   3.488   4.116
10273SOL     OW31717   4.485   6.822   3.756
10273SOL    HW131718   4.492   6.793   3.660
10273SOL    HW231719   4.397   6.792   3.793
10274SOL     OW31720   1.729   4.472   7.011
10274SOL    HW131721   1.799   4.540   0.005
10274SOL    HW231722   1.759   4.415   6.935
10275SOL     OW31723   0.395   5.856   1.860
10275SOL    HW131724   0.360   5.832   1.951
10275SOL    HW231725   0.327   5.913   1.813
10276SOL     OW31726   1.928   6.775   0.227
10276SOL    HW131727   1.884   6.685   0.229
10276SOL    HW231728   2.026   6.765   0.239
10277SOL     OW31729   6.606   5.704   2.049
10277SOL    HW131730   6.655   5.697   1.962
10277SOL    HW231731   6.671   5.694   2.125
10278SOL     OW31732   6.577   0.850   5.029
10278SOL    HW131733   6.614   0.787   4.960
10278SOL    HW231734   6.652   0.887   5.084
10279SOL     OW31735   3.898   6.217   4.068
10279SOL    HW131736   3.965   6.153   4.030
10279SOL    HW231737   3.820   6.224   4.005
10280SOL     OW31738   2.749   2.680   0.094
10280SOL    HW131739   2.755   2.734   0.178
10280SOL    HW231740   2.827   2.617   0.090
10281SOL     OW31741   4.470   0.899   4.576
10281SOL    HW131742   4.439   0.981   4.624
10281SOL    HW231743   4.534   0.848   4.634
10282SOL     OW31744   1.657   3.146   4.289
10282SOL    HW131745   1.738   3.106   4.247
10282SOL    HW231746   1.682   3.233   4.332
10283SOL     OW31747   1.600   5.447   6.564
10283SOL    HW131748   1.642   5.384   6.499
10283SOL    HW231749   1.522   5.493   6.522
10284SOL     OW31750   5.193   3.172   0.177
10284SOL    HW131751   5.096   3.178   0.198
10284SOL    HW231752   5.212   3.087   0.129
10285SOL     OW31753   5.070   1.548   0.944
10285SOL    HW131754   5.101   1.465   0.897
10285SOL    HW231755   5.066   1.624   0.878
10286SOL     OW31756   3.695   7.020   4.064
10286SOL    HW131757   3.666   0.088   4.050
10286SOL    HW231758   3.639   6.978   4.135
10287SOL     OW31759   1.936   3.649   2.576
10287SOL    HW131760   1.993   3.703   2.515
10287SOL    HW231761   1.976   3.558   2.588
10288SOL     OW31762   4.485   6.416   4.229
10288SOL    HW131763   4.568   6.449   4.272
10288SOL    HW231764   4.488   6.316   4.223
10289SOL     OW31765   2.310   1.612   1.928
10289SOL    HW131766   2.293   1.693   1.984
10289SOL    HW231767   2.402   1.616   1.890
10290SOL     OW31768   3.281   2.891   3.764
10290SOL    HW131769   3.211   2.888   3.694
10290SOL    HW231770   3.371   2.901   3.721
10291SOL     OW31771   4.212   6.777   3.788
10291SOL    HW131772   4.130   6.747   3.837
10291SOL    HW231773   4.188   6.795   3.692
10292SOL     OW31774   6.764   3.241   4.347
10292SOL    HW131775   6.679   3.191   4.365
10292SOL    HW231776   6.832   3.176   4.313
10293SOL     OW31777   1.669   4.512   3.334
10293SOL    HW131778   1.621   4.475   3.254
10293SOL    HW231779   1.688   4.609   3.320
10294SOL     OW31780   6.034   0.760   3.039
10294SOL    HW131781   6.102   0.737   2.970
10294SOL    HW231782   5.975   0.681   3.056
10295SOL     OW31783   1.586   3.956   3.293
10295SOL    HW131784   1.619   3.887   3.359
10295SOL    HW231785   1.593   3.918   3.200
10296SOL     OW31786   6.754   3.644   1.469
10296SOL    HW131787   6.793   3.623   1.559
10296SOL    HW231788   6.654   3.653   1.477
10297SOL     OW31789   3.381   4.786   5.659
10297SOL    HW131790   3.445   4.719   5.622
10297SOL    HW231791   3.414   4.878   5.639
10298SOL     OW31792   5.972   3.588   2.940
10298SOL    HW131793   5.907   3.607   2.866
10298SOL    HW231794   5.957   3.652   3.014
10299SOL     OW31795   3.994   5.347   2.468
10299SOL    HW131796   3.897   5.359   2.447
10299SOL    HW231797   4.049   5.376   2.389
10300SOL     OW31798   0.143   5.834   2.363
10300SOL    HW131799   0.157   5.852   2.265
10300SOL    HW231800   0.228   5.802   2.403
10301SOL     OW31801   4.509   0.652   1.775
10301SOL    HW131802   4.528   0.728   1.712
10301SOL    HW231803   4.493   0.569   1.723
10302SOL     OW31804   0.404   4.015   3.232
10302SOL    HW131805   0.442   4.042   3.321
10302SOL    HW231806   0.477   3.978   3.175
10303SOL     OW31807   4.935   3.766   1.298
10303SOL    HW131808   4.993   3.820   1.359
10303SOL    HW231809   4.988   3.738   1.218
10304SOL     OW31810   5.819   5.931   4.172
10304SOL    HW131811   5.893   5.936   4.106
10304SOL    HW231812   5.797   5.836   4.191
10305SOL     OW31813   2.136   5.327   1.290
10305SOL    HW131814   2.116   5.236   1.323
10305SOL    HW231815   2.227   5.355   1.323
10306SOL     OW31816   4.556   3.932   6.885
10306SOL    HW131817   4.547   3.834   6.869
10306SOL    HW231818   4.467   3.971   6.908
10307SOL     OW31819   3.263   2.268   5.954
10307SOL    HW131820   3.221   2.209   5.886
10307SOL    HW231821   3.291   2.214   6.033
10308SOL     OW31822   2.950   5.185   3.875
10308SOL    HW131823   2.869   5.136   3.907
10308SOL    HW231824   2.924   5.278   3.849
10309SOL     OW31825   0.111   6.308   3.576
10309SOL    HW131826   0.139   6.331   3.483
10309SOL    HW231827   0.123   6.388   3.635
10310SOL     OW31828   3.257   4.091   4.143
10310SOL    HW131829   3.174   4.120   4.191
10310SOL    HW231830   3.337   4.114   4.198
10311SOL     OW31831   1.216   6.909   0.804
10311SOL    HW131832   1.172   6.869   0.885
10311SOL    HW231833   1.187   6.859   0.723
10312SOL     OW31834   2.641   4.578   0.621
10312SOL    HW131835   2.594   4.585   0.709
10312SOL    HW231836   2.574   4.569   0.547
10313SOL     OW31837   6.515   5.900   3.917
10313SOL    HW131838   6.515   5.800   3.927
10313SOL    HW231839   6.437   5.938   3.965
10314SOL     OW31840   6.740   5.226   5.114
10314SOL    HW131841   6.722   5.146   5.056
10314SOL    HW231842   6.839   5.234   5.130
10315SOL     OW31843   4.219   6.198   5.666
10315SOL    HW131844   4.207   6.098   5.668
10315SOL    HW231845   4.211   6.234   5.759
10316SOL     OW31846   6.791   2.535   3.830
10316SOL    HW131847   6.860   2.464   3.840
10316SOL    HW231848   6.781   2.560   3.734
10317SOL     OW31849   6.268   4.158   5.950
10317SOL    HW131850   6.279   4.115   6.040
10317SOL    HW231851   6.333   4.233   5.942
10318SOL     OW31852   4.887   5.057   2.546
10318SOL    HW131853   4.925   5.102   2.627
10318SOL    HW231854   4.903   4.959   2.552
10319SOL     OW31855   5.246   6.905   3.764
10319SOL    HW131856   5.284   6.917   3.856
10319SOL    HW231857   5.147   6.896   3.769
10320SOL     OW31858   3.395   6.596   1.873
10320SOL    HW131859   3.334   6.588   1.794
10320SOL    HW231860   3.443   6.510   1.888
10321SOL     OW31861   4.573   6.091   4.752
10321SOL    HW131862   4.621   6.023   4.696
10321SOL    HW231863   4.578   6.065   4.848
10322SOL     OW31864   7.021   1.493   6.277
10322SOL    HW131865   0.022   1.552   6.353
10322SOL    HW231866   0.032   1.401   6.290
10323SOL     OW31867   0.246   2.150   5.132
10323SOL    HW131868   0.246   2.245   5.101
10323SOL    HW231869   0.198   2.143   5.219
10324SOL     OW31870   3.122   3.463   4.750
10324SOL    HW131871   3.196   3.422   4.695
10324SOL    HW231872   3.160   3.533   4.810
10325SOL     OW31873   0.653   3.009   3.915
10325SOL    HW131874   0.662   3.030   4.013
10325SOL    HW231875   0.566   2.964   3.898
10326SOL     OW31876   6.164   1.242   1.237
10326SOL    HW131877   6.157   1.147   1.268
10326SOL    HW231878   6.235   1.249   1.167
10327SOL     OW31879   5.644   2.139   3.817
10327SOL    HW131880   5.563   2.096   3.778
10327SOL    HW231881   5.696   2.072   3.868
10328SOL     OW31882   6.863   3.567   1.712
10328SOL    HW131883   6.875   3.475   1.750
10328SOL    HW231884   6.934   3.628   1.749
10329SOL     OW31885   2.715   5.490   2.949
10329SOL    HW131886   2.759   5.573   2.915
10329SOL    HW231887   2.783   5.431   2.991
10330SOL     OW31888   3.688   3.275   0.989
10330SOL    HW131889   3.753   3.216   0.942
10330SOL    HW231890   3.717   3.288   1.084
10331SOL     OW31891   5.213   1.906   4.909
10331SOL    HW131892   5.234   1.808   4.911
10331SOL    HW231893   5.231   1.943   4.818
10332SOL     OW31894   1.539   2.768   6.689
10332SOL    HW131895   1.455   2.796   6.735
10332SOL    HW231896   1.516   2.721   6.603
10333SOL     OW31897   0.482   4.591   5.389
10333SOL    HW131898   0.424   4.509   5.396
10333SOL    HW231899   0.450   4.659   5.455
10334SOL     OW31900   1.140   4.867   5.614
10334SOL    HW131901   1.105   4.832   5.701
10334SOL    HW231902   1.200   4.799   5.572
10335SOL     OW31903   2.977   5.045   2.614
10335SOL    HW131904   2.955   4.947   2.619
10335SOL    HW231905   2.894   5.098   2.630
10336SOL     OW31906   4.067   6.986   3.329
10336SOL    HW131907   4.078   0.047   3.376
10336SOL    HW231908   4.084   6.912   3.394
10337SOL     OW31909   1.547   3.810   6.068
10337SOL    HW131910   1.546   3.845   5.974
10337SOL    HW231911   1.569   3.885   6.131
10338SOL     OW31912   2.211   3.900   2.730
10338SOL    HW131913   2.167   3.823   2.776
10338SOL    HW231914   2.141   3.966   2.701
10339SOL     OW31915   3.419   6.139   6.543
10339SOL    HW131916   3.478   6.197   6.486
10339SOL    HW231917   3.376   6.195   6.614
10340SOL     OW31918   1.963   5.989   1.156
10340SOL    HW131919   1.901   5.964   1.081
10340SOL    HW231920   2.035   6.048   1.121
10341SOL     OW31921   6.808   3.302   1.499
10341SOL    HW131922   6.796   3.401   1.493
10341SOL    HW231923   6.736   3.256   1.447
10342SOL     OW31924   3.429   5.314   3.691
10342SOL    HW131925   3.404   5.362   3.775
10342SOL    HW231926   3.504   5.251   3.709
10343SOL     OW31927   2.767   2.369   4.928
10343SOL    HW131928   2.811   2.454   4.957
10343SOL    HW231929   2.736   2.377   4.833
10344SOL     OW31930   5.308   4.106   1.195
10344SOL    HW131931   5.270   4.122   1.104
10344SOL    HW231932   5.237   4.119   1.264
10345SOL     OW31933   3.185   1.693   6.717
10345SOL    HW131934   3.225   1.749   6.645
10345SOL    HW231935   3.095   1.728   6.741
10346SOL     OW31936   6.372   5.559   0.219
10346SOL    HW131937   6.376   5.500   0.138
10346SOL    HW231938   6.328   5.510   0.294
10347SOL     OW31939   3.799   6.940   2.573
10347SOL    HW131940   3.739   6.948   2.653
10347SOL    HW231941   3.888   6.982   2.594
10348SOL     OW31942   6.984   3.461   4.622
10348SOL    HW131943   7.022   3.434   4.711
10348SOL    HW231944   7.019   3.551   4.597
10349SOL     OW31945   6.030   1.921   0.334
10349SOL    HW131946   5.992   1.841   0.382
10349SOL    HW231947   5.956   1.973   0.292
10350SOL     OW31948   2.183   5.311   4.468
10350SOL    HW131949   2.281   5.324   4.462
10350SOL    HW231950   2.141   5.329   4.379
10351SOL     OW31951   3.772   5.628   4.971
10351SOL    HW131952   3.695   5.565   4.981
10351SOL    HW231953   3.812   5.646   5.061
10352SOL     OW31954   0.480   1.142   1.790
10352SOL    HW131955   0.559   1.192   1.822
10352SOL    HW231956   0.480   1.050   1.828
10353SOL     OW31957   5.640   2.908   3.404
10353SOL    HW131958   5.552   2.860   3.405
10353SOL    HW231959   5.692   2.881   3.323
10354SOL     OW31960   6.958   2.909   1.593
10354SOL    HW131961   6.864   2.876   1.598
10354SOL    HW231962   7.019   2.845   1.639
10355SOL     OW31963   6.439   1.958   0.696
10355SOL    HW131964   6.377   1.971   0.618
10355SOL    HW231965   6.434   2.038   0.756
10356SOL     OW31966   6.090   2.494   6.746
10356SOL    HW131967   6.013   2.435   6.724
10356SOL    HW231968   6.089   2.516   6.843
10357SOL     OW31969   0.179   6.705   6.421
10357SOL    HW131970   0.160   6.655   6.505
10357SOL    HW231971   0.235   6.786   6.441
10358SOL     OW31972   0.567   3.568   4.201
10358SOL    HW131973   0.650   3.567   4.257
10358SOL    HW231974   0.587   3.528   4.112
10359SOL     OW31975   1.068   2.765   2.337
10359SOL    HW131976   1.053   2.710   2.419
10359SOL    HW231977   1.137   2.722   2.279
10360SOL     OW31978   6.007   4.519   0.652
10360SOL    HW131979   6.019   4.618   0.649
10360SOL    HW231980   5.923   4.494   0.604
10361SOL     OW31981   5.802   2.131   3.441
10361SOL    HW131982   5.762   2.220   3.463
10361SOL    HW231983   5.738   2.078   3.385
10362SOL     OW31984   0.229   6.859   2.046
10362SOL    HW131985   0.192   6.769   2.069
10362SOL    HW231986   0.165   6.906   1.984
10363SOL     OW31987   5.745   4.825   6.254
10363SOL    HW131988   5.762   4.774   6.169
10363SOL    HW231989   5.832   4.849   6.296
10364SOL     OW31990   6.099   5.547   0.838
10364SOL    HW131991   6.046   5.503   0.911
10364SOL    HW231992   6.039   5.567   0.761
10365SOL     OW31993   6.464   6.075   6.549
10365SOL    HW131994   6.417   6.139   6.610
10365SOL    HW231995   6.468   5.985   6.593
10366SOL     OW31996   2.791   0.224   3.343
10366SOL    HW131997   2.729   0.165   3.290
10366SOL    HW231998   2.871   0.171   3.371
10367SOL     OW31999   4.420   5.785   2.141
10367SOL    HW132000   4.356   5.852   2.178
10367SOL    HW232001   4.510   5.796   2.185
10368SOL     OW32002   1.323   5.230   1.648
10368SOL    HW132003   1.326   5.150   1.708
10368SOL    HW232004   1.389   5.217   1.573
10369SOL     OW32005   2.540   0.961   5.207
10369SOL    HW132006   2.493   0.964   5.296
10369SOL    HW232007   2.591   1.045   5.193
10370SOL     OW32008   1.831   2.247   6.619
10370SOL    HW132009   1.904   2.309   6.589
10370SOL    HW232010   1.865   2.189   6.693
10371SOL     OW32011   4.109   5.775   3.456
10371SOL    HW132012   4.119   5.701   3.389
10371SOL    HW232013   4.199   5.806   3.486
10372SOL     OW32014   0.980   6.251   1.805
10372SOL    HW132015   1.022   6.241   1.895
10372SOL    HW232016   0.910   6.180   1.792
10373SOL     OW32017   6.752   0.443   5.666
10373SOL    HW132018   6.712   0.534   5.677
10373SOL    HW232019   6.838   0.438   5.717
10374SOL     OW32020   2.233   4.936   2.276
10374SOL    HW132021   2.264   4.850   2.315
10374SOL    HW232022   2.306   4.978   2.223
10375SOL     OW32023   2.821   5.641   6.587
10375SOL    HW132024   2.868   5.562   6.546
10375SOL    HW232025   2.846   5.647   6.684
10376SOL     OW32026   1.756   4.519   3.964
10376SOL    HW132027   1.693   4.453   3.923
10376SOL    HW232028   1.838   4.471   3.996
10377SOL     OW32029   3.014   0.900   3.839
10377SOL    HW132030   3.049   0.864   3.753
10377SOL    HW232031   3.091   0.929   3.896
10378SOL     OW32032   6.941   6.936   5.258
10378SOL    HW132033   0.002   6.892   5.278
10378SOL    HW232034   6.888   6.946   5.342
10379SOL     OW32035   1.206   5.338   3.231
10379SOL    HW132036   1.244   5.402   3.297
10379SOL    HW232037   1.128   5.379   3.185
10380SOL     OW32038   2.922   1.422   4.258
10380SOL    HW132039   2.876   1.335   4.240
10380SOL    HW232040   2.856   1.497   4.246
10381SOL     OW32041   2.578   0.076   3.244
10381SOL    HW132042   2.511   0.138   3.203
10381SOL    HW232043   2.548   0.051   3.337
10382SOL     OW32044   4.299   5.877   2.538
10382SOL    HW132045   4.235   5.913   2.470
10382SOL    HW232046   4.329   5.950   2.599
10383SOL     OW32047   0.317   6.841   6.994
10383SOL    HW132048   0.273   6.768   6.942
10383SOL    HW232049   0.407   6.860   6.955
10384SOL     OW32050   5.162   5.490   1.718
10384SOL    HW132051   5.099   5.434   1.663
10384SOL    HW232052   5.248   5.439   1.731
10385SOL     OW32053   4.162   4.215   6.514
10385SOL    HW132054   4.090   4.284   6.503
10385SOL    HW232055   4.197   4.218   6.607
10386SOL     OW32056   0.314   0.135   2.155
10386SOL    HW132057   0.312   0.118   2.056
10386SOL    HW232058   0.408   0.152   2.184
10387SOL     OW32059   5.616   1.624   2.004
10387SOL    HW132060   5.666   1.652   1.922
10387SOL    HW232061   5.593   1.527   1.997
10388SOL     OW32062   1.017   0.044   4.481
10388SOL    HW132063   1.068   0.110   4.425
10388SOL    HW232064   1.003   0.082   4.572
10389SOL     OW32065   0.542   3.853   0.856
10389SOL    HW132066   0.442   3.849   0.858
10389SOL    HW232067   0.574   3.925   0.917
10390SOL     OW32068   2.113   1.996   2.405
10390SOL    HW132069   2.213   1.986   2.404
10390SOL    HW232070   2.081   2.016   2.312
10391SOL     OW32071   6.554   6.815   3.089
10391SOL    HW132072   6.474   6.767   3.053
10391SOL    HW232073   6.624   6.749   3.115
10392SOL     OW32074   6.302   3.522   3.550
10392SOL    HW132075   6.271   3.568   3.634
10392SOL    HW232076   6.392   3.482   3.565
10393SOL     OW32077   1.654   2.330   1.508
10393SOL    HW132078   1.707   2.351   1.427
10393SOL    HW232079   1.575   2.391   1.513
10394SOL     OW32080   2.936   5.886   3.485
10394SOL    HW132081   2.971   5.821   3.418
10394SOL    HW232082   2.855   5.931   3.448
10395SOL     OW32083   0.422   1.260   1.555
10395SOL    HW132084   0.445   1.186   1.618
10395SOL    HW232085   0.366   1.328   1.603
10396SOL     OW32086   3.390   2.042   5.169
10396SOL    HW132087   3.464   2.109   5.169
10396SOL    HW232088   3.400   1.981   5.091
10397SOL     OW32089   5.165   1.746   3.948
10397SOL    HW132090   5.114   1.687   4.010
10397SOL    HW232091   5.234   1.692   3.899
10398SOL     OW32092   4.824   2.967   2.615
10398SOL    HW132093   4.743   2.910   2.598
10398SOL    HW232094   4.856   3.006   2.529
10399SOL     OW32095   0.968   3.601   2.100
10399SOL    HW132096   1.048   3.595   2.161
10399SOL    HW232097   0.903   3.528   2.123
10400SOL     OW32098   2.210   6.432   0.131
10400SOL    HW132099   2.190   6.530   0.119
10400SOL    HW232100   2.155   6.379   0.067
10401SOL     OW32101   6.812   0.953   5.178
10401SOL    HW132102   6.816   1.051   5.157
10401SOL    HW232103   6.776   0.941   5.271
10402SOL     OW32104   6.730   4.655   5.287
10402SOL    HW132105   6.822   4.614   5.289
10402SOL    HW232106   6.739   4.754   5.281
10403SOL     OW32107   3.485   0.458   1.285
10403SOL    HW132108   3.557   0.405   1.330
10403SOL    HW232109   3.396   0.415   1.304
10404SOL     OW32110   0.521   5.736   5.624
10404SOL    HW132111   0.424   5.719   5.644
10404SOL    HW232112   0.543   5.698   5.534
10405SOL     OW32113   0.549   1.179   0.139
10405SOL    HW132114   0.555   1.092   0.090
10405SOL    HW232115   0.483   1.170   0.214
10406SOL     OW32116   1.555   5.459   1.000
10406SOL    HW132117   1.603   5.396   0.939
10406SOL    HW232118   1.614   5.538   1.019
10407SOL     OW32119   2.315   5.720   0.161
10407SOL    HW132120   2.229   5.707   0.209
10407SOL    HW232121   2.370   5.637   0.167
10408SOL     OW32122   4.510   0.528   0.056
10408SOL    HW132123   4.436   0.574   0.104
10408SOL    HW232124   4.598   0.562   0.090
10409SOL     OW32125   6.518   4.019   0.309
10409SOL    HW132126   6.516   3.967   0.395
10409SOL    HW232127   6.552   3.961   0.236
10410SOL     OW32128   4.236   6.707   1.010
10410SOL    HW132129   4.208   6.651   1.088
10410SOL    HW232130   4.299   6.656   0.952
10411SOL     OW32131   1.668   5.498   3.991
10411SOL    HW132132   1.619   5.432   4.048
10411SOL    HW232133   1.646   5.591   4.022
10412SOL     OW32134   5.205   0.469   1.327
10412SOL    HW132135   5.154   0.391   1.292
10412SOL    HW232136   5.172   0.493   1.419
10413SOL     OW32137   5.777   3.619   1.895
10413SOL    HW132138   5.707   3.574   1.840
10413SOL    HW232139   5.828   3.551   1.948
10414SOL     OW32140   5.848   3.405   4.170
10414SOL    HW132141   5.824   3.327   4.112
10414SOL    HW232142   5.771   3.426   4.231
10415SOL     OW32143   0.917   0.758   6.908
10415SOL    HW132144   0.845   0.706   6.863
10415SOL    HW232145   0.897   0.764   7.006
10416SOL     OW32146   5.327   3.235   3.388
10416SOL    HW132147   5.415   3.236   3.340
10416SOL    HW232148   5.297   3.141   3.401
10417SOL     OW32149   1.583   4.014   2.575
10417SOL    HW132150   1.629   3.972   2.652
10417SOL    HW232151   1.556   4.108   2.598
10418SOL     OW32152   1.832   5.963   6.075
10418SOL    HW132153   1.881   5.965   5.988
10418SOL    HW232154   1.786   5.874   6.085
10419SOL     OW32155   1.703   0.418   6.630
10419SOL    HW132156   1.799   0.441   6.644
10419SOL    HW232157   1.646   0.480   6.684
10420SOL     OW32158   0.555   2.628   2.585
10420SOL    HW132159   0.521   2.714   2.546
10420SOL    HW232160   0.640   2.602   2.538
10421SOL     OW32161   0.776   1.715   2.914
10421SOL    HW132162   0.784   1.815   2.921
10421SOL    HW232163   0.700   1.692   2.853
10422SOL     OW32164   5.442   2.265   0.313
10422SOL    HW132165   5.400   2.183   0.275
10422SOL    HW232166   5.540   2.265   0.293
10423SOL     OW32167   4.757   5.879   3.186
10423SOL    HW132168   4.713   5.792   3.164
10423SOL    HW232169   4.856   5.871   3.177
10424SOL     OW32170   4.198   1.423   6.535
10424SOL    HW132171   4.277   1.387   6.486
10424SOL    HW232172   4.166   1.354   6.601
10425SOL     OW32173   1.774   6.507   2.013
10425SOL    HW132174   1.871   6.522   1.990
10425SOL    HW232175   1.719   6.514   1.930
10426SOL     OW32176   6.614   4.116   6.340
10426SOL    HW132177   6.672   4.040   6.311
10426SOL    HW232178   6.522   4.103   6.303
10427SOL     OW32179   4.949   0.970   1.593
10427SOL    HW132180   5.001   0.935   1.515
10427SOL    HW232181   4.905   1.056   1.566
10428SOL     OW32182   4.677   2.028   3.415
10428SOL    HW132183   4.774   2.018   3.440
10428SOL    HW232184   4.661   1.979   3.329
10429SOL     OW32185   5.208   5.598   2.591
10429SOL    HW132186   5.164   5.509   2.602
10429SOL    HW232187   5.181   5.659   2.665
10430SOL     OW32188   4.210   6.385   3.016
10430SOL    HW132189   4.225   6.474   3.059
10430SOL    HW232190   4.288   6.326   3.034
10431SOL     OW32191   2.854   1.547   5.664
10431SOL    HW132192   2.851   1.512   5.570
10431SOL    HW232193   2.795   1.627   5.671
10432SOL     OW32194   4.348   0.187   4.490
10432SOL    HW132195   4.370   0.262   4.428
10432SOL    HW232196   4.250   0.166   4.483
10433SOL     OW32197   2.711   5.981   1.435
10433SOL    HW132198   2.732   5.925   1.355
10433SOL    HW232199   2.757   5.942   1.515
10434SOL     OW32200   3.184   2.230   5.381
10434SOL    HW132201   3.136   2.151   5.342
10434SOL    HW232202   3.190   2.302   5.312
10435SOL     OW32203   5.688   5.278   6.167
10435SOL    HW132204   5.697   5.377   6.162
10435SOL    HW232205   5.727   5.237   6.085
10436SOL     OW32206   0.338   1.331   2.655
10436SOL    HW132207   0.366   1.380   2.738
10436SOL    HW232208   0.256   1.278   2.675
10437SOL     OW32209   1.015   3.539   6.693
10437SOL    HW132210   1.095   3.510   6.641
10437SOL    HW232211   1.010   3.639   6.695
10438SOL     OW32212   3.456   6.880   5.725
10438SOL    HW132213   3.374   6.921   5.764
10438SOL    HW232214   3.526   6.871   5.796
10439SOL     OW32215   3.460   0.314   5.610
10439SOL    HW132216   3.405   0.377   5.665
10439SOL    HW232217   3.555   0.344   5.612
10440SOL     OW32218   1.047   5.538   1.006
10440SOL    HW132219   1.023   5.573   1.097
10440SOL    HW232220   0.987   5.580   0.938
10441SOL     OW32221   4.254   7.000   1.123
10441SOL    HW132222   4.168   7.009   1.174
10441SOL    HW232223   4.282   6.904   1.121
10442SOL     OW32224   4.017   6.172   6.034
10442SOL    HW132225   4.005   6.163   6.133
10442SOL    HW232226   3.929   6.193   5.991
10443SOL     OW32227   6.368   2.795   4.785
10443SOL    HW132228   6.387   2.880   4.834
10443SOL    HW232229   6.454   2.754   4.754
10444SOL     OW32230   4.219   5.194   5.195
10444SOL    HW132231   4.261   5.109   5.227
10444SOL    HW232232   4.207   5.256   5.273
10445SOL     OW32233   6.266   6.172   2.103
10445SOL    HW132234   6.239   6.177   2.006
10445SOL    HW232235   6.312   6.086   2.121
10446SOL     OW32236   1.213   6.477   5.867
10446SOL    HW132237   1.149   6.411   5.827
10446SOL    HW232238   1.282   6.429   5.920
10447SOL     OW32239   5.317   2.104   6.951
10447SOL    HW132240   5.375   2.110   6.870
10447SOL    HW232241   5.224   2.131   6.927
10448SOL     OW32242   3.527   3.723   2.307
10448SOL    HW132243   3.576   3.726   2.394
10448SOL    HW232244   3.429   3.721   2.323
10449SOL     OW32245   1.796   5.134   4.606
10449SOL    HW132246   1.825   5.186   4.687
10449SOL    HW232247   1.793   5.195   4.527
10450SOL     OW32248   0.262   3.741   0.768
10450SOL    HW132249   0.321   3.671   0.727
10450SOL    HW232250   0.171   3.703   0.782
10451SOL     OW32251   2.403   4.586   1.985
10451SOL    HW132252   2.463   4.570   1.907
10451SOL    HW232253   2.380   4.498   2.028
10452SOL     OW32254   2.236   2.989   6.100
10452SOL    HW132255   2.263   3.074   6.056
10452SOL    HW232256   2.160   2.948   6.050
10453SOL     OW32257   5.510   0.886   1.842
10453SOL    HW132258   5.511   0.928   1.752
10453SOL    HW232259   5.501   0.787   1.833
10454SOL     OW32260   4.528   5.006   2.714
10454SOL    HW132261   4.444   5.035   2.668
10454SOL    HW232262   4.605   5.017   2.651
10455SOL     OW32263   1.168   4.890   3.117
10455SOL    HW132264   1.213   4.954   3.180
10455SOL    HW232265   1.236   4.849   3.056
10456SOL     OW32266   3.906   6.799   1.303
10456SOL    HW132267   3.917   6.758   1.213
10456SOL    HW232268   3.885   6.727   1.370
10457SOL     OW32269   3.640   3.193   4.302
10457SOL    HW132270   3.542   3.201   4.323
10457SOL    HW232271   3.673   3.104   4.334
10458SOL     OW32272   6.457   5.963   2.087
10458SOL    HW132273   6.480   5.871   2.118
10458SOL    HW232274   6.540   6.018   2.078
10459SOL     OW32275   6.984   5.273   1.332
10459SOL    HW132276   7.005   5.177   1.354
10459SOL    HW232277   7.016   5.293   1.239
10460SOL     OW32278   1.102   4.044   1.504
10460SOL    HW132279   1.094   3.994   1.417
10460SOL    HW232280   1.059   3.991   1.577
10461SOL     OW32281   3.586   0.134   6.595
10461SOL    HW132282   3.668   0.088   6.628
10461SOL    HW232283   3.539   0.177   6.671
10462SOL     OW32284   5.235   6.475   1.500
10462SOL    HW132285   5.293   6.541   1.548
10462SOL    HW232286   5.139   6.495   1.518
10463SOL     OW32287   3.978   3.160   0.548
10463SOL    HW132288   3.884   3.193   0.550
10463SOL    HW232289   4.039   3.233   0.578
10464SOL     OW32290   5.928   6.419   2.165
10464SOL    HW132291   5.897   6.512   2.181
10464SOL    HW232292   5.854   6.364   2.125
10465SOL     OW32293   0.428   5.026   4.927
10465SOL    HW132294   0.448   5.099   4.992
10465SOL    HW232295   0.472   5.046   4.839
10466SOL     OW32296   4.564   5.952   5.721
10466SOL    HW132297   4.647   6.008   5.715
10466SOL    HW232298   4.585   5.864   5.762
10467SOL     OW32299   3.857   1.174   4.408
10467SOL    HW132300   3.797   1.162   4.487
10467SOL    HW232301   3.936   1.114   4.417
10468SOL     OW32302   2.920   4.832   3.119
10468SOL    HW132303   2.869   4.904   3.166
10468SOL    HW232304   3.015   4.833   3.149
10469SOL     OW32305   1.324   4.610   5.729
10469SOL    HW132306   1.411   4.647   5.695
10469SOL    HW232307   1.277   4.563   5.654
10470SOL     OW32308   2.645   2.108   4.712
10470SOL    HW132309   2.682   2.158   4.791
10470SOL    HW232310   2.716   2.099   4.642
10471SOL     OW32311   4.830   3.933   6.943
10471SOL    HW132312   4.730   3.939   6.937
10471SOL    HW232313   4.865   3.884   6.863
10472SOL     OW32314   3.971   1.106   3.955
10472SOL    HW132315   3.894   1.093   3.893
10472SOL    HW232316   3.969   1.199   3.992
10473SOL     OW32317   5.313   4.923   6.414
10473SOL    HW132318   5.222   4.952   6.384
10473SOL    HW232319   5.320   4.931   6.513
10474SOL     OW32320   4.781   0.976   4.188
10474SOL    HW132321   4.835   0.906   4.141
10474SOL    HW232322   4.689   0.941   4.205
10475SOL     OW32323   3.893   6.529   1.489
10475SOL    HW132324   3.848   6.560   1.573
10475SOL    HW232325   3.992   6.544   1.497
10476SOL     OW32326   0.665   4.809   6.435
10476SOL    HW132327   0.654   4.831   6.532
10476SOL    HW232328   0.577   4.816   6.389
10477SOL     OW32329   4.618   4.438   5.378
10477SOL    HW132330   4.574   4.350   5.396
10477SOL    HW232331   4.601   4.500   5.454
10478SOL     OW32332   0.668   6.583   3.082
10478SOL    HW132333   0.570   6.603   3.075
10478SOL    HW232334   0.718   6.638   3.015
10479SOL     OW32335   0.703   4.231   2.293
10479SOL    HW132336   0.720   4.329   2.292
10479SOL    HW232337   0.790   4.182   2.295
10480SOL     OW32338   4.860   1.331   0.157
10480SOL    HW132339   4.861   1.418   0.106
10480SOL    HW232340   4.946   1.321   0.207
10481SOL     OW32341   2.977   1.825   4.158
10481SOL    HW132342   2.914   1.786   4.092
10481SOL    HW232343   3.045   1.757   4.185
10482SOL     OW32344   0.736   6.412   6.923
10482SOL    HW132345   0.690   6.352   6.858
10482SOL    HW232346   0.833   6.419   6.898
10483SOL     OW32347   0.905   5.982   1.112
10483SOL    HW132348   0.970   5.917   1.074
10483SOL    HW232349   0.816   5.971   1.067
10484SOL     OW32350   6.938   1.658   1.775
10484SOL    HW132351   6.968   1.735   1.719
10484SOL    HW232352   7.018   1.606   1.806
10485SOL     OW32353   3.756   4.038   4.332
10485SOL    HW132354   3.844   3.991   4.335
10485SOL    HW232355   3.747   4.087   4.245
10486SOL     OW32356   6.216   4.870   5.561
10486SOL    HW132357   6.120   4.841   5.563
10486SOL    HW232358   6.228   4.940   5.490
10487SOL     OW32359   5.239   4.085   2.690
10487SOL    HW132360   5.205   4.118   2.602
10487SOL    HW232361   5.224   3.987   2.697
10488SOL     OW32362   0.431   2.334   5.791
10488SOL    HW132363   0.369   2.402   5.750
10488SOL    HW232364   0.486   2.379   5.862
10489SOL     OW32365   5.894   4.979   2.911
10489SOL    HW132366   5.917   4.973   3.008
10489SOL    HW232367   5.962   5.036   2.864
10490SOL     OW32368   4.791   6.367   6.442
10490SOL    HW132369   4.883   6.334   6.419
10490SOL    HW232370   4.770   6.346   6.537
10491SOL     OW32371   2.320   1.807   5.246
10491SOL    HW132372   2.342   1.881   5.310
10491SOL    HW232373   2.332   1.840   5.152
10492SOL     OW32374   2.967   6.406   7.023
10492SOL    HW132375   3.037   6.470   6.992
10492SOL    HW232376   2.936   6.351   6.945
10493SOL     OW32377   3.729   6.078   0.607
10493SOL    HW132378   3.764   6.025   0.684
10493SOL    HW232379   3.634   6.052   0.589
10494SOL     OW32380   0.150   5.306   3.334
10494SOL    HW132381   0.187   5.280   3.245
10494SOL    HW232382   0.146   5.225   3.393
10495SOL     OW32383   6.086   6.226   0.124
10495SOL    HW132384   6.063   6.240   0.028
10495SOL    HW232385   6.178   6.260   0.143
10496SOL     OW32386   0.929   4.074   5.827
10496SOL    HW132387   0.934   4.173   5.819
10496SOL    HW232388   0.903   4.049   5.920
10497SOL     OW32389   4.168   6.438   6.863
10497SOL    HW132390   4.189   6.348   6.902
10497SOL    HW232391   4.220   6.508   6.912
10498SOL     OW32392   3.067   3.869   0.200
10498SOL    HW132393   3.143   3.886   0.263
10498SOL    HW232394   3.103   3.858   0.107
10499SOL     OW32395   4.303   4.708   3.355
10499SOL    HW132396   4.356   4.669   3.430
10499SOL    HW232397   4.322   4.657   3.271
10500SOL     OW32398   1.709   3.149   5.479
10500SOL    HW132399   1.733   3.169   5.574
10500SOL    HW232400   1.687   3.234   5.431
10501SOL     OW32401   3.853   4.882   3.376
10501SOL    HW132402   3.857   4.980   3.359
10501SOL    HW232403   3.806   4.837   3.300
10502SOL     OW32404   2.951   3.786   2.457
10502SOL    HW132405   2.890   3.865   2.465
10502SOL    HW232406   2.977   3.774   2.361
10503SOL     OW32407   6.762   0.408   1.033
10503SOL    HW132408   6.689   0.433   1.096
10503SOL    HW232409   6.727   0.343   0.966
10504SOL     OW32410   1.200   2.662   6.004
10504SOL    HW132411   1.124   2.711   5.960
10504SOL    HW232412   1.264   2.727   6.043
10505SOL     OW32413   5.671   6.558   1.466
10505SOL    HW132414   5.638   6.508   1.385
10505SOL    HW232415   5.593   6.602   1.512
10506SOL     OW32416   1.220   5.120   5.330
10506SOL    HW132417   1.316   5.114   5.301
10506SOL    HW232418   1.177   5.030   5.323
10507SOL     OW32419   1.780   6.495   5.922
10507SOL    HW132420   1.848   6.568   5.930
10507SOL    HW232421   1.691   6.528   5.954
10508SOL     OW32422   1.780   6.372   1.283
10508SOL    HW132423   1.829   6.408   1.204
10508SOL    HW232424   1.843   6.363   1.360
10509SOL     OW32425   4.965   3.534   2.046
10509SOL    HW132426   4.896   3.599   2.077
10509SOL    HW232427   4.969   3.534   1.946
10510SOL     OW32428   5.747   6.239   2.072
10510SOL    HW132429   5.701   6.196   2.150
10510SOL    HW232430   5.817   6.177   2.036
10511SOL     OW32431   4.169   1.823   1.046
10511SOL    HW132432   4.154   1.819   1.144
10511SOL    HW232433   4.233   1.896   1.024
10512SOL     OW32434   3.908   0.563   5.095
10512SOL    HW132435   3.877   0.612   5.014
10512SOL    HW232436   3.980   0.616   5.140
10513SOL     OW32437   3.635   3.856   0.662
10513SOL    HW132438   3.641   3.765   0.703
10513SOL    HW232439   3.570   3.854   0.586
10514SOL     OW32440   1.675   5.040   2.117
10514SOL    HW132441   1.738   5.001   2.050
10514SOL    HW232442   1.721   5.046   2.206
10515SOL     OW32443   2.115   3.848   5.053
10515SOL    HW132444   2.031   3.869   5.002
10515SOL    HW232445   2.181   3.922   5.039
10516SOL     OW32446   5.528   2.224   1.993
10516SOL    HW132447   5.548   2.292   1.923
10516SOL    HW232448   5.609   2.211   2.051
10517SOL     OW32449   0.164   2.194   2.084
10517SOL    HW132450   0.237   2.204   2.152
10517SOL    HW232451   0.151   2.097   2.064
10518SOL     OW32452   0.759   5.778   2.855
10518SOL    HW132453   0.734   5.875   2.851
10518SOL    HW232454   0.852   5.769   2.890
10519SOL     OW32455   2.223   6.857   0.774
10519SOL    HW132456   2.164   6.780   0.751
10519SOL    HW232457   2.203   6.934   0.713
10520SOL     OW32458   3.266   2.688   5.975
10520SOL    HW132459   3.189   2.637   5.938
10520SOL    HW232460   3.316   2.731   5.901
10521SOL     OW32461   6.142   1.982   2.493
10521SOL    HW132462   6.185   1.899   2.458
10521SOL    HW232463   6.049   1.961   2.524
10522SOL     OW32464   5.092   1.584   3.005
10522SOL    HW132465   5.126   1.661   3.060
10522SOL    HW232466   5.041   1.619   2.927
10523SOL     OW32467   0.675   3.668   1.777
10523SOL    HW132468   0.645   3.583   1.821
10523SOL    HW232469   0.598   3.711   1.730
10524SOL     OW32470   6.053   6.802   4.734
10524SOL    HW132471   5.955   6.819   4.734
10524SOL    HW232472   6.097   6.854   4.808
10525SOL     OW32473   4.830   2.014   3.046
10525SOL    HW132474   4.778   1.931   3.025
10525SOL    HW232475   4.881   2.043   2.965
10526SOL     OW32476   1.533   5.995   5.989
10526SOL    HW132477   1.575   5.943   5.914
10526SOL    HW232478   1.602   6.014   6.059
10527SOL     OW32479   0.540   6.273   5.983
10527SOL    HW132480   0.610   6.344   5.972
10527SOL    HW232481   0.466   6.289   5.919
10528SOL     OW32482   2.164   6.388   5.111
10528SOL    HW132483   2.210   6.394   5.023
10528SOL    HW232484   2.226   6.347   5.178
10529SOL     OW32485   6.943   5.041   7.009
10529SOL    HW132486   6.863   5.067   6.954
10529SOL    HW232487   6.952   5.104   0.059
10530SOL     OW32488   5.881   0.323   1.235
10530SOL    HW132489   5.954   0.296   1.172
10530SOL    HW232490   5.922   0.346   1.324
10531SOL     OW32491   3.173   1.357   6.366
10531SOL    HW132492   3.103   1.336   6.299
10531SOL    HW232493   3.221   1.441   6.340
10532SOL     OW32494   4.611   5.406   5.779
10532SOL    HW132495   4.520   5.383   5.744
10532SOL    HW232496   4.634   5.344   5.855
10533SOL     OW32497   4.585   6.516   3.435
10533SOL    HW132498   4.512   6.583   3.446
10533SOL    HW232499   4.631   6.530   3.347
10534SOL     OW32500   0.695   6.390   4.280
10534SOL    HW132501   0.729   6.329   4.352
10534SOL    HW232502   0.721   6.484   4.301
10535SOL     OW32503   4.135   1.745   2.247
10535SOL    HW132504   4.051   1.703   2.213
10535SOL    HW232505   4.114   1.813   2.316
10536SOL     OW32506   5.924   3.824   4.343
10536SOL    HW132507   5.873   3.739   4.361
10536SOL    HW232508   5.872   3.881   4.279
10537SOL     OW32509   3.498   1.277   2.705
10537SOL    HW132510   3.542   1.331   2.634
10537SOL    HW232511   3.509   1.179   2.683
10538SOL     OW32512   6.277   2.861   3.495
10538SOL    HW132513   6.281   2.827   3.401
10538SOL    HW232514   6.182   2.883   3.519
10539SOL     OW32515   6.653   0.129   2.066
10539SOL    HW132516   6.608   0.096   2.149
10539SOL    HW232517   6.750   0.145   2.084
10540SOL     OW32518   1.799   2.870   6.308
10540SOL    HW132519   1.766   2.948   6.360
10540SOL    HW232520   1.845   2.806   6.369
10541SOL     OW32521   3.790   2.357   6.055
10541SOL    HW132522   3.722   2.401   5.996
10541SOL    HW232523   3.753   2.350   6.148
10542SOL     OW32524   3.826   6.733   2.413
10542SOL    HW132525   3.780   6.652   2.450
10542SOL    HW232526   3.807   6.812   2.471
10543SOL     OW32527   1.143   2.742   4.060
10543SOL    HW132528   1.069   2.794   4.104
10543SOL    HW232529   1.158   2.657   4.109
10544SOL     OW32530   2.773   2.326   2.317
10544SOL    HW132531   2.852   2.331   2.257
10544SOL    HW232532   2.721   2.243   2.296
10545SOL     OW32533   1.144   3.264   1.728
10545SOL    HW132534   1.198   3.343   1.697
10545SOL    HW232535   1.056   3.265   1.682
10546SOL     OW32536   1.727   0.040   4.873
10546SOL    HW132537   1.637   0.045   4.918
10546SOL    HW232538   1.785   7.002   4.921
10547SOL     OW32539   3.460   5.622   6.502
10547SOL    HW132540   3.434   5.710   6.541
10547SOL    HW232541   3.378   5.576   6.465
10548SOL     OW32542   1.646   5.009   2.942
10548SOL    HW132543   1.680   4.984   3.033
10548SOL    HW232544   1.566   4.953   2.920
10549SOL     OW32545   6.931   1.165   2.764
10549SOL    HW132546   7.002   1.182   2.832
10549SOL    HW232547   6.870   1.092   2.796
10550SOL     OW32548   6.745   5.131   2.445
10550SOL    HW132549   6.688   5.200   2.490
10550SOL    HW232550   6.822   5.107   2.505
10551SOL     OW32551   4.878   0.093   4.188
10551SOL    HW132552   4.796   0.039   4.204
10551SOL    HW232553   4.891   0.157   4.263
10552SOL     OW32554   2.934   6.995   3.406
10552SOL    HW132555   3.019   6.965   3.364
10552SOL    HW232556   2.912   6.936   3.483
10553SOL     OW32557   5.352   5.867   1.211
10553SOL    HW132558   5.299   5.891   1.129
10553SOL    HW232559   5.404   5.783   1.193
10554SOL     OW32560   5.977   5.881   1.124
10554SOL    HW132561   6.009   5.969   1.158
10554SOL    HW232562   6.048   5.839   1.067
10555SOL     OW32563   3.537   3.499   1.897
10555SOL    HW132564   3.568   3.499   1.992
10555SOL    HW232565   3.589   3.430   1.846
10556SOL     OW32566   2.453   2.242   1.858
10556SOL    HW132567   2.408   2.154   1.842
10556SOL    HW232568   2.478   2.251   1.954
10557SOL     OW32569   0.774   4.289   2.828
10557SOL    HW132570   0.741   4.303   2.921
10557SOL    HW232571   0.713   4.334   2.763
10558SOL     OW32572   5.200   5.015   4.521
10558SOL    HW132573   5.193   4.962   4.606
10558SOL    HW232574   5.256   5.096   4.538
10559SOL     OW32575   3.604   6.156   1.149
10559SOL    HW132576   3.663   6.083   1.183
10559SOL    HW232577   3.536   6.180   1.219
10560SOL     OW32578   5.911   0.261   4.186
10560SOL    HW132579   5.923   0.168   4.151
10560SOL    HW232580   5.951   0.268   4.277
10561SOL     OW32581   1.199   5.759   5.411
10561SOL    HW132582   1.133   5.772   5.336
10561SOL    HW232583   1.159   5.788   5.497
10562SOL     OW32584   3.167   0.950   2.762
10562SOL    HW132585   3.103   0.932   2.836
10562SOL    HW232586   3.135   0.905   2.678
10563SOL     OW32587   1.616   5.422   1.915
10563SOL    HW132588   1.560   5.386   1.990
10563SOL    HW232589   1.610   5.361   1.837
10564SOL     OW32590   5.399   5.211   3.091
10564SOL    HW132591   5.333   5.282   3.115
10564SOL    HW232592   5.368   5.123   3.128
10565SOL     OW32593   6.889   1.357   4.643
10565SOL    HW132594   6.913   1.308   4.559
10565SOL    HW232595   6.857   1.449   4.620
10566SOL     OW32596   3.973   1.721   0.190
10566SOL    HW132597   4.001   1.666   0.269
10566SOL    HW232598   3.937   1.662   0.119
10567SOL     OW32599   2.921   1.747   6.364
10567SOL    HW132600   2.971   1.684   6.424
10567SOL    HW232601   2.920   1.710   6.271
10568SOL     OW32602   5.826   2.041   6.564
10568SOL    HW132603   5.770   2.123   6.558
10568SOL    HW232604   5.917   2.060   6.530
10569SOL     OW32605   4.092   0.768   1.220
10569SOL    HW132606   4.065   0.747   1.127
10569SOL    HW232607   4.022   0.735   1.284
10570SOL     OW32608   1.223   4.219   3.150
10570SOL    HW132609   1.295   4.283   3.126
10570SOL    HW232610   1.257   4.152   3.215
10571SOL     OW32611   0.530   3.728   5.143
10571SOL    HW132612   0.578   3.805   5.185
10571SOL    HW232613   0.501   3.664   5.214
10572SOL     OW32614   0.293   5.469   0.927
10572SOL    HW132615   0.382   5.426   0.938
10572SOL    HW232616   0.253   5.487   1.017
10573SOL     OW32617   6.030   2.606   3.291
10573SOL    HW132618   5.940   2.629   3.330
10573SOL    HW232619   6.074   2.538   3.348
10574SOL     OW32620   4.850   2.206   2.365
10574SOL    HW132621   4.792   2.154   2.303
10574SOL    HW232622   4.795   2.244   2.439
10575SOL     OW32623   5.438   0.440   2.672
10575SOL    HW132624   5.456   0.441   2.771
10575SOL    HW232625   5.387   0.522   2.647
10576SOL     OW32626   1.523   2.972   5.410
10576SOL    HW132627   1.583   3.051   5.425
10576SOL    HW232628   1.479   2.980   5.320
10577SOL     OW32629   4.360   4.157   6.728
10577SOL    HW132630   4.325   4.100   6.654
10577SOL    HW232631   4.458   4.141   6.740
10578SOL     OW32632   1.121   3.563   2.333
10578SOL    HW132633   1.137   3.486   2.395
10578SOL    HW232634   1.157   3.647   2.373
10579SOL     OW32635   0.042   3.339   6.988
10579SOL    HW132636   0.136   3.307   6.982
10579SOL    HW232637   0.038   3.435   6.961
10580SOL     OW32638   5.295   6.756   6.294
10580SOL    HW132639   5.213   6.800   6.330
10580SOL    HW232640   5.375   6.789   6.343
10581SOL     OW32641   4.257   0.747   2.370
10581SOL    HW132642   4.236   0.701   2.284
10581SOL    HW232643   4.251   0.681   2.445
10582SOL     OW32644   6.906   3.495   0.365
10582SOL    HW132645   6.848   3.414   0.369
10582SOL    HW232646   6.990   3.475   0.315
10583SOL     OW32647   4.036   1.913   6.220
10583SOL    HW132648   4.082   1.831   6.255
10583SOL    HW232649   3.993   1.892   6.132
10584SOL     OW32650   6.214   0.543   3.767
10584SOL    HW132651   6.204   0.498   3.855
10584SOL    HW232652   6.170   0.633   3.770
10585SOL     OW32653   1.551   1.197   4.977
10585SOL    HW132654   1.456   1.226   4.966
10585SOL    HW232655   1.578   1.140   4.899
10586SOL     OW32656   4.653   3.850   6.223
10586SOL    HW132657   4.728   3.802   6.178
10586SOL    HW232658   4.687   3.934   6.265
10587SOL     OW32659   2.511   5.198   5.425
10587SOL    HW132660   2.536   5.188   5.521
10587SOL    HW232661   2.499   5.108   5.384
10588SOL     OW32662   1.056   4.279   4.407
10588SOL    HW132663   1.098   4.193   4.379
10588SOL    HW232664   0.966   4.288   4.365
10589SOL     OW32665   5.604   0.475   3.628
10589SOL    HW132666   5.520   0.450   3.676
10589SOL    HW232667   5.581   0.523   3.543
10590SOL     OW32668   0.378   6.469   2.042
10590SOL    HW132669   0.348   6.428   2.129
10590SOL    HW232670   0.473   6.498   2.050
10591SOL     OW32671   6.383   4.426   2.348
10591SOL    HW132672   6.322   4.459   2.420
10591SOL    HW232673   6.329   4.406   2.266
10592SOL     OW32674   6.369   3.693   4.775
10592SOL    HW132675   6.327   3.621   4.720
10592SOL    HW232676   6.461   3.712   4.742
10593SOL     OW32677   3.836   5.890   3.406
10593SOL    HW132678   3.807   5.804   3.363
10593SOL    HW232679   3.922   5.875   3.454
10594SOL     OW32680   4.117   6.068   4.014
10594SOL    HW132681   4.180   6.044   3.940
10594SOL    HW232682   4.066   5.987   4.042
10595SOL     OW32683   5.526   5.694   0.570
10595SOL    HW132684   5.533   5.759   0.645
10595SOL    HW232685   5.553   5.739   0.484
10596SOL     OW32686   5.751   3.992   0.405
10596SOL    HW132687   5.759   3.910   0.348
10596SOL    HW232688   5.654   4.010   0.423
10597SOL     OW32689   1.074   6.611   5.271
10597SOL    HW132690   1.000   6.669   5.235
10597SOL    HW232691   1.118   6.657   5.347
10598SOL     OW32692   3.318   1.913   1.062
10598SOL    HW132693   3.230   1.892   1.104
10598SOL    HW232694   3.384   1.938   1.132
10599SOL     OW32695   0.574   2.005   0.504
10599SOL    HW132696   0.567   1.906   0.494
10599SOL    HW232697   0.508   2.037   0.572
10600SOL     OW32698   4.770   1.313   2.122
10600SOL    HW132699   4.836   1.385   2.098
10600SOL    HW232700   4.810   1.252   2.190
10601SOL     OW32701   2.049   2.046   4.982
10601SOL    HW132702   2.060   1.949   4.959
10601SOL    HW232703   2.131   2.077   5.032
10602SOL     OW32704   6.806   6.748   1.458
10602SOL    HW132705   6.753   6.757   1.374
10602SOL    HW232706   6.900   6.777   1.441
10603SOL     OW32707   5.901   0.624   2.398
10603SOL    HW132708   5.806   0.648   2.415
10603SOL    HW232709   5.947   0.605   2.486
10604SOL     OW32710   5.456   2.346   5.010
10604SOL    HW132711   5.402   2.328   5.093
10604SOL    HW232712   5.438   2.439   4.978
10605SOL     OW32713   4.430   1.917   1.200
10605SOL    HW132714   4.392   1.863   1.275
10605SOL    HW232715   4.523   1.885   1.180
10606SOL     OW32716   5.570   1.312   0.766
10606SOL    HW132717   5.536   1.352   0.851
10606SOL    HW232718   5.558   1.376   0.691
10607SOL     OW32719   2.344   4.994   0.875
10607SOL    HW132720   2.442   5.002   0.855
10607SOL    HW232721   2.319   5.064   0.942
10608SOL     OW32722   5.247   4.546   2.734
10608SOL    HW132723   5.236   4.474   2.802
10608SOL    HW232724   5.271   4.504   2.646
10609SOL     OW32725   5.758   6.561   6.669
10609SOL    HW132726   5.705   6.643   6.689
10609SOL    HW232727   5.703   6.499   6.612
10610SOL     OW32728   0.623   1.823   3.249
10610SOL    HW132729   0.668   1.812   3.338
10610SOL    HW232730   0.566   1.904   3.251
10611SOL     OW32731   4.163   5.494   6.073
10611SOL    HW132732   4.105   5.430   6.122
10611SOL    HW232733   4.258   5.463   6.076
10612SOL     OW32734   5.142   2.491   3.323
10612SOL    HW132735   5.074   2.492   3.250
10612SOL    HW232736   5.233   2.507   3.284
10613SOL     OW32737   5.455   4.818   5.802
10613SOL    HW132738   5.485   4.757   5.729
10613SOL    HW232739   5.453   4.768   5.889
10614SOL     OW32740   4.164   2.210   6.845
10614SOL    HW132741   4.245   2.152   6.848
10614SOL    HW232742   4.177   2.280   6.774
10615SOL     OW32743   3.141   2.104   5.762
10615SOL    HW132744   3.087   2.172   5.713
10615SOL    HW232745   3.095   2.016   5.760
10616SOL     OW32746   1.098   5.454   0.185
10616SOL    HW132747   1.144   5.529   0.232
10616SOL    HW232748   1.060   5.486   0.098
10617SOL     OW32749   2.545   3.349   0.139
10617SOL    HW132750   2.549   3.447   0.156
10617SOL    HW232751   2.464   3.310   0.183
10618SOL     OW32752   0.082   4.729   4.303
10618SOL    HW132753   0.097   4.807   4.364
10618SOL    HW232754   0.063   4.762   4.210
10619SOL     OW32755   1.026   2.391   0.934
10619SOL    HW132756   0.953   2.419   0.872
10619SOL    HW232757   1.114   2.410   0.892
10620SOL     OW32758   4.017   0.978   5.555
10620SOL    HW132759   3.930   0.932   5.537
10620SOL    HW232760   4.001   1.054   5.618
10621SOL     OW32761   0.702   4.870   4.868
10621SOL    HW132762   0.609   4.834   4.876
10621SOL    HW232763   0.734   4.860   4.774
10622SOL     OW32764   3.783   1.991   6.278
10622SOL    HW132765   3.880   1.982   6.257
10622SOL    HW232766   3.764   2.083   6.312
10623SOL     OW32767   5.291   4.508   5.555
10623SOL    HW132768   5.197   4.505   5.521
10623SOL    HW232769   5.353   4.471   5.485
10624SOL     OW32770   0.294   1.450   5.819
10624SOL    HW132771   0.386   1.484   5.837
10624SOL    HW232772   0.231   1.484   5.889
10625SOL     OW32773   5.725   5.635   6.790
10625SOL    HW132774   5.706   5.560   6.726
10625SOL    HW232775   5.797   5.608   6.853
10626SOL     OW32776   5.579   3.967   2.060
10626SOL    HW132777   5.511   3.984   2.131
10626SOL    HW232778   5.543   3.900   1.995
10627SOL     OW32779   5.249   4.780   5.504
10627SOL    HW132780   5.209   4.841   5.572
10627SOL    HW232781   5.276   4.694   5.549
10628SOL     OW32782   2.862   5.782   1.613
10628SOL    HW132783   2.874   5.824   1.702
10628SOL    HW232784   2.951   5.757   1.574
10629SOL     OW32785   4.487   5.830   4.374
10629SOL    HW132786   4.468   5.908   4.434
10629SOL    HW232787   4.585   5.819   4.363
10630SOL     OW32788   4.345   0.615   1.263
10630SOL    HW132789   4.385   0.621   1.172
10630SOL    HW232790   4.257   0.663   1.263
10631SOL     OW32791   3.960   6.637   2.157
10631SOL    HW132792   3.916   6.547   2.149
10631SOL    HW232793   3.918   6.689   2.230
10632SOL     OW32794   5.980   0.271   4.908
10632SOL    HW132795   5.932   0.348   4.949
10632SOL    HW232796   5.936   0.185   4.937
10633SOL     OW32797   3.186   3.107   0.082
10633SOL    HW132798   3.199   3.105   7.010
10633SOL    HW232799   3.118   3.177   0.106
10634SOL     OW32800   0.613   4.303   0.170
10634SOL    HW132801   0.544   4.240   0.135
10634SOL    HW232802   0.615   4.300   0.270
10635SOL     OW32803   2.978   4.100   6.981
10635SOL    HW132804   2.958   4.129   6.887
10635SOL    HW232805   2.907   4.134   0.016
10636SOL     OW32806   6.912   2.549   0.758
10636SOL    HW132807   6.938   2.626   0.700
10636SOL    HW232808   6.891   2.582   0.850
10637SOL     OW32809   1.590   0.356   5.536
10637SOL    HW132810   1.556   0.282   5.595
10637SOL    HW232811   1.656   0.412   5.587
10638SOL     OW32812   6.016   4.930   6.707
10638SOL    HW132813   5.988   4.834   6.703
10638SOL    HW232814   6.111   4.939   6.678
10639SOL     OW32815   6.650   5.565   6.815
10639SOL    HW132816   6.577   5.632   6.833
10639SOL    HW232817   6.609   5.478   6.790
10640SOL     OW32818   3.962   5.813   4.674
10640SOL    HW132819   3.888   5.790   4.737
10640SOL    HW232820   4.044   5.836   4.727
10641SOL     OW32821   0.934   1.479   4.045
10641SOL    HW132822   0.893   1.536   4.117
10641SOL    HW232823   1.034   1.485   4.051
10642SOL     OW32824   0.287   1.846   6.407
10642SOL    HW132825   0.371   1.832   6.356
10642SOL    HW232826   0.283   1.940   6.441
10643SOL     OW32827   2.984   5.147   4.977
10643SOL    HW132828   2.994   5.176   4.882
10643SOL    HW232829   2.960   5.050   4.979
10644SOL     OW32830   1.223   3.426   3.218
10644SOL    HW132831   1.161   3.400   3.292
10644SOL    HW232832   1.170   3.442   3.134
10645SOL     OW32833   2.061   3.366   3.552
10645SOL    HW132834   1.981   3.331   3.502
10645SOL    HW232835   2.110   3.431   3.494
10646SOL     OW32836   5.272   1.498   3.434
10646SOL    HW132837   5.223   1.585   3.430
10646SOL    HW232838   5.371   1.516   3.431
10647SOL     OW32839   4.277   5.555   4.968
10647SOL    HW132840   4.243   5.577   4.877
10647SOL    HW232841   4.348   5.485   4.961
10648SOL     OW32842   4.692   3.554   5.775
10648SOL    HW132843   4.609   3.576   5.825
10648SOL    HW232844   4.727   3.637   5.732
10649SOL     OW32845   5.978   3.104   3.424
10649SOL    HW132846   6.034   3.182   3.396
10649SOL    HW232847   5.984   3.032   3.355
10650SOL     OW32848   0.862   0.292   3.139
10650SOL    HW132849   0.887   0.330   3.051
10650SOL    HW232850   0.930   0.224   3.167
10651SOL     OW32851   2.168   5.849   5.449
10651SOL    HW132852   2.124   5.832   5.361
10651SOL    HW232853   2.158   5.769   5.508
10652SOL     OW32854   3.025   0.619   6.999
10652SOL    HW132855   3.086   0.605   0.051
10652SOL    HW232856   2.942   0.667   0.003
10653SOL     OW32857   5.737   6.227   4.483
10653SOL    HW132858   5.781   6.283   4.413
10653SOL    HW232859   5.804   6.165   4.524
10654SOL     OW32860   6.729   1.426   4.320
10654SOL    HW132861   6.663   1.436   4.394
10654SOL    HW232862   6.700   1.352   4.260
10655SOL     OW32863   6.281   5.471   0.452
10655SOL    HW132864   6.311   5.383   0.415
10655SOL    HW232865   6.181   5.476   0.448
10656SOL     OW32866   6.048   0.505   5.941
10656SOL    HW132867   6.126   0.503   5.879
10656SOL    HW232868   6.065   0.444   6.019
10657SOL     OW32869   4.407   6.847   5.621
10657SOL    HW132870   4.440   6.754   5.605
10657SOL    HW232871   4.366   6.882   5.536
10658SOL     OW32872   1.472   1.432   5.329
10658SOL    HW132873   1.400   1.468   5.270
10658SOL    HW232874   1.513   1.351   5.287
10659SOL     OW32875   0.640   5.622   6.459
10659SOL    HW132876   0.543   5.600   6.455
10659SOL    HW232877   0.660   5.696   6.394
10660SOL     OW32878   6.134   2.433   6.462
10660SOL    HW132879   6.114   2.461   6.555
10660SOL    HW232880   6.209   2.368   6.462
10661SOL     OW32881   3.379   5.571   5.593
10661SOL    HW132882   3.378   5.542   5.498
10661SOL    HW232883   3.350   5.666   5.600
10662SOL     OW32884   3.208   2.087   0.811
10662SOL    HW132885   3.149   2.148   0.864
10662SOL    HW232886   3.264   2.032   0.873
10663SOL     OW32887   6.787   3.088   3.957
10663SOL    HW132888   6.703   3.062   3.908
10663SOL    HW232889   6.862   3.098   3.891
10664SOL     OW32890   1.093   6.325   4.816
10664SOL    HW132891   1.185   6.288   4.830
10664SOL    HW232892   1.067   6.381   4.894
10665SOL     OW32893   3.786   3.439   0.712
10665SOL    HW132894   3.737   3.381   0.647
10665SOL    HW232895   3.721   3.498   0.760
10666SOL     OW32896   4.849   3.577   1.503
10666SOL    HW132897   4.880   3.641   1.433
10666SOL    HW232898   4.849   3.484   1.466
10667SOL     OW32899   5.886   2.717   4.329
10667SOL    HW132900   5.956   2.783   4.303
10667SOL    HW232901   5.796   2.761   4.328
10668SOL     OW32902   3.324   3.669   5.941
10668SOL    HW132903   3.274   3.748   5.906
10668SOL    HW232904   3.414   3.698   5.975
10669SOL     OW32905   6.425   3.350   2.031
10669SOL    HW132906   6.381   3.394   1.953
10669SOL    HW232907   6.452   3.420   2.097
10670SOL     OW32908   4.483   4.541   4.269
10670SOL    HW132909   4.403   4.595   4.245
10670SOL    HW232910   4.529   4.512   4.186
10671SOL     OW32911   2.074   3.088   4.802
10671SOL    HW132912   2.096   3.148   4.726
10671SOL    HW232913   2.106   3.128   4.888
10672SOL     OW32914   6.244   4.923   1.154
10672SOL    HW132915   6.204   4.918   1.245
10672SOL    HW232916   6.238   5.018   1.121
10673SOL     OW32917   3.054   1.607   1.688
10673SOL    HW132918   3.119   1.667   1.734
10673SOL    HW232919   3.086   1.588   1.595
10674SOL     OW32920   3.738   3.426   4.843
10674SOL    HW132921   3.780   3.434   4.934
10674SOL    HW232922   3.724   3.330   4.821
10675SOL     OW32923   3.320   6.403   5.812
10675SOL    HW132924   3.238   6.380   5.760
10675SOL    HW232925   3.394   6.426   5.748
10676SOL     OW32926   1.491   1.518   4.567
10676SOL    HW132927   1.446   1.461   4.637
10676SOL    HW232928   1.472   1.614   4.584
10677SOL     OW32929   0.080   1.712   6.767
10677SOL    HW132930   0.035   1.768   6.698
10677SOL    HW232931   0.179   1.723   6.760
10678SOL     OW32932   3.496   4.963   2.325
10678SOL    HW132933   3.407   4.922   2.302
10678SOL    HW232934   3.510   5.045   2.270
10679SOL     OW32935   5.216   3.941   0.478
10679SOL    HW132936   5.201   3.970   0.383
10679SOL    HW232937   5.187   3.847   0.489
10680SOL     OW32938   4.607   1.218   4.986
10680SOL    HW132939   4.524   1.266   4.956
10680SOL    HW232940   4.686   1.254   4.937
10681SOL     OW32941   2.531   3.478   5.383
10681SOL    HW132942   2.441   3.480   5.426
10681SOL    HW232943   2.552   3.384   5.354
10682SOL     OW32944   4.907   3.287   6.069
10682SOL    HW132945   4.859   3.285   5.982
10682SOL    HW232946   4.983   3.221   6.066
10683SOL     OW32947   1.787   0.787   3.406
10683SOL    HW132948   1.705   0.738   3.376
10683SOL    HW232949   1.826   0.837   3.328
10684SOL     OW32950   4.465   4.102   1.430
10684SOL    HW132951   4.532   4.086   1.503
10684SOL    HW232952   4.508   4.154   1.356
10685SOL     OW32953   0.543   0.237   2.843
10685SOL    HW132954   0.536   0.147   2.885
10685SOL    HW232955   0.625   0.242   2.786
10686SOL     OW32956   3.090   1.058   6.499
10686SOL    HW132957   3.076   1.113   6.582
10686SOL    HW232958   3.154   1.104   6.439
10687SOL     OW32959   0.378   2.530   3.273
10687SOL    HW132960   0.349   2.444   3.314
10687SOL    HW232961   0.313   2.602   3.298
10688SOL     OW32962   5.220   0.908   3.840
10688SOL    HW132963   5.291   0.970   3.806
10688SOL    HW232964   5.201   0.928   3.936
10689SOL     OW32965   1.587   1.537   2.792
10689SOL    HW132966   1.492   1.519   2.816
10689SOL    HW232967   1.639   1.560   2.874
10690SOL     OW32968   0.714   6.683   4.278
10690SOL    HW132969   0.784   6.754   4.279
10690SOL    HW232970   0.645   6.702   4.347
10691SOL     OW32971   3.321   6.560   1.141
10691SOL    HW132972   3.295   6.626   1.070
10691SOL    HW232973   3.420   6.564   1.156
10692SOL     OW32974   2.845   2.289   4.456
10692SOL    HW132975   2.782   2.345   4.510
10692SOL    HW232976   2.837   2.314   4.360
10693SOL     OW32977   1.365   4.342   0.365
10693SOL    HW132978   1.287   4.281   0.353
10693SOL    HW232979   1.434   4.324   0.295
10694SOL     OW32980   5.346   1.803   5.415
10694SOL    HW132981   5.319   1.739   5.487
10694SOL    HW232982   5.318   1.895   5.440
10695SOL     OW32983   4.780   4.673   1.052
10695SOL    HW132984   4.736   4.731   0.983
10695SOL    HW232985   4.859   4.721   1.090
10696SOL     OW32986   6.365   4.543   4.305
10696SOL    HW132987   6.381   4.456   4.351
10696SOL    HW232988   6.453   4.587   4.287
10697SOL     OW32989   2.711   5.082   4.531
10697SOL    HW132990   2.638   5.133   4.576
10697SOL    HW232991   2.687   4.985   4.528
10698SOL     OW32992   3.735   4.592   6.965
10698SOL    HW132993   3.737   4.669   0.003
10698SOL    HW232994   3.645   4.586   6.922
10699SOL     OW32995   3.600   3.916   1.118
10699SOL    HW132996   3.512   3.937   1.161
10699SOL    HW232997   3.603   3.957   1.027
10700SOL     OW32998   4.778   0.542   1.140
10700SOL    HW132999   4.827   0.560   1.055
10700SOL    HW233000   4.745   0.448   1.140
10701SOL     OW33001   3.134   6.208   6.222
10701SOL    HW133002   3.207   6.139   6.228
10701SOL    HW233003   3.099   6.211   6.128
10702SOL     OW33004   5.385   2.841   2.396
10702SOL    HW133005   5.304   2.791   2.365
10702SOL    HW233006   5.376   2.862   2.493
10703SOL     OW33007   0.677   1.808   5.666
10703SOL    HW133008   0.598   1.830   5.724
10703SOL    HW233009   0.644   1.785   5.574
10704SOL     OW33010   5.518   6.852   1.785
10704SOL    HW133011   5.436   6.906   1.802
10704SOL    HW233012   5.586   6.908   1.739
10705SOL     OW33013   4.904   3.323   1.365
10705SOL    HW133014   4.978   3.266   1.330
10705SOL    HW233015   4.843   3.268   1.422
10706SOL     OW33016   3.165   1.191   2.084
10706SOL    HW133017   3.253   1.145   2.070
10706SOL    HW233018   3.171   1.286   2.053
10707SOL     OW33019   4.382   6.642   3.179
10707SOL    HW133020   4.290   6.668   3.151
10707SOL    HW233021   4.402   6.681   3.269
10708SOL     OW33022   4.440   0.971   1.001
10708SOL    HW133023   4.485   0.882   0.992
10708SOL    HW233024   4.431   0.994   1.098
10709SOL     OW33025   5.886   4.740   2.744
10709SOL    HW133026   5.913   4.662   2.800
10709SOL    HW233027   5.869   4.820   2.802
10710SOL     OW33028   4.498   1.639   3.398
10710SOL    HW133029   4.524   1.634   3.494
10710SOL    HW233030   4.539   1.720   3.357
10711SOL     OW33031   2.654   6.427   3.124
10711SOL    HW133032   2.727   6.478   3.078
10711SOL    HW233033   2.651   6.334   3.088
10712SOL     OW33034   5.641   0.879   3.694
10712SOL    HW133035   5.666   0.800   3.639
10712SOL    HW233036   5.567   0.929   3.650
10713SOL     OW33037   1.292   3.481   1.592
10713SOL    HW133038   1.290   3.464   1.493
10713SOL    HW233039   1.314   3.577   1.609
10714SOL     OW33040   3.172   4.159   5.265
10714SOL    HW133041   3.089   4.104   5.259
10714SOL    HW233042   3.150   4.252   5.295
10715SOL     OW33043   5.803   0.583   1.848
10715SOL    HW133044   5.821   0.567   1.945
10715SOL    HW233045   5.877   0.638   1.809
10716SOL     OW33046   4.972   1.104   3.499
10716SOL    HW133047   5.038   1.035   3.527
10716SOL    HW233048   4.940   1.085   3.407
10717SOL     OW33049   3.566   2.344   0.654
10717SOL    HW133050   3.491   2.279   0.639
10717SOL    HW233051   3.621   2.314   0.732
10718SOL     OW33052   1.729   5.263   6.367
10718SOL    HW133053   1.806   5.216   6.411
10718SOL    HW233054   1.650   5.202   6.364
10719SOL     OW33055   0.356   5.398   5.147
10719SOL    HW133056   0.428   5.391   5.216
10719SOL    HW233057   0.277   5.446   5.186
10720SOL     OW33058   0.094   5.448   2.999
10720SOL    HW133059   0.032   5.480   3.070
10720SOL    HW233060   0.044   5.440   2.912
10721SOL     OW33061   4.945   2.259   5.685
10721SOL    HW133062   4.892   2.221   5.761
10721SOL    HW233063   5.043   2.246   5.704
10722SOL     OW33064   0.299   3.709   4.973
10722SOL    HW133065   0.316   3.616   4.942
10722SOL    HW233066   0.384   3.748   5.008
10723SOL     OW33067   5.522   6.479   0.425
10723SOL    HW133068   5.557   6.489   0.519
10723SOL    HW233069   5.487   6.386   0.413
10724SOL     OW33070   0.552   6.005   6.130
10724SOL    HW133071   0.608   6.070   6.078
10724SOL    HW233072   0.611   5.941   6.178
10725SOL     OW33073   2.057   6.603   5.893
10725SOL    HW133074   2.086   6.699   5.891
10725SOL    HW233075   2.136   6.545   5.907
10726SOL     OW33076   4.071   0.686   4.250
10726SOL    HW133077   4.126   0.732   4.320
10726SOL    HW233078   4.095   0.721   4.160
10727SOL     OW33079   2.047   6.690   6.569
10727SOL    HW133080   2.073   6.736   6.654
10727SOL    HW233081   1.992   6.609   6.589
10728SOL     OW33082   5.097   5.992   1.354
10728SOL    HW133083   5.196   5.995   1.368
10728SOL    HW233084   5.050   6.025   1.437
10729SOL     OW33085   6.477   2.167   0.849
10729SOL    HW133086   6.557   2.223   0.827
10729SOL    HW233087   6.444   2.191   0.941
10730SOL     OW33088   4.564   0.554   3.195
10730SOL    HW133089   4.590   0.469   3.149
10730SOL    HW233090   4.602   0.632   3.144
10731SOL     OW33091   3.563   0.129   0.850
10731SOL    HW133092   3.475   0.140   0.897
10731SOL    HW233093   3.627   0.198   0.883
10732SOL     OW33094   1.062   3.499   5.984
10732SOL    HW133095   1.072   3.598   5.996
10732SOL    HW233096   1.092   3.452   6.067
10733SOL     OW33097   5.481   0.959   0.305
10733SOL    HW133098   5.455   0.872   0.264
10733SOL    HW233099   5.514   1.021   0.234
10734SOL     OW33100   6.192   2.886   1.943
10734SOL    HW133101   6.269   2.927   1.992
10734SOL    HW233102   6.142   2.825   2.005
10735SOL     OW33103   0.391   5.846   2.828
10735SOL    HW133104   0.399   5.935   2.873
10735SOL    HW233105   0.296   5.833   2.798
10736SOL     OW33106   2.209   1.621   4.681
10736SOL    HW133107   2.276   1.621   4.608
10736SOL    HW233108   2.129   1.675   4.653
10737SOL     OW33109   6.602   1.880   0.175
10737SOL    HW133110   6.650   1.850   0.093
10737SOL    HW233111   6.509   1.908   0.151
10738SOL     OW33112   3.885   0.392   3.632
10738SOL    HW133113   3.870   0.359   3.725
10738SOL    HW233114   3.847   0.484   3.623
10739SOL     OW33115   2.275   1.876   2.022
10739SOL    HW133116   2.279   1.951   2.090
10739SOL    HW233117   2.179   1.853   2.004
10740SOL     OW33118   5.054   6.285   3.429
10740SOL    HW133119   5.015   6.365   3.475
10740SOL    HW233120   4.980   6.221   3.406
10741SOL     OW33121   2.568   0.385   3.307
10741SOL    HW133122   2.519   0.351   3.387
10741SOL    HW233123   2.660   0.347   3.305
10742SOL     OW33124   6.545   5.576   0.518
10742SOL    HW133125   6.540   5.632   0.435
10742SOL    HW233126   6.454   5.540   0.539
10743SOL     OW33127   2.543   2.065   5.005
10743SOL    HW133128   2.499   1.979   4.980
10743SOL    HW233129   2.608   2.048   5.080
10744SOL     OW33130   5.939   1.645   7.001
10744SOL    HW133131   5.919   1.733   0.018
10744SOL    HW233132   5.862   1.617   6.944
10745SOL     OW33133   0.427   5.734   6.187
10745SOL    HW133134   0.440   5.824   6.146
10745SOL    HW233135   0.397   5.745   6.282
10746SOL     OW33136   1.956   4.378   6.097
10746SOL    HW133137   1.903   4.461   6.077
10746SOL    HW233138   1.893   4.301   6.105
10747SOL     OW33139   3.346   2.096   4.629
10747SOL    HW133140   3.276   2.122   4.564
10747SOL    HW233141   3.327   2.137   4.718
10748SOL     OW33142   5.514   1.291   2.443
10748SOL    HW133143   5.588   1.357   2.456
10748SOL    HW233144   5.428   1.340   2.430
10749SOL     OW33145   3.095   6.548   0.296
10749SOL    HW133146   3.077   6.542   0.395
10749SOL    HW233147   3.126   6.459   0.263
10750SOL     OW33148   3.979   6.494   5.744
10750SOL    HW133149   4.063   6.479   5.797
10750SOL    HW233150   3.912   6.542   5.800
10751SOL     OW33151   2.348   5.376   3.708
10751SOL    HW133152   2.362   5.292   3.761
10751SOL    HW233153   2.422   5.386   3.641
10752SOL     OW33154   5.073   5.078   4.078
10752SOL    HW133155   5.158   5.043   4.039
10752SOL    HW233156   5.046   5.022   4.155
10753SOL     OW33157   6.050   4.215   4.461
10753SOL    HW133158   6.117   4.250   4.526
10753SOL    HW233159   5.992   4.147   4.505
10754SOL     OW33160   1.293   0.029   2.592
10754SOL    HW133161   1.368   0.081   2.633
10754SOL    HW233162   1.227   0.092   2.552
10755SOL     OW33163   6.027   5.617   1.349
10755SOL    HW133164   6.075   5.552   1.290
10755SOL    HW233165   6.089   5.691   1.374
10756SOL     OW33166   0.516   0.262   5.029
10756SOL    HW133167   0.465   0.295   5.108
10756SOL    HW233168   0.453   0.229   4.959
10757SOL     OW33169   3.203   3.331   1.398
10757SOL    HW133170   3.117   3.288   1.425
10757SOL    HW233171   3.193   3.430   1.398
10758SOL     OW33172   0.182   4.908   3.884
10758SOL    HW133173   0.150   4.992   3.928
10758SOL    HW233174   0.154   4.908   3.788
10759SOL     OW33175   6.724   1.160   6.765
10759SOL    HW133176   6.677   1.165   6.853
10759SOL    HW233177   6.803   1.220   6.766
10760SOL     OW33178   5.964   1.531   4.730
10760SOL    HW133179   6.015   1.598   4.784
10760SOL    HW233180   6.028   1.472   4.680
10761SOL     OW33181   2.703   4.845   5.662
10761SOL    HW133182   2.626   4.783   5.647
10761SOL    HW233183   2.729   4.843   5.758
10762SOL     OW33184   3.222   1.879   5.984
10762SOL    HW133185   3.206   1.786   6.016
10762SOL    HW233186   3.312   1.885   5.941
10763SOL     OW33187   4.670   6.235   4.001
10763SOL    HW133188   4.574   6.265   4.002
10763SOL    HW233189   4.727   6.309   3.967
10764SOL     OW33190   4.316   6.816   4.989
10764SOL    HW133191   4.328   6.719   5.007
10764SOL    HW233192   4.309   6.831   4.890
10765SOL     OW33193   6.596   3.554   6.969
10765SOL    HW133194   6.658   3.605   0.002
10765SOL    HW233195   6.547   3.617   6.909
10766SOL     OW33196   3.426   3.355   1.620
10766SOL    HW133197   3.393   3.353   1.525
10766SOL    HW233198   3.526   3.359   1.620
10767SOL     OW33199   4.393   1.776   2.552
10767SOL    HW133200   4.319   1.831   2.513
10767SOL    HW233201   4.481   1.812   2.520
10768SOL     OW33202   6.187   4.579   6.177
10768SOL    HW133203   6.201   4.677   6.163
10768SOL    HW233204   6.090   4.557   6.169
10769SOL     OW33205   1.938   3.581   5.281
10769SOL    HW133206   2.001   3.503   5.282
10769SOL    HW233207   1.860   3.559   5.223
10770SOL     OW33208   4.464   5.902   4.008
10770SOL    HW133209   4.414   5.911   3.921
10770SOL    HW233210   4.404   5.861   4.077
10771SOL     OW33211   2.134   1.535   4.255
10771SOL    HW133212   2.046   1.580   4.271
10771SOL    HW233213   2.202   1.604   4.229
10772SOL     OW33214   5.321   5.649   3.596
10772SOL    HW133215   5.260   5.571   3.583
10772SOL    HW233216   5.285   5.728   3.547
10773SOL     OW33217   5.799   4.741   3.093
10773SOL    HW133218   5.861   4.675   3.136
10773SOL    HW233219   5.851   4.806   3.038
10774SOL     OW33220   0.260   6.872   3.209
10774SOL    HW133221   0.176   6.920   3.234
10774SOL    HW233222   0.253   6.776   3.236
10775SOL     OW33223   0.226   3.474   1.163
10775SOL    HW133224   0.228   3.426   1.075
10775SOL    HW233225   0.194   3.412   1.235
10776SOL     OW33226   1.145   0.617   5.642
10776SOL    HW133227   1.190   0.691   5.592
10776SOL    HW233228   1.197   0.533   5.631
10777SOL     OW33229   2.332   5.492   1.409
10777SOL    HW133230   2.375   5.581   1.423
10777SOL    HW233231   2.400   5.420   1.421
10778SOL     OW33232   6.048   5.722   2.024
10778SOL    HW133233   5.975   5.766   2.077
10778SOL    HW233234   6.086   5.646   2.077
10779SOL     OW33235   4.914   3.078   3.216
10779SOL    HW133236   4.991   3.046   3.162
10779SOL    HW233237   4.866   2.999   3.256
10780SOL     OW33238   6.929   0.438   2.064
10780SOL    HW133239   7.025   0.424   2.039
10780SOL    HW233240   6.874   0.447   1.981
10781SOL     OW33241   3.283   0.253   4.348
10781SOL    HW133242   3.266   0.344   4.312
10781SOL    HW233243   3.220   0.236   4.425
10782SOL     OW33244   6.364   5.218   3.586
10782SOL    HW133245   6.286   5.179   3.635
10782SOL    HW233246   6.445   5.215   3.644
10783SOL     OW33247   6.756   2.559   3.038
10783SOL    HW133248   6.693   2.557   2.960
10783SOL    HW233249   6.761   2.468   3.078
10784SOL     OW33250   2.439   1.912   4.685
10784SOL    HW133251   2.497   1.993   4.697
10784SOL    HW233252   2.343   1.940   4.686
10785SOL     OW33253   1.071   2.946   5.846
10785SOL    HW133254   1.085   3.042   5.871
10785SOL    HW233255   1.001   2.906   5.904
10786SOL     OW33256   6.633   3.949   3.966
10786SOL    HW133257   6.697   3.990   4.031
10786SOL    HW233258   6.654   3.852   3.955
10787SOL     OW33259   2.451   2.346   6.648
10787SOL    HW133260   2.444   2.401   6.565
10787SOL    HW233261   2.359   2.323   6.681
10788SOL     OW33262   5.948   3.380   6.246
10788SOL    HW133263   5.896   3.422   6.172
10788SOL    HW233264   5.912   3.288   6.264
10789SOL     OW33265   5.172   1.443   0.112
10789SOL    HW133266   5.123   1.418   0.196
10789SOL    HW233267   5.265   1.406   0.116
10790SOL     OW33268   5.742   6.164   2.933
10790SOL    HW133269   5.743   6.229   2.857
10790SOL    HW233270   5.726   6.072   2.897
10791SOL     OW33271   0.928   6.552   2.576
10791SOL    HW133272   0.947   6.643   2.538
10791SOL    HW233273   0.882   6.496   2.507
10792SOL     OW33274   3.774   4.807   6.134
10792SOL    HW133275   3.810   4.812   6.227
10792SOL    HW233276   3.787   4.715   6.098
10793SOL     OW33277   5.980   3.943   4.052
10793SOL    HW133278   6.000   3.994   3.969
10793SOL    HW233279   5.894   3.892   4.039
10794SOL     OW33280   3.191   3.697   4.134
10794SOL    HW133281   3.271   3.725   4.187
10794SOL    HW233282   3.208   3.713   4.037
10795SOL     OW33283   7.009   5.385   2.742
10795SOL    HW133284   7.014   5.473   2.696
10795SOL    HW233285   7.026   5.312   2.676
10796SOL     OW33286   1.115   6.330   5.494
10796SOL    HW133287   1.018   6.353   5.493
10796SOL    HW233288   1.127   6.235   5.464
10797SOL     OW33289   3.941   3.002   0.027
10797SOL    HW133290   3.866   3.045   0.077
10797SOL    HW233291   3.963   3.057   6.973
10798SOL     OW33292   5.918   1.162   1.123
10798SOL    HW133293   5.991   1.225   1.147
10798SOL    HW233294   5.917   1.085   1.187
10799SOL     OW33295   4.778   1.844   0.922
10799SOL    HW133296   4.860   1.877   0.875
10799SOL    HW233297   4.767   1.746   0.906
10800SOL     OW33298   6.717   6.908   1.162
10800SOL    HW133299   6.644   6.859   1.209
10800SOL    HW233300   6.717   7.004   1.189
10801SOL     OW33301   2.172   0.550   1.258
10801SOL    HW133302   2.264   0.585   1.274
10801SOL    HW233303   2.177   0.468   1.202
10802SOL     OW33304   5.609   1.711   3.772
10802SOL    HW133305   5.609   1.743   3.678
10802SOL    HW233306   5.703   1.694   3.803
10803SOL     OW33307   2.446   5.113   5.820
10803SOL    HW133308   2.531   5.109   5.767
10803SOL    HW233309   2.436   5.027   5.871
10804SOL     OW33310   6.921   3.829   4.247
10804SOL    HW133311   6.986   3.808   4.320
10804SOL    HW233312   6.936   3.767   4.170
10805SOL     OW33313   6.528   0.298   6.475
10805SOL    HW133314   6.621   0.295   6.510
10805SOL    HW233315   6.463   0.294   6.551
10806SOL     OW33316   1.582   5.912   0.265
10806SOL    HW133317   1.507   5.879   0.207
10806SOL    HW233318   1.549   5.925   0.358
10807SOL     OW33319   3.638   5.751   4.585
10807SOL    HW133320   3.703   5.678   4.566
10807SOL    HW233321   3.646   5.823   4.516
10808SOL     OW33322   1.259   3.070   6.393
10808SOL    HW133323   1.186   3.068   6.325
10808SOL    HW233324   1.347   3.079   6.348
10809SOL     OW33325   1.451   0.161   4.443
10809SOL    HW133326   1.357   0.168   4.409
10809SOL    HW233327   1.452   0.183   4.541
10810SOL     OW33328   6.146   0.862   4.262
10810SOL    HW133329   6.237   0.885   4.227
10810SOL    HW233330   6.154   0.819   4.352
10811SOL     OW33331   5.561   5.832   4.995
10811SOL    HW133332   5.558   5.919   4.945
10811SOL    HW233333   5.646   5.784   4.975
10812SOL     OW33334   0.619   2.909   0.746
10812SOL    HW133335   0.628   2.812   0.765
10812SOL    HW233336   0.605   2.922   0.648
10813SOL     OW33337   1.227   3.703   7.026
10813SOL    HW133338   1.180   3.755   0.071
10813SOL    HW233339   1.190   3.610   7.023
10814SOL     OW33340   3.065   1.974   1.447
10814SOL    HW133341   3.134   1.945   1.513
10814SOL    HW233342   3.078   1.925   1.361
10815SOL     OW33343   4.985   1.090   4.559
10815SOL    HW133344   5.048   1.156   4.518
10815SOL    HW233345   4.904   1.138   4.592
10816SOL     OW33346   3.473   3.209   5.130
10816SOL    HW133347   3.393   3.229   5.074
10816SOL    HW233348   3.531   3.142   5.084
10817SOL     OW33349   1.228   5.860   4.379
10817SOL    HW133350   1.144   5.903   4.347
10817SOL    HW233351   1.254   5.900   4.467
10818SOL     OW33352   4.014   4.032   0.342
10818SOL    HW133353   3.997   3.948   0.290
10818SOL    HW233354   3.981   4.020   0.435
10819SOL     OW33355   5.931   5.958   5.338
10819SOL    HW133356   6.009   5.976   5.279
10819SOL    HW233357   5.962   5.921   5.426
10820SOL     OW33358   2.259   4.624   6.189
10820SOL    HW133359   2.350   4.647   6.155
10820SOL    HW233360   2.215   4.561   6.125
10821SOL     OW33361   4.280   5.397   3.831
10821SOL    HW133362   4.240   5.329   3.893
10821SOL    HW233363   4.215   5.471   3.815
10822SOL     OW33364   5.875   0.838   2.152
10822SOL    HW133365   5.883   0.812   2.249
10822SOL    HW233366   5.779   0.832   2.124
10823SOL     OW33367   5.342   6.487   2.198
10823SOL    HW133368   5.411   6.467   2.128
10823SOL    HW233369   5.311   6.582   2.187
10824SOL     OW33370   0.947   3.192   2.818
10824SOL    HW133371   1.037   3.153   2.837
10824SOL    HW233372   0.909   3.231   2.902
10825SOL     OW33373   6.969   2.138   0.752
10825SOL    HW133374   7.009   2.227   0.730
10825SOL    HW233375   0.015   2.075   0.781
10826SOL     OW33376   6.472   3.342   2.658
10826SOL    HW133377   6.436   3.314   2.569
10826SOL    HW233378   6.487   3.262   2.716
10827SOL     OW33379   6.941   3.449   4.315
10827SOL    HW133380   6.877   3.376   4.340
10827SOL    HW233381   6.974   3.433   4.222
10828SOL     OW33382   0.156   4.241   5.220
10828SOL    HW133383   0.067   4.285   5.230
10828SOL    HW233384   0.193   4.263   5.129
10829SOL     OW33385   3.939   3.181   5.556
10829SOL    HW133386   3.965   3.084   5.554
10829SOL    HW233387   3.845   3.191   5.524
10830SOL     OW33388   5.338   2.069   3.138
10830SOL    HW133389   5.382   2.070   3.048
10830SOL    HW233390   5.354   1.981   3.183
10831SOL     OW33391   3.887   6.779   3.646
10831SOL    HW133392   3.884   6.782   3.746
10831SOL    HW233393   3.861   6.869   3.609
10832SOL     OW33394   6.599   2.512   6.880
10832SOL    HW133395   6.589   2.413   6.877
10832SOL    HW233396   6.689   2.537   6.844
10833SOL     OW33397   0.616   1.273   6.700
10833SOL    HW133398   0.708   1.234   6.690
10833SOL    HW233399   0.601   1.298   6.796
10834SOL     OW33400   6.365   6.091   1.629
10834SOL    HW133401   6.410   6.015   1.675
10834SOL    HW233402   6.375   6.080   1.530
10835SOL     OW33403   6.779   2.411   5.488
10835SOL    HW133404   6.853   2.347   5.469
10835SOL    HW233405   6.796   2.497   5.440
10836SOL     OW33406   0.303   1.780   3.621
10836SOL    HW133407   0.320   1.832   3.705
10836SOL    HW233408   0.290   1.843   3.545
10837SOL     OW33409   0.002   3.341   4.036
10837SOL    HW133410   0.048   3.263   4.078
10837SOL    HW233411   7.003   3.319   3.942
10838SOL     OW33412   0.685   6.071   2.414
10838SOL    HW133413   0.659   6.105   2.323
10838SOL    HW233414   0.627   6.114   2.483
10839SOL     OW33415   4.697   2.714   0.420
10839SOL    HW133416   4.776   2.663   0.386
10839SOL    HW233417   4.689   2.800   0.369
10840SOL     OW33418   2.578   0.546   2.349
10840SOL    HW133419   2.642   0.487   2.300
10840SOL    HW233420   2.555   0.504   2.437
10841SOL     OW33421   2.260   5.093   5.141
10841SOL    HW133422   2.355   5.063   5.131
10841SOL    HW233423   2.258   5.189   5.170
10842SOL     OW33424   6.544   4.622   1.330
10842SOL    HW133425   6.500   4.641   1.417
10842SOL    HW233426   6.549   4.523   1.316
10843SOL     OW33427   2.612   1.625   1.776
10843SOL    HW133428   2.563   1.633   1.690
10843SOL    HW233429   2.655   1.534   1.781
10844SOL     OW33430   2.064   5.763   4.755
10844SOL    HW133431   2.105   5.676   4.728
10844SOL    HW233432   2.129   5.837   4.740
10845SOL     OW33433   4.587   0.494   4.556
10845SOL    HW133434   4.532   0.439   4.494
10845SOL    HW233435   4.622   0.437   4.630
10846SOL     OW33436   5.846   6.820   6.072
10846SOL    HW133437   5.908   6.895   6.096
10846SOL    HW233438   5.881   6.770   5.993
10847SOL     OW33439   2.953   6.888   0.065
10847SOL    HW133440   2.915   6.930   7.010
10847SOL    HW233441   2.892   6.815   0.097
10848SOL     OW33442   1.879   3.311   1.914
10848SOL    HW133443   1.822   3.392   1.927
10848SOL    HW233444   1.828   3.243   1.861
10849SOL     OW33445   2.076   6.718   3.668
10849SOL    HW133446   2.147   6.654   3.638
10849SOL    HW233447   2.022   6.747   3.588
10850SOL     OW33448   4.560   4.563   0.812
10850SOL    HW133449   4.523   4.516   0.731
10850SOL    HW233450   4.586   4.657   0.787
10851SOL     OW33451   1.458   4.792   1.010
10851SOL    HW133452   1.492   4.712   1.060
10851SOL    HW233453   1.459   4.773   0.912
10852SOL     OW33454   2.704   1.454   2.254
10852SOL    HW133455   2.675   1.373   2.202
10852SOL    HW233456   2.747   1.519   2.191
10853SOL     OW33457   3.545   0.887   6.412
10853SOL    HW133458   3.550   0.987   6.421
10853SOL    HW233459   3.638   0.851   6.398
10854SOL     OW33460   3.003   6.000   5.729
10854SOL    HW133461   2.912   5.961   5.743
10854SOL    HW233462   3.061   5.977   5.808
10855SOL     OW33463   4.090   1.164   7.015
10855SOL    HW133464   3.992   1.146   7.020
10855SOL    HW233465   4.134   1.131   0.072
10856SOL     OW33466   0.610   1.161   0.706
10856SOL    HW133467   0.556   1.243   0.685
10856SOL    HW233468   0.699   1.188   0.742
10857SOL     OW33469   6.608   2.643   1.500
10857SOL    HW133470   6.560   2.709   1.442
10857SOL    HW233471   6.706   2.643   1.477
10858SOL     OW33472   2.402   6.632   2.072
10858SOL    HW133473   2.321   6.575   2.080
10858SOL    HW233474   2.384   6.707   2.008
10859SOL     OW33475   1.186   4.858   3.866
10859SOL    HW133476   1.214   4.781   3.809
10859SOL    HW233477   1.241   4.859   3.950
10860SOL     OW33478   0.314   3.784   3.376
10860SOL    HW133479   0.385   3.783   3.446
10860SOL    HW233480   0.314   3.872   3.328
10861SOL     OW33481   4.269   3.076   5.430
10861SOL    HW133482   4.242   3.157   5.482
10861SOL    HW233483   4.197   3.054   5.364
10862SOL     OW33484   1.068   0.945   5.150
10862SOL    HW133485   1.113   0.932   5.239
10862SOL    HW233486   0.972   0.972   5.165
10863SOL     OW33487   2.309   6.499   4.077
10863SOL    HW133488   2.297   6.582   4.131
10863SOL    HW233489   2.263   6.423   4.123
10864SOL     OW33490   3.471   7.004   3.290
10864SOL    HW133491   3.570   6.992   3.284
10864SOL    HW233492   3.432   6.935   3.351
10865SOL     OW33493   6.646   1.182   6.418
10865SOL    HW133494   6.706   1.110   6.382
10865SOL    HW233495   6.553   1.146   6.428
10866SOL     OW33496   5.714   4.974   6.668
10866SOL    HW133497   5.686   5.011   6.580
10866SOL    HW233498   5.808   5.001   6.688
10867SOL     OW33499   2.707   1.597   6.812
10867SOL    HW133500   2.796   1.615   6.854
10867SOL    HW233501   2.642   1.570   6.883
10868SOL     OW33502   1.582   2.350   3.198
10868SOL    HW133503   1.492   2.337   3.157
10868SOL    HW233504   1.571   2.381   3.293
10869NA      NA33505   6.454   2.076   5.496
10870NA      NA33506   4.252   4.622   5.259
10871NA      NA33507   2.070   3.455   1.841
10872NA      NA33508   4.894   3.700   5.216
10873NA      NA33509   4.217   2.439   5.349
10874NA      NA33510   3.590   4.894   1.782
10875NA      NA33511   6.844   6.171   4.766
10876NA      NA33512   3.662   3.588   5.200
10877NA      NA33513   4.778   6.485   6.232
10878NA      NA33514   2.650   0.538   5.084
10879NA      NA33515   0.589   5.167   2.545
10880NA      NA33516   2.136   0.667   2.434
10881NA      NA33517   3.505   4.457   1.292
10882NA      NA33518   3.994   3.431   3.042
   7.02650   7.02650   7.02650
