Generated by trjconv : CNT in water t= 363.00000
33518
    1C        C    1   2.840   2.764   4.747
    1C        C    2   2.899   2.717   4.866
    1C        C    3   2.845   2.773   4.983
    1C        C    4   2.843   2.768   4.260
    1C        C    5   2.897   2.726   4.384
    1C        C    6   2.841   2.770   4.505
    1C        C    7   3.011   2.639   4.624
    1C        C    8   2.891   2.713   4.625
    1C        C    9   3.076   2.603   4.744
    1C        C   10   3.009   2.629   4.865
    1C        C   11   3.179   2.486   4.975
    1C        C   12   3.059   2.557   4.975
    1C        C   13   2.848   2.765   3.771
    1C        C   14   2.895   2.715   3.895
    1C        C   15   2.843   2.768   4.015
    1C        C   16   3.013   2.641   4.137
    1C        C   17   2.896   2.721   4.138
    1C        C   18   3.077   2.613   4.260
    1C        C   19   3.015   2.649   4.381
    1C        C   20   3.205   2.551   4.501
    1C        C   21   3.075   2.605   4.502
    1C        C   22   3.275   2.532   4.622
    1C        C   23   3.206   2.546   4.744
    1C        C   24   3.409   2.474   4.861
    1C        C   25   3.268   2.497   4.863
    1C        C   26   3.486   2.471   4.979
    1C        C   27   2.848   2.767   3.281
    1C        C   28   2.902   2.725   3.404
    1C        C   29   2.848   2.770   3.526
    1C        C   30   3.014   2.634   3.647
    1C        C   31   2.902   2.722   3.648
    1C        C   32   3.072   2.601   3.771
    1C        C   33   3.007   2.629   3.894
    1C        C   34   3.200   2.540   4.012
    1C        C   35   3.073   2.601   4.016
    1C        C   36   3.270   2.528   4.134
    1C        C   37   3.205   2.552   4.258
    1C        C   38   3.413   2.506   4.378
    1C        C   39   3.273   2.529   4.379
    1C        C   40   3.484   2.497   4.500
    1C        C   41   3.413   2.499   4.622
    1C        C   42   3.628   2.479   4.743
    1C        C   43   3.486   2.482   4.742
    1C        C   44   3.702   2.484   4.863
    1C        C   45   3.625   2.473   4.979
    1C        C   46   2.835   2.750   2.792
    1C        C   47   2.890   2.705   2.914
    1C        C   48   2.840   2.757   3.036
    1C        C   49   3.014   2.636   3.159
    1C        C   50   2.897   2.715   3.159
    1C        C   51   3.077   2.606   3.281
    1C        C   52   3.014   2.638   3.404
    1C        C   53   3.204   2.543   3.526
    1C        C   54   3.073   2.595   3.525
    1C        C   55   3.273   2.524   3.648
    1C        C   56   3.204   2.551   3.768
    1C        C   57   3.410   2.506   3.893
    1C        C   58   3.269   2.524   3.890
    1C        C   59   3.482   2.503   4.015
    1C        C   60   3.410   2.509   4.136
    1C        C   61   3.624   2.502   4.256
    1C        C   62   3.483   2.495   4.256
    1C        C   63   3.694   2.507   4.378
    1C        C   64   3.625   2.492   4.500
    1C        C   65   3.832   2.541   4.619
    1C        C   66   3.698   2.498   4.621
    1C        C   67   3.902   2.561   4.740
    1C        C   68   3.835   2.533   4.861
    1C        C   69   4.050   2.583   4.973
    1C        C   70   3.919   2.532   4.973
    1C        C   71   2.820   2.727   2.308
    1C        C   72   2.880   2.686   2.429
    1C        C   73   2.828   2.741   2.548
    1C        C   74   3.007   2.626   2.672
    1C        C   75   2.888   2.703   2.670
    1C        C   76   3.072   2.594   2.793
    1C        C   77   3.008   2.628   2.914
    1C        C   78   3.206   2.550   3.038
    1C        C   79   3.073   2.598   3.036
    1C        C   80   3.271   2.526   3.161
    1C        C   81   3.205   2.547   3.284
    1C        C   82   3.413   2.495   3.402
    1C        C   83   3.274   2.521   3.405
    1C        C   84   3.482   2.491   3.525
    1C        C   85   3.413   2.501   3.647
    1C        C   86   3.622   2.495   3.769
    1C        C   87   3.481   2.500   3.771
    1C        C   88   3.694   2.503   3.890
    1C        C   89   3.623   2.507   4.011
    1C        C   90   3.831   2.550   4.135
    1C        C   91   3.694   2.515   4.133
    1C        C   92   3.901   2.570   4.256
    1C        C   93   3.830   2.545   4.376
    1C        C   94   4.023   2.636   4.498
    1C        C   95   3.898   2.570   4.497
    1C        C   96   4.087   2.670   4.619
    1C        C   97   4.029   2.625   4.739
    1C        C   98   4.189   2.765   4.858
    1C        C   99   4.096   2.657   4.860
    1C        C  100   4.212   2.843   4.972
    1C        C  101   2.819   2.725   2.067
    1C        C  102   2.988   2.590   2.188
    1C        C  103   2.871   2.673   2.186
    1C        C  104   3.060   2.573   2.309
    1C        C  105   2.998   2.608   2.431
    1C        C  106   3.200   2.536   2.549
    1C        C  107   3.067   2.583   2.552
    1C        C  108   3.270   2.519   2.671
    1C        C  109   3.204   2.541   2.794
    1C        C  110   3.410   2.496   2.912
    1C        C  111   3.272   2.522   2.916
    1C        C  112   3.481   2.497   3.035
    1C        C  113   3.410   2.503   3.157
    1C        C  114   3.622   2.495   3.278
    1C        C  115   3.481   2.490   3.278
    1C        C  116   3.692   2.504   3.400
    1C        C  117   3.623   2.500   3.524
    1C        C  118   3.829   2.542   3.645
    1C        C  119   3.692   2.509   3.647
    1C        C  120   3.896   2.566   3.767
    1C        C  121   3.829   2.547   3.890
    1C        C  122   4.017   2.645   4.010
    1C        C  123   3.896   2.572   4.012
    1C        C  124   4.081   2.676   4.132
    1C        C  125   4.025   2.637   4.256
    1C        C  126   4.198   2.762   4.374
    1C        C  127   4.086   2.675   4.378
    1C        C  128   4.241   2.820   4.495
    1C        C  129   4.189   2.769   4.616
    1C        C  130   4.325   2.935   4.738
    1C        C  131   4.241   2.820   4.737
    1C        C  132   4.360   3.000   4.859
    1C        C  133   4.288   2.959   4.971
    1C        C  134   3.169   2.459   2.079
    1C        C  135   3.036   2.502   2.085
    1C        C  136   3.255   2.474   2.188
    1C        C  137   3.191   2.517   2.306
    1C        C  138   3.403   2.482   2.426
    1C        C  139   3.264   2.505   2.427
    1C        C  140   3.477   2.477   2.546
    1C        C  141   3.409   2.494   2.669
    1C        C  142   3.622   2.489   2.789
    1C        C  143   3.481   2.490   2.790
    1C        C  144   3.693   2.502   2.910
    1C        C  145   3.622   2.499   3.032
    1C        C  146   3.829   2.535   3.155
    1C        C  147   3.691   2.503   3.155
    1C        C  148   3.893   2.570   3.276
    1C        C  149   3.828   2.545   3.399
    1C        C  150   4.022   2.624   3.521
    1C        C  151   3.895   2.563   3.522
    1C        C  152   4.081   2.668   3.642
    1C        C  153   4.019   2.635   3.765
    1C        C  154   4.192   2.762   3.886
    1C        C  155   4.076   2.680   3.886
    1C        C  156   4.246   2.808   4.008
    1C        C  157   4.195   2.760   4.131
    1C        C  158   4.342   2.915   4.248
    1C        C  159   4.251   2.807   4.251
    1C        C  160   4.379   2.978   4.370
    1C        C  161   4.330   2.930   4.493
    1C        C  162   4.434   3.114   4.612
    1C        C  163   4.367   2.990   4.615
    1C        C  164   4.465   3.183   4.731
    1C        C  165   4.431   3.122   4.854
    1C        C  166   4.520   3.317   4.969
    1C        C  167   4.474   3.186   4.971
    1C        C  168   3.473   2.436   2.073
    1C        C  169   3.395   2.457   2.188
    1C        C  170   3.616   2.470   2.305
    1C        C  171   3.474   2.471   2.304
    1C        C  172   3.690   2.491   2.423
    1C        C  173   3.618   2.490   2.544
    1C        C  174   3.828   2.532   2.666
    1C        C  175   3.690   2.503   2.665
    1C        C  176   3.893   2.562   2.787
    1C        C  177   3.830   2.539   2.912
    1C        C  178   4.024   2.622   3.029
    1C        C  179   3.898   2.558   3.034
    1C        C  180   4.080   2.665   3.152
    1C        C  181   4.021   2.629   3.275
    1C        C  182   4.192   2.750   3.398
    1C        C  183   4.081   2.662   3.399
    1C        C  184   4.242   2.804   3.518
    1C        C  185   4.191   2.756   3.641
    1C        C  186   4.341   2.908   3.761
    1C        C  187   4.243   2.806   3.763
    1C        C  188   4.377   2.970   3.883
    1C        C  189   4.337   2.916   4.008
    1C        C  190   4.442   3.104   4.127
    1C        C  191   4.383   2.975   4.127
    1C        C  192   4.468   3.171   4.248
    1C        C  193   4.440   3.105   4.370
    1C        C  194   4.507   3.312   4.489
    1C        C  195   4.462   3.178   4.489
    1C        C  196   4.524   3.386   4.608
    1C        C  197   4.506   3.319   4.731
    1C        C  198   4.541   3.535   4.850
    1C        C  199   4.525   3.393   4.851
    1C        C  200   4.575   3.620   4.961
    1C        C  201   3.611   2.414   2.075
    1C        C  202   3.827   2.505   2.179
    1C        C  203   3.691   2.462   2.184
    1C        C  204   3.897   2.535   2.299
    1C        C  205   3.828   2.523   2.421
    1C        C  206   4.023   2.610   2.538
    1C        C  207   3.895   2.550   2.543
    1C        C  208   4.082   2.651   2.659
    1C        C  209   4.019   2.625   2.783
    1C        C  210   4.194   2.744   2.906
    1C        C  211   4.083   2.655   2.905
    1C        C  212   4.246   2.791   3.028
    1C        C  213   4.195   2.746   3.152
    1C        C  214   4.333   2.905   3.271
    1C        C  215   4.245   2.795   3.275
    1C        C  216   4.374   2.967   3.391
    1C        C  217   4.334   2.911   3.515
    1C        C  218   4.432   3.097   3.635
    1C        C  219   4.375   2.968   3.638
    1C        C  220   4.461   3.164   3.757
    1C        C  221   4.437   3.098   3.879
    1C        C  222   4.493   3.303   4.000
    1C        C  223   4.462   3.165   4.001
    1C        C  224   4.506   3.376   4.120
    1C        C  225   4.504   3.307   4.244
    1C        C  226   4.514   3.521   4.365
    1C        C  227   4.513   3.380   4.365
    1C        C  228   4.517   3.597   4.483
    1C        C  229   4.525   3.528   4.606
    1C        C  230   4.499   3.741   4.724
    1C        C  231   4.532   3.602   4.726
    1C        C  232   4.496   3.818   4.842
    1C        C  233   4.546   3.757   4.958
    1C        C  234   4.010   2.616   2.061
    1C        C  235   3.893   2.541   2.061
    1C        C  236   4.080   2.651   2.177
    1C        C  237   4.021   2.606   2.297
    1C        C  238   4.202   2.725   2.417
    1C        C  239   4.090   2.638   2.416
    1C        C  240   4.248   2.780   2.539
    1C        C  241   4.195   2.736   2.662
    1C        C  242   4.336   2.897   2.781
    1C        C  243   4.248   2.787   2.783
    1C        C  244   4.379   2.953   2.904
    1C        C  245   4.336   2.900   3.027
    1C        C  246   4.442   3.086   3.144
    1C        C  247   4.379   2.959   3.149
    1C        C  248   4.460   3.154   3.266
    1C        C  249   4.435   3.094   3.391
    1C        C  250   4.491   3.300   3.508
    1C        C  251   4.457   3.163   3.513
    1C        C  252   4.502   3.369   3.631
    1C        C  253   4.499   3.300   3.754
    1C        C  254   4.517   3.511   3.875
    1C        C  255   4.507   3.370   3.876
    1C        C  256   4.513   3.583   3.997
    1C        C  257   4.515   3.517   4.122
    1C        C  258   4.478   3.729   4.238
    1C        C  259   4.508   3.591   4.242
    1C        C  260   4.468   3.800   4.359
    1C        C  261   4.486   3.735   4.483
    1C        C  262   4.420   3.940   4.601
    1C        C  263   4.471   3.808   4.603
    1C        C  264   4.397   4.010   4.721
    1C        C  265   4.430   3.943   4.841
    1C        C  266   4.311   4.124   4.955
    1C        C  267   4.388   4.009   4.958
    1C        C  268   4.258   2.777   2.061
    1C        C  269   4.193   2.736   2.177
    1C        C  270   4.349   2.885   2.298
    1C        C  271   4.253   2.780   2.297
    1C        C  272   4.381   2.950   2.419
    1C        C  273   4.336   2.890   2.539
    1C        C  274   4.446   3.077   2.659
    1C        C  275   4.380   2.952   2.659
    1C        C  276   4.470   3.146   2.779
    1C        C  277   4.443   3.079   2.901
    1C        C  278   4.496   3.288   3.020
    1C        C  279   4.467   3.150   3.021
    1C        C  280   4.502   3.361   3.141
    1C        C  281   4.495   3.291   3.263
    1C        C  282   4.506   3.506   3.386
    1C        C  283   4.505   3.365   3.383
    1C        C  284   4.508   3.580   3.507
    1C        C  285   4.507   3.510   3.630
    1C        C  286   4.488   3.720   3.752
    1C        C  287   4.510   3.580   3.752
    1C        C  288   4.473   3.791   3.872
    1C        C  289   4.488   3.722   3.994
    1C        C  290   4.419   3.928   4.113
    1C        C  291   4.462   3.793   4.113
    1C        C  292   4.395   3.996   4.235
    1C        C  293   4.424   3.935   4.358
    1C        C  294   4.328   4.129   4.477
    1C        C  295   4.393   4.004   4.478
    1C        C  296   4.287   4.190   4.598
    1C        C  297   4.324   4.131   4.721
    1C        C  298   4.202   4.317   4.835
    1C        C  299   4.282   4.198   4.839
    1C        C  300   4.167   4.400   4.946
    1C        C  301   4.350   2.882   2.059
    1C        C  302   4.469   3.065   2.175
    1C        C  303   4.398   2.940   2.177
    1C        C  304   4.475   3.141   2.295
    1C        C  305   4.447   3.075   2.416
    1C        C  306   4.503   3.280   2.532
    1C        C  307   4.475   3.142   2.537
    1C        C  308   4.510   3.352   2.654
    1C        C  309   4.503   3.284   2.778
    1C        C  310   4.515   3.499   2.896
    1C        C  311   4.511   3.358   2.898
    1C        C  312   4.512   3.572   3.017
    1C        C  313   4.505   3.502   3.139
    1C        C  314   4.478   3.712   3.259
    1C        C  315   4.501   3.573   3.262
    1C        C  316   4.467   3.784   3.380
    1C        C  317   4.485   3.719   3.505
    1C        C  318   4.421   3.919   3.627
    1C        C  319   4.471   3.787   3.628
    1C        C  320   4.393   3.988   3.747
    1C        C  321   4.424   3.924   3.869
    1C        C  322   4.316   4.110   3.989
    1C        C  323   4.391   3.990   3.990
    1C        C  324   4.274   4.168   4.111
    1C        C  325   4.321   4.117   4.234
    1C        C  326   4.185   4.283   4.353
    1C        C  327   4.285   4.183   4.353
    1C        C  328   4.138   4.340   4.473
    1C        C  329   4.196   4.298   4.594
    1C        C  330   4.026   4.436   4.710
    1C        C  331   4.142   4.354   4.712
    1C        C  332   3.967   4.490   4.826
    1C        C  333   4.048   4.473   4.940
    1C        C  334   4.542   3.267   2.059
    1C        C  335   4.536   3.127   2.065
    1C        C  336   4.526   3.349   2.171
    1C        C  337   4.501   3.281   2.292
    1C        C  338   4.516   3.495   2.407
    1C        C  339   4.515   3.354   2.413
    1C        C  340   4.513   3.566   2.529
    1C        C  341   4.511   3.493   2.650
    1C        C  342   4.493   3.706   2.772
    1C        C  343   4.507   3.565   2.771
    1C        C  344   4.476   3.779   2.891
    1C        C  345   4.487   3.712   3.015
    1C        C  346   4.421   3.915   3.136
    1C        C  347   4.465   3.780   3.136
    1C        C  348   4.392   3.979   3.258
    1C        C  349   4.423   3.918   3.381
    1C        C  350   4.319   4.103   3.500
    1C        C  351   4.393   3.982   3.504
    1C        C  352   4.275   4.163   3.620
    1C        C  353   4.321   4.109   3.742
    1C        C  354   4.182   4.268   3.863
    1C        C  355   4.279   4.165   3.864
    1C        C  356   4.129   4.320   3.983
    1C        C  357   4.180   4.273   4.106
    1C        C  358   4.015   4.404   4.226
    1C        C  359   4.133   4.325   4.229
    1C        C  360   3.953   4.443   4.347
    1C        C  361   4.022   4.421   4.469
    1C        C  362   3.827   4.512   4.590
    1C        C  363   3.960   4.464   4.588
    1C        C  364   3.760   4.547   4.710
    1C        C  365   3.835   4.539   4.829
    1C        C  366   3.624   4.580   4.946
    1C        C  367   3.763   4.570   4.945
    1C        C  368   4.504   3.564   2.047
    1C        C  369   4.517   3.490   2.165
    1C        C  370   4.501   3.705   2.283
    1C        C  371   4.519   3.565   2.285
    1C        C  372   4.478   3.774   2.404
    1C        C  373   4.494   3.707   2.527
    1C        C  374   4.425   3.907   2.646
    1C        C  375   4.476   3.775   2.650
    1C        C  376   4.395   3.976   2.766
    1C        C  377   4.422   3.910   2.888
    1C        C  378   4.314   4.091   3.010
    1C        C  379   4.388   3.972   3.010
    1C        C  380   4.271   4.150   3.132
    1C        C  381   4.314   4.097   3.256
    1C        C  382   4.176   4.257   3.372
    1C        C  383   4.277   4.159   3.377
    1C        C  384   4.124   4.309   3.493
    1C        C  385   4.178   4.266   3.616
    1C        C  386   4.010   4.389   3.741
    1C        C  387   4.127   4.310   3.740
    1C        C  388   3.945   4.425   3.862
    1C        C  389   4.007   4.391   3.984
    1C        C  390   3.817   4.484   4.106
    1C        C  391   3.950   4.436   4.106
    1C        C  392   3.751   4.507   4.229
    1C        C  393   3.824   4.500   4.349
    1C        C  394   3.615   4.547   4.470
    1C        C  395   3.754   4.523   4.470
    1C        C  396   3.543   4.565   4.590
    1C        C  397   3.620   4.559   4.708
    1C        C  398   3.408   4.548   4.835
    1C        C  399   3.547   4.571   4.829
    1C        C  400   3.339   4.515   4.953
    1C        C  401   4.501   3.703   2.046
    1C        C  402   4.450   3.914   2.163
    1C        C  403   4.491   3.779   2.163
    1C        C  404   4.409   3.977   2.283
    1C        C  405   4.434   3.908   2.404
    1C        C  406   4.328   4.096   2.522
    1C        C  407   4.395   3.971   2.524
    1C        C  408   4.279   4.151   2.643
    1C        C  409   4.321   4.096   2.766
    1C        C  410   4.177   4.253   2.886
    1C        C  411   4.275   4.151   2.888
    1C        C  412   4.127   4.306   3.007
    1C        C  413   4.178   4.257   3.129
    1C        C  414   4.005   4.383   3.253
    1C        C  415   4.123   4.305   3.250
    1C        C  416   3.942   4.416   3.375
    1C        C  417   4.008   4.390   3.497
    1C        C  418   3.816   4.476   3.617
    1C        C  419   3.947   4.423   3.619
    1C        C  420   3.748   4.499   3.739
    1C        C  421   3.814   4.477   3.862
    1C        C  422   3.610   4.530   3.983
    1C        C  423   3.748   4.501   3.984
    1C        C  424   3.541   4.541   4.106
    1C        C  425   3.611   4.530   4.228
    1C        C  426   3.400   4.541   4.354
    1C        C  427   3.541   4.545   4.349
    1C        C  428   3.327   4.541   4.475
    1C        C  429   3.402   4.559   4.594
    1C        C  430   3.193   4.517   4.719
    1C        C  431   3.332   4.546   4.716
    1C        C  432   3.122   4.495   4.841
    1C        C  433   3.203   4.488   4.955
    1C        C  434   4.381   4.121   2.044
    1C        C  435   4.451   4.000   2.052
    1C        C  436   4.304   4.163   2.158
    1C        C  437   4.331   4.096   2.280
    1C        C  438   4.179   4.248   2.397
    1C        C  439   4.282   4.152   2.400
    1C        C  440   4.130   4.300   2.519
    1C        C  441   4.181   4.252   2.641
    1C        C  442   4.007   4.377   2.765
    1C        C  443   4.125   4.298   2.763
    1C        C  444   3.943   4.414   2.885
    1C        C  445   4.008   4.383   3.006
    1C        C  446   3.814   4.468   3.128
    1C        C  447   3.945   4.415   3.129
    1C        C  448   3.745   4.487   3.250
    1C        C  449   3.811   4.469   3.374
    1C        C  450   3.606   4.524   3.495
    1C        C  451   3.744   4.493   3.496
    1C        C  452   3.539   4.531   3.619
    1C        C  453   3.610   4.530   3.741
    1C        C  454   3.396   4.538   3.862
    1C        C  455   3.537   4.532   3.862
    1C        C  456   3.330   4.529   3.987
    1C        C  457   3.400   4.530   4.110
    1C        C  458   3.192   4.497   4.234
    1C        C  459   3.330   4.525   4.232
    1C        C  460   3.123   4.480   4.356
    1C        C  461   3.190   4.505   4.477
    1C        C  462   2.996   4.425   4.601
    1C        C  463   3.123   4.485   4.600
    1C        C  464   2.926   4.398   4.721
    1C        C  465   2.989   4.443   4.841
    1C        C  466   2.795   4.346   4.955
    1C        C  467   2.905   4.432   4.956
    1C        C  468   4.124   4.284   2.040
    1C        C  469   4.190   4.249   2.159
    1C        C  470   4.006   4.374   2.276
    1C        C  471   4.127   4.300   2.276
    1C        C  472   3.944   4.405   2.399
    1C        C  473   4.010   4.374   2.520
    1C        C  474   3.815   4.461   2.639
    1C        C  475   3.945   4.407   2.642
    1C        C  476   3.745   4.485   2.759
    1C        C  477   3.810   4.462   2.882
    1C        C  478   3.608   4.515   3.006
    1C        C  479   3.748   4.491   3.006
    1C        C  480   3.538   4.527   3.128
    1C        C  481   3.607   4.517   3.250
    1C        C  482   3.395   4.529   3.373
    1C        C  483   3.537   4.530   3.372
    1C        C  484   3.326   4.528   3.497
    1C        C  485   3.398   4.540   3.618
    1C        C  486   3.190   4.494   3.742
    1C        C  487   3.326   4.534   3.740
    1C        C  488   3.127   4.470   3.866
    1C        C  489   3.193   4.495   3.988
    1C        C  490   3.000   4.411   4.112
    1C        C  491   3.126   4.473   4.111
    1C        C  492   2.936   4.382   4.234
    1C        C  493   2.995   4.421   4.357
    1C        C  494   2.822   4.302   4.481
    1C        C  495   2.932   4.390   4.480
    1C        C  496   2.769   4.252   4.602
    1C        C  497   2.814   4.311   4.722
    1C        C  498   2.670   4.158   4.842
    1C        C  499   2.750   4.274   4.842
    1C        C  500   2.595   4.114   4.951
    1C        C  501   4.004   4.353   2.038
    1C        C  502   3.814   4.463   2.156
    1C        C  503   3.942   4.403   2.154
    1C        C  504   3.744   4.477   2.278
    1C        C  505   3.810   4.451   2.400
    1C        C  506   3.602   4.506   2.519
    1C        C  507   3.740   4.476   2.520
    1C        C  508   3.533   4.518   2.641
    1C        C  509   3.606   4.515   2.762
    1C        C  510   3.395   4.517   2.886
    1C        C  511   3.536   4.515   2.885
    1C        C  512   3.323   4.514   3.007
    1C        C  513   3.396   4.527   3.128
    1C        C  514   3.189   4.489   3.254
    1C        C  515   3.326   4.521   3.250
    1C        C  516   3.120   4.467   3.376
    1C        C  517   3.189   4.494   3.496
    1C        C  518   2.997   4.408   3.621
    1C        C  519   3.125   4.469   3.619
    1C        C  520   2.939   4.374   3.745
    1C        C  521   2.999   4.410   3.868
    1C        C  522   2.832   4.280   3.991
    1C        C  523   2.941   4.369   3.990
    1C        C  524   2.782   4.235   4.116
    1C        C  525   2.827   4.292   4.238
    1C        C  526   2.700   4.124   4.363
    1C        C  527   2.779   4.241   4.360
    1C        C  528   2.650   4.072   4.484
    1C        C  529   2.683   4.139   4.604
    1C        C  530   2.587   3.951   4.730
    1C        C  531   2.643   4.082   4.726
    1C        C  532   2.534   3.897   4.851
    1C        C  533   2.527   3.992   4.959
    1C        C  534   3.616   4.558   2.039
    1C        C  535   3.748   4.512   2.042
    1C        C  536   3.536   4.535   2.155
    1C        C  537   3.604   4.503   2.276
    1C        C  538   3.390   4.514   2.397
    1C        C  539   3.531   4.510   2.397
    1C        C  540   3.321   4.508   2.520
    1C        C  541   3.392   4.511   2.642
    1C        C  542   3.184   4.480   2.762
    1C        C  543   3.322   4.508   2.765
    1C        C  544   3.121   4.458   2.887
    1C        C  545   3.187   4.477   3.010
    1C        C  546   2.992   4.403   3.132
    1C        C  547   3.121   4.461   3.134
    1C        C  548   2.933   4.366   3.255
    1C        C  549   2.994   4.403   3.376
    1C        C  550   2.826   4.279   3.502
    1C        C  551   2.937   4.366   3.500
    1C        C  552   2.774   4.233   3.626
    1C        C  553   2.829   4.285   3.745
    1C        C  554   2.695   4.122   3.872
    1C        C  555   2.779   4.236   3.868
    1C        C  556   2.660   4.060   3.994
    1C        C  557   2.700   4.121   4.115
    1C        C  558   2.603   3.937   4.245
    1C        C  559   2.664   4.065   4.240
    1C        C  560   2.574   3.873   4.367
    1C        C  561   2.588   3.945   4.487
    1C        C  562   2.534   3.742   4.614
    1C        C  563   2.565   3.880   4.611
    1C        C  564   2.514   3.675   4.737
    1C        C  565   2.516   3.755   4.854
    1C        C  566   2.535   3.544   4.976
    1C        C  567   2.525   3.682   4.973
    1C        C  568   3.325   4.470   2.040
    1C        C  569   3.397   4.504   2.155
    1C        C  570   3.182   4.470   2.280
    1C        C  571   3.320   4.504   2.275
    1C        C  572   3.111   4.454   2.400
    1C        C  573   3.183   4.476   2.520
    1C        C  574   2.986   4.398   2.645
    1C        C  575   3.113   4.460   2.641
    1C        C  576   2.930   4.358   2.769
    1C        C  577   2.995   4.393   2.889
    1C        C  578   2.822   4.271   3.013
    1C        C  579   2.933   4.359   3.011
    1C        C  580   2.776   4.221   3.136
    1C        C  581   2.826   4.273   3.257
    1C        C  582   2.698   4.108   3.384
    1C        C  583   2.777   4.225   3.381
    1C        C  584   2.665   4.050   3.509
    1C        C  585   2.697   4.115   3.630
    1C        C  586   2.594   3.931   3.756
    1C        C  587   2.657   4.057   3.753
    1C        C  588   2.568   3.866   3.879
    1C        C  589   2.598   3.933   4.000
    1C        C  590   2.539   3.733   4.126
    1C        C  591   2.578   3.868   4.124
    1C        C  592   2.530   3.666   4.250
    1C        C  593   2.540   3.736   4.373
    1C        C  594   2.515   3.526   4.492
    1C        C  595   2.523   3.667   4.495
    1C        C  596   2.512   3.460   4.617
    1C        C  597   2.508   3.532   4.739
    1C        C  598   2.530   3.323   4.859
    1C        C  599   2.529   3.464   4.861
    1C        C  600   2.532   3.247   4.977
    1C        C  601   3.193   4.432   2.045
    1C        C  602   2.978   4.393   2.157
    1C        C  603   3.112   4.441   2.159
    1C        C  604   2.924   4.352   2.282
    1C        C  605   2.983   4.393   2.403
    1C        C  606   2.814   4.266   2.527
    1C        C  607   2.925   4.353   2.526
    1C        C  608   2.764   4.219   2.650
    1C        C  609   2.817   4.274   2.769
    1C        C  610   2.689   4.105   2.893
    1C        C  611   2.770   4.221   2.891
    1C        C  612   2.651   4.050   3.018
    1C        C  613   2.687   4.111   3.140
    1C        C  614   2.586   3.927   3.265
    1C        C  615   2.651   4.052   3.263
    1C        C  616   2.563   3.864   3.389
    1C        C  617   2.599   3.925   3.512
    1C        C  618   2.530   3.726   3.638
    1C        C  619   2.573   3.861   3.635
    1C        C  620   2.514   3.658   3.760
    1C        C  621   2.526   3.731   3.881
    1C        C  622   2.506   3.522   4.007
    1C        C  623   2.517   3.663   4.005
    1C        C  624   2.513   3.451   4.129
    1C        C  625   2.517   3.526   4.249
    1C        C  626   2.534   3.314   4.375
    1C        C  627   2.519   3.454   4.371
    1C        C  628   2.551   3.246   4.498
    1C        C  629   2.537   3.321   4.616
    1C        C  630   2.594   3.117   4.741
    1C        C  631   2.554   3.253   4.739
    1C        C  632   2.615   3.046   4.863
    1C        C  633   2.560   3.110   4.978
    1C        C  634   2.779   4.303   2.053
    1C        C  635   2.887   4.392   2.046
    1C        C  636   2.745   4.225   2.164
    1C        C  637   2.806   4.272   2.282
    1C        C  638   2.673   4.109   2.407
    1C        C  639   2.756   4.224   2.405
    1C        C  640   2.638   4.048   2.529
    1C        C  641   2.678   4.107   2.651
    1C        C  642   2.580   3.919   2.776
    1C        C  643   2.643   4.045   2.774
    1C        C  644   2.558   3.856   2.900
    1C        C  645   2.585   3.925   3.020
    1C        C  646   2.525   3.723   3.148
    1C        C  647   2.561   3.859   3.143
    1C        C  648   2.517   3.654   3.271
    1C        C  649   2.535   3.726   3.391
    1C        C  650   2.513   3.517   3.518
    1C        C  651   2.520   3.658   3.514
    1C        C  652   2.511   3.447   3.641
    1C        C  653   2.503   3.517   3.763
    1C        C  654   2.526   3.309   3.888
    1C        C  655   2.504   3.449   3.887
    1C        C  656   2.537   3.240   4.011
    1C        C  657   2.525   3.310   4.133
    1C        C  658   2.583   3.104   4.254
    1C        C  659   2.543   3.240   4.254
    1C        C  660   2.625   3.047   4.377
    1C        C  661   2.597   3.112   4.499
    1C        C  662   2.705   2.932   4.625
    1C        C  663   2.625   3.048   4.621
    1C        C  664   2.749   2.873   4.746
    1C        C  665   2.694   2.927   4.866
    1C        C  666   2.745   2.870   4.983
    1C        C  667   2.669   4.027   2.047
    1C        C  668   2.676   4.102   2.165
    1C        C  669   2.585   3.910   2.290
    1C        C  670   2.638   4.042   2.287
    1C        C  671   2.561   3.843   2.412
    1C        C  672   2.585   3.917   2.530
    1C        C  673   2.523   3.716   2.658
    1C        C  674   2.557   3.853   2.653
    1C        C  675   2.509   3.649   2.781
    1C        C  676   2.523   3.719   2.903
    1C        C  677   2.511   3.509   3.030
    1C        C  678   2.518   3.650   3.026
    1C        C  679   2.512   3.441   3.153
    1C        C  680   2.508   3.513   3.275
    1C        C  681   2.529   3.305   3.399
    1C        C  682   2.504   3.444   3.398
    1C        C  683   2.550   3.237   3.521
    1C        C  684   2.535   3.307   3.642
    1C        C  685   2.602   3.110   3.769
    1C        C  686   2.551   3.242   3.766
    1C        C  687   2.633   3.045   3.890
    1C        C  688   2.593   3.110   4.009
    1C        C  689   2.702   2.930   4.138
    1C        C  690   2.618   3.044   4.132
    1C        C  691   2.752   2.876   4.258
    1C        C  692   2.707   2.932   4.380
    1C        C  693   2.745   2.874   4.503
    1C        C  694   2.619   3.896   2.053
    1C        C  695   2.527   3.703   2.175
    1C        C  696   2.567   3.838   2.170
    1C        C  697   2.510   3.635   2.297
    1C        C  698   2.524   3.707   2.418
    1C        C  699   2.485   3.500   2.544
    1C        C  700   2.504   3.640   2.540
    1C        C  701   2.506   3.435   2.667
    1C        C  702   2.500   3.508   2.788
    1C        C  703   2.523   3.295   2.909
    1C        C  704   2.507   3.436   2.909
    1C        C  705   2.541   3.229   3.032
    1C        C  706   2.530   3.301   3.153
    1C        C  707   2.597   3.103   3.278
    1C        C  708   2.548   3.235   3.277
    1C        C  709   2.627   3.040   3.401
    1C        C  710   2.606   3.107   3.523
    1C        C  711   2.709   2.926   3.649
    1C        C  712   2.633   3.045   3.648
    1C        C  713   2.754   2.870   3.770
    1C        C  714   2.711   2.927   3.892
    1C        C  715   2.747   2.871   4.017
    1C        C  716   2.450   3.495   2.063
    1C        C  717   2.492   3.629   2.061
    1C        C  718   2.463   3.419   2.183
    1C        C  719   2.477   3.497   2.301
    1C        C  720   2.513   3.288   2.424
    1C        C  721   2.482   3.426   2.424
    1C        C  722   2.536   3.220   2.546
    1C        C  723   2.525   3.295   2.665
    1C        C  724   2.589   3.093   2.788
    1C        C  725   2.538   3.225   2.788
    1C        C  726   2.625   3.036   2.912
    1C        C  727   2.596   3.098   3.035
    1C        C  728   2.700   2.915   3.155
    1C        C  729   2.622   3.033   3.158
    1C        C  730   2.751   2.871   3.279
    1C        C  731   2.703   2.921   3.402
    1C        C  732   2.745   2.867   3.526
    1C        C  733   2.488   3.198   2.068
    1C        C  734   2.490   3.278   2.182
    1C        C  735   2.586   3.086   2.302
    1C        C  736   2.524   3.214   2.305
    1C        C  737   2.613   3.019   2.424
    1C        C  738   2.589   3.089   2.544
    1C        C  739   2.702   2.911   2.666
    1C        C  740   2.623   3.028   2.667
    1C        C  741   2.740   2.855   2.790
    1C        C  742   2.697   2.914   2.910
    1C        C  743   2.744   2.860   3.032
    1C        C  744   2.547   3.072   2.072
    1C        C  745   2.685   2.895   2.184
    1C        C  746   2.607   3.013   2.184
    1C        C  747   2.728   2.835   2.304
    1C        C  748   2.683   2.897   2.423
    1C        C  749   2.737   2.848   2.544
    1C        C  750   2.736   2.836   2.067
    1C        C  751   3.641   2.281   2.018
    1C        O  752   3.640   2.177   2.090
    1C        O  753   3.756   2.274   1.938
    1C        C  754   4.646   3.060   1.991
    1C        O  755   4.646   3.051   1.865
    1C        O  756   4.775   3.082   2.040
    1C        C  757   4.456   4.216   1.960
    1C        O  758   4.537   4.291   2.021
    1C        O  759   4.503   4.200   1.829
    1C        C  760   3.593   4.676   1.952
    1C        O  761   3.639   4.787   1.991
    1C        O  762   3.526   4.675   1.829
    1C        C  763   2.873   4.503   1.950
    1C        O  764   2.841   4.484   1.830
    1C        O  765   2.889   4.636   1.993
    1C        C  766   2.336   3.470   1.972
    1C        O  767   2.352   3.451   1.848
    1C        O  768   2.201   3.469   2.008
    1C        C  769   4.673   3.584   5.066
    1C        O  770   4.646   3.543   5.182
    1C        O  771   4.801   3.639   5.056
    1C        C  772   4.273   4.447   5.039
    1C        O  773   4.274   4.401   5.156
    1C        O  774   4.400   4.490   5.001
    1C        C  775   4.128   2.523   5.084
    1C        O  776   4.220   2.446   5.047
    1C        O  777   4.142   2.580   5.211
    1C        C  778   2.904   4.532   5.066
    1C        O  779   2.906   4.655   5.037
    1C        O  780   2.958   4.507   5.193
    1C        C  781   2.460   3.037   5.059
    1C        O  782   2.342   3.007   5.025
    1C        O  783   2.472   3.024   5.197
    1C        C  784   2.402   4.007   5.036
    1C        O  785   2.312   4.084   4.992
    1C        O  786   2.403   4.022   5.176
    1C        C  787   2.942   2.412   2.015
    1C        O  788   2.896   2.449   1.904
    1C        O  789   2.874   2.308   2.077
    1C        C  790   3.172   2.353   5.040
    1C        O  791   3.108   2.263   4.981
    1C        O  792   3.198   2.338   5.177
    1C        H  793   4.263   3.031   5.047
    1C        H  794   4.183   2.803   5.067
    1C        H  795   4.485   3.133   5.063
    1C        H  796   4.518   3.375   5.059
    1C        H  797   4.592   3.818   5.032
    1C        H  798   4.404   3.966   5.055
    1C        H  799   4.296   4.167   5.052
    1C        H  800   4.047   4.554   5.010
    1C        H  801   3.817   4.617   5.025
    1C        H  802   3.583   4.620   5.037
    1C        H  803   3.394   4.493   5.042
    1C        H  804   3.157   4.513   5.049
    1C        H  805   3.885   2.476   5.058
    1C        H  806   3.674   2.462   5.073
    1C        H  807   3.016   2.574   5.071
    1C        H  808   3.431   2.458   5.069
    1C        H  809   2.876   2.734   5.077
    1C        H  810   2.751   2.936   5.067
    1C        H  811   2.526   3.299   5.070
    1C        H  812   2.571   3.496   5.065
    1C        H  813   2.512   3.733   5.066
    1C        H  814   2.615   4.150   5.050
    1C        H  815   2.738   4.333   5.044
    1C        H  816   2.701   2.870   1.972
    1C        H  817   2.790   2.649   1.997
    1C        H  818   3.213   2.443   1.982
    1C        H  819   3.429   2.414   1.977
    1C        H  820   3.835   2.524   1.972
    1C        H  821   4.007   2.687   1.981
    1C        H  822   4.281   2.706   1.984
    1C        H  823   4.388   2.902   1.961
    1C        H  824   4.524   3.310   1.963
    1C        H  825   4.548   3.526   1.957
    1C        H  826   4.544   3.755   1.963
    1C        H  827   3.808   4.526   1.955
    1C        H  828   3.949   4.352   1.946
    1C        H  829   4.176   4.268   1.948
    1C        H  830   4.511   3.972   1.968
    1C        H  831   2.653   3.831   1.975
    1C        H  832   2.689   4.066   1.949
    1C        H  833   2.712   4.299   1.969
    1C        H  834   3.378   4.456   1.948
    1C        H  835   3.153   4.386   1.957
    1C        H  836   2.537   3.011   1.984
    1C        H  837   2.485   3.245   1.971
    1C        H  838   2.493   3.671   1.963
    2V3OU   H29  839   2.809   3.556   3.732
    2V3OU   C27  840   2.791   3.505   3.830
    2V3OU   H27  841   2.731   3.568   3.900
    2V3OU   H28  842   2.740   3.407   3.809
    2V3OU   O11  843   2.911   3.471   3.899
    2V3OU   C15  844   2.929   3.396   4.013
    2V3OU   C13  845   3.057   3.366   4.064
    2V3OU   C14  846   3.078   3.264   4.157
    2V3OU   C16  847   2.975   3.187   4.210
    2V3OU    H6  848   2.993   3.098   4.273
    2V3OU   C12  849   3.214   3.225   4.203
    2V3OU    O2  850   3.238   3.125   4.274
    2V3OU   C10  851   3.325   3.306   4.151
    2V3OU    C8  852   3.457   3.267   4.172
    2V3OU   O10  853   3.485   3.151   4.238
    2V3OU   H26  854   3.399   3.108   4.250
    2V3OU    C6  855   3.564   3.347   4.122
    2V3OU    C5  856   3.538   3.460   4.046
    2V3OU    C4  857   3.704   3.295   4.126
    2V3OU    H4  858   3.726   3.230   4.215
    2V3OU    H5  859   3.712   3.222   4.040
    2V3OU    C2  860   3.817   3.398   4.116
    2V3OU    O6  861   3.804   3.471   4.239
    2V3OU   H21  862   3.766   3.554   4.207
    2V3OU    C3  863   3.781   3.490   4.000
    2V3OU    H2  864   3.860   3.568   3.989
    2V3OU    H3  865   3.780   3.427   3.907
    2V3OU   C25  866   3.949   3.321   4.102
    2V3OU    O7  867   3.999   3.289   3.994
    2V3OU   C26  868   4.025   3.285   4.228
    2V3OU   H22  869   4.066   3.383   4.264
    2V3OU   H23  870   4.111   3.217   4.203
    2V3OU    O8  871   3.954   3.209   4.323
    2V3OU   H24  872   3.935   3.267   4.398
    2V3OU    C1  873   3.647   3.560   4.018
    2V3OU    H1  874   3.620   3.613   3.922
    2V3OU    O3  875   3.656   3.647   4.131
    2V3OU   C19  876   3.618   3.785   4.133
    2V3OU    H9  877   3.523   3.804   4.075
    2V3OU    O4  878   3.710   3.844   4.044
    2V3OU   C20  879   3.842   3.869   4.092
    2V3OU   H10  880   3.889   3.767   4.107
    2V3OU   C24  881   3.607   3.850   4.271
    2V3OU   H16  882   3.540   3.787   4.335
    2V3OU   H17  883   3.552   3.948   4.264
    2V3OU   C23  884   3.749   3.874   4.324
    2V3OU   H15  885   3.792   3.770   4.347
    2V3OU    N1  886   3.735   3.953   4.445
    2V3OU   H19  887   3.806   3.934   4.513
    2V3OU   H20  888   3.647   3.934   4.489
    2V3OU   C21  889   3.847   3.944   4.225
    2V3OU   H11  890   3.948   3.929   4.273
    2V3OU    O5  891   3.828   4.085   4.231
    2V3OU   H18  892   3.774   4.103   4.310
    2V3OU   C22  893   3.916   3.948   3.986
    2V3OU   H12  894   3.862   4.044   3.968
    2V3OU   H13  895   3.914   3.895   3.887
    2V3OU   H14  896   4.025   3.952   4.013
    2V3OU   C11  897   3.159   3.471   4.050
    2V3OU    O1  898   3.132   3.591   4.032
    2V3OU    C9  899   3.297   3.423   4.076
    2V3OU    C7  900   3.402   3.499   4.025
    2V3OU    O9  901   3.387   3.618   3.958
    2V3OU   H25  902   3.290   3.630   3.958
    2V3OU   C17  903   2.828   3.319   4.076
    2V3OU    H7  904   2.735   3.341   4.024
    2V3OU   C18  905   2.846   3.219   4.170
    2V3OU    H8  906   2.786   3.169   4.247
    3SOL     OW  907   2.853   4.643   5.413
    3SOL    HW1  908   2.911   4.630   5.332
    3SOL    HW2  909   2.765   4.681   5.386
    4SOL     OW  910   6.962   6.959   7.015
    4SOL    HW1  911   0.042   6.977   7.005
    4SOL    HW2  912   6.916   0.024   0.026
    5SOL     OW  913   5.023   1.666   2.306
    5SOL    HW1  914   5.110   1.619   2.319
    5SOL    HW2  915   4.956   1.631   2.372
    6SOL     OW  916   5.380   2.039   2.718
    6SOL    HW1  917   5.300   2.064   2.773
    6SOL    HW2  918   5.404   2.116   2.659
    7SOL     OW  919   1.346   4.327   5.033
    7SOL    HW1  920   1.372   4.234   5.007
    7SOL    HW2  921   1.363   4.389   4.956
    8SOL     OW  922   2.391   2.630   5.332
    8SOL    HW1  923   2.386   2.674   5.242
    8SOL    HW2  924   2.404   2.699   5.402
    9SOL     OW  925   6.387   1.666   5.844
    9SOL    HW1  926   6.438   1.604   5.784
    9SOL    HW2  927   6.449   1.737   5.879
   10SOL     OW  928   3.659   4.947   4.119
   10SOL    HW1  929   3.628   5.017   4.056
   10SOL    HW2  930   3.618   4.859   4.094
   11SOL     OW  931   2.016   0.581   0.117
   11SOL    HW1  932   2.054   0.672   0.133
   11SOL    HW2  933   1.941   0.564   0.180
   12SOL     OW  934   2.733   4.677   3.806
   12SOL    HW1  935   2.662   4.700   3.739
   12SOL    HW2  936   2.823   4.700   3.769
   13SOL     OW  937   3.609   6.250   2.879
   13SOL    HW1  938   3.582   6.246   2.975
   13SOL    HW2  939   3.605   6.344   2.847
   14SOL     OW  940   4.526   5.230   5.814
   14SOL    HW1  941   4.439   5.191   5.786
   14SOL    HW2  942   4.594   5.157   5.823
   15SOL     OW  943   0.121   6.389   6.526
   15SOL    HW1  944   0.137   6.321   6.598
   15SOL    HW2  945   0.100   6.477   6.568
   16SOL     OW  946   5.129   2.553   6.080
   16SOL    HW1  947   5.085   2.506   6.005
   16SOL    HW2  948   5.184   2.488   6.133
   17SOL     OW  949   5.890   0.448   6.102
   17SOL    HW1  950   5.936   0.530   6.068
   17SOL    HW2  951   5.957   0.386   6.141
   18SOL     OW  952   3.317   1.608   5.085
   18SOL    HW1  953   3.314   1.691   5.140
   18SOL    HW2  954   3.412   1.585   5.065
   19SOL     OW  955   0.527   2.099   2.483
   19SOL    HW1  956   0.450   2.051   2.441
   19SOL    HW2  957   0.545   2.184   2.432
   20SOL     OW  958   5.788   1.699   5.512
   20SOL    HW1  959   5.754   1.774   5.570
   20SOL    HW2  960   5.713   1.636   5.491
   21SOL     OW  961   3.269   6.866   2.462
   21SOL    HW1  962   3.235   6.816   2.542
   21SOL    HW2  963   3.339   6.932   2.491
   22SOL     OW  964   0.920   6.011   5.729
   22SOL    HW1  965   0.910   5.955   5.647
   22SOL    HW2  966   1.012   6.002   5.766
   23SOL     OW  967   4.551   5.129   2.192
   23SOL    HW1  968   4.527   5.155   2.286
   23SOL    HW2  969   4.633   5.180   2.164
   24SOL     OW  970   3.845   0.336   2.126
   24SOL    HW1  971   3.777   0.385   2.181
   24SOL    HW2  972   3.860   0.245   2.164
   25SOL     OW  973   3.213   0.140   3.855
   25SOL    HW1  974   3.114   0.153   3.861
   25SOL    HW2  975   3.256   0.168   3.941
   26SOL     OW  976   1.375   2.197   0.061
   26SOL    HW1  977   1.366   2.109   0.016
   26SOL    HW2  978   1.358   2.187   0.159
   27SOL     OW  979   0.966   1.340   2.282
   27SOL    HW1  980   0.980   1.412   2.215
   27SOL    HW2  981   0.993   1.252   2.242
   28SOL     OW  982   1.084   0.725   4.488
   28SOL    HW1  983   0.991   0.762   4.476
   28SOL    HW2  984   1.083   0.658   4.562
   29SOL     OW  985   6.105   0.991   0.916
   29SOL    HW1  986   6.196   1.019   0.947
   29SOL    HW2  987   6.036   1.049   0.958
   30SOL     OW  988   3.659   0.652   4.968
   30SOL    HW1  989   3.594   0.620   4.899
   30SOL    HW2  990   3.748   0.667   4.925
   31SOL     OW  991   0.079   2.059   5.060
   31SOL    HW1  992   0.124   2.142   5.094
   31SOL    HW2  993   0.127   2.025   4.980
   32SOL     OW  994   1.479   1.653   2.258
   32SOL    HW1  995   1.428   1.576   2.296
   32SOL    HW2  996   1.415   1.718   2.216
   33SOL     OW  997   0.264   3.732   5.367
   33SOL    HW1  998   0.223   3.778   5.446
   33SOL    HW2  999   0.249   3.786   5.285
   34SOL     OW 1000   2.487   5.128   5.080
   34SOL    HW1 1001   2.408   5.157   5.027
   34SOL    HW2 1002   2.492   5.029   5.081
   35SOL     OW 1003   3.811   1.883   5.706
   35SOL    HW1 1004   3.770   1.934   5.782
   35SOL    HW2 1005   3.847   1.796   5.741
   36SOL     OW 1006   5.159   1.468   4.053
   36SOL    HW1 1007   5.087   1.413   4.011
   36SOL    HW2 1008   5.244   1.458   4.001
   37SOL     OW 1009   1.841   1.363   3.876
   37SOL    HW1 1010   1.911   1.424   3.913
   37SOL    HW2 1011   1.816   1.294   3.945
   38SOL     OW 1012   2.341   4.633   1.592
   38SOL    HW1 1013   2.302   4.542   1.582
   38SOL    HW2 1014   2.395   4.637   1.676
   39SOL     OW 1015   6.255   4.443   6.571
   39SOL    HW1 1016   6.347   4.408   6.587
   39SOL    HW2 1017   6.192   4.367   6.559
   40SOL     OW 1018   3.224   0.105   6.088
   40SOL    HW1 1019   3.268   0.068   6.169
   40SOL    HW2 1020   3.126   0.113   6.104
   41SOL     OW 1021   6.196   3.913   2.663
   41SOL    HW1 1022   6.237   3.947   2.578
   41SOL    HW2 1023   6.181   3.815   2.656
   42SOL     OW 1024   2.884   6.761   4.606
   42SOL    HW1 1025   2.947   6.794   4.536
   42SOL    HW2 1026   2.803   6.722   4.562
   43SOL     OW 1027   3.821   6.801   4.683
   43SOL    HW1 1028   3.859   6.709   4.691
   43SOL    HW2 1029   3.754   6.817   4.755
   44SOL     OW 1030   5.693   2.839   5.059
   44SOL    HW1 1031   5.715   2.785   4.978
   44SOL    HW2 1032   5.648   2.781   5.127
   45SOL     OW 1033   4.584   5.765   2.199
   45SOL    HW1 1034   4.614   5.817   2.279
   45SOL    HW2 1035   4.656   5.767   2.129
   46SOL     OW 1036   0.710   2.602   4.173
   46SOL    HW1 1037   0.746   2.511   4.195
   46SOL    HW2 1038   0.780   2.654   4.124
   47SOL     OW 1039   5.398   4.320   1.366
   47SOL    HW1 1040   5.406   4.232   1.319
   47SOL    HW2 1041   5.319   4.370   1.332
   48SOL     OW 1042   0.412   2.797   6.698
   48SOL    HW1 1043   0.379   2.888   6.724
   48SOL    HW2 1044   0.407   2.735   6.776
   49SOL     OW 1045   5.202   2.774   1.030
   49SOL    HW1 1046   5.237   2.696   1.082
   49SOL    HW2 1047   5.124   2.746   0.975
   50SOL     OW 1048   6.022   1.632   6.079
   50SOL    HW1 1049   6.049   1.690   6.002
   50SOL    HW2 1050   6.003   1.689   6.159
   51SOL     OW 1051   2.241   5.138   2.633
   51SOL    HW1 1052   2.169   5.071   2.613
   51SOL    HW2 1053   2.318   5.093   2.677
   52SOL     OW 1054   5.665   2.619   1.309
   52SOL    HW1 1055   5.647   2.556   1.384
   52SOL    HW2 1056   5.661   2.570   1.222
   53SOL     OW 1057   4.923   0.138   3.151
   53SOL    HW1 1058   4.986   0.198   3.101
   53SOL    HW2 1059   4.829   0.161   3.126
   54SOL     OW 1060   5.979   6.506   0.300
   54SOL    HW1 1061   6.007   6.410   0.305
   54SOL    HW2 1062   5.882   6.510   0.275
   55SOL     OW 1063   1.716   2.536   6.069
   55SOL    HW1 1064   1.683   2.624   6.035
   55SOL    HW2 1065   1.646   2.466   6.054
   56SOL     OW 1066   1.429   1.372   0.839
   56SOL    HW1 1067   1.498   1.316   0.884
   56SOL    HW2 1068   1.455   1.386   0.743
   57SOL     OW 1069   3.764   0.632   6.762
   57SOL    HW1 1070   3.697   0.674   6.702
   57SOL    HW2 1071   3.744   0.656   6.857
   58SOL     OW 1072   0.727   1.390   6.439
   58SOL    HW1 1073   0.670   1.329   6.494
   58SOL    HW2 1074   0.668   1.448   6.382
   59SOL     OW 1075   6.361   3.439   5.896
   59SOL    HW1 1076   6.396   3.516   5.950
   59SOL    HW2 1077   6.270   3.414   5.931
   60SOL     OW 1078   5.809   1.487   3.681
   60SOL    HW1 1079   5.753   1.570   3.685
   60SOL    HW2 1080   5.757   1.413   3.638
   61SOL     OW 1081   0.663   1.191   4.351
   61SOL    HW1 1082   0.753   1.226   4.325
   61SOL    HW2 1083   0.623   1.142   4.274
   62SOL     OW 1084   1.045   1.431   1.817
   62SOL    HW1 1085   0.948   1.418   1.798
   62SOL    HW2 1086   1.099   1.375   1.755
   63SOL     OW 1087   4.013   6.948   4.272
   63SOL    HW1 1088   3.953   6.926   4.195
   63SOL    HW2 1089   4.068   6.868   4.296
   64SOL     OW 1090   1.485   3.496   6.343
   64SOL    HW1 1091   1.488   3.571   6.277
   64SOL    HW2 1092   1.494   3.409   6.294
   65SOL     OW 1093   0.033   6.826   5.835
   65SOL    HW1 1094   0.018   6.767   5.756
   65SOL    HW2 1095   7.016   6.917   5.816
   66SOL     OW 1096   3.102   0.587   2.940
   66SOL    HW1 1097   3.182   0.531   2.917
   66SOL    HW2 1098   3.028   0.528   2.969
   67SOL     OW 1099   0.357   2.315   6.716
   67SOL    HW1 1100   0.431   2.380   6.736
   67SOL    HW2 1101   0.396   2.227   6.690
   68SOL     OW 1102   6.968   1.544   5.997
   68SOL    HW1 1103   0.019   1.615   6.007
   68SOL    HW2 1104   6.914   1.538   6.082
   69SOL     OW 1105   1.589   4.619   6.201
   69SOL    HW1 1106   1.577   4.641   6.105
   69SOL    HW2 1107   1.687   4.607   6.221
   70SOL     OW 1108   5.437   3.924   4.867
   70SOL    HW1 1109   5.443   3.962   4.775
   70SOL    HW2 1110   5.525   3.884   4.893
   71SOL     OW 1111   5.024   2.102   4.366
   71SOL    HW1 1112   5.025   2.154   4.452
   71SOL    HW2 1113   4.934   2.107   4.325
   72SOL     OW 1114   0.210   0.765   2.934
   72SOL    HW1 1115   0.164   0.687   2.977
   72SOL    HW2 1116   0.151   0.845   2.940
   73SOL     OW 1117   3.466   0.133   0.155
   73SOL    HW1 1118   3.548   0.144   0.099
   73SOL    HW2 1119   3.389   0.181   0.111
   74SOL     OW 1120   2.247   1.809   6.320
   74SOL    HW1 1121   2.181   1.818   6.394
   74SOL    HW2 1122   2.283   1.900   6.296
   75SOL     OW 1123   4.573   1.904   1.696
   75SOL    HW1 1124   4.611   1.828   1.643
   75SOL    HW2 1125   4.646   1.968   1.720
   76SOL     OW 1126   2.716   4.557   6.097
   76SOL    HW1 1127   2.633   4.537   6.045
   76SOL    HW2 1128   2.775   4.618   6.043
   77SOL     OW 1129   2.174   5.440   4.073
   77SOL    HW1 1130   2.180   5.535   4.043
   77SOL    HW2 1131   2.110   5.434   4.150
   78SOL     OW 1132   4.173   1.112   0.971
   78SOL    HW1 1133   4.230   1.185   1.009
   78SOL    HW2 1134   4.227   1.029   0.961
   79SOL     OW 1135   2.352   5.819   2.130
   79SOL    HW1 1136   2.438   5.856   2.165
   79SOL    HW2 1137   2.336   5.854   2.038
   80SOL     OW 1138   5.048   1.957   4.842
   80SOL    HW1 1139   5.064   2.026   4.913
   80SOL    HW2 1140   5.096   1.983   4.758
   81SOL     OW 1141   1.760   0.600   0.249
   81SOL    HW1 1142   1.722   0.609   0.341
   81SOL    HW2 1143   1.746   0.686   0.198
   82SOL     OW 1144   0.193   6.093   2.454
   82SOL    HW1 1145   0.240   6.092   2.366
   82SOL    HW2 1146   0.171   5.999   2.481
   83SOL     OW 1147   6.865   1.834   5.813
   83SOL    HW1 1148   6.893   1.923   5.777
   83SOL    HW2 1149   6.916   1.761   5.768
   84SOL     OW 1150   5.950   3.253   3.447
   84SOL    HW1 1151   5.936   3.186   3.519
   84SOL    HW2 1152   6.030   3.310   3.469
   85SOL     OW 1153   1.689   6.841   3.864
   85SOL    HW1 1154   1.635   6.925   3.874
   85SOL    HW2 1155   1.638   6.774   3.812
   86SOL     OW 1156   6.194   0.924   6.664
   86SOL    HW1 1157   6.254   1.003   6.677
   86SOL    HW2 1158   6.151   0.929   6.574
   87SOL     OW 1159   4.179   4.345   0.140
   87SOL    HW1 1160   4.261   4.400   0.124
   87SOL    HW2 1161   4.142   4.365   0.230
   88SOL     OW 1162   2.775   2.197   5.649
   88SOL    HW1 1163   2.691   2.247   5.670
   88SOL    HW2 1164   2.826   2.181   5.734
   89SOL     OW 1165   2.987   3.892   1.853
   89SOL    HW1 1166   3.066   3.931   1.806
   89SOL    HW2 1167   2.903   3.929   1.813
   90SOL     OW 1168   4.799   4.471   2.529
   90SOL    HW1 1169   4.717   4.526   2.545
   90SOL    HW2 1170   4.775   4.390   2.476
   91SOL     OW 1171   5.989   6.238   5.864
   91SOL    HW1 1172   6.076   6.287   5.861
   91SOL    HW2 1173   5.996   6.164   5.931
   92SOL     OW 1174   4.958   3.747   0.565
   92SOL    HW1 1175   5.013   3.819   0.522
   92SOL    HW2 1176   5.014   3.665   0.576
   93SOL     OW 1177   3.196   3.417   0.783
   93SOL    HW1 1178   3.125   3.474   0.826
   93SOL    HW2 1179   3.255   3.380   0.854
   94SOL     OW 1180   2.594   6.860   6.854
   94SOL    HW1 1181   2.690   6.831   6.845
   94SOL    HW2 1182   2.550   6.807   6.926
   95SOL     OW 1183   0.816   0.347   4.380
   95SOL    HW1 1184   0.781   0.416   4.445
   95SOL    HW2 1185   0.908   0.372   4.351
   96SOL     OW 1186   5.029   4.860   6.891
   96SOL    HW1 1187   5.079   4.933   6.938
   96SOL    HW2 1188   5.090   4.812   6.828
   97SOL     OW 1189   2.183   4.892   5.302
   97SOL    HW1 1190   2.099   4.838   5.308
   97SOL    HW2 1191   2.211   4.899   5.206
   98SOL     OW 1192   0.949   2.589   1.743
   98SOL    HW1 1193   0.963   2.635   1.656
   98SOL    HW2 1194   0.909   2.498   1.727
   99SOL     OW 1195   3.341   4.017   3.059
   99SOL    HW1 1196   3.271   4.040   3.127
   99SOL    HW2 1197   3.370   3.922   3.071
  100SOL     OW 1198   6.926   0.265   4.004
  100SOL    HW1 1199   6.970   0.349   3.972
  100SOL    HW2 1200   6.976   0.186   3.969
  101SOL     OW 1201   1.143   4.877   2.541
  101SOL    HW1 1202   1.072   4.811   2.564
  101SOL    HW2 1203   1.173   4.925   2.623
  102SOL     OW 1204   2.465   6.217   2.356
  102SOL    HW1 1205   2.442   6.278   2.280
  102SOL    HW2 1206   2.413   6.244   2.437
  103SOL     OW 1207   1.546   1.279   2.032
  103SOL    HW1 1208   1.593   1.259   1.946
  103SOL    HW2 1209   1.538   1.378   2.042
  104SOL     OW 1210   1.480   4.788   2.063
  104SOL    HW1 1211   1.461   4.805   2.159
  104SOL    HW2 1212   1.465   4.692   2.042
  105SOL     OW 1213   5.049   1.144   6.435
  105SOL    HW1 1214   5.108   1.090   6.494
  105SOL    HW2 1215   4.973   1.087   6.403
  106SOL     OW 1216   4.993   5.304   1.853
  106SOL    HW1 1217   4.908   5.253   1.843
  106SOL    HW2 1218   5.020   5.306   1.950
  107SOL     OW 1219   6.363   0.788   0.285
  107SOL    HW1 1220   6.391   0.884   0.286
  107SOL    HW2 1221   6.353   0.757   0.190
  108SOL     OW 1222   2.890   0.028   4.676
  108SOL    HW1 1223   2.813   0.060   4.731
  108SOL    HW2 1224   2.913   6.953   4.704
  109SOL     OW 1225   3.244   0.800   2.831
  109SOL    HW1 1226   3.193   0.714   2.844
  109SOL    HW2 1227   3.278   0.805   2.738
  110SOL     OW 1228   2.414   4.574   5.186
  110SOL    HW1 1229   2.454   4.580   5.278
  110SOL    HW2 1230   2.320   4.542   5.193
  111SOL     OW 1231   6.822   1.506   2.647
  111SOL    HW1 1232   6.862   1.415   2.646
  111SOL    HW2 1233   6.858   1.557   2.725
  112SOL     OW 1234   4.367   6.306   6.714
  112SOL    HW1 1235   4.310   6.370   6.767
  112SOL    HW2 1236   4.339   6.212   6.736
  113SOL     OW 1237   6.580   5.097   2.782
  113SOL    HW1 1238   6.551   5.031   2.713
  113SOL    HW2 1239   6.604   5.183   2.738
  114SOL     OW 1240   1.016   5.001   3.291
  114SOL    HW1 1241   0.964   4.971   3.211
  114SOL    HW2 1242   1.064   5.086   3.269
  115SOL     OW 1243   5.552   1.672   3.615
  115SOL    HW1 1244   5.572   1.709   3.706
  115SOL    HW2 1245   5.587   1.734   3.545
  116SOL     OW 1246   0.229   6.182   1.180
  116SOL    HW1 1247   0.278   6.128   1.248
  116SOL    HW2 1248   0.242   6.141   1.089
  117SOL     OW 1249   2.756   1.468   0.047
  117SOL    HW1 1250   2.785   1.529   6.991
  117SOL    HW2 1251   2.770   1.514   0.134
  118SOL     OW 1252   1.596   1.421   3.465
  118SOL    HW1 1253   1.692   1.405   3.487
  118SOL    HW2 1254   1.553   1.473   3.538
  119SOL     OW 1255   0.514   6.838   6.861
  119SOL    HW1 1256   0.441   6.773   6.884
  119SOL    HW2 1257   0.563   6.864   6.945
  120SOL     OW 1258   4.616   0.401   4.854
  120SOL    HW1 1259   4.537   0.344   4.875
  120SOL    HW2 1260   4.605   0.491   4.896
  121SOL     OW 1261   1.253   4.065   0.011
  121SOL    HW1 1262   1.219   3.998   6.963
  121SOL    HW2 1263   1.326   4.024   0.065
  122SOL     OW 1264   1.057   4.242   0.440
  122SOL    HW1 1265   1.123   4.244   0.516
  122SOL    HW2 1266   1.098   4.286   0.360
  123SOL     OW 1267   1.484   0.748   1.318
  123SOL    HW1 1268   1.525   0.699   1.395
  123SOL    HW2 1269   1.401   0.795   1.349
  124SOL     OW 1270   3.232   2.335   0.495
  124SOL    HW1 1271   3.194   2.416   0.450
  124SOL    HW2 1272   3.331   2.330   0.478
  125SOL     OW 1273   3.009   2.798   6.879
  125SOL    HW1 1274   3.105   2.785   6.905
  125SOL    HW2 1275   2.963   2.854   6.948
  126SOL     OW 1276   2.916   3.367   3.036
  126SOL    HW1 1277   2.932   3.278   2.993
  126SOL    HW2 1278   2.831   3.407   3.002
  127SOL     OW 1279   6.796   6.024   5.503
  127SOL    HW1 1280   6.726   6.091   5.530
  127SOL    HW2 1281   6.784   5.940   5.555
  128SOL     OW 1282   4.864   4.012   2.259
  128SOL    HW1 1283   4.861   4.067   2.176
  128SOL    HW2 1284   4.938   4.045   2.318
  129SOL     OW 1285   1.977   5.265   1.063
  129SOL    HW1 1286   1.944   5.329   1.132
  129SOL    HW2 1287   2.070   5.237   1.085
  130SOL     OW 1288   5.965   1.562   4.163
  130SOL    HW1 1289   5.949   1.652   4.122
  130SOL    HW2 1290   5.891   1.542   4.227
  131SOL     OW 1291   6.402   0.973   4.162
  131SOL    HW1 1292   6.449   0.924   4.235
  131SOL    HW2 1293   6.420   0.927   4.074
  132SOL     OW 1294   3.368   3.650   1.468
  132SOL    HW1 1295   3.414   3.735   1.444
  132SOL    HW2 1296   3.334   3.655   1.562
  133SOL     OW 1297   4.993   1.362   3.223
  133SOL    HW1 1298   4.964   1.424   3.296
  133SOL    HW2 1299   5.093   1.361   3.218
  134SOL     OW 1300   6.836   0.787   2.499
  134SOL    HW1 1301   6.840   0.723   2.576
  134SOL    HW2 1302   6.916   0.775   2.442
  135SOL     OW 1303   4.897   3.571   4.585
  135SOL    HW1 1304   4.923   3.549   4.679
  135SOL    HW2 1305   4.852   3.491   4.543
  136SOL     OW 1306   2.394   5.856   4.796
  136SOL    HW1 1307   2.344   5.865   4.882
  136SOL    HW2 1308   2.464   5.784   4.805
  137SOL     OW 1309   4.180   1.430   4.326
  137SOL    HW1 1310   4.237   1.437   4.408
  137SOL    HW2 1311   4.238   1.435   4.244
  138SOL     OW 1312   0.758   6.005   3.500
  138SOL    HW1 1313   0.703   5.936   3.453
  138SOL    HW2 1314   0.795   5.966   3.585
  139SOL     OW 1315   2.037   5.530   6.967
  139SOL    HW1 1316   2.050   5.525   6.868
  139SOL    HW2 1317   1.960   5.471   6.994
  140SOL     OW 1318   1.613   0.203   3.031
  140SOL    HW1 1319   1.560   0.192   2.948
  140SOL    HW2 1320   1.662   0.117   3.051
  141SOL     OW 1321   6.735   3.428   0.123
  141SOL    HW1 1322   6.691   3.425   0.033
  141SOL    HW2 1323   6.764   3.522   0.143
  142SOL     OW 1324   2.260   4.364   1.540
  142SOL    HW1 1325   2.288   4.345   1.446
  142SOL    HW2 1326   2.211   4.284   1.577
  143SOL     OW 1327   5.580   6.676   1.206
  143SOL    HW1 1328   5.672   6.685   1.168
  143SOL    HW2 1329   5.581   6.702   1.302
  144SOL     OW 1330   3.078   4.941   3.858
  144SOL    HW1 1331   3.067   5.010   3.786
  144SOL    HW2 1332   2.997   4.942   3.917
  145SOL     OW 1333   0.815   4.419   2.528
  145SOL    HW1 1334   0.835   4.363   2.608
  145SOL    HW2 1335   0.893   4.417   2.465
  146SOL     OW 1336   5.720   1.335   5.606
  146SOL    HW1 1337   5.724   1.276   5.525
  146SOL    HW2 1338   5.625   1.365   5.620
  147SOL     OW 1339   5.324   1.419   4.749
  147SOL    HW1 1340   5.301   1.513   4.726
  147SOL    HW2 1341   5.292   1.358   4.678
  148SOL     OW 1342   1.476   4.734   1.279
  148SOL    HW1 1343   1.559   4.691   1.313
  148SOL    HW2 1344   1.396   4.691   1.320
  149SOL     OW 1345   2.552   2.483   5.005
  149SOL    HW1 1346   2.626   2.456   5.068
  149SOL    HW2 1347   2.522   2.576   5.026
  150SOL     OW 1348   4.111   1.487   5.600
  150SOL    HW1 1349   4.094   1.402   5.549
  150SOL    HW2 1350   4.136   1.560   5.536
  151SOL     OW 1351   4.405   1.366   1.475
  151SOL    HW1 1352   4.426   1.418   1.392
  151SOL    HW2 1353   4.491   1.335   1.517
  152SOL     OW 1354   0.350   1.704   6.686
  152SOL    HW1 1355   0.351   1.689   6.587
  152SOL    HW2 1356   0.273   1.762   6.711
  153SOL     OW 1357   3.077   1.091   3.417
  153SOL    HW1 1358   3.146   1.045   3.360
  153SOL    HW2 1359   3.029   1.160   3.362
  154SOL     OW 1360   6.715   2.300   0.805
  154SOL    HW1 1361   6.790   2.363   0.829
  154SOL    HW2 1362   6.640   2.312   0.870
  155SOL     OW 1363   0.239   0.402   1.677
  155SOL    HW1 1364   0.184   0.459   1.615
  155SOL    HW2 1365   0.288   0.460   1.742
  156SOL     OW 1366   6.035   1.319   0.564
  156SOL    HW1 1367   5.944   1.351   0.538
  156SOL    HW2 1368   6.027   1.240   0.624
  157SOL     OW 1369   5.841   2.945   0.011
  157SOL    HW1 1370   5.930   2.960   6.987
  157SOL    HW2 1371   5.844   2.976   0.106
  158SOL     OW 1372   1.288   2.472   2.204
  158SOL    HW1 1373   1.239   2.546   2.250
  158SOL    HW2 1374   1.345   2.424   2.270
  159SOL     OW 1375   4.920   4.934   0.660
  159SOL    HW1 1376   4.914   4.993   0.740
  159SOL    HW2 1377   4.851   4.862   0.666
  160SOL     OW 1378   6.787   6.996   0.762
  160SOL    HW1 1379   6.754   6.917   0.710
  160SOL    HW2 1380   6.812   6.968   0.854
  161SOL     OW 1381   1.236   6.785   1.049
  161SOL    HW1 1382   1.218   6.821   1.141
  161SOL    HW2 1383   1.188   6.841   0.982
  162SOL     OW 1384   2.596   5.909   0.333
  162SOL    HW1 1385   2.563   6.003   0.323
  162SOL    HW2 1386   2.523   5.853   0.373
  163SOL     OW 1387   6.741   5.053   3.064
  163SOL    HW1 1388   6.669   5.059   2.995
  163SOL    HW2 1389   6.717   4.983   3.132
  164SOL     OW 1390   1.529   2.053   3.231
  164SOL    HW1 1391   1.504   2.148   3.248
  164SOL    HW2 1392   1.510   1.998   3.313
  165SOL     OW 1393   6.750   5.167   2.486
  165SOL    HW1 1394   6.690   5.225   2.431
  165SOL    HW2 1395   6.736   5.071   2.461
  166SOL     OW 1396   6.394   3.993   1.230
  166SOL    HW1 1397   6.392   4.093   1.229
  166SOL    HW2 1398   6.389   3.961   1.325
  167SOL     OW 1399   5.437   1.951   6.878
  167SOL    HW1 1400   5.519   1.894   6.880
  167SOL    HW2 1401   5.392   1.940   6.789
  168SOL     OW 1402   4.063   3.114   1.874
  168SOL    HW1 1403   4.124   3.189   1.901
  168SOL    HW2 1404   4.115   3.046   1.822
  169SOL     OW 1405   6.285   2.847   0.556
  169SOL    HW1 1406   6.330   2.871   0.470
  169SOL    HW2 1407   6.210   2.784   0.538
  170SOL     OW 1408   0.928   6.139   3.313
  170SOL    HW1 1409   1.021   6.113   3.338
  170SOL    HW2 1410   0.864   6.111   3.384
  171SOL     OW 1411   1.622   3.123   0.052
  171SOL    HW1 1412   1.689   3.151   7.001
  171SOL    HW2 1413   1.668   3.114   0.141
  172SOL     OW 1414   5.543   2.467   1.962
  172SOL    HW1 1415   5.540   2.501   1.867
  172SOL    HW2 1416   5.635   2.478   1.999
  173SOL     OW 1417   5.782   1.054   5.105
  173SOL    HW1 1418   5.798   0.974   5.048
  173SOL    HW2 1419   5.689   1.052   5.142
  174SOL     OW 1420   4.961   4.911   5.268
  174SOL    HW1 1421   5.052   4.918   5.227
  174SOL    HW2 1422   4.957   4.831   5.327
  175SOL     OW 1423   2.557   0.997   0.741
  175SOL    HW1 1424   2.535   0.901   0.760
  175SOL    HW2 1425   2.623   1.002   0.665
  176SOL     OW 1426   5.178   4.979   3.267
  176SOL    HW1 1427   5.223   4.924   3.338
  176SOL    HW2 1428   5.081   4.991   3.290
  177SOL     OW 1429   5.261   2.074   5.454
  177SOL    HW1 1430   5.253   1.976   5.468
  177SOL    HW2 1431   5.328   2.092   5.382
  178SOL     OW 1432   2.408   5.390   4.780
  178SOL    HW1 1433   2.499   5.422   4.809
  178SOL    HW2 1434   2.360   5.466   4.736
  179SOL     OW 1435   4.169   5.986   0.404
  179SOL    HW1 1436   4.135   5.895   0.429
  179SOL    HW2 1437   4.233   6.018   0.473
  180SOL     OW 1438   3.082   6.918   1.001
  180SOL    HW1 1439   3.002   6.925   0.942
  180SOL    HW2 1440   3.080   6.991   1.070
  181SOL     OW 1441   2.960   2.319   5.279
  181SOL    HW1 1442   2.887   2.314   5.210
  181SOL    HW2 1443   3.049   2.326   5.233
  182SOL     OW 1444   5.138   3.230   0.812
  182SOL    HW1 1445   5.065   3.190   0.867
  182SOL    HW2 1446   5.106   3.315   0.771
  183SOL     OW 1447   4.290   2.353   4.433
  183SOL    HW1 1448   4.191   2.357   4.441
  183SOL    HW2 1449   4.324   2.271   4.477
  184SOL     OW 1450   1.222   6.616   3.145
  184SOL    HW1 1451   1.199   6.690   3.081
  184SOL    HW2 1452   1.177   6.532   3.116
  185SOL     OW 1453   0.977   1.831   4.362
  185SOL    HW1 1454   0.936   1.774   4.290
  185SOL    HW2 1455   0.921   1.913   4.374
  186SOL     OW 1456   5.563   6.093   4.292
  186SOL    HW1 1457   5.627   6.016   4.284
  186SOL    HW2 1458   5.573   6.136   4.381
  187SOL     OW 1459   4.559   5.360   2.641
  187SOL    HW1 1460   4.605   5.375   2.728
  187SOL    HW2 1461   4.461   5.379   2.651
  188SOL     OW 1462   1.467   2.293   3.328
  188SOL    HW1 1463   1.406   2.297   3.407
  188SOL    HW2 1464   1.461   2.378   3.276
  189SOL     OW 1465   6.341   5.080   6.562
  189SOL    HW1 1466   6.352   5.168   6.607
  189SOL    HW2 1467   6.337   5.093   6.463
  190SOL     OW 1468   6.136   4.905   6.624
  190SOL    HW1 1469   6.173   4.855   6.703
  190SOL    HW2 1470   6.206   4.965   6.587
  191SOL     OW 1471   6.890   1.335   5.822
  191SOL    HW1 1472   6.960   1.298   5.761
  191SOL    HW2 1473   6.910   1.431   5.841
  192SOL     OW 1474   0.382   4.158   1.686
  192SOL    HW1 1475   0.397   4.256   1.674
  192SOL    HW2 1476   0.439   4.108   1.621
  193SOL     OW 1477   3.789   4.528   5.973
  193SOL    HW1 1478   3.756   4.490   5.887
  193SOL    HW2 1479   3.720   4.517   6.044
  194SOL     OW 1480   4.100   6.994   1.844
  194SOL    HW1 1481   4.055   7.003   1.755
  194SOL    HW2 1482   4.195   0.006   1.836
  195SOL     OW 1483   2.910   0.949   2.772
  195SOL    HW1 1484   2.952   0.915   2.688
  195SOL    HW2 1485   2.977   0.999   2.826
  196SOL     OW 1486   2.683   1.072   6.766
  196SOL    HW1 1487   2.711   1.087   6.861
  196SOL    HW2 1488   2.658   0.975   6.754
  197SOL     OW 1489   2.088   5.836   6.602
  197SOL    HW1 1490   2.107   5.932   6.625
  197SOL    HW2 1491   1.998   5.829   6.560
  198SOL     OW 1492   4.713   5.743   1.061
  198SOL    HW1 1493   4.643   5.708   0.999
  198SOL    HW2 1494   4.685   5.833   1.095
  199SOL     OW 1495   6.678   1.455   1.886
  199SOL    HW1 1496   6.745   1.436   1.957
  199SOL    HW2 1497   6.587   1.462   1.926
  200SOL     OW 1498   1.379   3.227   2.309
  200SOL    HW1 1499   1.292   3.272   2.326
  200SOL    HW2 1500   1.364   3.129   2.293
  201SOL     OW 1501   2.481   0.410   6.596
  201SOL    HW1 1502   2.572   0.383   6.628
  201SOL    HW2 1503   2.412   0.354   6.643
  202SOL     OW 1504   5.107   0.346   5.058
  202SOL    HW1 1505   5.035   0.394   5.008
  202SOL    HW2 1506   5.072   0.259   5.092
  203SOL     OW 1507   4.943   2.549   5.866
  203SOL    HW1 1508   4.847   2.575   5.881
  203SOL    HW2 1509   4.991   2.625   5.822
  204SOL     OW 1510   1.408   6.936   0.260
  204SOL    HW1 1511   1.502   6.902   0.254
  204SOL    HW2 1512   1.371   6.946   0.167
  205SOL     OW 1513   0.830   1.539   1.082
  205SOL    HW1 1514   0.753   1.524   1.144
  205SOL    HW2 1515   0.906   1.579   1.133
  206SOL     OW 1516   0.596   4.554   1.349
  206SOL    HW1 1517   0.579   4.641   1.303
  206SOL    HW2 1518   0.515   4.530   1.404
  207SOL     OW 1519   4.143   0.275   5.136
  207SOL    HW1 1520   4.160   0.333   5.215
  207SOL    HW2 1521   4.050   0.288   5.104
  208SOL     OW 1522   5.175   4.528   5.809
  208SOL    HW1 1523   5.105   4.549   5.877
  208SOL    HW2 1524   5.147   4.448   5.755
  209SOL     OW 1525   0.511   5.871   5.802
  209SOL    HW1 1526   0.594   5.859   5.857
  209SOL    HW2 1527   0.434   5.895   5.861
  210SOL     OW 1528   4.451   2.259   2.017
  210SOL    HW1 1529   4.451   2.351   1.977
  210SOL    HW2 1530   4.358   2.237   2.047
  211SOL     OW 1531   0.846   0.661   2.947
  211SOL    HW1 1532   0.913   0.731   2.923
  211SOL    HW2 1533   0.876   0.572   2.912
  212SOL     OW 1534   1.719   4.800   2.433
  212SOL    HW1 1535   1.740   4.777   2.528
  212SOL    HW2 1536   1.804   4.802   2.380
  213SOL     OW 1537   4.857   0.935   6.405
  213SOL    HW1 1538   4.760   0.950   6.418
  213SOL    HW2 1539   4.872   0.877   6.325
  214SOL     OW 1540   1.839   6.185   2.970
  214SOL    HW1 1541   1.865   6.229   3.056
  214SOL    HW2 1542   1.919   6.142   2.929
  215SOL     OW 1543   3.812   4.039   1.687
  215SOL    HW1 1544   3.730   4.014   1.738
  215SOL    HW2 1545   3.805   4.004   1.593
  216SOL     OW 1546   1.333   0.144   5.349
  216SOL    HW1 1547   1.341   0.044   5.352
  216SOL    HW2 1548   1.293   0.171   5.261
  217SOL     OW 1549   1.549   2.802   4.186
  217SOL    HW1 1550   1.607   2.881   4.163
  217SOL    HW2 1551   1.453   2.827   4.174
  218SOL     OW 1552   1.886   2.576   4.744
  218SOL    HW1 1553   1.866   2.651   4.807
  218SOL    HW2 1554   1.874   2.607   4.650
  219SOL     OW 1555   3.259   4.015   6.351
  219SOL    HW1 1556   3.347   4.055   6.376
  219SOL    HW2 1557   3.189   4.045   6.416
  220SOL     OW 1558   2.863   5.631   0.110
  220SOL    HW1 1559   2.824   5.721   0.089
  220SOL    HW2 1560   2.799   5.559   0.083
  221SOL     OW 1561   5.568   4.031   3.520
  221SOL    HW1 1562   5.571   3.938   3.486
  221SOL    HW2 1563   5.501   4.084   3.468
  222SOL     OW 1564   1.671   5.517   5.502
  222SOL    HW1 1565   1.597   5.567   5.459
  222SOL    HW2 1566   1.754   5.527   5.447
  223SOL     OW 1567   0.639   3.363   1.400
  223SOL    HW1 1568   0.732   3.387   1.427
  223SOL    HW2 1569   0.642   3.289   1.333
  224SOL     OW 1570   2.832   2.222   3.099
  224SOL    HW1 1571   2.788   2.290   3.158
  224SOL    HW2 1572   2.927   2.210   3.126
  225SOL     OW 1573   5.691   0.939   6.710
  225SOL    HW1 1574   5.645   0.996   6.642
  225SOL    HW2 1575   5.787   0.966   6.716
  226SOL     OW 1576   0.436   0.088   0.268
  226SOL    HW1 1577   0.422   7.009   0.253
  226SOL    HW2 1578   0.482   0.128   0.189
  227SOL     OW 1579   0.999   4.248   3.619
  227SOL    HW1 1580   0.920   4.282   3.568
  227SOL    HW2 1581   0.972   4.231   3.714
  228SOL     OW 1582   3.676   0.137   4.631
  228SOL    HW1 1583   3.620   0.072   4.579
  228SOL    HW2 1584   3.773   0.118   4.614
  229SOL     OW 1585   6.074   6.245   1.652
  229SOL    HW1 1586   6.152   6.253   1.714
  229SOL    HW2 1587   6.037   6.336   1.632
  230SOL     OW 1588   2.153   4.670   3.719
  230SOL    HW1 1589   2.082   4.723   3.765
  230SOL    HW2 1590   2.116   4.633   3.633
  231SOL     OW 1591   6.231   2.777   5.930
  231SOL    HW1 1592   6.231   2.679   5.908
  231SOL    HW2 1593   6.318   2.802   5.972
  232SOL     OW 1594   1.001   3.875   5.877
  232SOL    HW1 1595   0.987   3.925   5.963
  232SOL    HW2 1596   1.096   3.844   5.871
  233SOL     OW 1597   1.848   0.466   5.036
  233SOL    HW1 1598   1.832   0.415   4.952
  233SOL    HW2 1599   1.776   0.445   5.103
  234SOL     OW 1600   2.716   5.228   6.292
  234SOL    HW1 1601   2.743   5.179   6.375
  234SOL    HW2 1602   2.662   5.168   6.233
  235SOL     OW 1603   3.800   3.382   2.743
  235SOL    HW1 1604   3.900   3.387   2.737
  235SOL    HW2 1605   3.765   3.323   2.671
  236SOL     OW 1606   6.628   3.104   6.667
  236SOL    HW1 1607   6.636   3.041   6.589
  236SOL    HW2 1608   6.538   3.091   6.710
  237SOL     OW 1609   0.501   6.943   0.705
  237SOL    HW1 1610   0.534   6.849   0.704
  237SOL    HW2 1611   0.430   6.953   0.774
  238SOL     OW 1612   6.129   3.205   1.735
  238SOL    HW1 1613   6.134   3.190   1.637
  238SOL    HW2 1614   6.128   3.116   1.782
  239SOL     OW 1615   6.130   5.386   6.877
  239SOL    HW1 1616   6.051   5.398   6.936
  239SOL    HW2 1617   6.100   5.354   6.787
  240SOL     OW 1618   0.655   3.352   5.799
  240SOL    HW1 1619   0.707   3.288   5.743
  240SOL    HW2 1620   0.718   3.412   5.849
  241SOL     OW 1621   0.957   0.830   3.401
  241SOL    HW1 1622   1.039   0.881   3.376
  241SOL    HW2 1623   0.882   0.894   3.418
  242SOL     OW 1624   1.431   3.052   5.348
  242SOL    HW1 1625   1.399   3.144   5.328
  242SOL    HW2 1626   1.401   3.025   5.440
  243SOL     OW 1627   4.577   0.056   6.122
  243SOL    HW1 1628   4.588   0.144   6.077
  243SOL    HW2 1629   4.486   0.052   6.164
  244SOL     OW 1630   4.646   2.766   4.345
  244SOL    HW1 1631   4.570   2.710   4.312
  244SOL    HW2 1632   4.679   2.825   4.272
  245SOL     OW 1633   6.675   2.593   4.588
  245SOL    HW1 1634   6.680   2.610   4.490
  245SOL    HW2 1635   6.687   2.679   4.638
  246SOL     OW 1636   5.117   4.120   3.518
  246SOL    HW1 1637   5.161   4.145   3.604
  246SOL    HW2 1638   5.145   4.028   3.491
  247SOL     OW 1639   2.776   1.684   3.107
  247SOL    HW1 1640   2.734   1.594   3.119
  247SOL    HW2 1641   2.733   1.731   3.030
  248SOL     OW 1642   4.699   2.258   4.554
  248SOL    HW1 1643   4.644   2.177   4.534
  248SOL    HW2 1644   4.776   2.233   4.612
  249SOL     OW 1645   3.032   6.728   4.918
  249SOL    HW1 1646   3.025   6.654   4.852
  249SOL    HW2 1647   2.947   6.734   4.971
  250SOL     OW 1648   5.313   1.701   5.651
  250SOL    HW1 1649   5.316   1.733   5.557
  250SOL    HW2 1650   5.383   1.749   5.705
  251SOL     OW 1651   4.321   3.330   6.359
  251SOL    HW1 1652   4.410   3.337   6.313
  251SOL    HW2 1653   4.302   3.234   6.380
  252SOL     OW 1654   0.385   1.288   5.396
  252SOL    HW1 1655   0.363   1.194   5.371
  252SOL    HW2 1656   0.484   1.303   5.386
  253SOL     OW 1657   1.693   3.955   0.828
  253SOL    HW1 1658   1.768   3.896   0.857
  253SOL    HW2 1659   1.729   4.043   0.797
  254SOL     OW 1660   6.199   2.614   4.117
  254SOL    HW1 1661   6.135   2.538   4.128
  254SOL    HW2 1662   6.199   2.671   4.199
  255SOL     OW 1663   3.290   1.890   3.832
  255SOL    HW1 1664   3.304   1.974   3.884
  255SOL    HW2 1665   3.374   1.867   3.783
  256SOL     OW 1666   6.678   5.079   6.994
  256SOL    HW1 1667   6.712   5.070   0.070
  256SOL    HW2 1668   6.751   5.117   6.937
  257SOL     OW 1669   3.340   5.633   6.005
  257SOL    HW1 1670   3.428   5.596   6.034
  257SOL    HW2 1671   3.308   5.583   5.924
  258SOL     OW 1672   4.823   4.063   5.025
  258SOL    HW1 1673   4.800   4.069   4.928
  258SOL    HW2 1674   4.901   4.123   5.044
  259SOL     OW 1675   1.456   2.871   2.616
  259SOL    HW1 1676   1.529   2.940   2.626
  259SOL    HW2 1677   1.497   2.783   2.592
  260SOL     OW 1678   4.935   0.356   0.047
  260SOL    HW1 1679   4.921   0.324   0.141
  260SOL    HW2 1680   4.971   0.449   0.048
  261SOL     OW 1681   0.903   3.409   1.493
  261SOL    HW1 1682   0.957   3.332   1.526
  261SOL    HW2 1683   0.928   3.492   1.542
  262SOL     OW 1684   1.114   3.288   2.355
  262SOL    HW1 1685   1.061   3.204   2.341
  262SOL    HW2 1686   1.053   3.364   2.376
  263SOL     OW 1687   0.334   2.091   4.513
  263SOL    HW1 1688   0.343   2.165   4.446
  263SOL    HW2 1689   0.244   2.097   4.557
  264SOL     OW 1690   0.449   3.330   5.443
  264SOL    HW1 1691   0.450   3.390   5.364
  264SOL    HW2 1692   0.431   3.236   5.413
  265SOL     OW 1693   4.658   4.261   4.149
  265SOL    HW1 1694   4.674   4.220   4.239
  265SOL    HW2 1695   4.610   4.348   4.160
  266SOL     OW 1696   3.411   2.028   0.017
  266SOL    HW1 1697   3.505   2.051   0.042
  266SOL    HW2 1698   3.411   1.945   6.979
  267SOL     OW 1699   1.793   2.482   0.433
  267SOL    HW1 1700   1.831   2.412   0.495
  267SOL    HW2 1701   1.706   2.450   0.396
  268SOL     OW 1702   4.503   4.685   4.565
  268SOL    HW1 1703   4.571   4.741   4.612
  268SOL    HW2 1704   4.424   4.672   4.625
  269SOL     OW 1705   1.584   1.763   6.584
  269SOL    HW1 1706   1.524   1.689   6.616
  269SOL    HW2 1707   1.626   1.736   6.497
  270SOL     OW 1708   5.155   1.076   2.329
  270SOL    HW1 1709   5.170   1.171   2.300
  270SOL    HW2 1710   5.184   1.014   2.256
  271SOL     OW 1711   2.234   1.101   0.961
  271SOL    HW1 1712   2.282   1.111   0.874
  271SOL    HW2 1713   2.244   1.007   0.993
  272SOL     OW 1714   3.841   5.484   4.325
  272SOL    HW1 1715   3.934   5.450   4.312
  272SOL    HW2 1716   3.815   5.475   4.421
  273SOL     OW 1717   1.117   5.445   5.147
  273SOL    HW1 1718   1.160   5.526   5.187
  273SOL    HW2 1719   1.020   5.446   5.168
  274SOL     OW 1720   5.082   2.985   3.542
  274SOL    HW1 1721   5.175   2.953   3.557
  274SOL    HW2 1722   5.027   2.911   3.502
  275SOL     OW 1723   0.455   5.864   6.377
  275SOL    HW1 1724   0.391   5.820   6.440
  275SOL    HW2 1725   0.459   5.962   6.396
  276SOL     OW 1726   6.869   5.268   3.992
  276SOL    HW1 1727   6.855   5.218   4.077
  276SOL    HW2 1728   6.963   5.301   3.987
  277SOL     OW 1729   2.975   0.988   5.507
  277SOL    HW1 1730   2.935   0.945   5.426
  277SOL    HW2 1731   3.052   1.045   5.478
  278SOL     OW 1732   5.196   4.724   2.820
  278SOL    HW1 1733   5.121   4.707   2.757
  278SOL    HW2 1734   5.169   4.697   2.913
  279SOL     OW 1735   6.527   3.321   3.972
  279SOL    HW1 1736   6.603   3.273   4.015
  279SOL    HW2 1737   6.464   3.255   3.932
  280SOL     OW 1738   4.692   6.443   3.731
  280SOL    HW1 1739   4.595   6.438   3.756
  280SOL    HW2 1740   4.733   6.352   3.736
  281SOL     OW 1741   3.711   5.668   3.799
  281SOL    HW1 1742   3.706   5.581   3.849
  281SOL    HW2 1743   3.737   5.741   3.861
  282SOL     OW 1744   4.128   1.391   5.905
  282SOL    HW1 1745   4.094   1.449   5.831
  282SOL    HW2 1746   4.213   1.429   5.942
  283SOL     OW 1747   6.079   0.302   5.283
  283SOL    HW1 1748   6.055   0.316   5.187
  283SOL    HW2 1749   6.132   0.381   5.316
  284SOL     OW 1750   0.478   4.809   4.467
  284SOL    HW1 1751   0.450   4.888   4.413
  284SOL    HW2 1752   0.514   4.840   4.555
  285SOL     OW 1753   5.810   6.826   0.270
  285SOL    HW1 1754   5.774   6.839   0.362
  285SOL    HW2 1755   5.736   6.840   0.203
  286SOL     OW 1756   3.281   5.227   4.898
  286SOL    HW1 1757   3.260   5.192   4.990
  286SOL    HW2 1758   3.316   5.153   4.841
  287SOL     OW 1759   1.671   5.938   6.299
  287SOL    HW1 1760   1.616   6.021   6.304
  287SOL    HW2 1761   1.740   5.947   6.227
  288SOL     OW 1762   4.360   0.689   1.223
  288SOL    HW1 1763   4.296   0.612   1.220
  288SOL    HW2 1764   4.344   0.742   1.306
  289SOL     OW 1765   1.110   5.435   5.487
  289SOL    HW1 1766   1.100   5.375   5.567
  289SOL    HW2 1767   1.026   5.432   5.433
  290SOL     OW 1768   4.405   0.744   3.213
  290SOL    HW1 1769   4.495   0.712   3.182
  290SOL    HW2 1770   4.343   0.750   3.135
  291SOL     OW 1771   4.028   0.808   4.099
  291SOL    HW1 1772   4.010   0.720   4.143
  291SOL    HW2 1773   4.113   0.846   4.134
  292SOL     OW 1774   3.858   0.500   3.928
  292SOL    HW1 1775   3.804   0.465   3.851
  292SOL    HW2 1776   3.941   0.544   3.893
  293SOL     OW 1777   4.448   6.377   2.624
  293SOL    HW1 1778   4.350   6.358   2.617
  293SOL    HW2 1779   4.463   6.450   2.691
  294SOL     OW 1780   5.568   6.492   5.580
  294SOL    HW1 1781   5.633   6.446   5.639
  294SOL    HW2 1782   5.522   6.565   5.630
  295SOL     OW 1783   1.184   2.650   5.026
  295SOL    HW1 1784   1.261   2.589   5.009
  295SOL    HW2 1785   1.212   2.723   5.088
  296SOL     OW 1786   6.024   1.706   1.280
  296SOL    HW1 1787   6.089   1.640   1.241
  296SOL    HW2 1788   6.063   1.748   1.361
  297SOL     OW 1789   5.362   5.465   3.715
  297SOL    HW1 1790   5.331   5.555   3.682
  297SOL    HW2 1791   5.291   5.397   3.696
  298SOL     OW 1792   4.581   0.772   1.043
  298SOL    HW1 1793   4.544   0.706   1.108
  298SOL    HW2 1794   4.674   0.798   1.070
  299SOL     OW 1795   3.313   1.842   0.480
  299SOL    HW1 1796   3.216   1.863   0.483
  299SOL    HW2 1797   3.347   1.857   0.387
  300SOL     OW 1798   3.148   1.128   2.393
  300SOL    HW1 1799   3.161   1.099   2.298
  300SOL    HW2 1800   3.103   1.055   2.444
  301SOL     OW 1801   5.019   6.554   1.545
  301SOL    HW1 1802   5.028   6.524   1.451
  301SOL    HW2 1803   4.961   6.635   1.549
  302SOL     OW 1804   6.980   6.760   1.620
  302SOL    HW1 1805   6.911   6.688   1.617
  302SOL    HW2 1806   6.949   6.839   1.567
  303SOL     OW 1807   5.807   5.824   2.277
  303SOL    HW1 1808   5.742   5.783   2.212
  303SOL    HW2 1809   5.764   5.902   2.322
  304SOL     OW 1810   1.510   0.014   5.856
  304SOL    HW1 1811   1.550   0.008   5.764
  304SOL    HW2 1812   1.567   6.982   5.921
  305SOL     OW 1813   1.373   3.255   1.285
  305SOL    HW1 1814   1.441   3.182   1.278
  305SOL    HW2 1815   1.401   3.320   1.356
  306SOL     OW 1816   0.358   1.240   2.197
  306SOL    HW1 1817   0.265   1.238   2.234
  306SOL    HW2 1818   0.423   1.260   2.271
  307SOL     OW 1819   3.353   3.642   0.717
  307SOL    HW1 1820   3.404   3.666   0.800
  307SOL    HW2 1821   3.304   3.556   0.733
  308SOL     OW 1822   5.363   2.245   4.440
  308SOL    HW1 1823   5.370   2.283   4.347
  308SOL    HW2 1824   5.446   2.268   4.491
  309SOL     OW 1825   0.926   6.960   7.014
  309SOL    HW1 1826   0.962   6.969   6.921
  309SOL    HW2 1827   0.966   6.880   0.040
  310SOL     OW 1828   5.795   6.424   4.224
  310SOL    HW1 1829   5.858   6.480   4.171
  310SOL    HW2 1830   5.842   6.390   4.306
  311SOL     OW 1831   2.403   4.807   2.381
  311SOL    HW1 1832   2.409   4.904   2.357
  311SOL    HW2 1833   2.438   4.792   2.473
  312SOL     OW 1834   4.588   2.561   3.685
  312SOL    HW1 1835   4.518   2.534   3.619
  312SOL    HW2 1836   4.644   2.481   3.708
  313SOL     OW 1837   3.401   3.772   2.330
  313SOL    HW1 1838   3.480   3.799   2.274
  313SOL    HW2 1839   3.334   3.846   2.330
  314SOL     OW 1840   1.864   5.882   5.414
  314SOL    HW1 1841   1.932   5.820   5.377
  314SOL    HW2 1842   1.866   5.880   5.514
  315SOL     OW 1843   0.156   1.211   2.977
  315SOL    HW1 1844   0.201   1.291   3.017
  315SOL    HW2 1845   0.090   1.242   2.908
  316SOL     OW 1846   4.569   1.861   5.096
  316SOL    HW1 1847   4.599   1.886   5.004
  316SOL    HW2 1848   4.606   1.925   5.162
  317SOL     OW 1849   1.490   1.543   1.993
  317SOL    HW1 1850   1.480   1.633   1.951
  317SOL    HW2 1851   1.479   1.552   2.092
  318SOL     OW 1852   6.678   6.851   6.406
  318SOL    HW1 1853   6.627   6.810   6.331
  318SOL    HW2 1854   6.627   6.929   6.443
  319SOL     OW 1855   0.186   2.389   2.894
  319SOL    HW1 1856   0.119   2.422   2.960
  319SOL    HW2 1857   0.229   2.306   2.928
  320SOL     OW 1858   6.137   2.424   0.111
  320SOL    HW1 1859   6.039   2.409   0.100
  320SOL    HW2 1860   6.186   2.339   0.092
  321SOL     OW 1861   3.550   3.181   0.179
  321SOL    HW1 1862   3.633   3.127   0.196
  321SOL    HW2 1863   3.519   3.222   0.264
  322SOL     OW 1864   3.713   2.870   4.860
  322SOL    HW1 1865   3.643   2.929   4.899
  322SOL    HW2 1866   3.704   2.869   4.761
  323SOL     OW 1867   0.969   2.281   3.869
  323SOL    HW1 1868   0.931   2.336   3.795
  323SOL    HW2 1869   0.996   2.342   3.945
  324SOL     OW 1870   2.351   6.985   3.556
  324SOL    HW1 1871   2.350   0.021   3.640
  324SOL    HW2 1872   2.290   0.009   3.489
  325SOL     OW 1873   1.635   3.495   2.655
  325SOL    HW1 1874   1.702   3.494   2.581
  325SOL    HW2 1875   1.681   3.474   2.742
  326SOL     OW 1876   1.920   4.010   6.158
  326SOL    HW1 1877   1.940   4.091   6.104
  326SOL    HW2 1878   1.826   3.981   6.141
  327SOL     OW 1879   2.758   4.714   2.346
  327SOL    HW1 1880   2.706   4.735   2.264
  327SOL    HW2 1881   2.856   4.722   2.327
  328SOL     OW 1882   2.490   4.721   1.349
  328SOL    HW1 1883   2.431   4.701   1.426
  328SOL    HW2 1884   2.573   4.766   1.381
  329SOL     OW 1885   2.952   4.055   6.903
  329SOL    HW1 1886   3.022   3.984   6.894
  329SOL    HW2 1887   2.970   4.108   6.986
  330SOL     OW 1888   4.256   5.978   6.960
  330SOL    HW1 1889   4.238   6.076   6.967
  330SOL    HW2 1890   4.234   5.947   6.867
  331SOL     OW 1891   5.519   4.779   0.914
  331SOL    HW1 1892   5.495   4.696   0.863
  331SOL    HW2 1893   5.438   4.837   0.923
  332SOL     OW 1894   5.822   2.101   3.629
  332SOL    HW1 1895   5.883   2.102   3.550
  332SOL    HW2 1896   5.819   2.009   3.668
  333SOL     OW 1897   4.214   0.933   5.167
  333SOL    HW1 1898   4.246   0.966   5.255
  333SOL    HW2 1899   4.260   0.846   5.145
  334SOL     OW 1900   3.720   3.019   1.497
  334SOL    HW1 1901   3.682   2.929   1.521
  334SOL    HW2 1902   3.731   3.024   1.397
  335SOL     OW 1903   4.598   0.226   6.719
  335SOL    HW1 1904   4.557   0.313   6.748
  335SOL    HW2 1905   4.534   0.177   6.660
  336SOL     OW 1906   3.039   1.846   2.563
  336SOL    HW1 1907   3.033   1.939   2.528
  336SOL    HW2 1908   3.105   1.843   2.639
  337SOL     OW 1909   1.650   2.325   5.855
  337SOL    HW1 1910   1.630   2.231   5.828
  337SOL    HW2 1911   1.579   2.357   5.919
  338SOL     OW 1912   3.712   3.687   0.704
  338SOL    HW1 1913   3.627   3.703   0.654
  338SOL    HW2 1914   3.785   3.666   0.640
  339SOL     OW 1915   4.417   4.921   4.264
  339SOL    HW1 1916   4.495   4.972   4.299
  339SOL    HW2 1917   4.363   4.886   4.340
  340SOL     OW 1918   5.015   3.519   5.200
  340SOL    HW1 1919   5.102   3.552   5.165
  340SOL    HW2 1920   4.941   3.574   5.162
  341SOL     OW 1921   5.720   5.854   4.707
  341SOL    HW1 1922   5.778   5.814   4.778
  341SOL    HW2 1923   5.720   5.793   4.627
  342SOL     OW 1924   4.710   3.248   1.107
  342SOL    HW1 1925   4.793   3.236   1.161
  342SOL    HW2 1926   4.651   3.168   1.119
  343SOL     OW 1927   6.860   6.133   2.352
  343SOL    HW1 1928   6.818   6.217   2.387
  343SOL    HW2 1929   6.950   6.121   2.393
  344SOL     OW 1930   1.039   2.079   1.913
  344SOL    HW1 1931   1.032   2.103   2.010
  344SOL    HW2 1932   1.066   2.160   1.861
  345SOL     OW 1933   6.654   2.018   3.805
  345SOL    HW1 1934   6.587   2.088   3.828
  345SOL    HW2 1935   6.700   2.044   3.720
  346SOL     OW 1936   1.716   0.355   2.405
  346SOL    HW1 1937   1.632   0.342   2.458
  346SOL    HW2 1938   1.763   0.437   2.437
  347SOL     OW 1939   2.658   5.641   6.745
  347SOL    HW1 1940   2.617   5.696   6.672
  347SOL    HW2 1941   2.758   5.650   6.740
  348SOL     OW 1942   4.504   5.259   3.088
  348SOL    HW1 1943   4.485   5.195   3.162
  348SOL    HW2 1944   4.582   5.317   3.113
  349SOL     OW 1945   7.004   3.963   2.340
  349SOL    HW1 1946   7.005   4.041   2.278
  349SOL    HW2 1947   7.014   3.995   2.434
  350SOL     OW 1948   3.052   2.854   0.250
  350SOL    HW1 1949   2.961   2.842   0.212
  350SOL    HW2 1950   3.047   2.857   0.350
  351SOL     OW 1951   3.038   3.276   0.516
  351SOL    HW1 1952   3.052   3.186   0.558
  351SOL    HW2 1953   3.067   3.347   0.579
  352SOL     OW 1954   3.803   6.352   3.857
  352SOL    HW1 1955   3.758   6.437   3.830
  352SOL    HW2 1956   3.865   6.322   3.784
  353SOL     OW 1957   3.056   0.304   6.270
  353SOL    HW1 1958   2.976   0.267   6.317
  353SOL    HW2 1959   3.139   0.264   6.308
  354SOL     OW 1960   5.000   2.777   0.588
  354SOL    HW1 1961   5.089   2.751   0.625
  354SOL    HW2 1962   4.989   2.735   0.497
  355SOL     OW 1963   1.909   3.275   2.422
  355SOL    HW1 1964   1.882   3.367   2.393
  355SOL    HW2 1965   1.834   3.211   2.407
  356SOL     OW 1966   1.698   0.459   4.501
  356SOL    HW1 1967   1.718   0.531   4.567
  356SOL    HW2 1968   1.679   0.374   4.550
  357SOL     OW 1969   0.640   5.891   4.598
  357SOL    HW1 1970   0.682   5.853   4.515
  357SOL    HW2 1971   0.712   5.922   4.660
  358SOL     OW 1972   4.673   6.409   0.807
  358SOL    HW1 1973   4.747   6.467   0.841
  358SOL    HW2 1974   4.613   6.463   0.747
  359SOL     OW 1975   3.247   0.731   1.751
  359SOL    HW1 1976   3.225   0.669   1.676
  359SOL    HW2 1977   3.300   0.682   1.820
  360SOL     OW 1978   1.343   4.258   4.345
  360SOL    HW1 1979   1.385   4.197   4.413
  360SOL    HW2 1980   1.329   4.208   4.260
  361SOL     OW 1981   6.890   6.112   2.991
  361SOL    HW1 1982   6.894   6.133   3.088
  361SOL    HW2 1983   6.881   6.197   2.938
  362SOL     OW 1984   3.505   3.665   0.934
  362SOL    HW1 1985   3.552   3.728   0.995
  362SOL    HW2 1986   3.572   3.608   0.886
  363SOL     OW 1987   6.330   4.788   2.902
  363SOL    HW1 1988   6.277   4.715   2.859
  363SOL    HW2 1989   6.290   4.811   2.991
  364SOL     OW 1990   0.538   4.978   6.350
  364SOL    HW1 1991   0.633   5.001   6.331
  364SOL    HW2 1992   0.532   4.887   6.390
  365SOL     OW 1993   4.560   1.051   1.291
  365SOL    HW1 1994   4.578   0.976   1.354
  365SOL    HW2 1995   4.590   1.137   1.333
  366SOL     OW 1996   5.476   2.490   0.055
  366SOL    HW1 1997   5.432   2.437   0.127
  366SOL    HW2 1998   5.414   2.501   6.996
  367SOL     OW 1999   5.964   2.397   6.336
  367SOL    HW1 2000   6.004   2.309   6.361
  367SOL    HW2 2001   6.012   2.470   6.384
  368SOL     OW 2002   6.829   2.345   5.504
  368SOL    HW1 2003   6.805   2.255   5.467
  368SOL    HW2 2004   6.920   2.341   5.545
  369SOL     OW 2005   5.941   4.520   3.012
  369SOL    HW1 2006   5.852   4.514   2.966
  369SOL    HW2 2007   5.927   4.517   3.111
  370SOL     OW 2008   1.012   1.817   4.073
  370SOL    HW1 2009   0.968   1.906   4.070
  370SOL    HW2 2010   1.002   1.772   3.984
  371SOL     OW 2011   1.886   4.215   6.618
  371SOL    HW1 2012   1.914   4.282   6.687
  371SOL    HW2 2013   1.935   4.233   6.533
  372SOL     OW 2014   1.623   6.832   5.385
  372SOL    HW1 2015   1.683   6.752   5.389
  372SOL    HW2 2016   1.678   6.913   5.367
  373SOL     OW 2017   4.892   6.247   5.133
  373SOL    HW1 2018   4.860   6.295   5.051
  373SOL    HW2 2019   4.871   6.302   5.214
  374SOL     OW 2020   2.416   2.110   2.942
  374SOL    HW1 2021   2.384   2.137   3.032
  374SOL    HW2 2022   2.511   2.077   2.949
  375SOL     OW 2023   0.685   4.739   4.298
  375SOL    HW1 2024   0.775   4.765   4.334
  375SOL    HW2 2025   0.614   4.775   4.358
  376SOL     OW 2026   1.724   2.254   5.457
  376SOL    HW1 2027   1.796   2.321   5.442
  376SOL    HW2 2028   1.635   2.297   5.442
  377SOL     OW 2029   2.080   2.530   0.015
  377SOL    HW1 2030   2.092   2.514   0.113
  377SOL    HW2 2031   1.986   2.558   7.016
  378SOL     OW 2032   3.802   1.535   6.820
  378SOL    HW1 2033   3.729   1.550   6.753
  378SOL    HW2 2034   3.824   1.622   6.864
  379SOL     OW 2035   5.324   2.569   6.856
  379SOL    HW1 2036   5.266   2.489   6.842
  379SOL    HW2 2037   5.350   2.608   6.768
  380SOL     OW 2038   3.550   1.019   0.857
  380SOL    HW1 2039   3.585   1.104   0.897
  380SOL    HW2 2040   3.472   1.040   0.797
  381SOL     OW 2041   1.418   3.871   4.270
  381SOL    HW1 2042   1.395   3.787   4.222
  381SOL    HW2 2043   1.363   3.879   4.353
  382SOL     OW 2044   5.557   0.659   0.076
  382SOL    HW1 2045   5.597   0.593   0.140
  382SOL    HW2 2046   5.618   0.670   7.016
  383SOL     OW 2047   4.227   3.249   0.662
  383SOL    HW1 2048   4.325   3.247   0.639
  383SOL    HW2 2049   4.216   3.238   0.761
  384SOL     OW 2050   6.820   5.171   4.501
  384SOL    HW1 2051   6.814   5.270   4.517
  384SOL    HW2 2052   6.732   5.129   4.522
  385SOL     OW 2053   3.184   6.099   5.883
  385SOL    HW1 2054   3.255   6.031   5.901
  385SOL    HW2 2055   3.113   6.093   5.953
  386SOL     OW 2056   3.599   0.443   4.239
  386SOL    HW1 2057   3.650   0.518   4.281
  386SOL    HW2 2058   3.657   0.362   4.234
  387SOL     OW 2059   1.021   5.566   2.001
  387SOL    HW1 2060   1.021   5.467   1.985
  387SOL    HW2 2061   1.043   5.584   2.097
  388SOL     OW 2062   1.902   2.108   6.562
  388SOL    HW1 2063   1.929   2.203   6.542
  388SOL    HW2 2064   1.981   2.048   6.553
  389SOL     OW 2065   3.359   3.369   2.114
  389SOL    HW1 2066   3.453   3.403   2.115
  389SOL    HW2 2067   3.351   3.293   2.179
  390SOL     OW 2068   3.103   0.720   3.720
  390SOL    HW1 2069   3.061   0.760   3.638
  390SOL    HW2 2070   3.159   0.641   3.693
  391SOL     OW 2071   2.193   2.568   6.178
  391SOL    HW1 2072   2.214   2.503   6.251
  391SOL    HW2 2073   2.104   2.548   6.139
  392SOL     OW 2074   1.442   3.941   0.197
  392SOL    HW1 2075   1.465   3.861   0.141
  392SOL    HW2 2076   1.525   3.980   0.236
  393SOL     OW 2077   0.293   4.646   5.716
  393SOL    HW1 2078   0.268   4.673   5.809
  393SOL    HW2 2079   0.222   4.676   5.653
  394SOL     OW 2080   0.248   0.897   6.857
  394SOL    HW1 2081   0.187   0.976   6.868
  394SOL    HW2 2082   0.204   0.830   6.798
  395SOL     OW 2083   4.911   4.145   3.258
  395SOL    HW1 2084   4.965   4.095   3.191
  395SOL    HW2 2085   4.972   4.200   3.315
  396SOL     OW 2086   4.049   3.961   1.770
  396SOL    HW1 2087   4.134   3.977   1.720
  396SOL    HW2 2088   3.979   4.024   1.738
  397SOL     OW 2089   4.096   2.257   5.596
  397SOL    HW1 2090   4.069   2.162   5.582
  397SOL    HW2 2091   4.025   2.305   5.647
  398SOL     OW 2092   0.517   6.520   2.577
  398SOL    HW1 2093   0.575   6.462   2.635
  398SOL    HW2 2094   0.505   6.477   2.488
  399SOL     OW 2095   4.906   6.731   3.071
  399SOL    HW1 2096   4.912   6.767   2.978
  399SOL    HW2 2097   4.867   6.801   3.131
  400SOL     OW 2098   6.128   6.457   5.165
  400SOL    HW1 2099   6.217   6.427   5.131
  400SOL    HW2 2100   6.073   6.489   5.087
  401SOL     OW 2101   4.954   0.927   5.233
  401SOL    HW1 2102   4.974   0.967   5.322
  401SOL    HW2 2103   4.937   0.829   5.244
  402SOL     OW 2104   6.149   0.213   3.198
  402SOL    HW1 2105   6.099   0.127   3.193
  402SOL    HW2 2106   6.244   0.197   3.170
  403SOL     OW 2107   4.285   2.176   5.048
  403SOL    HW1 2108   4.263   2.274   5.047
  403SOL    HW2 2109   4.273   2.140   5.141
  404SOL     OW 2110   1.763   6.086   4.132
  404SOL    HW1 2111   1.732   6.163   4.077
  404SOL    HW2 2112   1.711   6.004   4.107
  405SOL     OW 2113   1.593   3.796   1.884
  405SOL    HW1 2114   1.577   3.780   1.787
  405SOL    HW2 2115   1.656   3.872   1.896
  406SOL     OW 2116   0.564   3.938   4.107
  406SOL    HW1 2117   0.640   4.002   4.115
  406SOL    HW2 2118   0.578   3.879   4.028
  407SOL     OW 2119   1.782   0.438   3.677
  407SOL    HW1 2120   1.754   0.532   3.700
  407SOL    HW2 2121   1.868   0.417   3.722
  408SOL     OW 2122   0.864   1.421   3.295
  408SOL    HW1 2123   0.813   1.469   3.224
  408SOL    HW2 2124   0.868   1.477   3.378
  409SOL     OW 2125   6.144   2.802   1.145
  409SOL    HW1 2126   6.238   2.771   1.164
  409SOL    HW2 2127   6.081   2.726   1.161
  410SOL     OW 2128   1.753   0.363   0.111
  410SOL    HW1 2129   1.706   0.280   0.142
  410SOL    HW2 2130   1.737   0.437   0.177
  411SOL     OW 2131   5.592   6.680   6.569
  411SOL    HW1 2132   5.642   6.621   6.506
  411SOL    HW2 2133   5.504   6.637   6.592
  412SOL     OW 2134   5.095   6.517   3.769
  412SOL    HW1 2135   5.183   6.553   3.800
  412SOL    HW2 2136   5.029   6.524   3.844
  413SOL     OW 2137   5.236   5.208   1.759
  413SOL    HW1 2138   5.138   5.225   1.774
  413SOL    HW2 2139   5.268   5.139   1.824
  414SOL     OW 2140   3.760   4.889   3.725
  414SOL    HW1 2141   3.665   4.898   3.755
  414SOL    HW2 2142   3.816   4.960   3.767
  415SOL     OW 2143   1.104   6.248   6.399
  415SOL    HW1 2144   1.176   6.311   6.367
  415SOL    HW2 2145   1.145   6.177   6.456
  416SOL     OW 2146   5.175   5.392   4.114
  416SOL    HW1 2147   5.241   5.445   4.166
  416SOL    HW2 2148   5.220   5.312   4.074
  417SOL     OW 2149   2.075   5.363   0.827
  417SOL    HW1 2150   2.024   5.332   0.907
  417SOL    HW2 2151   2.138   5.291   0.799
  418SOL     OW 2152   4.327   5.876   2.015
  418SOL    HW1 2153   4.260   5.802   2.013
  418SOL    HW2 2154   4.398   5.855   2.082
  419SOL     OW 2155   1.779   0.109   1.027
  419SOL    HW1 2156   1.810   0.064   1.111
  419SOL    HW2 2157   1.739   0.041   0.966
  420SOL     OW 2158   6.071   2.096   0.769
  420SOL    HW1 2159   6.115   2.174   0.812
  420SOL    HW2 2160   5.993   2.127   0.714
  421SOL     OW 2161   0.183   5.025   5.993
  421SOL    HW1 2162   0.107   5.037   6.057
  421SOL    HW2 2163   0.147   5.013   5.900
  422SOL     OW 2164   5.170   4.699   0.533
  422SOL    HW1 2165   5.167   4.613   0.481
  422SOL    HW2 2166   5.082   4.716   0.576
  423SOL     OW 2167   0.627   2.885   6.935
  423SOL    HW1 2168   0.620   2.878   0.016
  423SOL    HW2 2169   0.577   2.965   6.903
  424SOL     OW 2170   2.860   3.360   1.286
  424SOL    HW1 2171   2.955   3.375   1.259
  424SOL    HW2 2172   2.821   3.447   1.318
  425SOL     OW 2173   6.163   1.178   2.071
  425SOL    HW1 2174   6.079   1.211   2.113
  425SOL    HW2 2175   6.149   1.083   2.039
  426SOL     OW 2176   4.618   2.635   3.940
  426SOL    HW1 2177   4.574   2.583   3.867
  426SOL    HW2 2178   4.641   2.726   3.907
  427SOL     OW 2179   5.316   5.357   2.862
  427SOL    HW1 2180   5.324   5.353   2.962
  427SOL    HW2 2181   5.343   5.270   2.823
  428SOL     OW 2182   4.236   0.595   4.576
  428SOL    HW1 2183   4.295   0.514   4.580
  428SOL    HW2 2184   4.245   0.647   4.661
  429SOL     OW 2185   2.881   3.738   1.147
  429SOL    HW1 2186   2.899   3.731   1.245
  429SOL    HW2 2187   2.841   3.828   1.127
  430SOL     OW 2188   0.094   0.093   3.882
  430SOL    HW1 2189   0.070   7.014   3.874
  430SOL    HW2 2190   0.127   0.112   3.974
  431SOL     OW 2191   3.976   6.704   0.650
  431SOL    HW1 2192   4.041   6.629   0.635
  431SOL    HW2 2193   3.967   6.757   0.566
  432SOL     OW 2194   6.612   1.741   1.489
  432SOL    HW1 2195   6.665   1.704   1.566
  432SOL    HW2 2196   6.616   1.676   1.413
  433SOL     OW 2197   3.482   6.237   4.450
  433SOL    HW1 2198   3.483   6.296   4.370
  433SOL    HW2 2199   3.442   6.148   4.426
  434SOL     OW 2200   3.726   5.810   1.903
  434SOL    HW1 2201   3.694   5.872   1.974
  434SOL    HW2 2202   3.687   5.719   1.917
  435SOL     OW 2203   5.068   2.243   5.439
  435SOL    HW1 2204   5.024   2.267   5.525
  435SOL    HW2 2205   5.141   2.177   5.456
  436SOL     OW 2206   3.228   5.948   0.806
  436SOL    HW1 2207   3.138   5.957   0.763
  436SOL    HW2 2208   3.246   6.028   0.863
  437SOL     OW 2209   1.005   0.128   6.544
  437SOL    HW1 2210   1.003   0.227   6.536
  437SOL    HW2 2211   1.092   0.099   6.583
  438SOL     OW 2212   2.190   3.034   2.248
  438SOL    HW1 2213   2.227   2.953   2.201
  438SOL    HW2 2214   2.259   3.107   2.248
  439SOL     OW 2215   5.823   4.538   3.367
  439SOL    HW1 2216   5.755   4.589   3.419
  439SOL    HW2 2217   5.892   4.501   3.429
  440SOL     OW 2218   1.290   1.359   5.201
  440SOL    HW1 2219   1.344   1.415   5.263
  440SOL    HW2 2220   1.240   1.290   5.253
  441SOL     OW 2221   1.350   2.655   3.896
  441SOL    HW1 2222   1.298   2.716   3.836
  441SOL    HW2 2223   1.293   2.630   3.975
  442SOL     OW 2224   2.695   5.043   6.530
  442SOL    HW1 2225   2.780   4.993   6.548
  442SOL    HW2 2226   2.658   5.078   6.616
  443SOL     OW 2227   6.656   4.385   4.299
  443SOL    HW1 2228   6.738   4.384   4.242
  443SOL    HW2 2229   6.659   4.464   4.360
  444SOL     OW 2230   5.422   2.058   5.925
  444SOL    HW1 2231   5.325   2.037   5.928
  444SOL    HW2 2232   5.464   2.036   6.013
  445SOL     OW 2233   1.228   5.242   3.084
  445SOL    HW1 2234   1.134   5.233   3.052
  445SOL    HW2 2235   1.267   5.328   3.049
  446SOL     OW 2236   4.147   4.729   3.629
  446SOL    HW1 2237   4.221   4.704   3.566
  446SOL    HW2 2238   4.170   4.700   3.722
  447SOL     OW 2239   0.501   2.641   6.494
  447SOL    HW1 2240   0.482   2.688   6.407
  447SOL    HW2 2241   0.481   2.703   6.570
  448SOL     OW 2242   3.233   0.853   4.367
  448SOL    HW1 2243   3.136   0.865   4.389
  448SOL    HW2 2244   3.285   0.931   4.402
  449SOL     OW 2245   4.583   0.944   4.508
  449SOL    HW1 2246   4.632   0.943   4.421
  449SOL    HW2 2247   4.493   0.902   4.497
  450SOL     OW 2248   1.225   5.782   3.798
  450SOL    HW1 2249   1.235   5.794   3.699
  450SOL    HW2 2250   1.308   5.740   3.835
  451SOL     OW 2251   1.984   1.900   3.864
  451SOL    HW1 2252   2.045   1.978   3.881
  451SOL    HW2 2253   1.948   1.906   3.771
  452SOL     OW 2254   6.349   6.532   1.388
  452SOL    HW1 2255   6.379   6.558   1.297
  452SOL    HW2 2256   6.299   6.607   1.430
  453SOL     OW 2257   3.948   1.054   5.123
  453SOL    HW1 2258   4.004   0.987   5.170
  453SOL    HW2 2259   3.998   1.091   5.045
  454SOL     OW 2260   6.708   4.833   6.202
  454SOL    HW1 2261   6.618   4.790   6.211
  454SOL    HW2 2262   6.730   4.846   6.105
  455SOL     OW 2263   5.992   2.843   3.068
  455SOL    HW1 2264   6.056   2.777   3.108
  455SOL    HW2 2265   5.916   2.859   3.132
  456SOL     OW 2266   5.433   6.535   4.030
  456SOL    HW1 2267   5.469   6.599   4.097
  456SOL    HW2 2268   5.359   6.481   4.071
  457SOL     OW 2269   1.694   3.746   3.810
  457SOL    HW1 2270   1.700   3.756   3.710
  457SOL    HW2 2271   1.772   3.789   3.853
  458SOL     OW 2272   4.141   5.567   3.590
  458SOL    HW1 2273   4.056   5.618   3.578
  458SOL    HW2 2274   4.152   5.502   3.515
  459SOL     OW 2275   1.708   0.078   5.407
  459SOL    HW1 2276   1.790   0.094   5.353
  459SOL    HW2 2277   1.715   0.125   5.495
  460SOL     OW 2278   1.592   0.248   3.766
  460SOL    HW1 2279   1.665   0.290   3.712
  460SOL    HW2 2280   1.633   0.190   3.837
  461SOL     OW 2281   5.721   6.799   5.673
  461SOL    HW1 2282   5.778   6.881   5.669
  461SOL    HW2 2283   5.748   6.743   5.752
  462SOL     OW 2284   3.534   2.671   6.156
  462SOL    HW1 2285   3.448   2.679   6.205
  462SOL    HW2 2286   3.519   2.691   6.059
  463SOL     OW 2287   6.608   5.657   3.106
  463SOL    HW1 2288   6.530   5.689   3.160
  463SOL    HW2 2289   6.646   5.733   3.054
  464SOL     OW 2290   2.066   2.682   5.613
  464SOL    HW1 2291   2.027   2.736   5.539
  464SOL    HW2 2292   2.022   2.705   5.700
  465SOL     OW 2293   0.809   2.687   5.246
  465SOL    HW1 2294   0.864   2.614   5.287
  465SOL    HW2 2295   0.716   2.683   5.283
  466SOL     OW 2296   1.236   5.773   3.251
  466SOL    HW1 2297   1.183   5.704   3.203
  466SOL    HW2 2298   1.331   5.771   3.220
  467SOL     OW 2299   1.773   1.305   0.537
  467SOL    HW1 2300   1.822   1.376   0.487
  467SOL    HW2 2301   1.696   1.345   0.586
  468SOL     OW 2302   3.868   6.629   0.264
  468SOL    HW1 2303   3.883   6.626   0.362
  468SOL    HW2 2304   3.823   6.715   0.239
  469SOL     OW 2305   2.979   3.930   0.222
  469SOL    HW1 2306   2.931   3.863   0.164
  469SOL    HW2 2307   3.064   3.957   0.177
  470SOL     OW 2308   4.103   0.180   2.028
  470SOL    HW1 2309   4.149   0.240   1.963
  470SOL    HW2 2310   4.100   0.087   1.992
  471SOL     OW 2311   2.166   2.117   3.895
  471SOL    HW1 2312   2.181   2.176   3.816
  471SOL    HW2 2313   2.182   2.168   3.979
  472SOL     OW 2314   5.510   3.588   6.801
  472SOL    HW1 2315   5.577   3.661   6.801
  472SOL    HW2 2316   5.467   3.583   6.710
  473SOL     OW 2317   1.222   3.185   2.646
  473SOL    HW1 2318   1.206   3.151   2.554
  473SOL    HW2 2319   1.295   3.254   2.645
  474SOL     OW 2320   5.393   5.516   4.210
  474SOL    HW1 2321   5.436   5.554   4.128
  474SOL    HW2 2322   5.455   5.452   4.254
  475SOL     OW 2323   5.719   0.609   6.573
  475SOL    HW1 2324   5.815   0.630   6.591
  475SOL    HW2 2325   5.665   0.692   6.581
  476SOL     OW 2326   6.625   3.657   3.208
  476SOL    HW1 2327   6.675   3.641   3.293
  476SOL    HW2 2328   6.624   3.755   3.188
  477SOL     OW 2329   1.905   4.844   3.839
  477SOL    HW1 2330   1.964   4.922   3.861
  477SOL    HW2 2331   1.848   4.822   3.918
  478SOL     OW 2332   3.283   0.099   1.641
  478SOL    HW1 2333   3.334   0.073   1.723
  478SOL    HW2 2334   3.186   0.109   1.665
  479SOL     OW 2335   4.043   2.217   6.000
  479SOL    HW1 2336   4.033   2.315   5.987
  479SOL    HW2 2337   4.132   2.197   6.041
  480SOL     OW 2338   2.386   1.444   0.231
  480SOL    HW1 2339   2.378   1.468   0.134
  480SOL    HW2 2340   2.436   1.358   0.240
  481SOL     OW 2341   1.842   0.183   0.384
  481SOL    HW1 2342   1.939   0.186   0.411
  481SOL    HW2 2343   1.788   0.237   0.449
  482SOL     OW 2344   4.355   4.960   3.176
  482SOL    HW1 2345   4.347   5.015   3.259
  482SOL    HW2 2346   4.444   4.915   3.173
  483SOL     OW 2347   6.622   1.107   1.991
  483SOL    HW1 2348   6.563   1.170   2.041
  483SOL    HW2 2349   6.660   1.039   2.054
  484SOL     OW 2350   1.537   3.338   5.001
  484SOL    HW1 2351   1.557   3.415   4.941
  484SOL    HW2 2352   1.611   3.328   5.068
  485SOL     OW 2353   4.010   5.141   2.730
  485SOL    HW1 2354   4.046   5.165   2.820
  485SOL    HW2 2355   4.084   5.109   2.672
  486SOL     OW 2356   6.774   1.854   0.305
  486SOL    HW1 2357   6.845   1.902   0.254
  486SOL    HW2 2358   6.752   1.905   0.388
  487SOL     OW 2359   1.353   0.558   1.044
  487SOL    HW1 2360   1.445   0.598   1.049
  487SOL    HW2 2361   1.310   0.583   0.957
  488SOL     OW 2362   0.512   1.278   2.436
  488SOL    HW1 2363   0.458   1.322   2.509
  488SOL    HW2 2364   0.580   1.343   2.402
  489SOL     OW 2365   3.179   6.442   6.197
  489SOL    HW1 2366   3.237   6.360   6.194
  489SOL    HW2 2367   3.089   6.420   6.158
  490SOL     OW 2368   6.370   5.595   3.368
  490SOL    HW1 2369   6.274   5.622   3.365
  490SOL    HW2 2370   6.416   5.644   3.443
  491SOL     OW 2371   0.619   3.386   2.728
  491SOL    HW1 2372   0.562   3.392   2.810
  491SOL    HW2 2373   0.577   3.323   2.663
  492SOL     OW 2374   2.137   0.731   5.921
  492SOL    HW1 2375   2.137   0.764   5.826
  492SOL    HW2 2376   2.188   0.796   5.978
  493SOL     OW 2377   4.988   5.983   5.081
  493SOL    HW1 2378   4.944   6.071   5.102
  493SOL    HW2 2379   5.073   5.976   5.133
  494SOL     OW 2380   0.104   0.621   0.037
  494SOL    HW1 2381   0.162   0.595   0.114
  494SOL    HW2 2382   0.147   0.591   6.970
  495SOL     OW 2383   4.931   5.965   3.595
  495SOL    HW1 2384   4.951   5.952   3.498
  495SOL    HW2 2385   5.012   5.942   3.649
  496SOL     OW 2386   5.218   3.868   1.600
  496SOL    HW1 2387   5.300   3.864   1.657
  496SOL    HW2 2388   5.162   3.788   1.616
  497SOL     OW 2389   3.414   1.249   4.398
  497SOL    HW1 2390   3.439   1.306   4.477
  497SOL    HW2 2391   3.412   1.153   4.426
  498SOL     OW 2392   2.066   3.832   1.534
  498SOL    HW1 2393   2.115   3.772   1.470
  498SOL    HW2 2394   1.995   3.780   1.581
  499SOL     OW 2395   2.680   6.954   4.259
  499SOL    HW1 2396   2.768   6.970   4.215
  499SOL    HW2 2397   2.685   6.872   4.315
  500SOL     OW 2398   0.246   3.540   4.620
  500SOL    HW1 2399   0.269   3.476   4.546
  500SOL    HW2 2400   0.275   3.632   4.594
  501SOL     OW 2401   2.871   5.737   0.678
  501SOL    HW1 2402   2.892   5.724   0.581
  501SOL    HW2 2403   2.775   5.763   0.687
  502SOL     OW 2404   6.971   3.975   0.388
  502SOL    HW1 2405   6.993   3.978   0.291
  502SOL    HW2 2406   6.871   3.976   0.400
  503SOL     OW 2407   6.442   5.531   6.504
  503SOL    HW1 2408   6.431   5.447   6.556
  503SOL    HW2 2409   6.518   5.584   6.543
  504SOL     OW 2410   1.627   5.736   2.860
  504SOL    HW1 2411   1.569   5.740   2.942
  504SOL    HW2 2412   1.572   5.756   2.779
  505SOL     OW 2413   2.797   6.429   5.080
  505SOL    HW1 2414   2.760   6.518   5.108
  505SOL    HW2 2415   2.722   6.370   5.051
  506SOL     OW 2416   1.701   5.202   4.917
  506SOL    HW1 2417   1.782   5.236   4.965
  506SOL    HW2 2418   1.619   5.238   4.963
  507SOL     OW 2419   3.441   6.611   3.255
  507SOL    HW1 2420   3.474   6.706   3.258
  507SOL    HW2 2421   3.513   6.552   3.219
  508SOL     OW 2422   0.001   3.777   2.136
  508SOL    HW1 2423   0.012   3.681   2.112
  508SOL    HW2 2424   0.020   3.789   2.234
  509SOL     OW 2425   3.068   0.850   1.516
  509SOL    HW1 2426   3.162   0.824   1.538
  509SOL    HW2 2427   3.004   0.795   1.570
  510SOL     OW 2428   5.845   4.645   0.154
  510SOL    HW1 2429   5.830   4.549   0.133
  510SOL    HW2 2430   5.847   4.697   0.068
  511SOL     OW 2431   0.818   1.065   5.763
  511SOL    HW1 2432   0.724   1.090   5.784
  511SOL    HW2 2433   0.845   0.986   5.817
  512SOL     OW 2434   6.461   2.526   6.895
  512SOL    HW1 2435   6.364   2.547   6.896
  512SOL    HW2 2436   6.508   2.581   6.964
  513SOL     OW 2437   6.275   6.315   3.358
  513SOL    HW1 2438   6.307   6.406   3.384
  513SOL    HW2 2439   6.177   6.308   3.374
  514SOL     OW 2440   6.463   2.520   3.861
  514SOL    HW1 2441   6.386   2.522   3.798
  514SOL    HW2 2442   6.431   2.539   3.954
  515SOL     OW 2443   1.551   0.806   6.792
  515SOL    HW1 2444   1.521   0.887   6.741
  515SOL    HW2 2445   1.630   0.831   6.849
  516SOL     OW 2446   2.491   4.911   1.704
  516SOL    HW1 2447   2.561   4.840   1.692
  516SOL    HW2 2448   2.464   4.914   1.801
  517SOL     OW 2449   4.791   5.389   2.486
  517SOL    HW1 2450   4.818   5.293   2.482
  517SOL    HW2 2451   4.708   5.399   2.540
  518SOL     OW 2452   2.561   2.489   2.851
  518SOL    HW1 2453   2.523   2.455   2.765
  518SOL    HW2 2454   2.647   2.441   2.871
  519SOL     OW 2455   0.766   0.794   4.664
  519SOL    HW1 2456   0.771   0.817   4.567
  519SOL    HW2 2457   0.806   0.868   4.718
  520SOL     OW 2458   6.143   4.467   0.005
  520SOL    HW1 2459   6.160   4.518   6.939
  520SOL    HW2 2460   6.184   4.516   0.082
  521SOL     OW 2461   6.585   3.722   5.170
  521SOL    HW1 2462   6.556   3.753   5.261
  521SOL    HW2 2463   6.576   3.623   5.164
  522SOL     OW 2464   3.504   3.058   4.913
  522SOL    HW1 2465   3.476   3.080   4.820
  522SOL    HW2 2466   3.436   2.998   4.955
  523SOL     OW 2467   0.519   5.196   1.716
  523SOL    HW1 2468   0.529   5.293   1.739
  523SOL    HW2 2469   0.424   5.169   1.727
  524SOL     OW 2470   0.069   1.268   1.131
  524SOL    HW1 2471   0.087   1.173   1.159
  524SOL    HW2 2472   6.988   1.283   1.129
  525SOL     OW 2473   1.785   3.179   6.231
  525SOL    HW1 2474   1.814   3.215   6.319
  525SOL    HW2 2475   1.855   3.198   6.162
  526SOL     OW 2476   4.435   6.022   4.473
  526SOL    HW1 2477   4.496   5.945   4.495
  526SOL    HW2 2478   4.353   5.988   4.428
  527SOL     OW 2479   6.605   2.707   0.033
  527SOL    HW1 2480   6.632   2.651   0.111
  527SOL    HW2 2481   6.686   2.746   7.009
  528SOL     OW 2482   1.267   1.607   3.326
  528SOL    HW1 2483   1.278   1.535   3.395
  528SOL    HW2 2484   1.336   1.594   3.254
  529SOL     OW 2485   1.437   6.672   3.838
  529SOL    HW1 2486   1.433   6.633   3.746
  529SOL    HW2 2487   1.346   6.667   3.880
  530SOL     OW 2488   3.485   3.019   4.617
  530SOL    HW1 2489   3.573   2.970   4.616
  530SOL    HW2 2490   3.499   3.112   4.582
  531SOL     OW 2491   0.593   0.703   2.802
  531SOL    HW1 2492   0.678   0.701   2.854
  531SOL    HW2 2493   0.607   0.657   2.714
  532SOL     OW 2494   1.402   2.446   7.005
  532SOL    HW1 2495   1.380   2.349   7.011
  532SOL    HW2 2496   1.337   2.498   0.043
  533SOL     OW 2497   4.555   0.295   3.784
  533SOL    HW1 2498   4.640   0.242   3.780
  533SOL    HW2 2499   4.563   0.376   3.726
  534SOL     OW 2500   5.131   5.947   2.678
  534SOL    HW1 2501   5.221   5.905   2.665
  534SOL    HW2 2502   5.142   6.047   2.682
  535SOL     OW 2503   0.849   3.816   4.669
  535SOL    HW1 2504   0.753   3.820   4.696
  535SOL    HW2 2505   0.881   3.721   4.675
  536SOL     OW 2506   6.840   5.326   1.709
  536SOL    HW1 2507   6.816   5.238   1.749
  536SOL    HW2 2508   6.765   5.391   1.723
  537SOL     OW 2509   1.984   6.529   3.875
  537SOL    HW1 2510   1.984   6.592   3.953
  537SOL    HW2 2511   2.003   6.436   3.907
  538SOL     OW 2512   1.251   4.127   2.456
  538SOL    HW1 2513   1.343   4.153   2.426
  538SOL    HW2 2514   1.184   4.193   2.421
  539SOL     OW 2515   1.155   6.725   0.750
  539SOL    HW1 2516   1.152   6.818   0.786
  539SOL    HW2 2517   1.237   6.714   0.693
  540SOL     OW 2518   0.903   0.448   2.755
  540SOL    HW1 2519   0.947   0.491   2.676
  540SOL    HW2 2520   0.814   0.411   2.728
  541SOL     OW 2521   4.139   6.174   4.245
  541SOL    HW1 2522   4.160   6.270   4.261
  541SOL    HW2 2523   4.092   6.164   4.157
  542SOL     OW 2524   6.514   0.395   0.196
  542SOL    HW1 2525   6.529   0.476   0.138
  542SOL    HW2 2526   6.505   0.314   0.138
  543SOL     OW 2527   1.645   4.408   5.812
  543SOL    HW1 2528   1.685   4.462   5.737
  543SOL    HW2 2529   1.614   4.320   5.777
  544SOL     OW 2530   2.772   4.000   0.372
  544SOL    HW1 2531   2.859   3.974   0.330
  544SOL    HW2 2532   2.697   3.956   0.323
  545SOL     OW 2533   2.530   0.431   2.928
  545SOL    HW1 2534   2.568   0.500   2.866
  545SOL    HW2 2535   2.470   0.370   2.877
  546SOL     OW 2536   1.802   3.089   0.935
  546SOL    HW1 2537   1.881   3.136   0.973
  546SOL    HW2 2538   1.780   3.125   0.845
  547SOL     OW 2539   3.197   1.461   7.011
  547SOL    HW1 2540   3.273   1.470   6.947
  547SOL    HW2 2541   3.188   1.365   0.020
  548SOL     OW 2542   3.851   2.969   2.656
  548SOL    HW1 2543   3.754   2.992   2.652
  548SOL    HW2 2544   3.864   2.874   2.625
  549SOL     OW 2545   4.719   3.493   1.305
  549SOL    HW1 2546   4.653   3.566   1.323
  549SOL    HW2 2547   4.772   3.517   1.223
  550SOL     OW 2548   5.999   4.399   3.528
  550SOL    HW1 2549   6.049   4.332   3.473
  550SOL    HW2 2550   6.058   4.478   3.545
  551SOL     OW 2551   1.043   0.664   1.454
  551SOL    HW1 2552   1.052   0.634   1.360
  551SOL    HW2 2553   1.123   0.718   1.480
  552SOL     OW 2554   4.823   4.507   6.796
  552SOL    HW1 2555   4.743   4.534   6.743
  552SOL    HW2 2556   4.902   4.561   6.767
  553SOL     OW 2557   1.908   6.644   2.244
  553SOL    HW1 2558   1.914   6.671   2.340
  553SOL    HW2 2559   1.820   6.597   2.229
  554SOL     OW 2560   5.536   7.007   5.450
  554SOL    HW1 2561   5.624   7.009   5.402
  554SOL    HW2 2562   5.521   6.916   5.490
  555SOL     OW 2563   2.234   5.419   2.727
  555SOL    HW1 2564   2.145   5.456   2.699
  555SOL    HW2 2565   2.238   5.321   2.707
  556SOL     OW 2566   5.091   2.493   3.450
  556SOL    HW1 2567   5.040   2.528   3.529
  556SOL    HW2 2568   5.140   2.569   3.406
  557SOL     OW 2569   0.593   4.660   0.213
  557SOL    HW1 2570   0.622   4.568   0.185
  557SOL    HW2 2571   0.669   4.707   0.257
  558SOL     OW 2572   2.923   3.335   4.502
  558SOL    HW1 2573   2.903   3.242   4.470
  558SOL    HW2 2574   2.989   3.331   4.577
  559SOL     OW 2575   6.543   5.761   6.630
  559SOL    HW1 2576   6.597   5.839   6.664
  559SOL    HW2 2577   6.455   5.758   6.678
  560SOL     OW 2578   4.334   5.630   0.490
  560SOL    HW1 2579   4.290   5.587   0.412
  560SOL    HW2 2580   4.369   5.560   0.552
  561SOL     OW 2581   6.127   0.979   0.369
  561SOL    HW1 2582   6.108   0.908   0.301
  561SOL    HW2 2583   6.194   1.043   0.332
  562SOL     OW 2584   5.152   0.489   5.904
  562SOL    HW1 2585   5.210   0.422   5.858
  562SOL    HW2 2586   5.190   0.510   5.994
  563SOL     OW 2587   1.946   0.341   3.125
  563SOL    HW1 2588   1.959   0.242   3.125
  563SOL    HW2 2589   1.865   0.364   3.179
  564SOL     OW 2590   2.833   1.942   6.690
  564SOL    HW1 2591   2.769   1.866   6.698
  564SOL    HW2 2592   2.797   2.011   6.628
  565SOL     OW 2593   3.893   3.166   5.748
  565SOL    HW1 2594   3.883   3.100   5.822
  565SOL    HW2 2595   3.860   3.124   5.663
  566SOL     OW 2596   5.932   4.258   4.494
  566SOL    HW1 2597   5.886   4.228   4.578
  566SOL    HW2 2598   5.997   4.331   4.516
  567SOL     OW 2599   3.646   3.941   2.505
  567SOL    HW1 2600   3.721   3.963   2.443
  567SOL    HW2 2601   3.585   4.019   2.513
  568SOL     OW 2602   3.726   2.308   0.283
  568SOL    HW1 2603   3.775   2.376   0.228
  568SOL    HW2 2604   3.707   2.346   0.373
  569SOL     OW 2605   1.517   3.271   6.719
  569SOL    HW1 2606   1.577   3.215   6.662
  569SOL    HW2 2607   1.564   3.295   6.804
  570SOL     OW 2608   2.227   6.108   6.642
  570SOL    HW1 2609   2.298   6.074   6.581
  570SOL    HW2 2610   2.195   6.197   6.609
  571SOL     OW 2611   2.898   0.153   2.758
  571SOL    HW1 2612   2.803   0.152   2.728
  571SOL    HW2 2613   2.905   0.204   2.844
  572SOL     OW 2614   2.290   4.768   6.079
  572SOL    HW1 2615   2.369   4.707   6.065
  572SOL    HW2 2616   2.256   4.799   5.990
  573SOL     OW 2617   5.021   1.275   5.223
  573SOL    HW1 2618   4.997   1.208   5.293
  573SOL    HW2 2619   4.947   1.342   5.214
  574SOL     OW 2620   2.923   2.202   3.723
  574SOL    HW1 2621   2.968   2.211   3.634
  574SOL    HW2 2622   2.913   2.105   3.746
  575SOL     OW 2623   5.884   2.983   0.326
  575SOL    HW1 2624   5.898   2.945   0.417
  575SOL    HW2 2625   5.952   3.054   0.308
  576SOL     OW 2626   0.922   2.125   2.653
  576SOL    HW1 2627   0.876   2.154   2.738
  576SOL    HW2 2628   0.976   2.201   2.617
  577SOL     OW 2629   2.018   1.159   3.424
  577SOL    HW1 2630   1.952   1.138   3.352
  577SOL    HW2 2631   2.091   1.218   3.388
  578SOL     OW 2632   6.657   4.647   3.179
  578SOL    HW1 2633   6.713   4.646   3.096
  578SOL    HW2 2634   6.633   4.553   3.204
  579SOL     OW 2635   2.164   3.364   1.516
  579SOL    HW1 2636   2.232   3.330   1.451
  579SOL    HW2 2637   2.086   3.401   1.466
  580SOL     OW 2638   0.343   4.715   6.739
  580SOL    HW1 2639   0.397   4.670   6.667
  580SOL    HW2 2640   0.388   4.701   6.827
  581SOL     OW 2641   3.248   3.609   1.984
  581SOL    HW1 2642   3.284   3.522   2.017
  581SOL    HW2 2643   3.156   3.623   2.020
  582SOL     OW 2644   5.867   4.914   2.462
  582SOL    HW1 2645   5.908   4.916   2.553
  582SOL    HW2 2646   5.851   4.819   2.435
  583SOL     OW 2647   2.436   5.569   6.349
  583SOL    HW1 2648   2.340   5.594   6.349
  583SOL    HW2 2649   2.471   5.572   6.255
  584SOL     OW 2650   1.481   4.274   6.172
  584SOL    HW1 2651   1.561   4.235   6.218
  584SOL    HW2 2652   1.476   4.372   6.191
  585SOL     OW 2653   5.859   2.918   6.111
  585SOL    HW1 2654   5.877   2.826   6.078
  585SOL    HW2 2655   5.908   2.984   6.055
  586SOL     OW 2656   3.382   0.639   6.225
  586SOL    HW1 2657   3.288   0.613   6.248
  586SOL    HW2 2658   3.382   0.684   6.136
  587SOL     OW 2659   2.663   2.317   4.816
  587SOL    HW1 2660   2.605   2.382   4.864
  587SOL    HW2 2661   2.627   2.224   4.828
  588SOL     OW 2662   2.136   5.065   0.888
  588SOL    HW1 2663   2.082   4.987   0.919
  588SOL    HW2 2664   2.184   5.105   0.965
  589SOL     OW 2665   3.583   5.127   1.560
  589SOL    HW1 2666   3.521   5.155   1.634
  589SOL    HW2 2667   3.550   5.164   1.474
  590SOL     OW 2668   5.935   2.869   1.568
  590SOL    HW1 2669   5.873   2.823   1.632
  590SOL    HW2 2670   5.908   2.965   1.559
  591SOL     OW 2671   4.128   5.961   3.644
  591SOL    HW1 2672   4.198   5.943   3.712
  591SOL    HW2 2673   4.162   5.935   3.553
  592SOL     OW 2674   3.859   0.484   1.388
  592SOL    HW1 2675   3.896   0.445   1.304
  592SOL    HW2 2676   3.771   0.442   1.409
  593SOL     OW 2677   4.731   2.317   3.757
  593SOL    HW1 2678   4.824   2.284   3.770
  593SOL    HW2 2679   4.699   2.291   3.666
  594SOL     OW 2680   4.567   1.953   6.524
  594SOL    HW1 2681   4.511   1.911   6.453
  594SOL    HW2 2682   4.515   2.025   6.569
  595SOL     OW 2683   5.500   0.233   3.640
  595SOL    HW1 2684   5.586   0.240   3.690
  595SOL    HW2 2685   5.518   0.241   3.542
  596SOL     OW 2686   1.383   3.970   2.187
  596SOL    HW1 2687   1.287   3.978   2.214
  596SOL    HW2 2688   1.414   4.054   2.142
  597SOL     OW 2689   4.177   6.817   5.709
  597SOL    HW1 2690   4.203   6.722   5.690
  597SOL    HW2 2691   4.106   6.817   5.780
  598SOL     OW 2692   3.444   3.782   6.786
  598SOL    HW1 2693   3.509   3.828   6.725
  598SOL    HW2 2694   3.461   3.810   6.881
  599SOL     OW 2695   2.288   6.419   3.027
  599SOL    HW1 2696   2.338   6.367   2.958
  599SOL    HW2 2697   2.352   6.477   3.078
  600SOL     OW 2698   1.014   0.860   1.034
  600SOL    HW1 2699   0.976   0.952   1.026
  600SOL    HW2 2700   0.947   0.800   1.077
  601SOL     OW 2701   3.390   6.596   4.328
  601SOL    HW1 2702   3.431   6.521   4.276
  601SOL    HW2 2703   3.388   6.572   4.425
  602SOL     OW 2704   1.297   2.811   0.460
  602SOL    HW1 2705   1.272   2.905   0.440
  602SOL    HW2 2706   1.371   2.782   0.400
  603SOL     OW 2707   4.194   1.668   3.558
  603SOL    HW1 2708   4.280   1.647   3.513
  603SOL    HW2 2709   4.123   1.684   3.489
  604SOL     OW 2710   0.626   3.684   1.499
  604SOL    HW1 2711   0.594   3.660   1.590
  604SOL    HW2 2712   0.595   3.777   1.476
  605SOL     OW 2713   6.840   5.566   3.195
  605SOL    HW1 2714   6.757   5.612   3.164
  605SOL    HW2 2715   6.908   5.634   3.221
  606SOL     OW 2716   5.039   0.243   6.002
  606SOL    HW1 2717   5.054   0.145   5.985
  606SOL    HW2 2718   4.966   0.254   6.069
  607SOL     OW 2719   5.091   0.661   5.708
  607SOL    HW1 2720   5.085   0.759   5.724
  607SOL    HW2 2721   5.126   0.615   5.790
  608SOL     OW 2722   4.149   6.215   6.980
  608SOL    HW1 2723   4.158   6.313   6.961
  608SOL    HW2 2724   4.103   6.202   0.050
  609SOL     OW 2725   3.374   3.275   3.689
  609SOL    HW1 2726   3.370   3.186   3.735
  609SOL    HW2 2727   3.386   3.261   3.591
  610SOL     OW 2728   5.350   2.374   2.163
  610SOL    HW1 2729   5.351   2.416   2.254
  610SOL    HW2 2730   5.440   2.338   2.142
  611SOL     OW 2731   1.618   0.158   6.326
  611SOL    HW1 2732   1.670   0.233   6.367
  611SOL    HW2 2733   1.606   0.175   6.228
  612SOL     OW 2734   3.867   6.064   5.847
  612SOL    HW1 2735   3.855   6.101   5.940
  612SOL    HW2 2736   3.869   5.965   5.851
  613SOL     OW 2737   4.040   6.506   5.350
  613SOL    HW1 2738   3.997   6.572   5.411
  613SOL    HW2 2739   4.003   6.415   5.368
  614SOL     OW 2740   5.852   4.106   1.020
  614SOL    HW1 2741   5.832   4.036   0.951
  614SOL    HW2 2742   5.951   4.120   1.025
  615SOL     OW 2743   0.704   1.708   0.873
  615SOL    HW1 2744   0.741   1.651   0.946
  615SOL    HW2 2745   0.738   1.675   0.785
  616SOL     OW 2746   6.332   1.741   2.820
  616SOL    HW1 2747   6.425   1.742   2.783
  616SOL    HW2 2748   6.267   1.755   2.745
  617SOL     OW 2749   6.960   3.488   6.781
  617SOL    HW1 2750   6.932   3.574   6.739
  617SOL    HW2 2751   6.911   3.412   6.738
  618SOL     OW 2752   6.773   3.288   0.554
  618SOL    HW1 2753   6.736   3.380   0.561
  618SOL    HW2 2754   6.872   3.292   0.538
  619SOL     OW 2755   4.107   6.820   6.870
  619SOL    HW1 2756   4.206   6.832   6.874
  619SOL    HW2 2757   4.062   6.909   6.863
  620SOL     OW 2758   5.820   2.697   0.981
  620SOL    HW1 2759   5.823   2.790   1.016
  620SOL    HW2 2760   5.890   2.685   0.911
  621SOL     OW 2761   1.531   0.371   5.410
  621SOL    HW1 2762   1.539   0.376   5.510
  621SOL    HW2 2763   1.458   0.307   5.386
  622SOL     OW 2764   0.593   1.651   5.018
  622SOL    HW1 2765   0.646   1.652   4.934
  622SOL    HW2 2766   0.643   1.699   5.090
  623SOL     OW 2767   0.283   6.567   5.436
  623SOL    HW1 2768   0.216   6.494   5.440
  623SOL    HW2 2769   0.257   6.641   5.498
  624SOL     OW 2770   6.329   0.830   0.729
  624SOL    HW1 2771   6.372   0.818   0.818
  624SOL    HW2 2772   6.244   0.777   0.725
  625SOL     OW 2773   1.723   2.357   1.164
  625SOL    HW1 2774   1.750   2.446   1.127
  625SOL    HW2 2775   1.639   2.367   1.216
  626SOL     OW 2776   0.465   6.052   2.737
  626SOL    HW1 2777   0.463   5.982   2.809
  626SOL    HW2 2778   0.371   6.079   2.715
  627SOL     OW 2779   6.431   6.357   0.708
  627SOL    HW1 2780   6.449   6.362   0.807
  627SOL    HW2 2781   6.439   6.263   0.677
  628SOL     OW 2782   5.725   3.916   5.253
  628SOL    HW1 2783   5.722   3.905   5.154
  628SOL    HW2 2784   5.647   3.870   5.295
  629SOL     OW 2785   0.723   1.256   6.764
  629SOL    HW1 2786   0.811   1.302   6.775
  629SOL    HW2 2787   0.726   1.167   6.809
  630SOL     OW 2788   0.396   2.323   0.782
  630SOL    HW1 2789   0.451   2.250   0.821
  630SOL    HW2 2790   0.451   2.372   0.713
  631SOL     OW 2791   3.990   1.662   4.728
  631SOL    HW1 2792   3.989   1.719   4.646
  631SOL    HW2 2793   4.084   1.643   4.754
  632SOL     OW 2794   4.940   2.353   0.492
  632SOL    HW1 2795   4.841   2.341   0.498
  632SOL    HW2 2796   4.975   2.378   0.582
  633SOL     OW 2797   3.475   4.427   6.886
  633SOL    HW1 2798   3.469   4.520   6.849
  633SOL    HW2 2799   3.388   4.403   6.928
  634SOL     OW 2800   3.459   3.774   2.625
  634SOL    HW1 2801   3.497   3.833   2.554
  634SOL    HW2 2802   3.478   3.679   2.603
  635SOL     OW 2803   4.744   6.369   0.155
  635SOL    HW1 2804   4.802   6.420   0.092
  635SOL    HW2 2805   4.755   6.405   0.248
  636SOL     OW 2806   2.813   6.876   5.980
  636SOL    HW1 2807   2.859   6.962   6.002
  636SOL    HW2 2808   2.716   6.894   5.964
  637SOL     OW 2809   6.932   2.876   2.653
  637SOL    HW1 2810   6.991   2.926   2.589
  637SOL    HW2 2811   6.914   2.785   2.617
  638SOL     OW 2812   5.860   3.661   3.598
  638SOL    HW1 2813   5.803   3.616   3.666
  638SOL    HW2 2814   5.948   3.685   3.639
  639SOL     OW 2815   4.892   4.292   2.822
  639SOL    HW1 2816   4.827   4.223   2.854
  639SOL    HW2 2817   4.842   4.375   2.797
  640SOL     OW 2818   6.853   4.696   2.970
  640SOL    HW1 2819   6.788   4.685   2.895
  640SOL    HW2 2820   6.945   4.704   2.933
  641SOL     OW 2821   0.855   4.654   4.836
  641SOL    HW1 2822   0.934   4.669   4.775
  641SOL    HW2 2823   0.828   4.558   4.830
  642SOL     OW 2824   1.356   2.928   4.481
  642SOL    HW1 2825   1.411   2.844   4.490
  642SOL    HW2 2826   1.325   2.958   4.571
  643SOL     OW 2827   6.273   0.680   6.723
  643SOL    HW1 2828   6.207   0.632   6.781
  643SOL    HW2 2829   6.231   0.764   6.688
  644SOL     OW 2830   1.199   0.273   4.842
  644SOL    HW1 2831   1.192   0.175   4.826
  644SOL    HW2 2832   1.157   0.295   4.930
  645SOL     OW 2833   3.325   6.013   4.418
  645SOL    HW1 2834   3.288   5.991   4.508
  645SOL    HW2 2835   3.265   6.078   4.371
  646SOL     OW 2836   3.475   0.431   4.861
  646SOL    HW1 2837   3.402   0.438   4.792
  646SOL    HW2 2838   3.436   0.448   4.952
  647SOL     OW 2839   5.762   2.020   4.558
  647SOL    HW1 2840   5.767   2.097   4.621
  647SOL    HW2 2841   5.846   1.966   4.563
  648SOL     OW 2842   6.689   4.277   3.584
  648SOL    HW1 2843   6.591   4.275   3.601
  648SOL    HW2 2844   6.734   4.339   3.648
  649SOL     OW 2845   2.423   3.692   0.581
  649SOL    HW1 2846   2.413   3.706   0.680
  649SOL    HW2 2847   2.474   3.607   0.565
  650SOL     OW 2848   6.498   4.907   0.583
  650SOL    HW1 2849   6.519   4.895   0.680
  650SOL    HW2 2850   6.428   4.841   0.557
  651SOL     OW 2851   1.453   0.720   5.977
  651SOL    HW1 2852   1.392   0.649   6.015
  651SOL    HW2 2853   1.403   0.773   5.908
  652SOL     OW 2854   4.706   6.914   2.722
  652SOL    HW1 2855   4.745   6.826   2.748
  652SOL    HW2 2856   4.779   6.979   2.703
  653SOL     OW 2857   0.327   6.308   0.190
  653SOL    HW1 2858   0.302   6.224   0.142
  653SOL    HW2 2859   0.250   6.372   0.188
  654SOL     OW 2860   0.437   6.460   6.215
  654SOL    HW1 2861   0.488   6.520   6.153
  654SOL    HW2 2862   0.501   6.412   6.275
  655SOL     OW 2863   6.259   5.480   1.695
  655SOL    HW1 2864   6.200   5.540   1.640
  655SOL    HW2 2865   6.288   5.529   1.777
  656SOL     OW 2866   2.101   6.254   0.462
  656SOL    HW1 2867   2.168   6.245   0.536
  656SOL    HW2 2868   2.023   6.308   0.494
  657SOL     OW 2869   2.913   4.308   0.947
  657SOL    HW1 2870   2.890   4.375   1.017
  657SOL    HW2 2871   2.989   4.251   0.979
  658SOL     OW 2872   1.517   3.978   5.241
  658SOL    HW1 2873   1.431   3.937   5.211
  658SOL    HW2 2874   1.567   4.012   5.162
  659SOL     OW 2875   2.569   6.315   4.707
  659SOL    HW1 2876   2.643   6.310   4.775
  659SOL    HW2 2877   2.493   6.256   4.737
  660SOL     OW 2878   4.682   4.520   2.817
  660SOL    HW1 2879   4.665   4.583   2.893
  660SOL    HW2 2880   4.646   4.559   2.732
  661SOL     OW 2881   4.861   3.857   4.569
  661SOL    HW1 2882   4.809   3.920   4.510
  661SOL    HW2 2883   4.840   3.763   4.544
  662SOL     OW 2884   4.356   0.780   5.808
  662SOL    HW1 2885   4.268   0.801   5.851
  662SOL    HW2 2886   4.392   0.862   5.763
  663SOL     OW 2887   0.435   4.298   0.378
  663SOL    HW1 2888   0.415   4.263   0.286
  663SOL    HW2 2889   0.374   4.255   0.444
  664SOL     OW 2890   1.680   5.681   6.646
  664SOL    HW1 2891   1.663   5.699   6.549
  664SOL    HW2 2892   1.644   5.590   6.669
  665SOL     OW 2893   4.322   5.205   0.793
  665SOL    HW1 2894   4.410   5.178   0.831
  665SOL    HW2 2895   4.261   5.232   0.868
  666SOL     OW 2896   4.474   2.495   1.180
  666SOL    HW1 2897   4.514   2.503   1.089
  666SOL    HW2 2898   4.385   2.450   1.174
  667SOL     OW 2899   6.529   3.917   4.245
  667SOL    HW1 2900   6.453   3.862   4.210
  667SOL    HW2 2901   6.601   3.923   4.175
  668SOL     OW 2902   5.034   5.573   6.755
  668SOL    HW1 2903   5.097   5.564   6.678
  668SOL    HW2 2904   4.988   5.661   6.750
  669SOL     OW 2905   3.015   5.844   3.043
  669SOL    HW1 2906   3.070   5.773   2.999
  669SOL    HW2 2907   3.070   5.890   3.114
  670SOL     OW 2908   3.133   2.827   1.784
  670SOL    HW1 2909   3.055   2.766   1.772
  670SOL    HW2 2910   3.147   2.846   1.881
  671SOL     OW 2911   2.445   6.047   0.004
  671SOL    HW1 2912   2.366   6.071   6.966
  671SOL    HW2 2913   2.424   5.965   0.058
  672SOL     OW 2914   0.589   4.250   1.963
  672SOL    HW1 2915   0.514   4.187   1.946
  672SOL    HW2 2916   0.599   4.313   1.886
  673SOL     OW 2917   5.232   0.086   1.109
  673SOL    HW1 2918   5.184   0.057   1.027
  673SOL    HW2 2919   5.217   0.183   1.124
  674SOL     OW 2920   6.452   3.194   4.359
  674SOL    HW1 2921   6.368   3.197   4.413
  674SOL    HW2 2922   6.468   3.283   4.318
  675SOL     OW 2923   0.254   0.959   5.219
  675SOL    HW1 2924   0.338   0.962   5.273
  675SOL    HW2 2925   0.272   0.912   5.132
  676SOL     OW 2926   2.970   4.930   3.263
  676SOL    HW1 2927   2.907   4.955   3.189
  676SOL    HW2 2928   3.062   4.962   3.241
  677SOL     OW 2929   5.720   1.191   5.977
  677SOL    HW1 2930   5.650   1.236   6.033
  677SOL    HW2 2931   5.725   1.237   5.888
  678SOL     OW 2932   1.458   1.480   5.400
  678SOL    HW1 2933   1.540   1.452   5.450
  678SOL    HW2 2934   1.475   1.568   5.355
  679SOL     OW 2935   4.788   1.509   4.233
  679SOL    HW1 2936   4.766   1.559   4.317
  679SOL    HW2 2937   4.882   1.528   4.206
  680SOL     OW 2938   5.614   5.350   6.173
  680SOL    HW1 2939   5.529   5.395   6.146
  680SOL    HW2 2940   5.594   5.257   6.204
  681SOL     OW 2941   6.371   0.296   1.000
  681SOL    HW1 2942   6.412   0.207   0.979
  681SOL    HW2 2943   6.412   0.366   0.942
  682SOL     OW 2944   1.764   6.660   6.904
  682SOL    HW1 2945   1.794   6.738   6.849
  682SOL    HW2 2946   1.687   6.615   6.859
  683SOL     OW 2947   3.635   0.756   6.267
  683SOL    HW1 2948   3.543   0.716   6.269
  683SOL    HW2 2949   3.628   0.853   6.241
  684SOL     OW 2950   6.106   1.054   6.445
  684SOL    HW1 2951   6.068   1.015   6.361
  684SOL    HW2 2952   6.167   1.130   6.421
  685SOL     OW 2953   4.917   6.540   5.285
  685SOL    HW1 2954   4.892   6.593   5.203
  685SOL    HW2 2955   5.007   6.570   5.317
  686SOL     OW 2956   5.715   3.347   2.956
  686SOL    HW1 2957   5.763   3.421   2.909
  686SOL    HW2 2958   5.639   3.316   2.900
  687SOL     OW 2959   6.681   2.567   5.039
  687SOL    HW1 2960   6.679   2.545   5.136
  687SOL    HW2 2961   6.759   2.627   5.020
  688SOL     OW 2962   1.574   3.588   0.720
  688SOL    HW1 2963   1.503   3.654   0.745
  688SOL    HW2 2964   1.533   3.497   0.711
  689SOL     OW 2965   0.855   4.525   5.376
  689SOL    HW1 2966   0.798   4.555   5.300
  689SOL    HW2 2967   0.940   4.577   5.377
  690SOL     OW 2968   0.882   3.047   3.562
  690SOL    HW1 2969   0.784   3.065   3.576
  690SOL    HW2 2970   0.911   3.087   3.475
  691SOL     OW 2971   2.337   1.565   6.380
  691SOL    HW1 2972   2.329   1.654   6.334
  691SOL    HW2 2973   2.291   1.570   6.468
  692SOL     OW 2974   3.455   6.386   3.597
  692SOL    HW1 2975   3.546   6.355   3.570
  692SOL    HW2 2976   3.449   6.485   3.585
  693SOL     OW 2977   6.677   1.943   2.799
  693SOL    HW1 2978   6.640   1.862   2.753
  693SOL    HW2 2979   6.603   2.008   2.817
  694SOL     OW 2980   3.279   6.299   2.562
  694SOL    HW1 2981   3.301   6.210   2.599
  694SOL    HW2 2982   3.208   6.342   2.617
  695SOL     OW 2983   4.294   5.104   6.263
  695SOL    HW1 2984   4.210   5.067   6.301
  695SOL    HW2 2985   4.365   5.104   6.333
  696SOL     OW 2986   3.402   5.274   1.773
  696SOL    HW1 2987   3.413   5.268   1.872
  696SOL    HW2 2988   3.310   5.242   1.748
  697SOL     OW 2989   1.431   2.539   4.376
  697SOL    HW1 2990   1.393   2.558   4.466
  697SOL    HW2 2991   1.526   2.569   4.372
  698SOL     OW 2992   5.581   0.102   6.059
  698SOL    HW1 2993   5.631   0.180   6.021
  698SOL    HW2 2994   5.483   0.121   6.058
  699SOL     OW 2995   0.680   4.092   0.119
  699SOL    HW1 2996   0.584   4.103   0.147
  699SOL    HW2 2997   0.740   4.116   0.195
  700SOL     OW 2998   3.231   1.647   3.965
  700SOL    HW1 2999   3.232   1.737   3.922
  700SOL    HW2 3000   3.191   1.653   4.056
  701SOL     OW 3001   0.029   3.893   5.427
  701SOL    HW1 3002   6.988   3.877   5.348
  701SOL    HW2 3003   0.088   3.972   5.409
  702SOL     OW 3004   5.553   5.935   5.689
  702SOL    HW1 3005   5.587   6.029   5.694
  702SOL    HW2 3006   5.624   5.872   5.719
  703SOL     OW 3007   3.930   3.948   6.531
  703SOL    HW1 3008   4.001   3.930   6.599
  703SOL    HW2 3009   3.925   4.046   6.513
  704SOL     OW 3010   1.902   1.833   6.335
  704SOL    HW1 3011   1.955   1.848   6.419
  704SOL    HW2 3012   1.873   1.921   6.298
  705SOL     OW 3013   5.402   6.941   3.867
  705SOL    HW1 3014   5.465   6.979   3.800
  705SOL    HW2 3015   5.382   6.846   3.844
  706SOL     OW 3016   4.428   2.005   3.378
  706SOL    HW1 3017   4.334   2.037   3.389
  706SOL    HW2 3018   4.466   1.985   3.469
  707SOL     OW 3019   4.326   0.549   2.680
  707SOL    HW1 3020   4.288   0.512   2.595
  707SOL    HW2 3021   4.424   0.533   2.683
  708SOL     OW 3022   4.047   0.371   1.583
  708SOL    HW1 3023   4.009   0.400   1.495
  708SOL    HW2 3024   4.107   0.443   1.619
  709SOL     OW 3025   1.093   5.334   0.421
  709SOL    HW1 3026   1.125   5.411   0.476
  709SOL    HW2 3027   1.171   5.287   0.380
  710SOL     OW 3028   3.947   3.232   2.270
  710SOL    HW1 3029   3.945   3.156   2.205
  710SOL    HW2 3030   3.993   3.203   2.354
  711SOL     OW 3031   0.922   1.903   5.859
  711SOL    HW1 3032   1.020   1.889   5.845
  711SOL    HW2 3033   0.902   1.903   5.957
  712SOL     OW 3034   2.290   4.209   0.454
  712SOL    HW1 3035   2.266   4.277   0.523
  712SOL    HW2 3036   2.319   4.125   0.499
  713SOL     OW 3037   3.009   3.298   0.232
  713SOL    HW1 3038   3.082   3.334   0.174
  713SOL    HW2 3039   3.040   3.295   0.327
  714SOL     OW 3040   6.807   5.288   5.113
  714SOL    HW1 3041   6.724   5.327   5.153
  714SOL    HW2 3042   6.782   5.215   5.050
  715SOL     OW 3043   5.553   5.948   0.811
  715SOL    HW1 3044   5.620   6.016   0.779
  715SOL    HW2 3045   5.482   5.994   0.864
  716SOL     OW 3046   1.148   6.992   0.854
  716SOL    HW1 3047   1.054   6.981   0.884
  716SOL    HW2 3048   1.179   0.067   0.872
  717SOL     OW 3049   5.486   5.067   6.144
  717SOL    HW1 3050   5.462   5.062   6.047
  717SOL    HW2 3051   5.419   5.122   6.193
  718SOL     OW 3052   4.582   1.993   5.497
  718SOL    HW1 3053   4.672   1.988   5.539
  718SOL    HW2 3054   4.511   1.983   5.567
  719SOL     OW 3055   6.712   2.535   1.095
  719SOL    HW1 3056   6.753   2.595   1.026
  719SOL    HW2 3057   6.780   2.517   1.167
  720SOL     OW 3058   3.735   1.080   5.879
  720SOL    HW1 3059   3.812   1.126   5.924
  720SOL    HW2 3060   3.730   0.985   5.910
  721SOL     OW 3061   1.801   0.054   4.241
  721SOL    HW1 3062   1.742   0.021   4.315
  721SOL    HW2 3063   1.815   0.152   4.250
  722SOL     OW 3064   2.936   0.113   5.099
  722SOL    HW1 3065   2.884   0.030   5.078
  722SOL    HW2 3066   2.990   0.098   5.182
  723SOL     OW 3067   2.120   3.354   2.643
  723SOL    HW1 3068   2.042   3.315   2.594
  723SOL    HW2 3069   2.188   3.282   2.659
  724SOL     OW 3070   1.414   2.088   4.642
  724SOL    HW1 3071   1.326   2.049   4.618
  724SOL    HW2 3072   1.468   2.104   4.559
  725SOL     OW 3073   2.962   5.456   1.688
  725SOL    HW1 3074   2.865   5.438   1.707
  725SOL    HW2 3075   2.972   5.550   1.655
  726SOL     OW 3076   3.792   4.410   1.030
  726SOL    HW1 3077   3.823   4.359   0.950
  726SOL    HW2 3078   3.708   4.368   1.066
  727SOL     OW 3079   5.150   5.171   5.791
  727SOL    HW1 3080   5.185   5.119   5.713
  727SOL    HW2 3081   5.105   5.254   5.758
  728SOL     OW 3082   0.424   3.539   5.229
  728SOL    HW1 3083   0.380   3.592   5.301
  728SOL    HW2 3084   0.392   3.572   5.140
  729SOL     OW 3085   2.114   1.305   0.402
  729SOL    HW1 3086   2.125   1.404   0.408
  729SOL    HW2 3087   2.103   1.267   0.494
  730SOL     OW 3088   5.783   0.353   3.550
  730SOL    HW1 3089   5.832   0.289   3.491
  730SOL    HW2 3090   5.779   0.442   3.505
  731SOL     OW 3091   6.133   3.975   5.939
  731SOL    HW1 3092   6.217   3.950   5.986
  731SOL    HW2 3093   6.075   3.894   5.930
  732SOL     OW 3094   0.964   3.218   1.114
  732SOL    HW1 3095   1.041   3.268   1.153
  732SOL    HW2 3096   0.881   3.274   1.120
  733SOL     OW 3097   6.152   4.474   4.939
  733SOL    HW1 3098   6.105   4.387   4.925
  733SOL    HW2 3099   6.150   4.498   5.036
  734SOL     OW 3100   6.897   4.421   2.656
  734SOL    HW1 3101   6.848   4.502   2.622
  734SOL    HW2 3102   6.989   4.419   2.617
  735SOL     OW 3103   3.637   3.151   0.801
  735SOL    HW1 3104   3.670   3.112   0.715
  735SOL    HW2 3105   3.587   3.081   0.852
  736SOL     OW 3106   6.689   6.401   2.457
  736SOL    HW1 3107   6.745   6.422   2.376
  736SOL    HW2 3108   6.644   6.484   2.489
  737SOL     OW 3109   4.027   2.168   6.713
  737SOL    HW1 3110   4.018   2.070   6.696
  737SOL    HW2 3111   3.998   2.219   6.632
  738SOL     OW 3112   2.167   3.876   2.379
  738SOL    HW1 3113   2.081   3.893   2.331
  738SOL    HW2 3114   2.162   3.787   2.426
  739SOL     OW 3115   3.895   6.515   4.702
  739SOL    HW1 3116   3.875   6.425   4.741
  739SOL    HW2 3117   3.896   6.510   4.603
  740SOL     OW 3118   4.799   6.455   0.408
  740SOL    HW1 3119   4.800   6.381   0.475
  740SOL    HW2 3120   4.755   6.536   0.447
  741SOL     OW 3121   2.127   6.295   3.428
  741SOL    HW1 3122   2.167   6.290   3.520
  741SOL    HW2 3123   2.119   6.390   3.400
  742SOL     OW 3124   2.376   6.680   1.666
  742SOL    HW1 3125   2.313   6.606   1.642
  742SOL    HW2 3126   2.400   6.731   1.584
  743SOL     OW 3127   1.619   3.725   4.601
  743SOL    HW1 3128   1.660   3.751   4.513
  743SOL    HW2 3129   1.682   3.667   4.652
  744SOL     OW 3130   5.530   7.002   6.319
  744SOL    HW1 3131   5.585   0.033   6.251
  744SOL    HW2 3132   5.502   0.046   6.392
  745SOL     OW 3133   0.947   4.769   4.415
  745SOL    HW1 3134   0.978   4.675   4.424
  745SOL    HW2 3135   1.008   4.820   4.355
  746SOL     OW 3136   0.807   5.025   6.283
  746SOL    HW1 3137   0.824   5.029   6.185
  746SOL    HW2 3138   0.872   5.085   6.331
  747SOL     OW 3139   4.631   5.614   4.844
  747SOL    HW1 3140   4.554   5.623   4.781
  747SOL    HW2 3141   4.612   5.666   4.927
  748SOL     OW 3142   3.604   5.249   2.746
  748SOL    HW1 3143   3.575   5.326   2.690
  748SOL    HW2 3144   3.596   5.273   2.843
  749SOL     OW 3145   6.372   3.942   4.681
  749SOL    HW1 3146   6.349   4.022   4.736
  749SOL    HW2 3147   6.400   3.867   4.741
  750SOL     OW 3148   2.061   2.930   0.684
  750SOL    HW1 3149   2.141   2.928   0.625
  750SOL    HW2 3150   2.055   3.018   0.730
  751SOL     OW 3151   3.874   1.859   6.098
  751SOL    HW1 3152   3.891   1.761   6.105
  751SOL    HW2 3153   3.930   1.908   6.165
  752SOL     OW 3154   4.008   2.252   1.883
  752SOL    HW1 3155   4.005   2.157   1.851
  752SOL    HW2 3156   3.916   2.281   1.908
  753SOL     OW 3157   1.697   3.030   4.239
  753SOL    HW1 3158   1.680   3.099   4.169
  753SOL    HW2 3159   1.661   3.062   4.327
  754SOL     OW 3160   5.398   2.666   6.593
  754SOL    HW1 3161   5.492   2.674   6.561
  754SOL    HW2 3162   5.337   2.648   6.515
  755SOL     OW 3163   1.349   5.645   5.814
  755SOL    HW1 3164   1.269   5.623   5.870
  755SOL    HW2 3165   1.338   5.606   5.723
  756SOL     OW 3166   3.849   0.078   0.979
  756SOL    HW1 3167   3.773   0.119   1.028
  756SOL    HW2 3168   3.826   7.002   0.954
  757SOL     OW 3169   0.066   6.280   3.342
  757SOL    HW1 3170   0.116   6.194   3.345
  757SOL    HW2 3171   6.992   6.264   3.308
  758SOL     OW 3172   4.011   0.733   1.894
  758SOL    HW1 3173   3.976   0.769   1.808
  758SOL    HW2 3174   3.985   0.636   1.902
  759SOL     OW 3175   0.566   0.601   0.578
  759SOL    HW1 3176   0.539   0.696   0.563
  759SOL    HW2 3177   0.558   0.551   0.492
  760SOL     OW 3178   4.369   0.536   6.125
  760SOL    HW1 3179   4.316   0.598   6.183
  760SOL    HW2 3180   4.431   0.588   6.067
  761SOL     OW 3181   5.292   3.784   5.591
  761SOL    HW1 3182   5.337   3.725   5.658
  761SOL    HW2 3183   5.193   3.770   5.595
  762SOL     OW 3184   1.815   0.018   5.008
  762SOL    HW1 3185   1.767   0.008   4.921
  762SOL    HW2 3186   1.849   6.947   5.038
  763SOL     OW 3187   3.980   4.888   6.619
  763SOL    HW1 3188   3.885   4.904   6.595
  763SOL    HW2 3189   3.987   4.865   6.716
  764SOL     OW 3190   4.095   0.661   3.870
  764SOL    HW1 3191   4.037   0.724   3.922
  764SOL    HW2 3192   4.191   0.682   3.888
  765SOL     OW 3193   1.166   6.100   1.491
  765SOL    HW1 3194   1.185   6.189   1.531
  765SOL    HW2 3195   1.140   6.111   1.395
  766SOL     OW 3196   0.953   2.755   0.912
  766SOL    HW1 3197   0.898   2.678   0.945
  766SOL    HW2 3198   0.974   2.816   0.988
  767SOL     OW 3199   6.371   5.685   2.752
  767SOL    HW1 3200   6.340   5.594   2.780
  767SOL    HW2 3201   6.295   5.750   2.759
  768SOL     OW 3202   2.441   0.074   2.410
  768SOL    HW1 3203   2.423   7.003   2.370
  768SOL    HW2 3204   2.520   0.115   2.364
  769SOL     OW 3205   3.416   0.876   4.926
  769SOL    HW1 3206   3.363   0.869   5.010
  769SOL    HW2 3207   3.444   0.971   4.912
  770SOL     OW 3208   1.741   4.407   3.234
  770SOL    HW1 3209   1.802   4.360   3.297
  770SOL    HW2 3210   1.735   4.503   3.259
  771SOL     OW 3211   2.580   5.953   2.667
  771SOL    HW1 3212   2.585   6.033   2.727
  771SOL    HW2 3213   2.598   5.871   2.721
  772SOL     OW 3214   6.694   5.043   0.461
  772SOL    HW1 3215   6.775   5.036   0.519
  772SOL    HW2 3216   6.616   5.002   0.508
  773SOL     OW 3217   0.123   4.021   3.521
  773SOL    HW1 3218   0.191   4.016   3.594
  773SOL    HW2 3219   0.033   4.001   3.559
  774SOL     OW 3220   1.098   1.470   2.493
  774SOL    HW1 3221   1.045   1.555   2.489
  774SOL    HW2 3222   1.045   1.396   2.451
  775SOL     OW 3223   1.023   1.756   3.314
  775SOL    HW1 3224   0.968   1.728   3.235
  775SOL    HW2 3225   1.097   1.690   3.328
  776SOL     OW 3226   6.821   0.756   5.641
  776SOL    HW1 3227   6.813   0.693   5.563
  776SOL    HW2 3228   6.748   0.825   5.636
  777SOL     OW 3229   3.292   5.718   1.251
  777SOL    HW1 3230   3.226   5.774   1.200
  777SOL    HW2 3231   3.371   5.698   1.193
  778SOL     OW 3232   3.673   1.901   2.931
  778SOL    HW1 3233   3.593   1.842   2.946
  778SOL    HW2 3234   3.754   1.845   2.917
  779SOL     OW 3235   0.662   2.245   2.764
  779SOL    HW1 3236   0.566   2.239   2.740
  779SOL    HW2 3237   0.717   2.194   2.698
  780SOL     OW 3238   6.279   3.810   4.174
  780SOL    HW1 3239   6.188   3.849   4.156
  780SOL    HW2 3240   6.277   3.712   4.154
  781SOL     OW 3241   5.127   1.730   6.760
  781SOL    HW1 3242   5.139   1.752   6.857
  781SOL    HW2 3243   5.172   1.800   6.705
  782SOL     OW 3244   0.870   3.409   6.816
  782SOL    HW1 3245   0.826   3.458   6.740
  782SOL    HW2 3246   0.969   3.424   6.811
  783SOL     OW 3247   4.305   4.547   1.060
  783SOL    HW1 3248   4.207   4.550   1.078
  783SOL    HW2 3249   4.352   4.508   1.139
  784SOL     OW 3250   5.264   6.142   6.840
  784SOL    HW1 3251   5.268   6.208   6.765
  784SOL    HW2 3252   5.193   6.169   6.905
  785SOL     OW 3253   6.817   2.955   3.174
  785SOL    HW1 3254   6.801   2.937   3.271
  785SOL    HW2 3255   6.871   3.038   3.164
  786SOL     OW 3256   1.311   1.059   1.082
  786SOL    HW1 3257   1.405   1.093   1.080
  786SOL    HW2 3258   1.285   1.024   0.992
  787SOL     OW 3259   2.901   0.819   6.591
  787SOL    HW1 3260   2.909   0.869   6.505
  787SOL    HW2 3261   2.811   0.837   6.631
  788SOL     OW 3262   3.003   2.041   5.014
  788SOL    HW1 3263   3.042   2.132   5.004
  788SOL    HW2 3264   3.015   2.009   5.108
  789SOL     OW 3265   5.312   4.012   0.913
  789SOL    HW1 3266   5.333   3.924   0.955
  789SOL    HW2 3267   5.221   4.042   0.942
  790SOL     OW 3268   2.520   0.925   3.939
  790SOL    HW1 3269   2.496   1.017   3.908
  790SOL    HW2 3270   2.440   0.883   3.982
  791SOL     OW 3271   3.162   6.295   2.980
  791SOL    HW1 3272   3.173   6.220   3.045
  791SOL    HW2 3273   3.244   6.352   2.980
  792SOL     OW 3274   0.469   0.870   1.864
  792SOL    HW1 3275   0.556   0.893   1.820
  792SOL    HW2 3276   0.430   0.953   1.904
  793SOL     OW 3277   4.703   6.290   2.707
  793SOL    HW1 3278   4.616   6.334   2.684
  793SOL    HW2 3279   4.773   6.360   2.722
  794SOL     OW 3280   2.927   3.522   4.823
  794SOL    HW1 3281   2.894   3.569   4.741
  794SOL    HW2 3282   2.950   3.428   4.801
  795SOL     OW 3283   3.510   6.098   4.973
  795SOL    HW1 3284   3.490   6.175   4.913
  795SOL    HW2 3285   3.586   6.045   4.934
  796SOL     OW 3286   1.395   2.195   6.260
  796SOL    HW1 3287   1.410   2.097   6.272
  796SOL    HW2 3288   1.464   2.246   6.310
  797SOL     OW 3289   4.955   2.576   2.174
  797SOL    HW1 3290   4.865   2.621   2.171
  797SOL    HW2 3291   4.942   2.480   2.197
  798SOL     OW 3292   5.066   6.912   1.373
  798SOL    HW1 3293   5.049   7.002   1.333
  798SOL    HW2 3294   5.082   6.846   1.300
  799SOL     OW 3295   6.017   1.407   4.538
  799SOL    HW1 3296   6.091   1.471   4.558
  799SOL    HW2 3297   5.935   1.458   4.511
  800SOL     OW 3298   5.548   0.906   2.295
  800SOL    HW1 3299   5.615   0.965   2.340
  800SOL    HW2 3300   5.466   0.898   2.352
  801SOL     OW 3301   1.974   3.467   3.925
  801SOL    HW1 3302   2.027   3.483   3.842
  801SOL    HW2 3303   1.877   3.482   3.906
  802SOL     OW 3304   4.433   0.385   1.172
  802SOL    HW1 3305   4.385   0.382   1.085
  802SOL    HW2 3306   4.521   0.430   1.161
  803SOL     OW 3307   0.228   5.683   4.812
  803SOL    HW1 3308   0.201   5.652   4.721
  803SOL    HW2 3309   0.297   5.620   4.850
  804SOL     OW 3310   6.031   6.327   6.827
  804SOL    HW1 3311   5.985   6.411   6.855
  804SOL    HW2 3312   6.011   6.308   6.731
  805SOL     OW 3313   3.322   1.759   5.440
  805SOL    HW1 3314   3.365   1.675   5.407
  805SOL    HW2 3315   3.321   1.759   5.540
  806SOL     OW 3316   4.814   1.600   4.525
  806SOL    HW1 3317   4.746   1.664   4.560
  806SOL    HW2 3318   4.829   1.527   4.591
  807SOL     OW 3319   0.925   1.532   4.407
  807SOL    HW1 3320   0.990   1.608   4.415
  807SOL    HW2 3321   0.832   1.568   4.404
  808SOL     OW 3322   4.350   3.522   6.566
  808SOL    HW1 3323   4.359   3.459   6.489
  808SOL    HW2 3324   4.260   3.565   6.564
  809SOL     OW 3325   0.747   4.760   1.594
  809SOL    HW1 3326   0.755   4.860   1.602
  809SOL    HW2 3327   0.693   4.738   1.512
  810SOL     OW 3328   3.647   2.699   1.151
  810SOL    HW1 3329   3.743   2.690   1.125
  810SOL    HW2 3330   3.595   2.624   1.112
  811SOL     OW 3331   3.922   5.841   4.085
  811SOL    HW1 3332   3.917   5.877   3.992
  811SOL    HW2 3333   4.001   5.780   4.093
  812SOL     OW 3334   0.622   1.545   1.287
  812SOL    HW1 3335   0.681   1.486   1.341
  812SOL    HW2 3336   0.647   1.641   1.301
  813SOL     OW 3337   3.959   5.052   4.186
  813SOL    HW1 3338   3.865   5.024   4.165
  813SOL    HW2 3339   3.986   5.127   4.125
  814SOL     OW 3340   5.612   6.209   3.096
  814SOL    HW1 3341   5.639   6.291   3.147
  814SOL    HW2 3342   5.601   6.133   3.160
  815SOL     OW 3343   0.056   3.304   3.394
  815SOL    HW1 3344   0.058   3.387   3.339
  815SOL    HW2 3345   6.987   3.299   3.444
  816SOL     OW 3346   0.075   6.465   0.123
  816SOL    HW1 3347   0.111   6.545   0.074
  816SOL    HW2 3348   0.008   6.418   0.065
  817SOL     OW 3349   2.469   4.083   1.338
  817SOL    HW1 3350   2.447   4.008   1.276
  817SOL    HW2 3351   2.403   4.157   1.326
  818SOL     OW 3352   6.436   3.010   1.987
  818SOL    HW1 3353   6.489   3.009   1.902
  818SOL    HW2 3354   6.472   2.940   2.050
  819SOL     OW 3355   5.610   3.187   3.157
  819SOL    HW1 3356   5.651   3.261   3.103
  819SOL    HW2 3357   5.572   3.225   3.241
  820SOL     OW 3358   2.967   2.645   6.342
  820SOL    HW1 3359   2.887   2.635   6.282
  820SOL    HW2 3360   2.973   2.567   6.403
  821SOL     OW 3361   2.144   3.945   0.781
  821SOL    HW1 3362   2.088   3.893   0.845
  821SOL    HW2 3363   2.097   3.953   0.694
  822SOL     OW 3364   1.235   4.710   4.816
  822SOL    HW1 3365   1.325   4.754   4.816
  822SOL    HW2 3366   1.205   4.698   4.911
  823SOL     OW 3367   4.641   3.899   6.540
  823SOL    HW1 3368   4.740   3.909   6.534
  823SOL    HW2 3369   4.617   3.802   6.542
  824SOL     OW 3370   5.293   1.114   5.247
  824SOL    HW1 3371   5.273   1.047   5.176
  824SOL    HW2 3372   5.241   1.198   5.229
  825SOL     OW 3373   1.355   3.945   1.311
  825SOL    HW1 3374   1.328   4.029   1.360
  825SOL    HW2 3375   1.306   3.941   1.224
  826SOL     OW 3376   5.635   3.272   6.654
  826SOL    HW1 3377   5.575   3.274   6.734
  826SOL    HW2 3378   5.688   3.186   6.655
  827SOL     OW 3379   3.496   5.816   6.198
  827SOL    HW1 3380   3.473   5.853   6.108
  827SOL    HW2 3381   3.418   5.764   6.233
  828SOL     OW 3382   5.466   6.763   5.619
  828SOL    HW1 3383   5.430   6.844   5.667
  828SOL    HW2 3384   5.565   6.757   5.633
  829SOL     OW 3385   3.034   3.923   3.944
  829SOL    HW1 3386   3.089   4.004   3.969
  829SOL    HW2 3387   2.946   3.928   3.990
  830SOL     OW 3388   4.984   4.627   6.429
  830SOL    HW1 3389   5.071   4.664   6.398
  830SOL    HW2 3390   4.926   4.702   6.462
  831SOL     OW 3391   6.532   1.197   5.474
  831SOL    HW1 3392   6.439   1.179   5.504
  831SOL    HW2 3393   6.575   1.265   5.535
  832SOL     OW 3394   2.383   1.328   1.070
  832SOL    HW1 3395   2.353   1.233   1.063
  832SOL    HW2 3396   2.415   1.359   0.981
  833SOL     OW 3397   0.042   4.997   6.253
  833SOL    HW1 3398   0.080   5.017   6.343
  833SOL    HW2 3399   0.026   4.899   6.244
  834SOL     OW 3400   2.731   3.217   0.691
  834SOL    HW1 3401   2.771   3.138   0.643
  834SOL    HW2 3402   2.786   3.298   0.671
  835SOL     OW 3403   3.291   0.432   4.505
  835SOL    HW1 3404   3.270   0.408   4.600
  835SOL    HW2 3405   3.354   0.364   4.467
  836SOL     OW 3406   3.460   6.701   0.173
  836SOL    HW1 3407   3.524   6.659   0.237
  836SOL    HW2 3408   3.510   6.742   0.097
  837SOL     OW 3409   5.275   6.494   0.020
  837SOL    HW1 3410   5.183   6.513   0.056
  837SOL    HW2 3411   5.270   6.482   6.939
  838SOL     OW 3412   0.981   6.781   5.060
  838SOL    HW1 3413   0.918   6.711   5.026
  838SOL    HW2 3414   1.074   6.746   5.056
  839SOL     OW 3415   2.626   2.380   2.110
  839SOL    HW1 3416   2.723   2.358   2.099
  839SOL    HW2 3417   2.580   2.375   2.021
  840SOL     OW 3418   5.674   6.900   5.957
  840SOL    HW1 3419   5.675   6.895   5.857
  840SOL    HW2 3420   5.639   6.989   5.987
  841SOL     OW 3421   4.939   5.191   0.510
  841SOL    HW1 3422   5.032   5.225   0.505
  841SOL    HW2 3423   4.940   5.091   0.517
  842SOL     OW 3424   4.919   4.998   4.067
  842SOL    HW1 3425   5.004   5.040   4.033
  842SOL    HW2 3426   4.862   5.068   4.110
  843SOL     OW 3427   3.620   1.610   6.634
  843SOL    HW1 3428   3.544   1.558   6.595
  843SOL    HW2 3429   3.630   1.697   6.585
  844SOL     OW 3430   5.160   0.050   0.827
  844SOL    HW1 3431   5.068   0.017   0.844
  844SOL    HW2 3432   5.217   6.993   0.794
  845SOL     OW 3433   5.789   3.307   5.184
  845SOL    HW1 3434   5.765   3.377   5.251
  845SOL    HW2 3435   5.840   3.349   5.109
  846SOL     OW 3436   3.302   1.416   0.275
  846SOL    HW1 3437   3.256   1.492   0.230
  846SOL    HW2 3438   3.269   1.409   0.369
  847SOL     OW 3439   0.392   3.886   0.373
  847SOL    HW1 3440   0.441   3.809   0.333
  847SOL    HW2 3441   0.412   3.892   0.471
  848SOL     OW 3442   6.322   1.259   6.446
  848SOL    HW1 3443   6.347   1.235   6.540
  848SOL    HW2 3444   6.354   1.352   6.426
  849SOL     OW 3445   1.002   4.570   5.654
  849SOL    HW1 3446   0.964   4.479   5.638
  849SOL    HW2 3447   1.027   4.611   5.566
  850SOL     OW 3448   5.408   1.377   3.912
  850SOL    HW1 3449   5.449   1.463   3.882
  850SOL    HW2 3450   5.388   1.320   3.832
  851SOL     OW 3451   0.100   1.222   1.439
  851SOL    HW1 3452   0.106   1.177   1.349
  851SOL    HW2 3453   0.015   1.274   1.444
  852SOL     OW 3454   1.902   2.203   0.481
  852SOL    HW1 3455   1.990   2.229   0.521
  852SOL    HW2 3456   1.853   2.144   0.544
  853SOL     OW 3457   1.739   4.185   2.200
  853SOL    HW1 3458   1.734   4.155   2.105
  853SOL    HW2 3459   1.811   4.253   2.210
  854SOL     OW 3460   4.707   5.623   2.631
  854SOL    HW1 3461   4.761   5.563   2.572
  854SOL    HW2 3462   4.768   5.683   2.683
  855SOL     OW 3463   6.847   0.258   1.006
  855SOL    HW1 3464   6.846   0.340   0.949
  855SOL    HW2 3465   6.772   0.263   1.073
  856SOL     OW 3466   1.802   2.104   5.171
  856SOL    HW1 3467   1.812   2.083   5.268
  856SOL    HW2 3468   1.850   2.189   5.150
  857SOL     OW 3469   6.050   4.600   1.584
  857SOL    HW1 3470   5.956   4.615   1.614
  857SOL    HW2 3471   6.113   4.621   1.659
  858SOL     OW 3472   2.647   4.477   1.361
  858SOL    HW1 3473   2.577   4.549   1.358
  858SOL    HW2 3474   2.623   4.410   1.430
  859SOL     OW 3475   4.735   4.991   6.883
  859SOL    HW1 3476   4.733   5.055   6.961
  859SOL    HW2 3477   4.785   4.908   6.909
  860SOL     OW 3478   4.156   4.676   0.765
  860SOL    HW1 3479   4.236   4.693   0.824
  860SOL    HW2 3480   4.102   4.760   0.758
  861SOL     OW 3481   2.095   0.369   4.922
  861SOL    HW1 3482   2.087   0.278   4.881
  861SOL    HW2 3483   2.012   0.389   4.974
  862SOL     OW 3484   0.064   4.725   5.609
  862SOL    HW1 3485   0.042   4.816   5.645
  862SOL    HW2 3486   7.017   4.701   5.537
  863SOL     OW 3487   1.081   0.773   0.350
  863SOL    HW1 3488   1.006   0.839   0.348
  863SOL    HW2 3489   1.110   0.757   0.444
  864SOL     OW 3490   5.063   4.437   3.736
  864SOL    HW1 3491   5.067   4.537   3.736
  864SOL    HW2 3492   5.038   4.405   3.645
  865SOL     OW 3493   2.022   6.381   4.825
  865SOL    HW1 3494   1.964   6.459   4.847
  865SOL    HW2 3495   2.010   6.310   4.895
  866SOL     OW 3496   2.181   2.757   1.678
  866SOL    HW1 3497   2.253   2.790   1.616
  866SOL    HW2 3498   2.091   2.778   1.640
  867SOL     OW 3499   4.246   2.923   1.357
  867SOL    HW1 3500   4.316   2.856   1.383
  867SOL    HW2 3501   4.208   2.899   1.267
  868SOL     OW 3502   5.909   6.365   1.317
  868SOL    HW1 3503   5.966   6.414   1.384
  868SOL    HW2 3504   5.845   6.306   1.365
  869SOL     OW 3505   6.955   5.419   3.002
  869SOL    HW1 3506   6.967   5.327   3.039
  869SOL    HW2 3507   6.917   5.479   3.072
  870SOL     OW 3508   5.864   3.265   6.992
  870SOL    HW1 3509   5.811   3.279   0.058
  870SOL    HW2 3510   5.803   3.234   6.919
  871SOL     OW 3511   5.691   3.775   1.779
  871SOL    HW1 3512   5.743   3.809   1.702
  871SOL    HW2 3513   5.727   3.813   1.864
  872SOL     OW 3514   6.124   4.165   4.064
  872SOL    HW1 3515   6.089   4.147   4.156
  872SOL    HW2 3516   6.057   4.218   4.012
  873SOL     OW 3517   5.348   0.308   3.865
  873SOL    HW1 3518   5.288   0.231   3.887
  873SOL    HW2 3519   5.403   0.284   3.784
  874SOL     OW 3520   1.652   4.564   5.353
  874SOL    HW1 3521   1.619   4.651   5.317
  874SOL    HW2 3522   1.688   4.508   5.278
  875SOL     OW 3523   4.439   3.622   1.317
  875SOL    HW1 3524   4.435   3.524   1.335
  875SOL    HW2 3525   4.440   3.672   1.403
  876SOL     OW 3526   0.597   5.884   3.300
  876SOL    HW1 3527   0.529   5.824   3.342
  876SOL    HW2 3528   0.553   5.945   3.234
  877SOL     OW 3529   3.542   4.910   0.095
  877SOL    HW1 3530   3.636   4.878   0.086
  877SOL    HW2 3531   3.511   4.898   0.189
  878SOL     OW 3532   4.233   6.268   6.271
  878SOL    HW1 3533   4.213   6.311   6.183
  878SOL    HW2 3534   4.159   6.207   6.296
  879SOL     OW 3535   3.596   1.996   1.906
  879SOL    HW1 3536   3.603   2.053   1.988
  879SOL    HW2 3537   3.673   2.016   1.846
  880SOL     OW 3538   3.077   4.530   0.024
  880SOL    HW1 3539   3.061   4.606   6.979
  880SOL    HW2 3540   3.008   4.531   0.095
  881SOL     OW 3541   4.082   4.511   5.315
  881SOL    HW1 3542   4.150   4.468   5.256
  881SOL    HW2 3543   4.129   4.570   5.381
  882SOL     OW 3544   1.510   1.091   4.134
  882SOL    HW1 3545   1.465   1.004   4.113
  882SOL    HW2 3546   1.453   1.144   4.197
  883SOL     OW 3547   4.803   5.343   4.622
  883SOL    HW1 3548   4.745   5.356   4.702
  883SOL    HW2 3549   4.855   5.257   4.633
  884SOL     OW 3550   0.299   3.594   1.605
  884SOL    HW1 3551   0.370   3.530   1.634
  884SOL    HW2 3552   0.216   3.578   1.659
  885SOL     OW 3553   5.419   5.841   6.449
  885SOL    HW1 3554   5.448   5.936   6.433
  885SOL    HW2 3555   5.378   5.834   6.540
  886SOL     OW 3556   4.084   0.094   0.644
  886SOL    HW1 3557   4.120   0.181   0.677
  886SOL    HW2 3558   4.097   0.088   0.545
  887SOL     OW 3559   4.483   6.850   4.801
  887SOL    HW1 3560   4.497   6.753   4.783
  887SOL    HW2 3561   4.545   6.879   4.874
  888SOL     OW 3562   6.067   6.645   3.666
  888SOL    HW1 3563   5.978   6.680   3.696
  888SOL    HW2 3564   6.072   6.547   3.684
  889SOL     OW 3565   0.636   6.398   6.409
  889SOL    HW1 3566   0.679   6.318   6.367
  889SOL    HW2 3567   0.666   6.406   6.504
  890SOL     OW 3568   2.861   5.013   2.189
  890SOL    HW1 3569   2.911   5.080   2.135
  890SOL    HW2 3570   2.796   4.965   2.130
  891SOL     OW 3571   5.833   3.754   1.430
  891SOL    HW1 3572   5.922   3.708   1.423
  891SOL    HW2 3573   5.763   3.686   1.455
  892SOL     OW 3574   3.779   4.066   0.504
  892SOL    HW1 3575   3.727   4.040   0.423
  892SOL    HW2 3576   3.730   4.035   0.586
  893SOL     OW 3577   2.572   1.193   1.870
  893SOL    HW1 3578   2.585   1.126   1.797
  893SOL    HW2 3579   2.474   1.203   1.889
  894SOL     OW 3580   1.791   3.667   4.377
  894SOL    HW1 3581   1.761   3.577   4.407
  894SOL    HW2 3582   1.868   3.657   4.314
  895SOL     OW 3583   2.000   6.100   4.904
  895SOL    HW1 3584   2.091   6.110   4.945
  895SOL    HW2 3585   1.952   6.024   4.948
  896SOL     OW 3586   5.357   5.861   2.560
  896SOL    HW1 3587   5.306   5.800   2.499
  896SOL    HW2 3588   5.408   5.927   2.505
  897SOL     OW 3589   5.534   0.931   0.163
  897SOL    HW1 3590   5.497   0.929   0.256
  897SOL    HW2 3591   5.529   0.839   0.123
  898SOL     OW 3592   3.898   5.932   3.496
  898SOL    HW1 3593   3.973   5.946   3.561
  898SOL    HW2 3594   3.821   5.992   3.520
  899SOL     OW 3595   0.698   5.101   6.816
  899SOL    HW1 3596   0.678   5.134   6.908
  899SOL    HW2 3597   0.730   5.006   6.821
  900SOL     OW 3598   4.994   5.844   1.485
  900SOL    HW1 3599   4.978   5.932   1.528
  900SOL    HW2 3600   4.964   5.847   1.389
  901SOL     OW 3601   0.252   1.405   5.008
  901SOL    HW1 3602   0.334   1.350   5.019
  901SOL    HW2 3603   0.176   1.362   5.059
  902SOL     OW 3604   0.461   1.439   6.002
  902SOL    HW1 3605   0.494   1.525   5.964
  902SOL    HW2 3606   0.373   1.415   5.961
  903SOL     OW 3607   6.510   3.762   6.349
  903SOL    HW1 3608   6.521   3.810   6.261
  903SOL    HW2 3609   6.590   3.780   6.406
  904SOL     OW 3610   1.843   2.217   4.171
  904SOL    HW1 3611   1.795   2.189   4.088
  904SOL    HW2 3612   1.810   2.163   4.249
  905SOL     OW 3613   4.768   2.849   6.283
  905SOL    HW1 3614   4.699   2.849   6.210
  905SOL    HW2 3615   4.726   2.877   6.369
  906SOL     OW 3616   0.622   3.686   6.438
  906SOL    HW1 3617   0.603   3.766   6.495
  906SOL    HW2 3618   0.542   3.664   6.383
  907SOL     OW 3619   5.602   2.774   3.357
  907SOL    HW1 3620   5.613   2.753   3.454
  907SOL    HW2 3621   5.681   2.825   3.324
  908SOL     OW 3622   1.773   6.605   3.721
  908SOL    HW1 3623   1.692   6.564   3.763
  908SOL    HW2 3624   1.854   6.584   3.777
  909SOL     OW 3625   2.501   0.729   1.243
  909SOL    HW1 3626   2.434   0.768   1.307
  909SOL    HW2 3627   2.518   0.793   1.168
  910SOL     OW 3628   2.668   0.735   0.486
  910SOL    HW1 3629   2.601   0.799   0.447
  910SOL    HW2 3630   2.748   0.732   0.427
  911SOL     OW 3631   6.538   5.367   1.306
  911SOL    HW1 3632   6.441   5.344   1.315
  911SOL    HW2 3633   6.558   5.451   1.356
  912SOL     OW 3634   6.638   0.434   5.052
  912SOL    HW1 3635   6.591   0.377   5.119
  912SOL    HW2 3636   6.603   0.528   5.059
  913SOL     OW 3637   2.038   0.373   3.775
  913SOL    HW1 3638   2.038   0.273   3.777
  913SOL    HW2 3639   2.127   0.406   3.742
  914SOL     OW 3640   2.737   5.613   5.570
  914SOL    HW1 3641   2.753   5.699   5.521
  914SOL    HW2 3642   2.687   5.632   5.655
  915SOL     OW 3643   1.082   3.505   1.003
  915SOL    HW1 3644   1.137   3.425   1.027
  915SOL    HW2 3645   1.118   3.585   1.051
  916SOL     OW 3646   1.386   2.314   2.674
  916SOL    HW1 3647   1.478   2.298   2.640
  916SOL    HW2 3648   1.384   2.297   2.773
  917SOL     OW 3649   4.198   0.462   1.302
  917SOL    HW1 3650   4.286   0.429   1.267
  917SOL    HW2 3651   4.208   0.491   1.397
  918SOL     OW 3652   2.738   5.888   0.111
  918SOL    HW1 3653   2.729   5.962   0.045
  918SOL    HW2 3654   2.682   5.908   0.192
  919SOL     OW 3655   0.734   5.989   1.980
  919SOL    HW1 3656   0.640   5.977   2.011
  919SOL    HW2 3657   0.746   5.946   1.891
  920SOL     OW 3658   1.777   0.334   2.730
  920SOL    HW1 3659   1.687   0.304   2.697
  920SOL    HW2 3660   1.809   0.270   2.800
  921SOL     OW 3661   5.340   4.789   3.922
  921SOL    HW1 3662   5.416   4.851   3.906
  921SOL    HW2 3663   5.301   4.761   3.834
  922SOL     OW 3664   3.635   2.568   6.399
  922SOL    HW1 3665   3.577   2.532   6.326
  922SOL    HW2 3666   3.591   2.647   6.441
  923SOL     OW 3667   3.219   5.352   0.395
  923SOL    HW1 3668   3.285   5.421   0.365
  923SOL    HW2 3669   3.129   5.395   0.405
  924SOL     OW 3670   5.578   3.463   2.004
  924SOL    HW1 3671   5.502   3.400   2.017
  924SOL    HW2 3672   5.552   3.534   1.938
  925SOL     OW 3673   6.769   1.700   5.498
  925SOL    HW1 3674   6.735   1.629   5.437
  925SOL    HW2 3675   6.851   1.667   5.546
  926SOL     OW 3676   5.715   0.701   6.875
  926SOL    HW1 3677   5.706   0.795   6.842
  926SOL    HW2 3678   5.812   0.680   6.888
  927SOL     OW 3679   5.229   4.356   4.159
  927SOL    HW1 3680   5.165   4.282   4.182
  927SOL    HW2 3681   5.293   4.323   4.089
  928SOL     OW 3682   2.161   0.627   0.682
  928SOL    HW1 3683   2.077   0.578   0.707
  928SOL    HW2 3684   2.168   0.711   0.735
  929SOL     OW 3685   6.976   1.881   1.012
  929SOL    HW1 3686   6.929   1.965   1.039
  929SOL    HW2 3687   6.920   1.832   0.945
  930SOL     OW 3688   6.678   5.891   4.618
  930SOL    HW1 3689   6.604   5.831   4.650
  930SOL    HW2 3690   6.694   5.963   4.685
  931SOL     OW 3691   0.219   3.542   4.062
  931SOL    HW1 3692   0.249   3.622   4.010
  931SOL    HW2 3693   0.139   3.566   4.117
  932SOL     OW 3694   2.774   6.659   1.585
  932SOL    HW1 3695   2.711   6.734   1.603
  932SOL    HW2 3696   2.848   6.661   1.652
  933SOL     OW 3697   0.779   5.345   2.026
  933SOL    HW1 3698   0.785   5.445   2.025
  933SOL    HW2 3699   0.871   5.307   2.020
  934SOL     OW 3700   2.166   0.647   4.466
  934SOL    HW1 3701   2.142   0.628   4.562
  934SOL    HW2 3702   2.226   0.727   4.462
  935SOL     OW 3703   5.168   3.711   5.319
  935SOL    HW1 3704   5.222   3.754   5.392
  935SOL    HW2 3705   5.080   3.681   5.356
  936SOL     OW 3706   1.239   6.938   6.257
  936SOL    HW1 3707   1.146   6.974   6.260
  936SOL    HW2 3708   1.274   6.945   6.164
  937SOL     OW 3709   5.103   1.894   5.675
  937SOL    HW1 3710   5.141   1.815   5.627
  937SOL    HW2 3711   5.008   1.908   5.647
  938SOL     OW 3712   6.941   5.245   6.187
  938SOL    HW1 3713   6.845   5.236   6.161
  938SOL    HW2 3714   6.977   5.156   6.213
  939SOL     OW 3715   4.969   1.567   5.528
  939SOL    HW1 3716   4.983   1.626   5.448
  939SOL    HW2 3717   4.872   1.561   5.548
  940SOL     OW 3718   6.822   2.965   2.882
  940SOL    HW1 3719   6.888   2.905   2.836
  940SOL    HW2 3720   6.790   2.922   2.965
  941SOL     OW 3721   6.476   0.753   4.001
  941SOL    HW1 3722   6.492   0.732   3.904
  941SOL    HW2 3723   6.384   0.724   4.026
  942SOL     OW 3724   5.117   0.814   4.508
  942SOL    HW1 3725   5.062   0.792   4.428
  942SOL    HW2 3726   5.214   0.812   4.483
  943SOL     OW 3727   0.943   3.315   3.419
  943SOL    HW1 3728   0.874   3.287   3.352
  943SOL    HW2 3729   1.032   3.277   3.394
  944SOL     OW 3730   6.406   3.185   6.391
  944SOL    HW1 3731   6.312   3.184   6.357
  944SOL    HW2 3732   6.440   3.092   6.398
  945SOL     OW 3733   6.563   4.478   5.541
  945SOL    HW1 3734   6.505   4.509   5.615
  945SOL    HW2 3735   6.650   4.528   5.543
  946SOL     OW 3736   5.452   2.637   6.164
  946SOL    HW1 3737   5.500   2.721   6.189
  946SOL    HW2 3738   5.379   2.619   6.230
  947SOL     OW 3739   3.008   3.629   5.062
  947SOL    HW1 3740   2.995   3.605   4.966
  947SOL    HW2 3741   2.939   3.695   5.089
  948SOL     OW 3742   4.523   1.202   1.049
  948SOL    HW1 3743   4.614   1.245   1.047
  948SOL    HW2 3744   4.518   1.136   1.123
  949SOL     OW 3745   6.975   6.146   6.260
  949SOL    HW1 3746   6.962   6.079   6.187
  949SOL    HW2 3747   0.005   6.226   6.224
  950SOL     OW 3748   4.206   5.069   2.525
  950SOL    HW1 3749   4.201   4.970   2.528
  950SOL    HW2 3750   4.157   5.103   2.444
  951SOL     OW 3751   1.848   0.805   1.766
  951SOL    HW1 3752   1.754   0.776   1.785
  951SOL    HW2 3753   1.868   0.889   1.816
  952SOL     OW 3754   5.683   1.189   1.756
  952SOL    HW1 3755   5.654   1.278   1.720
  952SOL    HW2 3756   5.613   1.121   1.738
  953SOL     OW 3757   4.988   5.378   5.203
  953SOL    HW1 3758   4.930   5.319   5.260
  953SOL    HW2 3759   4.930   5.442   5.152
  954SOL     OW 3760   5.460   6.176   0.531
  954SOL    HW1 3761   5.381   6.229   0.564
  954SOL    HW2 3762   5.543   6.230   0.543
  955SOL     OW 3763   0.744   5.338   3.450
  955SOL    HW1 3764   0.802   5.286   3.512
  955SOL    HW2 3765   0.755   5.436   3.468
  956SOL     OW 3766   0.822   2.130   2.370
  956SOL    HW1 3767   0.910   2.095   2.337
  956SOL    HW2 3768   0.832   2.227   2.394
  957SOL     OW 3769   1.450   4.504   4.308
  957SOL    HW1 3770   1.401   4.419   4.288
  957SOL    HW2 3771   1.549   4.489   4.299
  958SOL     OW 3772   4.727   2.830   1.177
  958SOL    HW1 3773   4.767   2.739   1.168
  958SOL    HW2 3774   4.758   2.871   1.263
  959SOL     OW 3775   2.361   4.713   3.027
  959SOL    HW1 3776   2.361   4.809   3.000
  959SOL    HW2 3777   2.385   4.656   2.948
  960SOL     OW 3778   0.111   5.886   4.001
  960SOL    HW1 3779   0.186   5.870   3.938
  960SOL    HW2 3780   0.070   5.975   3.983
  961SOL     OW 3781   4.785   6.547   3.226
  961SOL    HW1 3782   4.834   6.522   3.309
  961SOL    HW2 3783   4.844   6.603   3.168
  962SOL     OW 3784   1.580   1.569   4.045
  962SOL    HW1 3785   1.484   1.595   4.059
  962SOL    HW2 3786   1.637   1.616   4.113
  963SOL     OW 3787   5.968   1.177   6.165
  963SOL    HW1 3788   6.018   1.262   6.186
  963SOL    HW2 3789   5.903   1.195   6.092
  964SOL     OW 3790   6.280   3.443   0.728
  964SOL    HW1 3791   6.265   3.497   0.811
  964SOL    HW2 3792   6.364   3.473   0.682
  965SOL     OW 3793   5.233   1.673   0.765
  965SOL    HW1 3794   5.137   1.690   0.787
  965SOL    HW2 3795   5.278   1.760   0.742
  966SOL     OW 3796   6.184   1.765   2.161
  966SOL    HW1 3797   6.267   1.786   2.110
  966SOL    HW2 3798   6.116   1.727   2.099
  967SOL     OW 3799   1.454   5.486   0.790
  967SOL    HW1 3800   1.388   5.561   0.796
  967SOL    HW2 3801   1.405   5.400   0.777
  968SOL     OW 3802   4.465   2.528   1.918
  968SOL    HW1 3803   4.520   2.573   1.848
  968SOL    HW2 3804   4.369   2.529   1.891
  969SOL     OW 3805   4.093   5.674   5.962
  969SOL    HW1 3806   4.146   5.750   6.001
  969SOL    HW2 3807   4.156   5.609   5.919
  970SOL     OW 3808   4.556   0.978   4.946
  970SOL    HW1 3809   4.611   0.973   5.029
  970SOL    HW2 3810   4.603   0.930   4.871
  971SOL     OW 3811   0.580   1.534   3.027
  971SOL    HW1 3812   0.676   1.515   3.009
  971SOL    HW2 3813   0.537   1.453   3.068
  972SOL     OW 3814   5.661   3.390   1.240
  972SOL    HW1 3815   5.751   3.369   1.280
  972SOL    HW2 3816   5.620   3.307   1.205
  973SOL     OW 3817   0.214   4.559   6.355
  973SOL    HW1 3818   0.196   4.595   6.446
  973SOL    HW2 3819   0.127   4.554   6.304
  974SOL     OW 3820   4.350   0.583   2.139
  974SOL    HW1 3821   4.367   0.625   2.228
  974SOL    HW2 3822   4.319   0.488   2.152
  975SOL     OW 3823   1.680   5.430   6.783
  975SOL    HW1 3824   1.751   5.436   6.853
  975SOL    HW2 3825   1.650   5.335   6.774
  976SOL     OW 3826   5.944   3.166   2.815
  976SOL    HW1 3827   5.953   3.202   2.907
  976SOL    HW2 3828   6.034   3.153   2.774
  977SOL     OW 3829   2.680   1.274   3.632
  977SOL    HW1 3830   2.663   1.336   3.709
  977SOL    HW2 3831   2.739   1.199   3.662
  978SOL     OW 3832   4.957   4.058   5.548
  978SOL    HW1 3833   4.938   3.960   5.543
  978SOL    HW2 3834   4.871   4.109   5.546
  979SOL     OW 3835   6.553   1.768   2.414
  979SOL    HW1 3836   6.580   1.757   2.318
  979SOL    HW2 3837   6.583   1.857   2.447
  980SOL     OW 3838   5.015   1.941   3.628
  980SOL    HW1 3839   5.090   2.001   3.655
  980SOL    HW2 3840   5.008   1.938   3.528
  981SOL     OW 3841   1.567   1.308   5.119
  981SOL    HW1 3842   1.476   1.317   5.159
  981SOL    HW2 3843   1.571   1.225   5.063
  982SOL     OW 3844   2.398   1.999   4.018
  982SOL    HW1 3845   2.326   1.992   4.087
  982SOL    HW2 3846   2.357   2.023   3.930
  983SOL     OW 3847   6.192   2.501   3.085
  983SOL    HW1 3848   6.194   2.488   2.986
  983SOL    HW2 3849   6.275   2.547   3.114
  984SOL     OW 3850   3.474   0.864   4.145
  984SOL    HW1 3851   3.564   0.838   4.111
  984SOL    HW2 3852   3.480   0.952   4.191
  985SOL     OW 3853   5.244   4.713   6.389
  985SOL    HW1 3854   5.261   4.809   6.411
  985SOL    HW2 3855   5.330   4.663   6.389
  986SOL     OW 3856   5.511   5.042   0.238
  986SOL    HW1 3857   5.453   4.960   0.240
  986SOL    HW2 3858   5.607   5.014   0.232
  987SOL     OW 3859   4.113   6.395   1.208
  987SOL    HW1 3860   4.200   6.431   1.240
  987SOL    HW2 3861   4.129   6.307   1.162
  988SOL     OW 3862   3.799   3.305   1.547
  988SOL    HW1 3863   3.725   3.239   1.550
  988SOL    HW2 3864   3.842   3.304   1.456
  989SOL     OW 3865   0.035   0.992   5.373
  989SOL    HW1 3866   6.980   0.961   5.313
  989SOL    HW2 3867   0.123   0.963   5.335
  990SOL     OW 3868   4.587   0.481   2.662
  990SOL    HW1 3869   4.594   0.388   2.627
  990SOL    HW2 3870   4.665   0.501   2.721
  991SOL     OW 3871   2.034   2.366   4.833
  991SOL    HW1 3872   2.026   2.367   4.933
  991SOL    HW2 3873   1.995   2.449   4.796
  992SOL     OW 3874   1.229   4.134   1.086
  992SOL    HW1 3875   1.170   4.190   1.145
  992SOL    HW2 3876   1.184   4.121   0.997
  993SOL     OW 3877   1.682   5.507   2.316
  993SOL    HW1 3878   1.660   5.599   2.282
  993SOL    HW2 3879   1.776   5.507   2.352
  994SOL     OW 3880   3.734   3.289   2.455
  994SOL    HW1 3881   3.797   3.253   2.386
  994SOL    HW2 3882   3.716   3.386   2.437
  995SOL     OW 3883   2.908   1.711   6.109
  995SOL    HW1 3884   2.971   1.788   6.120
  995SOL    HW2 3885   2.834   1.736   6.046
  996SOL     OW 3886   1.687   4.009   4.234
  996SOL    HW1 3887   1.710   4.032   4.139
  996SOL    HW2 3888   1.619   3.936   4.234
  997SOL     OW 3889   6.695   0.662   1.799
  997SOL    HW1 3890   6.758   0.693   1.871
  997SOL    HW2 3891   6.643   0.583   1.832
  998SOL     OW 3892   4.844   6.796   3.997
  998SOL    HW1 3893   4.788   6.796   4.080
  998SOL    HW2 3894   4.836   6.707   3.952
  999SOL     OW 3895   5.652   4.715   1.345
  999SOL    HW1 3896   5.710   4.710   1.263
  999SOL    HW2 3897   5.556   4.724   1.318
 1000SOL     OW 3898   1.360   1.098   2.326
 1000SOL    HW1 3899   1.459   1.109   2.314
 1000SOL    HW2 3900   1.315   1.186   2.314
 1001SOL     OW 3901   6.077   6.857   0.197
 1001SOL    HW1 3902   5.980   6.840   0.218
 1001SOL    HW2 3903   6.121   6.900   0.275
 1002SOL     OW 3904   5.946   1.943   6.552
 1002SOL    HW1 3905   6.001   2.019   6.517
 1002SOL    HW2 3906   5.963   1.932   6.650
 1003SOL     OW 3907   2.560   6.724   1.868
 1003SOL    HW1 3908   2.505   6.730   1.784
 1003SOL    HW2 3909   2.573   6.816   1.905
 1004SOL     OW 3910   6.840   0.457   1.334
 1004SOL    HW1 3911   6.895   0.435   1.254
 1004SOL    HW2 3912   6.828   0.556   1.340
 1005SOL     OW 3913   0.421   1.318   2.862
 1005SOL    HW1 3914   0.502   1.285   2.911
 1005SOL    HW2 3915   0.363   1.370   2.925
 1006SOL     OW 3916   1.737   5.961   1.672
 1006SOL    HW1 3917   1.703   5.948   1.579
 1006SOL    HW2 3918   1.662   5.953   1.737
 1007SOL     OW 3919   5.770   0.443   4.155
 1007SOL    HW1 3920   5.851   0.459   4.100
 1007SOL    HW2 3921   5.707   0.520   4.146
 1008SOL     OW 3922   2.187   3.135   4.862
 1008SOL    HW1 3923   2.235   3.091   4.937
 1008SOL    HW2 3924   2.204   3.085   4.777
 1009SOL     OW 3925   0.602   6.202   4.202
 1009SOL    HW1 3926   0.636   6.267   4.271
 1009SOL    HW2 3927   0.579   6.116   4.246
 1010SOL     OW 3928   3.525   2.339   6.200
 1010SOL    HW1 3929   3.530   2.246   6.238
 1010SOL    HW2 3930   3.430   2.367   6.194
 1011SOL     OW 3931   2.870   5.252   2.561
 1011SOL    HW1 3932   2.949   5.294   2.515
 1011SOL    HW2 3933   2.825   5.188   2.499
 1012SOL     OW 3934   6.830   6.629   0.217
 1012SOL    HW1 3935   6.801   6.722   0.242
 1012SOL    HW2 3936   6.927   6.630   0.192
 1013SOL     OW 3937   0.189   1.562   6.220
 1013SOL    HW1 3938   0.223   1.615   6.143
 1013SOL    HW2 3939   0.212   1.466   6.208
 1014SOL     OW 3940   5.092   5.240   6.598
 1014SOL    HW1 3941   5.057   5.228   6.691
 1014SOL    HW2 3942   5.166   5.307   6.599
 1015SOL     OW 3943   1.935   6.881   5.385
 1015SOL    HW1 3944   1.882   6.844   5.308
 1015SOL    HW2 3945   1.920   6.980   5.391
 1016SOL     OW 3946   2.565   3.868   0.252
 1016SOL    HW1 3947   2.487   3.868   0.314
 1016SOL    HW2 3948   2.607   3.777   0.251
 1017SOL     OW 3949   4.342   2.901   0.915
 1017SOL    HW1 3950   4.297   2.860   0.836
 1017SOL    HW2 3951   4.436   2.867   0.921
 1018SOL     OW 3952   1.642   3.069   3.879
 1018SOL    HW1 3953   1.659   3.134   3.953
 1018SOL    HW2 3954   1.556   3.092   3.833
 1019SOL     OW 3955   1.486   0.811   0.273
 1019SOL    HW1 3956   1.517   0.732   0.327
 1019SOL    HW2 3957   1.479   0.891   0.332
 1020SOL     OW 3958   1.077   6.859   1.307
 1020SOL    HW1 3959   0.985   6.898   1.307
 1020SOL    HW2 3960   1.110   6.850   1.401
 1021SOL     OW 3961   5.936   0.889   1.285
 1021SOL    HW1 3962   6.016   0.937   1.320
 1021SOL    HW2 3963   5.860   0.899   1.349
 1022SOL     OW 3964   3.840   4.579   6.413
 1022SOL    HW1 3965   3.748   4.588   6.453
 1022SOL    HW2 3966   3.842   4.501   6.352
 1023SOL     OW 3967   6.392   0.014   1.571
 1023SOL    HW1 3968   6.383   0.042   1.475
 1023SOL    HW2 3969   6.476   6.980   1.583
 1024SOL     OW 3970   6.178   3.537   4.200
 1024SOL    HW1 3971   6.156   3.487   4.116
 1024SOL    HW2 3972   6.113   3.513   4.271
 1025SOL     OW 3973   3.398   4.344   0.733
 1025SOL    HW1 3974   3.332   4.354   0.807
 1025SOL    HW2 3975   3.350   4.329   0.647
 1026SOL     OW 3976   1.854   1.755   1.469
 1026SOL    HW1 3977   1.949   1.728   1.450
 1026SOL    HW2 3978   1.801   1.749   1.385
 1027SOL     OW 3979   2.555   6.205   1.080
 1027SOL    HW1 3980   2.613   6.286   1.083
 1027SOL    HW2 3981   2.508   6.195   1.168
 1028SOL     OW 3982   4.434   5.849   0.065
 1028SOL    HW1 3983   4.368   5.905   0.016
 1028SOL    HW2 3984   4.401   5.755   0.070
 1029SOL     OW 3985   2.203   0.307   0.208
 1029SOL    HW1 3986   2.302   0.318   0.218
 1029SOL    HW2 3987   2.161   0.395   0.188
 1030SOL     OW 3988   3.793   3.602   1.572
 1030SOL    HW1 3989   3.835   3.512   1.581
 1030SOL    HW2 3990   3.738   3.605   1.489
 1031SOL     OW 3991   5.226   5.230   0.456
 1031SOL    HW1 3992   5.218   5.301   0.386
 1031SOL    HW2 3993   5.210   5.140   0.415
 1032SOL     OW 3994   1.805   1.898   4.666
 1032SOL    HW1 3995   1.773   1.831   4.733
 1032SOL    HW2 3996   1.803   1.990   4.706
 1033SOL     OW 3997   1.962   6.641   1.344
 1033SOL    HW1 3998   1.886   6.646   1.408
 1033SOL    HW2 3999   1.931   6.665   1.252
 1034SOL     OW 4000   1.246   5.678   5.225
 1034SOL    HW1 4001   1.212   5.772   5.216
 1034SOL    HW2 4002   1.287   5.650   5.139
 1035SOL     OW 4003   2.632   1.434   3.841
 1035SOL    HW1 4004   2.645   1.453   3.939
 1035SOL    HW2 4005   2.611   1.519   3.793
 1036SOL     OW 4006   3.548   0.585   1.354
 1036SOL    HW1 4007   3.535   0.684   1.351
 1036SOL    HW2 4008   3.543   0.553   1.449
 1037SOL     OW 4009   2.275   0.953   1.982
 1037SOL    HW1 4010   2.341   0.962   2.058
 1037SOL    HW2 4011   2.200   1.017   1.995
 1038SOL     OW 4012   1.230   0.829   5.792
 1038SOL    HW1 4013   1.208   0.916   5.838
 1038SOL    HW2 4014   1.149   0.793   5.747
 1039SOL     OW 4015   4.320   2.831   5.694
 1039SOL    HW1 4016   4.236   2.784   5.668
 1039SOL    HW2 4017   4.298   2.912   5.749
 1040SOL     OW 4018   5.136   3.010   2.423
 1040SOL    HW1 4019   5.199   3.015   2.500
 1040SOL    HW2 4020   5.151   2.925   2.372
 1041SOL     OW 4021   6.690   6.892   4.142
 1041SOL    HW1 4022   6.716   6.976   4.094
 1041SOL    HW2 4023   6.612   6.850   4.095
 1042SOL     OW 4024   3.501   4.948   2.168
 1042SOL    HW1 4025   3.552   4.893   2.102
 1042SOL    HW2 4026   3.414   4.903   2.189
 1043SOL     OW 4027   4.561   1.129   5.390
 1043SOL    HW1 4028   4.527   1.221   5.373
 1043SOL    HW2 4029   4.615   1.129   5.475
 1044SOL     OW 4030   4.578   4.504   1.860
 1044SOL    HW1 4031   4.520   4.479   1.782
 1044SOL    HW2 4032   4.588   4.425   1.921
 1045SOL     OW 4033   2.366   6.841   2.303
 1045SOL    HW1 4034   2.443   6.826   2.240
 1045SOL    HW2 4035   2.296   6.771   2.288
 1046SOL     OW 4036   2.049   0.071   0.197
 1046SOL    HW1 4037   2.120   0.139   0.214
 1046SOL    HW2 4038   1.959   0.111   0.217
 1047SOL     OW 4039   1.274   6.298   2.569
 1047SOL    HW1 4040   1.366   6.269   2.594
 1047SOL    HW2 4041   1.243   6.367   2.635
 1048SOL     OW 4042   4.784   5.562   5.586
 1048SOL    HW1 4043   4.705   5.554   5.647
 1048SOL    HW2 4044   4.772   5.501   5.507
 1049SOL     OW 4045   6.787   4.856   4.491
 1049SOL    HW1 4046   6.870   4.848   4.546
 1049SOL    HW2 4047   6.710   4.880   4.551
 1050SOL     OW 4048   3.125   5.365   0.835
 1050SOL    HW1 4049   3.070   5.283   0.818
 1050SOL    HW2 4050   3.065   5.445   0.838
 1051SOL     OW 4051   2.944   5.243   0.351
 1051SOL    HW1 4052   3.044   5.241   0.361
 1051SOL    HW2 4053   2.904   5.296   0.425
 1052SOL     OW 4054   4.432   6.857   4.020
 1052SOL    HW1 4055   4.436   6.881   4.117
 1052SOL    HW2 4056   4.399   6.936   3.967
 1053SOL     OW 4057   5.339   5.436   2.611
 1053SOL    HW1 4058   5.421   5.397   2.570
 1053SOL    HW2 4059   5.330   5.404   2.705
 1054SOL     OW 4060   3.200   4.844   5.504
 1054SOL    HW1 4061   3.241   4.762   5.544
 1054SOL    HW2 4062   3.102   4.828   5.489
 1055SOL     OW 4063   5.859   6.944   4.325
 1055SOL    HW1 4064   5.958   6.926   4.323
 1055SOL    HW2 4065   5.843   0.024   4.330
 1056SOL     OW 4066   1.660   6.048   5.675
 1056SOL    HW1 4067   1.738   5.985   5.676
 1056SOL    HW2 4068   1.649   6.086   5.584
 1057SOL     OW 4069   3.300   3.530   2.345
 1057SOL    HW1 4070   3.318   3.510   2.248
 1057SOL    HW2 4071   3.323   3.625   2.365
 1058SOL     OW 4072   4.886   1.419   1.905
 1058SOL    HW1 4073   4.886   1.491   1.835
 1058SOL    HW2 4074   4.792   1.387   1.919
 1059SOL     OW 4075   2.237   0.841   1.041
 1059SOL    HW1 4076   2.196   0.758   1.080
 1059SOL    HW2 4077   2.335   0.840   1.059
 1060SOL     OW 4078   0.452   2.708   4.501
 1060SOL    HW1 4079   0.372   2.724   4.558
 1060SOL    HW2 4080   0.504   2.793   4.492
 1061SOL     OW 4081   5.035   4.022   1.224
 1061SOL    HW1 4082   5.013   4.053   1.317
 1061SOL    HW2 4083   5.090   3.939   1.228
 1062SOL     OW 4084   6.484   5.091   6.052
 1062SOL    HW1 4085   6.405   5.033   6.067
 1062SOL    HW2 4086   6.529   5.066   5.966
 1063SOL     OW 4087   1.288   4.162   1.607
 1063SOL    HW1 4088   1.376   4.139   1.649
 1063SOL    HW2 4089   1.233   4.216   1.671
 1064SOL     OW 4090   1.119   3.965   1.553
 1064SOL    HW1 4091   1.183   4.041   1.564
 1064SOL    HW2 4092   1.047   3.991   1.488
 1065SOL     OW 4093   4.728   0.513   4.242
 1065SOL    HW1 4094   4.800   0.445   4.228
 1065SOL    HW2 4095   4.679   0.528   4.156
 1066SOL     OW 4096   5.738   1.020   4.013
 1066SOL    HW1 4097   5.768   1.065   4.097
 1066SOL    HW2 4098   5.763   0.923   4.017
 1067SOL     OW 4099   1.527   2.716   0.362
 1067SOL    HW1 4100   1.543   2.618   0.371
 1067SOL    HW2 4101   1.576   2.751   0.282
 1068SOL     OW 4102   5.433   4.315   1.908
 1068SOL    HW1 4103   5.505   4.246   1.905
 1068SOL    HW2 4104   5.426   4.361   1.819
 1069SOL     OW 4105   4.989   5.084   1.520
 1069SOL    HW1 4106   4.906   5.123   1.560
 1069SOL    HW2 4107   4.964   5.017   1.450
 1070SOL     OW 4108   1.456   1.076   0.430
 1070SOL    HW1 4109   1.540   1.074   0.485
 1070SOL    HW2 4110   1.383   1.030   0.479
 1071SOL     OW 4111   3.892   0.442   3.244
 1071SOL    HW1 4112   3.954   0.427   3.167
 1071SOL    HW2 4113   3.803   0.472   3.210
 1072SOL     OW 4114   1.553   6.126   1.273
 1072SOL    HW1 4115   1.501   6.049   1.235
 1072SOL    HW2 4116   1.598   6.098   1.357
 1073SOL     OW 4117   3.540   6.017   2.720
 1073SOL    HW1 4118   3.550   5.949   2.792
 1073SOL    HW2 4119   3.529   6.107   2.760
 1074SOL     OW 4120   1.890   5.378   1.349
 1074SOL    HW1 4121   1.874   5.375   1.448
 1074SOL    HW2 4122   1.803   5.368   1.301
 1075SOL     OW 4123   4.347   6.627   3.457
 1075SOL    HW1 4124   4.265   6.628   3.514
 1075SOL    HW2 4125   4.422   6.584   3.508
 1076SOL     OW 4126   0.326   4.817   4.985
 1076SOL    HW1 4127   0.346   4.910   4.952
 1076SOL    HW2 4128   0.412   4.766   4.991
 1077SOL     OW 4129   6.376   0.175   0.065
 1077SOL    HW1 4130   6.285   0.179   0.107
 1077SOL    HW2 4131   6.370   0.205   6.988
 1078SOL     OW 4132   1.980   1.049   2.628
 1078SOL    HW1 4133   2.048   1.056   2.554
 1078SOL    HW2 4134   1.976   0.954   2.661
 1079SOL     OW 4135   1.954   5.428   2.657
 1079SOL    HW1 4136   1.951   5.417   2.557
 1079SOL    HW2 4137   1.913   5.349   2.701
 1080SOL     OW 4138   1.785   4.417   3.548
 1080SOL    HW1 4139   1.874   4.401   3.507
 1080SOL    HW2 4140   1.734   4.484   3.494
 1081SOL     OW 4141   6.797   0.183   5.357
 1081SOL    HW1 4142   6.700   0.201   5.376
 1081SOL    HW2 4143   6.805   0.118   5.282
 1082SOL     OW 4144   2.046   1.141   5.680
 1082SOL    HW1 4145   1.964   1.162   5.627
 1082SOL    HW2 4146   2.126   1.173   5.630
 1083SOL     OW 4147   3.967   4.307   1.206
 1083SOL    HW1 4148   3.901   4.275   1.274
 1083SOL    HW2 4149   3.919   4.359   1.135
 1084SOL     OW 4150   6.505   5.938   0.907
 1084SOL    HW1 4151   6.527   5.847   0.942
 1084SOL    HW2 4152   6.551   6.007   0.963
 1085SOL     OW 4153   1.968   4.649   3.154
 1085SOL    HW1 4154   1.918   4.632   3.069
 1085SOL    HW2 4155   2.060   4.610   3.147
 1086SOL     OW 4156   6.698   5.905   3.003
 1086SOL    HW1 4157   6.757   5.985   3.011
 1086SOL    HW2 4158   6.653   5.906   2.913
 1087SOL     OW 4159   5.822   2.342   5.775
 1087SOL    HW1 4160   5.902   2.285   5.794
 1087SOL    HW2 4161   5.852   2.429   5.735
 1088SOL     OW 4162   5.998   5.027   3.318
 1088SOL    HW1 4163   6.052   5.032   3.234
 1088SOL    HW2 4164   6.015   5.109   3.373
 1089SOL     OW 4165   1.444   7.010   4.772
 1089SOL    HW1 4166   1.414   6.935   4.713
 1089SOL    HW2 4167   1.388   7.013   4.854
 1090SOL     OW 4168   2.970   1.395   3.661
 1090SOL    HW1 4169   2.884   1.399   3.712
 1090SOL    HW2 4170   3.020   1.312   3.686
 1091SOL     OW 4171   1.994   2.874   4.641
 1091SOL    HW1 4172   2.012   2.970   4.618
 1091SOL    HW2 4173   2.024   2.816   4.565
 1092SOL     OW 4174   2.998   3.529   0.941
 1092SOL    HW1 4175   3.015   3.451   1.001
 1092SOL    HW2 4176   2.968   3.607   0.996
 1093SOL     OW 4177   1.948   2.359   2.821
 1093SOL    HW1 4178   1.991   2.271   2.837
 1093SOL    HW2 4179   2.010   2.433   2.847
 1094SOL     OW 4180   1.051   0.021   3.203
 1094SOL    HW1 4181   1.147   0.004   3.224
 1094SOL    HW2 4182   1.005   0.060   3.282
 1095SOL     OW 4183   6.855   2.106   5.701
 1095SOL    HW1 4184   6.880   2.184   5.758
 1095SOL    HW2 4185   6.759   2.112   5.676
 1096SOL     OW 4186   3.652   4.638   1.581
 1096SOL    HW1 4187   3.626   4.629   1.677
 1096SOL    HW2 4188   3.579   4.687   1.532
 1097SOL     OW 4189   0.757   4.461   4.315
 1097SOL    HW1 4190   0.809   4.431   4.394
 1097SOL    HW2 4191   0.722   4.553   4.330
 1098SOL     OW 4192   5.521   2.702   0.749
 1098SOL    HW1 4193   5.500   2.759   0.670
 1098SOL    HW2 4194   5.526   2.759   0.832
 1099SOL     OW 4195   3.881   1.114   4.674
 1099SOL    HW1 4196   3.908   1.185   4.609
 1099SOL    HW2 4197   3.898   1.146   4.767
 1100SOL     OW 4198   2.479   1.954   6.515
 1100SOL    HW1 4199   2.574   1.944   6.487
 1100SOL    HW2 4200   2.427   2.000   6.443
 1101SOL     OW 4201   5.468   2.905   0.972
 1101SOL    HW1 4202   5.386   2.848   0.971
 1101SOL    HW2 4203   5.441   3.001   0.959
 1102SOL     OW 4204   1.996   5.275   3.103
 1102SOL    HW1 4205   2.000   5.176   3.087
 1102SOL    HW2 4206   1.922   5.295   3.167
 1103SOL     OW 4207   2.850   1.091   1.275
 1103SOL    HW1 4208   2.844   1.161   1.203
 1103SOL    HW2 4209   2.944   1.084   1.307
 1104SOL     OW 4210   1.900   3.283   6.470
 1104SOL    HW1 4211   1.944   3.315   6.386
 1104SOL    HW2 4212   1.965   3.228   6.523
 1105SOL     OW 4213   4.984   3.340   5.430
 1105SOL    HW1 4214   5.015   3.364   5.522
 1105SOL    HW2 4215   5.003   3.416   5.368
 1106SOL     OW 4216   1.117   1.943   0.626
 1106SOL    HW1 4217   1.115   1.931   0.726
 1106SOL    HW2 4218   1.027   1.923   0.588
 1107SOL     OW 4219   0.775   0.568   6.547
 1107SOL    HW1 4220   0.743   0.579   6.453
 1107SOL    HW2 4221   0.856   0.625   6.561
 1108SOL     OW 4222   2.713   0.279   6.253
 1108SOL    HW1 4223   2.750   0.217   6.323
 1108SOL    HW2 4224   2.615   0.289   6.268
 1109SOL     OW 4225   4.305   5.457   4.806
 1109SOL    HW1 4226   4.217   5.461   4.758
 1109SOL    HW2 4227   4.356   5.541   4.789
 1110SOL     OW 4228   2.825   1.685   2.274
 1110SOL    HW1 4229   2.907   1.686   2.332
 1110SOL    HW2 4230   2.832   1.757   2.205
 1111SOL     OW 4231   5.710   6.028   0.327
 1111SOL    HW1 4232   5.729   6.000   0.233
 1111SOL    HW2 4233   5.618   6.065   0.334
 1112SOL     OW 4234   6.141   0.937   2.820
 1112SOL    HW1 4235   6.163   1.025   2.776
 1112SOL    HW2 4236   6.219   0.908   2.876
 1113SOL     OW 4237   5.967   3.389   2.441
 1113SOL    HW1 4238   6.053   3.359   2.482
 1113SOL    HW2 4239   5.908   3.430   2.511
 1114SOL     OW 4240   4.555   0.665   6.556
 1114SOL    HW1 4241   4.606   0.593   6.603
 1114SOL    HW2 4242   4.514   0.726   6.623
 1115SOL     OW 4243   4.027   3.385   6.897
 1115SOL    HW1 4244   4.062   3.473   6.864
 1115SOL    HW2 4245   3.927   3.386   6.896
 1116SOL     OW 4246   5.829   5.487   4.351
 1116SOL    HW1 4247   5.782   5.511   4.267
 1116SOL    HW2 4248   5.909   5.432   4.330
 1117SOL     OW 4249   2.278   2.480   1.659
 1117SOL    HW1 4250   2.227   2.563   1.638
 1117SOL    HW2 4251   2.227   2.426   1.727
 1118SOL     OW 4252   1.944   4.990   1.994
 1118SOL    HW1 4253   1.966   4.893   1.982
 1118SOL    HW2 4254   1.997   5.026   2.070
 1119SOL     OW 4255   4.122   4.449   1.387
 1119SOL    HW1 4256   4.053   4.424   1.320
 1119SOL    HW2 4257   4.203   4.392   1.374
 1120SOL     OW 4258   5.111   6.205   5.564
 1120SOL    HW1 4259   5.068   6.133   5.510
 1120SOL    HW2 4260   5.110   6.179   5.661
 1121SOL     OW 4261   5.203   4.292   2.297
 1121SOL    HW1 4262   5.133   4.350   2.339
 1121SOL    HW2 4263   5.208   4.205   2.346
 1122SOL     OW 4264   4.937   3.069   5.875
 1122SOL    HW1 4265   4.877   3.083   5.796
 1122SOL    HW2 4266   5.025   3.033   5.845
 1123SOL     OW 4267   4.923   1.674   2.054
 1123SOL    HW1 4268   4.962   1.690   2.145
 1123SOL    HW2 4269   4.961   1.589   2.016
 1124SOL     OW 4270   6.309   3.904   5.277
 1124SOL    HW1 4271   6.218   3.866   5.257
 1124SOL    HW2 4272   6.306   4.003   5.264
 1125SOL     OW 4273   1.955   1.424   5.009
 1125SOL    HW1 4274   2.034   1.483   4.994
 1125SOL    HW2 4275   1.878   1.479   5.042
 1126SOL     OW 4276   5.392   6.746   0.380
 1126SOL    HW1 4277   5.479   6.779   0.417
 1126SOL    HW2 4278   5.357   6.811   0.313
 1127SOL     OW 4279   4.651   5.724   5.160
 1127SOL    HW1 4280   4.643   5.786   5.238
 1127SOL    HW2 4281   4.746   5.696   5.150
 1128SOL     OW 4282   4.850   2.241   5.253
 1128SOL    HW1 4283   4.820   2.335   5.238
 1128SOL    HW2 4284   4.918   2.240   5.326
 1129SOL     OW 4285   3.874   6.850   0.438
 1129SOL    HW1 4286   3.812   6.924   0.410
 1129SOL    HW2 4287   3.960   6.859   0.388
 1130SOL     OW 4288   2.086   3.806   1.196
 1130SOL    HW1 4289   2.004   3.765   1.235
 1130SOL    HW2 4290   2.076   3.905   1.193
 1131SOL     OW 4291   0.687   6.581   5.754
 1131SOL    HW1 4292   0.643   6.513   5.812
 1131SOL    HW2 4293   0.649   6.574   5.661
 1132SOL     OW 4294   4.385   6.807   6.987
 1132SOL    HW1 4295   4.397   6.717   6.944
 1132SOL    HW2 4296   4.469   6.860   6.976
 1133SOL     OW 4297   6.967   1.616   0.434
 1133SOL    HW1 4298   6.966   1.705   0.479
 1133SOL    HW2 4299   6.892   1.560   0.469
 1134SOL     OW 4300   5.470   1.617   0.460
 1134SOL    HW1 4301   5.380   1.589   0.427
 1134SOL    HW2 4302   5.471   1.616   0.560
 1135SOL     OW 4303   2.977   1.491   2.746
 1135SOL    HW1 4304   3.006   1.395   2.744
 1135SOL    HW2 4305   3.052   1.549   2.714
 1136SOL     OW 4306   3.520   5.121   5.098
 1136SOL    HW1 4307   3.499   5.198   5.158
 1136SOL    HW2 4308   3.447   5.053   5.104
 1137SOL     OW 4309   0.957   2.960   0.260
 1137SOL    HW1 4310   0.973   2.879   0.203
 1137SOL    HW2 4311   1.045   3.002   0.282
 1138SOL     OW 4312   0.909   1.941   6.138
 1138SOL    HW1 4313   0.963   1.876   6.192
 1138SOL    HW2 4314   0.889   2.021   6.194
 1139SOL     OW 4315   2.485   6.437   1.998
 1139SOL    HW1 4316   2.453   6.432   2.092
 1139SOL    HW2 4317   2.478   6.531   1.964
 1140SOL     OW 4318   3.818   1.798   2.069
 1140SOL    HW1 4319   3.800   1.745   1.986
 1140SOL    HW2 4320   3.732   1.840   2.101
 1141SOL     OW 4321   6.352   5.836   6.208
 1141SOL    HW1 4322   6.346   5.911   6.142
 1141SOL    HW2 4323   6.290   5.853   6.284
 1142SOL     OW 4324   4.048   0.407   4.330
 1142SOL    HW1 4325   4.126   0.418   4.392
 1142SOL    HW2 4326   4.071   0.338   4.261
 1143SOL     OW 4327   3.201   2.020   2.322
 1143SOL    HW1 4328   3.233   1.998   2.230
 1143SOL    HW2 4329   3.116   2.073   2.316
 1144SOL     OW 4330   6.749   4.920   4.995
 1144SOL    HW1 4331   6.784   4.854   5.062
 1144SOL    HW2 4332   6.817   4.934   4.924
 1145SOL     OW 4333   0.275   4.240   3.148
 1145SOL    HW1 4334   0.353   4.209   3.201
 1145SOL    HW2 4335   0.190   4.219   3.197
 1146SOL     OW 4336   5.341   0.682   0.881
 1146SOL    HW1 4337   5.264   0.695   0.819
 1146SOL    HW2 4338   5.368   0.771   0.918
 1147SOL     OW 4339   0.817   4.789   0.316
 1147SOL    HW1 4340   0.860   4.708   0.356
 1147SOL    HW2 4341   0.820   4.865   0.381
 1148SOL     OW 4342   3.550   6.563   0.458
 1148SOL    HW1 4343   3.467   6.570   0.514
 1148SOL    HW2 4344   3.631   6.571   0.517
 1149SOL     OW 4345   5.515   3.715   3.207
 1149SOL    HW1 4346   5.592   3.667   3.248
 1149SOL    HW2 4347   5.544   3.807   3.178
 1150SOL     OW 4348   1.144   4.033   0.846
 1150SOL    HW1 4349   1.048   4.018   0.821
 1150SOL    HW2 4350   1.190   4.083   0.772
 1151SOL     OW 4351   5.134   5.588   6.514
 1151SOL    HW1 4352   5.183   5.603   6.427
 1151SOL    HW2 4353   5.036   5.597   6.498
 1152SOL     OW 4354   0.873   6.292   5.801
 1152SOL    HW1 4355   0.919   6.290   5.889
 1152SOL    HW2 4356   0.853   6.199   5.771
 1153SOL     OW 4357   2.388   0.238   1.731
 1153SOL    HW1 4358   2.294   0.229   1.765
 1153SOL    HW2 4359   2.400   0.176   1.652
 1154SOL     OW 4360   0.298   3.466   2.144
 1154SOL    HW1 4361   0.310   3.380   2.095
 1154SOL    HW2 4362   0.282   3.540   2.078
 1155SOL     OW 4363   3.276   5.011   6.650
 1155SOL    HW1 4364   3.341   4.936   6.632
 1155SOL    HW2 4365   3.197   5.002   6.591
 1156SOL     OW 4366   1.841   0.327   4.281
 1156SOL    HW1 4367   1.821   0.346   4.185
 1156SOL    HW2 4368   1.811   0.403   4.338
 1157SOL     OW 4369   6.112   1.924   4.280
 1157SOL    HW1 4370   6.084   1.902   4.374
 1157SOL    HW2 4371   6.042   1.893   4.216
 1158SOL     OW 4372   6.761   5.208   5.694
 1158SOL    HW1 4373   6.688   5.243   5.635
 1158SOL    HW2 4374   6.847   5.253   5.672
 1159SOL     OW 4375   5.154   0.294   3.079
 1159SOL    HW1 4376   5.143   0.376   3.023
 1159SOL    HW2 4377   5.227   0.237   3.042
 1160SOL     OW 4378   4.042   4.131   1.497
 1160SOL    HW1 4379   4.004   4.042   1.524
 1160SOL    HW2 4380   3.977   4.203   1.521
 1161SOL     OW 4381   4.858   6.892   5.855
 1161SOL    HW1 4382   4.902   6.823   5.797
 1161SOL    HW2 4383   4.778   6.928   5.808
 1162SOL     OW 4384   3.752   3.073   0.572
 1162SOL    HW1 4385   3.839   3.124   0.570
 1162SOL    HW2 4386   3.732   3.038   0.481
 1163SOL     OW 4387   5.373   3.080   2.156
 1163SOL    HW1 4388   5.417   3.134   2.085
 1163SOL    HW2 4389   5.282   3.052   2.125
 1164SOL     OW 4390   5.234   2.582   3.834
 1164SOL    HW1 4391   5.149   2.530   3.827
 1164SOL    HW2 4392   5.227   2.665   3.779
 1165SOL     OW 4393   2.235   4.636   4.171
 1165SOL    HW1 4394   2.158   4.636   4.235
 1165SOL    HW2 4395   2.211   4.585   4.089
 1166SOL     OW 4396   3.969   0.744   6.938
 1166SOL    HW1 4397   4.040   0.743   6.867
 1166SOL    HW2 4398   4.001   0.693   7.017
 1167SOL     OW 4399   2.876   0.177   6.494
 1167SOL    HW1 4400   2.950   0.127   6.539
 1167SOL    HW2 4401   2.793   0.122   6.496
 1168SOL     OW 4402   6.588   6.763   2.317
 1168SOL    HW1 4403   6.548   6.691   2.260
 1168SOL    HW2 4404   6.664   6.725   2.370
 1169SOL     OW 4405   6.902   2.688   0.399
 1169SOL    HW1 4406   6.847   2.771   0.408
 1169SOL    HW2 4407   6.994   2.705   0.434
 1170SOL     OW 4408   4.889   0.733   1.894
 1170SOL    HW1 4409   4.790   0.715   1.889
 1170SOL    HW2 4410   4.910   0.777   1.981
 1171SOL     OW 4411   2.314   5.911   0.202
 1171SOL    HW1 4412   2.306   5.879   0.296
 1171SOL    HW2 4413   2.267   5.847   0.141
 1172SOL     OW 4414   3.616   4.136   3.112
 1172SOL    HW1 4415   3.685   4.096   3.172
 1172SOL    HW2 4416   3.525   4.104   3.139
 1173SOL     OW 4417   2.953   0.113   6.066
 1173SOL    HW1 4418   2.933   0.187   6.001
 1173SOL    HW2 4419   2.885   0.114   6.139
 1174SOL     OW 4420   2.941   5.164   0.787
 1174SOL    HW1 4421   2.844   5.162   0.813
 1174SOL    HW2 4422   2.972   5.071   0.768
 1175SOL     OW 4423   5.258   3.317   6.501
 1175SOL    HW1 4424   5.158   3.319   6.506
 1175SOL    HW2 4425   5.293   3.239   6.553
 1176SOL     OW 4426   5.794   4.212   0.582
 1176SOL    HW1 4427   5.857   4.276   0.539
 1176SOL    HW2 4428   5.700   4.239   0.563
 1177SOL     OW 4429   6.949   1.603   5.186
 1177SOL    HW1 4430   6.936   1.529   5.120
 1177SOL    HW2 4431   6.981   1.564   5.273
 1178SOL     OW 4432   3.901   3.290   1.253
 1178SOL    HW1 4433   3.808   3.324   1.270
 1178SOL    HW2 4434   3.911   3.266   1.157
 1179SOL     OW 4435   2.878   5.423   0.567
 1179SOL    HW1 4436   2.920   5.380   0.646
 1179SOL    HW2 4437   2.915   5.515   0.555
 1180SOL     OW 4438   2.877   0.218   3.456
 1180SOL    HW1 4439   2.875   0.314   3.427
 1180SOL    HW2 4440   2.861   0.159   3.377
 1181SOL     OW 4441   0.412   2.780   4.912
 1181SOL    HW1 4442   0.354   2.753   4.835
 1181SOL    HW2 4443   0.494   2.722   4.914
 1182SOL     OW 4444   1.804   5.023   3.374
 1182SOL    HW1 4445   1.742   4.991   3.445
 1182SOL    HW2 4446   1.782   4.977   3.288
 1183SOL     OW 4447   3.429   5.513   2.597
 1183SOL    HW1 4448   3.516   5.512   2.547
 1183SOL    HW2 4449   3.356   5.478   2.538
 1184SOL     OW 4450   3.558   1.789   5.300
 1184SOL    HW1 4451   3.489   1.819   5.365
 1184SOL    HW2 4452   3.634   1.854   5.299
 1185SOL     OW 4453   2.466   0.185   0.022
 1185SOL    HW1 4454   2.434   0.259   0.082
 1185SOL    HW2 4455   2.495   0.107   0.077
 1186SOL     OW 4456   5.880   6.798   6.097
 1186SOL    HW1 4457   5.963   6.835   6.056
 1186SOL    HW2 4458   5.802   6.820   6.039
 1187SOL     OW 4459   5.618   6.034   4.910
 1187SOL    HW1 4460   5.624   5.987   4.822
 1187SOL    HW2 4461   5.692   6.002   4.970
 1188SOL     OW 4462   3.438   6.665   6.348
 1188SOL    HW1 4463   3.440   6.696   6.443
 1188SOL    HW2 4464   3.414   6.743   6.289
 1189SOL     OW 4465   5.397   0.785   1.888
 1189SOL    HW1 4466   5.313   0.734   1.872
 1189SOL    HW2 4467   5.379   0.883   1.885
 1190SOL     OW 4468   4.294   4.879   4.648
 1190SOL    HW1 4469   4.236   4.959   4.639
 1190SOL    HW2 4470   4.350   4.887   4.731
 1191SOL     OW 4471   4.143   5.892   5.155
 1191SOL    HW1 4472   4.107   5.830   5.086
 1191SOL    HW2 4473   4.074   5.905   5.227
 1192SOL     OW 4474   5.706   5.122   3.054
 1192SOL    HW1 4475   5.723   5.167   3.142
 1192SOL    HW2 4476   5.612   5.087   3.052
 1193SOL     OW 4477   6.601   0.393   4.374
 1193SOL    HW1 4478   6.645   0.425   4.290
 1193SOL    HW2 4479   6.643   0.437   4.453
 1194SOL     OW 4480   0.220   1.513   1.178
 1194SOL    HW1 4481   0.195   1.417   1.190
 1194SOL    HW2 4482   0.310   1.519   1.135
 1195SOL     OW 4483   5.629   2.192   0.709
 1195SOL    HW1 4484   5.644   2.290   0.697
 1195SOL    HW2 4485   5.597   2.175   0.802
 1196SOL     OW 4486   0.068   4.688   2.055
 1196SOL    HW1 4487   0.097   4.689   2.151
 1196SOL    HW2 4488   0.022   4.601   2.036
 1197SOL     OW 4489   3.654   5.739   5.005
 1197SOL    HW1 4490   3.703   5.703   5.085
 1197SOL    HW2 4491   3.665   5.676   4.928
 1198SOL     OW 4492   2.373   2.700   2.387
 1198SOL    HW1 4493   2.386   2.658   2.476
 1198SOL    HW2 4494   2.438   2.662   2.322
 1199SOL     OW 4495   3.772   3.201   2.974
 1199SOL    HW1 4496   3.791   3.285   2.924
 1199SOL    HW2 4497   3.709   3.144   2.921
 1200SOL     OW 4498   3.882   4.099   4.709
 1200SOL    HW1 4499   3.920   4.140   4.627
 1200SOL    HW2 4500   3.868   4.001   4.694
 1201SOL     OW 4501   0.224   1.213   4.104
 1201SOL    HW1 4502   0.300   1.273   4.129
 1201SOL    HW2 4503   0.254   1.151   4.032
 1202SOL     OW 4504   6.515   0.697   5.769
 1202SOL    HW1 4505   6.538   0.770   5.833
 1202SOL    HW2 4506   6.554   0.611   5.801
 1203SOL     OW 4507   5.984   6.767   1.380
 1203SOL    HW1 4508   6.054   6.767   1.452
 1203SOL    HW2 4509   5.922   6.844   1.394
 1204SOL     OW 4510   4.182   1.455   0.238
 1204SOL    HW1 4511   4.095   1.408   0.230
 1204SOL    HW2 4512   4.231   1.423   0.319
 1205SOL     OW 4513   3.913   3.408   6.508
 1205SOL    HW1 4514   3.904   3.437   6.603
 1205SOL    HW2 4515   3.882   3.314   6.498
 1206SOL     OW 4516   1.229   2.151   4.923
 1206SOL    HW1 4517   1.265   2.111   4.839
 1206SOL    HW2 4518   1.214   2.249   4.910
 1207SOL     OW 4519   0.578   0.109   0.496
 1207SOL    HW1 4520   0.500   0.116   0.434
 1207SOL    HW2 4521   0.556   0.045   0.570
 1208SOL     OW 4522   3.417   4.111   2.466
 1208SOL    HW1 4523   3.429   4.125   2.368
 1208SOL    HW2 4524   3.326   4.072   2.483
 1209SOL     OW 4525   5.600   6.878   4.492
 1209SOL    HW1 4526   5.581   6.822   4.412
 1209SOL    HW2 4527   5.699   6.887   4.503
 1210SOL     OW 4528   4.413   6.790   3.735
 1210SOL    HW1 4529   4.468   6.789   3.818
 1210SOL    HW2 4530   4.473   6.784   3.655
 1211SOL     OW 4531   1.753   3.545   3.117
 1211SOL    HW1 4532   1.719   3.627   3.163
 1211SOL    HW2 4533   1.797   3.485   3.184
 1212SOL     OW 4534   0.338   2.072   5.677
 1212SOL    HW1 4535   0.309   2.114   5.763
 1212SOL    HW2 4536   0.260   2.070   5.613
 1213SOL     OW 4537   5.638   3.111   5.056
 1213SOL    HW1 4538   5.670   3.017   5.066
 1213SOL    HW2 4539   5.688   3.171   5.119
 1214SOL     OW 4540   1.220   3.415   4.789
 1214SOL    HW1 4541   1.184   3.508   4.778
 1214SOL    HW2 4542   1.144   3.350   4.784
 1215SOL     OW 4543   1.845   5.197   2.555
 1215SOL    HW1 4544   1.880   5.185   2.462
 1215SOL    HW2 4545   1.763   5.255   2.552
 1216SOL     OW 4546   0.231   6.909   1.168
 1216SOL    HW1 4547   0.237   6.815   1.200
 1216SOL    HW2 4548   0.257   6.971   1.243
 1217SOL     OW 4549   2.502   5.978   0.914
 1217SOL    HW1 4550   2.519   6.066   0.959
 1217SOL    HW2 4551   2.478   5.910   0.983
 1218SOL     OW 4552   0.627   3.211   5.036
 1218SOL    HW1 4553   0.569   3.146   4.987
 1218SOL    HW2 4554   0.722   3.200   5.008
 1219SOL     OW 4555   4.595   4.960   1.463
 1219SOL    HW1 4556   4.631   4.867   1.453
 1219SOL    HW2 4557   4.497   4.959   1.443
 1220SOL     OW 4558   5.430   3.917   2.899
 1220SOL    HW1 4559   5.510   3.955   2.945
 1220SOL    HW2 4560   5.397   3.982   2.831
 1221SOL     OW 4561   5.989   3.966   6.387
 1221SOL    HW1 4562   5.947   3.939   6.473
 1221SOL    HW2 4563   6.076   3.917   6.375
 1222SOL     OW 4564   6.499   0.353   0.491
 1222SOL    HW1 4565   6.421   0.412   0.472
 1222SOL    HW2 4566   6.470   0.276   0.548
 1223SOL     OW 4567   5.541   1.256   0.580
 1223SOL    HW1 4568   5.472   1.217   0.641
 1223SOL    HW2 4569   5.548   1.200   0.498
 1224SOL     OW 4570   3.226   5.746   0.274
 1224SOL    HW1 4571   3.325   5.746   0.267
 1224SOL    HW2 4572   3.190   5.659   0.240
 1225SOL     OW 4573   4.177   2.823   1.119
 1225SOL    HW1 4574   4.087   2.866   1.120
 1225SOL    HW2 4575   4.228   2.856   1.040
 1226SOL     OW 4576   4.921   5.904   0.607
 1226SOL    HW1 4577   5.013   5.941   0.618
 1226SOL    HW2 4578   4.862   5.938   0.680
 1227SOL     OW 4579   6.229   4.981   6.037
 1227SOL    HW1 4580   6.227   5.015   5.943
 1227SOL    HW2 4581   6.160   5.028   6.091
 1228SOL     OW 4582   3.853   3.366   0.446
 1228SOL    HW1 4583   3.877   3.370   0.349
 1228SOL    HW2 4584   3.881   3.451   0.491
 1229SOL     OW 4585   1.777   6.534   1.668
 1229SOL    HW1 4586   1.789   6.633   1.676
 1229SOL    HW2 4587   1.777   6.493   1.759
 1230SOL     OW 4588   5.305   5.632   2.869
 1230SOL    HW1 4589   5.308   5.532   2.870
 1230SOL    HW2 4590   5.390   5.667   2.827
 1231SOL     OW 4591   1.159   2.409   6.187
 1231SOL    HW1 4592   1.185   2.325   6.236
 1231SOL    HW2 4593   1.230   2.477   6.199
 1232SOL     OW 4594   4.702   1.023   5.164
 1232SOL    HW1 4595   4.793   0.991   5.190
 1232SOL    HW2 4596   4.681   1.107   5.214
 1233SOL     OW 4597   1.133   5.618   3.541
 1233SOL    HW1 4598   1.225   5.648   3.566
 1233SOL    HW2 4599   1.125   5.615   3.441
 1234SOL     OW 4600   6.962   2.376   6.250
 1234SOL    HW1 4601   6.875   2.416   6.278
 1234SOL    HW2 4602   7.016   2.444   6.202
 1235SOL     OW 4603   6.708   4.606   0.016
 1235SOL    HW1 4604   6.652   4.674   0.063
 1235SOL    HW2 4605   6.804   4.623   0.035
 1236SOL     OW 4606   4.150   2.019   1.012
 1236SOL    HW1 4607   4.068   1.961   1.007
 1236SOL    HW2 4608   4.171   2.039   1.108
 1237SOL     OW 4609   1.598   6.008   4.765
 1237SOL    HW1 4610   1.527   6.002   4.835
 1237SOL    HW2 4611   1.605   5.921   4.717
 1238SOL     OW 4612   0.377   6.825   3.909
 1238SOL    HW1 4613   0.294   6.791   3.866
 1238SOL    HW2 4614   0.415   6.753   3.969
 1239SOL     OW 4615   6.332   5.881   5.033
 1239SOL    HW1 4616   6.270   5.933   4.975
 1239SOL    HW2 4617   6.427   5.904   5.009
 1240SOL     OW 4618   6.058   4.563   2.176
 1240SOL    HW1 4619   6.140   4.507   2.191
 1240SOL    HW2 4620   6.040   4.619   2.257
 1241SOL     OW 4621   0.065   4.411   4.998
 1241SOL    HW1 4622   0.009   4.384   5.076
 1241SOL    HW2 4623   0.018   4.383   4.913
 1242SOL     OW 4624   2.330   3.378   0.626
 1242SOL    HW1 4625   2.385   3.386   0.544
 1242SOL    HW2 4626   2.388   3.392   0.707
 1243SOL     OW 4627   0.884   1.416   4.665
 1243SOL    HW1 4628   0.978   1.448   4.682
 1243SOL    HW2 4629   0.860   1.434   4.570
 1244SOL     OW 4630   5.157   6.614   5.351
 1244SOL    HW1 4631   5.202   6.617   5.441
 1244SOL    HW2 4632   5.214   6.562   5.288
 1245SOL     OW 4633   5.400   5.403   0.895
 1245SOL    HW1 4634   5.319   5.461   0.899
 1245SOL    HW2 4635   5.420   5.382   0.799
 1246SOL     OW 4636   3.661   0.878   2.145
 1246SOL    HW1 4637   3.656   0.875   2.046
 1246SOL    HW2 4638   3.669   0.973   2.176
 1247SOL     OW 4639   6.033   0.318   5.011
 1247SOL    HW1 4640   6.019   0.369   4.927
 1247SOL    HW2 4641   6.114   0.261   5.002
 1248SOL     OW 4642   1.433   6.323   4.095
 1248SOL    HW1 4643   1.422   6.390   4.168
 1248SOL    HW2 4644   1.525   6.330   4.056
 1249SOL     OW 4645   0.155   4.347   1.800
 1249SOL    HW1 4646   0.160   4.285   1.721
 1249SOL    HW2 4647   0.089   4.420   1.780
 1250SOL     OW 4648   5.985   3.429   4.360
 1250SOL    HW1 4649   5.919   3.355   4.368
 1250SOL    HW2 4650   5.957   3.507   4.416
 1251SOL     OW 4651   2.339   1.008   2.768
 1251SOL    HW1 4652   2.430   0.992   2.806
 1251SOL    HW2 4653   2.271   1.012   2.842
 1252SOL     OW 4654   3.193   5.288   6.615
 1252SOL    HW1 4655   3.234   5.201   6.644
 1252SOL    HW2 4656   3.156   5.335   6.695
 1253SOL     OW 4657   2.714   0.575   1.359
 1253SOL    HW1 4658   2.760   0.493   1.328
 1253SOL    HW2 4659   2.639   0.597   1.297
 1254SOL     OW 4660   6.287   2.821   2.762
 1254SOL    HW1 4661   6.329   2.731   2.775
 1254SOL    HW2 4662   6.353   2.893   2.785
 1255SOL     OW 4663   5.870   2.651   6.012
 1255SOL    HW1 4664   5.892   2.554   6.019
 1255SOL    HW2 4665   5.846   2.673   5.917
 1256SOL     OW 4666   0.491   6.087   3.164
 1256SOL    HW1 4667   0.525   6.180   3.182
 1256SOL    HW2 4668   0.391   6.087   3.165
 1257SOL     OW 4669   0.091   4.847   4.156
 1257SOL    HW1 4670   0.013   4.794   4.190
 1257SOL    HW2 4671   0.100   4.931   4.210
 1258SOL     OW 4672   1.869   5.684   2.701
 1258SOL    HW1 4673   1.889   5.591   2.668
 1258SOL    HW2 4674   1.775   5.688   2.733
 1259SOL     OW 4675   3.064   6.218   5.411
 1259SOL    HW1 4676   3.100   6.220   5.504
 1259SOL    HW2 4677   3.029   6.308   5.386
 1260SOL     OW 4678   3.470   1.177   1.114
 1260SOL    HW1 4679   3.557   1.140   1.147
 1260SOL    HW2 4680   3.479   1.204   1.018
 1261SOL     OW 4681   0.040   4.006   0.072
 1261SOL    HW1 4682   7.010   3.977   7.007
 1261SOL    HW2 4683   0.138   3.987   0.062
 1262SOL     OW 4684   4.714   5.164   1.637
 1262SOL    HW1 4685   4.651   5.107   1.585
 1262SOL    HW2 4686   4.734   5.121   1.725
 1263SOL     OW 4687   6.449   1.490   0.711
 1263SOL    HW1 4688   6.395   1.507   0.628
 1263SOL    HW2 4689   6.536   1.539   0.704
 1264SOL     OW 4690   1.069   3.754   2.045
 1264SOL    HW1 4691   1.152   3.753   1.990
 1264SOL    HW2 4692   1.090   3.784   2.138
 1265SOL     OW 4693   6.666   4.365   3.292
 1265SOL    HW1 4694   6.636   4.317   3.375
 1265SOL    HW2 4695   6.763   4.390   3.301
 1266SOL     OW 4696   2.330   0.667   3.939
 1266SOL    HW1 4697   2.378   0.641   3.855
 1266SOL    HW2 4698   2.264   0.739   3.918
 1267SOL     OW 4699   5.345   6.055   0.929
 1267SOL    HW1 4700   5.258   6.011   0.907
 1267SOL    HW2 4701   5.343   6.087   1.024
 1268SOL     OW 4702   4.562   2.289   6.700
 1268SOL    HW1 4703   4.563   2.343   6.616
 1268SOL    HW2 4704   4.487   2.223   6.697
 1269SOL     OW 4705   5.843   6.401   5.230
 1269SOL    HW1 4706   5.939   6.430   5.234
 1269SOL    HW2 4707   5.816   6.365   5.319
 1270SOL     OW 4708   2.052   3.614   4.145
 1270SOL    HW1 4709   2.033   3.545   4.075
 1270SOL    HW2 4710   2.099   3.692   4.104
 1271SOL     OW 4711   3.889   1.700   3.755
 1271SOL    HW1 4712   3.892   1.630   3.826
 1271SOL    HW2 4713   3.861   1.658   3.669
 1272SOL     OW 4714   6.818   5.999   1.222
 1272SOL    HW1 4715   6.842   6.013   1.318
 1272SOL    HW2 4716   6.851   6.076   1.168
 1273SOL     OW 4717   1.780   4.545   6.898
 1273SOL    HW1 4718   1.756   4.589   6.984
 1273SOL    HW2 4719   1.696   4.516   6.851
 1274SOL     OW 4720   6.383   3.317   1.870
 1274SOL    HW1 4721   6.306   3.289   1.813
 1274SOL    HW2 4722   6.467   3.273   1.837
 1275SOL     OW 4723   3.936   0.132   3.617
 1275SOL    HW1 4724   3.975   0.223   3.628
 1275SOL    HW2 4725   3.993   0.077   3.556
 1276SOL     OW 4726   6.829   0.684   3.255
 1276SOL    HW1 4727   6.862   0.771   3.219
 1276SOL    HW2 4728   6.757   0.648   3.195
 1277SOL     OW 4729   0.303   0.316   4.665
 1277SOL    HW1 4730   0.310   0.409   4.630
 1277SOL    HW2 4731   0.386   0.294   4.717
 1278SOL     OW 4732   1.190   1.115   5.326
 1278SOL    HW1 4733   1.162   1.059   5.404
 1278SOL    HW2 4734   1.260   1.066   5.274
 1279SOL     OW 4735   2.677   6.624   0.502
 1279SOL    HW1 4736   2.636   6.667   0.582
 1279SOL    HW2 4737   2.616   6.552   0.468
 1280SOL     OW 4738   2.750   6.441   3.788
 1280SOL    HW1 4739   2.784   6.349   3.764
 1280SOL    HW2 4740   2.828   6.503   3.796
 1281SOL     OW 4741   1.078   5.758   2.831
 1281SOL    HW1 4742   0.998   5.818   2.831
 1281SOL    HW2 4743   1.081   5.706   2.917
 1282SOL     OW 4744   0.385   1.042   0.356
 1282SOL    HW1 4745   0.302   1.034   0.411
 1282SOL    HW2 4746   0.360   1.040   0.259
 1283SOL     OW 4747   5.323   2.606   5.429
 1283SOL    HW1 4748   5.266   2.552   5.367
 1283SOL    HW2 4749   5.281   2.696   5.442
 1284SOL     OW 4750   4.115   3.638   1.516
 1284SOL    HW1 4751   4.093   3.550   1.557
 1284SOL    HW2 4752   4.192   3.679   1.566
 1285SOL     OW 4753   5.652   3.450   6.245
 1285SOL    HW1 4754   5.562   3.412   6.265
 1285SOL    HW2 4755   5.685   3.501   6.324
 1286SOL     OW 4756   4.965   4.681   2.683
 1286SOL    HW1 4757   4.926   4.759   2.634
 1286SOL    HW2 4758   4.916   4.598   2.656
 1287SOL     OW 4759   4.539   3.851   6.118
 1287SOL    HW1 4760   4.628   3.826   6.156
 1287SOL    HW2 4761   4.544   3.942   6.078
 1288SOL     OW 4762   6.091   3.835   0.806
 1288SOL    HW1 4763   6.015   3.771   0.803
 1288SOL    HW2 4764   6.125   3.843   0.900
 1289SOL     OW 4765   0.421   6.015   1.775
 1289SOL    HW1 4766   0.448   6.008   1.871
 1289SOL    HW2 4767   0.373   5.932   1.748
 1290SOL     OW 4768   1.130   0.481   0.056
 1290SOL    HW1 4769   1.215   0.528   0.083
 1290SOL    HW2 4770   1.131   0.387   0.090
 1291SOL     OW 4771   0.321   3.671   5.817
 1291SOL    HW1 4772   0.389   3.741   5.840
 1291SOL    HW2 4773   0.356   3.613   5.744
 1292SOL     OW 4774   5.962   5.224   2.430
 1292SOL    HW1 4775   5.943   5.238   2.527
 1292SOL    HW2 4776   5.953   5.127   2.408
 1293SOL     OW 4777   2.110   1.271   6.561
 1293SOL    HW1 4778   2.173   1.202   6.595
 1293SOL    HW2 4779   2.017   1.233   6.557
 1294SOL     OW 4780   1.165   3.587   0.527
 1294SOL    HW1 4781   1.218   3.588   0.443
 1294SOL    HW2 4782   1.162   3.679   0.566
 1295SOL     OW 4783   6.592   3.564   2.557
 1295SOL    HW1 4784   6.680   3.551   2.511
 1295SOL    HW2 4785   6.521   3.581   2.488
 1296SOL     OW 4786   3.943   0.514   5.562
 1296SOL    HW1 4787   3.961   0.418   5.584
 1296SOL    HW2 4788   4.022   0.552   5.514
 1297SOL     OW 4789   5.785   0.414   6.358
 1297SOL    HW1 4790   5.836   0.474   6.419
 1297SOL    HW2 4791   5.810   0.434   6.263
 1298SOL     OW 4792   6.096   3.661   3.288
 1298SOL    HW1 4793   6.058   3.601   3.218
 1298SOL    HW2 4794   6.191   3.636   3.306
 1299SOL     OW 4795   0.956   3.643   3.143
 1299SOL    HW1 4796   0.871   3.696   3.142
 1299SOL    HW2 4797   1.029   3.696   3.100
 1300SOL     OW 4798   3.431   4.193   1.796
 1300SOL    HW1 4799   3.422   4.145   1.883
 1300SOL    HW2 4800   3.525   4.222   1.783
 1301SOL     OW 4801   0.035   5.917   2.179
 1301SOL    HW1 4802   0.073   5.912   2.271
 1301SOL    HW2 4803   6.958   5.945   2.184
 1302SOL     OW 4804   2.771   0.431   4.918
 1302SOL    HW1 4805   2.747   0.348   4.967
 1302SOL    HW2 4806   2.688   0.482   4.894
 1303SOL     OW 4807   4.723   2.105   1.009
 1303SOL    HW1 4808   4.783   2.164   1.063
 1303SOL    HW2 4809   4.628   2.125   1.033
 1304SOL     OW 4810   1.430   1.516   6.635
 1304SOL    HW1 4811   1.442   1.460   6.553
 1304SOL    HW2 4812   1.501   1.494   6.701
 1305SOL     OW 4813   5.531   4.354   6.739
 1305SOL    HW1 4814   5.536   4.269   6.791
 1305SOL    HW2 4815   5.450   4.352   6.681
 1306SOL     OW 4816   1.037   4.715   5.424
 1306SOL    HW1 4817   1.132   4.715   5.393
 1306SOL    HW2 4818   0.992   4.799   5.392
 1307SOL     OW 4819   1.904   2.616   4.462
 1307SOL    HW1 4820   1.998   2.645   4.450
 1307SOL    HW2 4821   1.891   2.527   4.418
 1308SOL     OW 4822   4.404   5.402   4.279
 1308SOL    HW1 4823   4.443   5.320   4.322
 1308SOL    HW2 4824   4.414   5.395   4.180
 1309SOL     OW 4825   5.619   3.156   5.557
 1309SOL    HW1 4826   5.714   3.132   5.539
 1309SOL    HW2 4827   5.607   3.255   5.547
 1310SOL     OW 4828   0.096   3.863   5.151
 1310SOL    HW1 4829   0.004   3.894   5.175
 1310SOL    HW2 4830   0.091   3.803   5.071
 1311SOL     OW 4831   6.477   6.794   3.923
 1311SOL    HW1 4832   6.397   6.823   3.870
 1311SOL    HW2 4833   6.531   6.730   3.870
 1312SOL     OW 4834   0.984   0.400   6.571
 1312SOL    HW1 4835   0.914   0.471   6.556
 1312SOL    HW2 4836   1.017   0.406   6.665
 1313SOL     OW 4837   1.449   4.648   5.012
 1313SOL    HW1 4838   1.427   4.690   4.924
 1313SOL    HW2 4839   1.537   4.601   5.006
 1314SOL     OW 4840   2.771   1.798   5.874
 1314SOL    HW1 4841   2.751   1.852   5.792
 1314SOL    HW2 4842   2.729   1.707   5.864
 1315SOL     OW 4843   0.571   0.856   0.454
 1315SOL    HW1 4844   0.521   0.914   0.389
 1315SOL    HW2 4845   0.669   0.865   0.438
 1316SOL     OW 4846   2.532   6.712   4.082
 1316SOL    HW1 4847   2.477   6.794   4.068
 1316SOL    HW2 4848   2.474   6.638   4.115
 1317SOL     OW 4849   0.583   3.826   4.747
 1317SOL    HW1 4850   0.509   3.824   4.681
 1317SOL    HW2 4851   0.551   3.789   4.835
 1318SOL     OW 4852   6.676   0.216   0.674
 1318SOL    HW1 4853   6.733   0.135   0.690
 1318SOL    HW2 4854   6.654   0.222   0.577
 1319SOL     OW 4855   6.039   0.783   0.152
 1319SOL    HW1 4856   6.105   0.714   0.121
 1319SOL    HW2 4857   6.015   0.843   0.075
 1320SOL     OW 4858   5.964   3.775   0.473
 1320SOL    HW1 4859   6.034   3.824   0.525
 1320SOL    HW2 4860   5.984   3.677   0.476
 1321SOL     OW 4861   4.290   2.296   6.369
 1321SOL    HW1 4862   4.244   2.221   6.416
 1321SOL    HW2 4863   4.224   2.368   6.348
 1322SOL     OW 4864   4.894   0.617   3.147
 1322SOL    HW1 4865   4.918   0.532   3.194
 1322SOL    HW2 4866   4.944   0.693   3.189
 1323SOL     OW 4867   5.295   1.771   5.387
 1323SOL    HW1 4868   5.214   1.767   5.328
 1323SOL    HW2 4869   5.376   1.750   5.333
 1324SOL     OW 4870   1.435   2.929   1.108
 1324SOL    HW1 4871   1.364   2.938   1.038
 1324SOL    HW2 4872   1.481   2.841   1.098
 1325SOL     OW 4873   1.931   0.136   2.149
 1325SOL    HW1 4874   1.965   0.042   2.142
 1325SOL    HW2 4875   2.000   0.199   2.115
 1326SOL     OW 4876   5.385   2.731   4.969
 1326SOL    HW1 4877   5.416   2.789   4.893
 1326SOL    HW2 4878   5.352   2.789   5.043
 1327SOL     OW 4879   2.779   4.843   2.583
 1327SOL    HW1 4880   2.753   4.809   2.673
 1327SOL    HW2 4881   2.729   4.793   2.512
 1328SOL     OW 4882   1.338   2.946   0.791
 1328SOL    HW1 4883   1.282   2.865   0.776
 1328SOL    HW2 4884   1.426   2.920   0.830
 1329SOL     OW 4885   0.354   2.056   0.607
 1329SOL    HW1 4886   0.305   1.987   0.661
 1329SOL    HW2 4887   0.450   2.056   0.634
 1330SOL     OW 4888   6.457   0.920   1.418
 1330SOL    HW1 4889   6.511   0.879   1.344
 1330SOL    HW2 4890   6.480   0.876   1.504
 1331SOL     OW 4891   4.764   2.360   3.027
 1331SOL    HW1 4892   4.753   2.287   3.094
 1331SOL    HW2 4893   4.745   2.325   2.935
 1332SOL     OW 4894   3.790   6.862   0.147
 1332SOL    HW1 4895   3.841   6.927   0.090
 1332SOL    HW2 4896   3.739   6.912   0.217
 1333SOL     OW 4897   3.687   3.166   6.243
 1333SOL    HW1 4898   3.665   3.074   6.211
 1333SOL    HW2 4899   3.666   3.232   6.170
 1334SOL     OW 4900   0.087   2.480   5.023
 1334SOL    HW1 4901   0.166   2.420   5.039
 1334SOL    HW2 4902   0.051   2.464   4.932
 1335SOL     OW 4903   2.858   6.816   2.948
 1335SOL    HW1 4904   2.874   6.773   3.037
 1335SOL    HW2 4905   2.942   6.812   2.894
 1336SOL     OW 4906   1.936   1.656   6.702
 1336SOL    HW1 4907   1.881   1.734   6.730
 1336SOL    HW2 4908   1.881   1.595   6.644
 1337SOL     OW 4909   1.033   1.719   4.892
 1337SOL    HW1 4910   1.112   1.752   4.943
 1337SOL    HW2 4911   0.977   1.798   4.864
 1338SOL     OW 4912   4.366   2.609   6.050
 1338SOL    HW1 4913   4.445   2.582   6.105
 1338SOL    HW2 4914   4.335   2.700   6.078
 1339SOL     OW 4915   0.748   0.092   0.125
 1339SOL    HW1 4916   0.815   0.028   0.088
 1339SOL    HW2 4917   0.686   0.121   0.053
 1340SOL     OW 4918   0.784   1.415   1.704
 1340SOL    HW1 4919   0.719   1.343   1.728
 1340SOL    HW2 4920   0.812   1.404   1.609
 1341SOL     OW 4921   4.054   0.451   5.865
 1341SOL    HW1 4922   4.133   0.408   5.820
 1341SOL    HW2 4923   3.976   0.452   5.802
 1342SOL     OW 4924   2.107   4.795   5.860
 1342SOL    HW1 4925   2.097   4.702   5.895
 1342SOL    HW2 4926   2.024   4.847   5.880
 1343SOL     OW 4927   3.969   5.787   2.435
 1343SOL    HW1 4928   3.933   5.695   2.452
 1343SOL    HW2 4929   4.021   5.788   2.349
 1344SOL     OW 4930   6.621   4.216   3.917
 1344SOL    HW1 4931   6.543   4.194   3.975
 1344SOL    HW2 4932   6.647   4.311   3.930
 1345SOL     OW 4933   1.444   1.853   3.420
 1345SOL    HW1 4934   1.380   1.819   3.490
 1345SOL    HW2 4935   1.527   1.797   3.422
 1346SOL     OW 4936   1.385   0.263   2.841
 1346SOL    HW1 4937   1.289   0.250   2.816
 1346SOL    HW2 4938   1.397   0.350   2.888
 1347SOL     OW 4939   6.033   6.545   4.066
 1347SOL    HW1 4940   6.019   6.644   4.059
 1347SOL    HW2 4941   6.114   6.527   4.121
 1348SOL     OW 4942   5.696   5.655   3.247
 1348SOL    HW1 4943   5.645   5.600   3.181
 1348SOL    HW2 4944   5.745   5.728   3.199
 1349SOL     OW 4945   4.878   2.459   6.183
 1349SOL    HW1 4946   4.932   2.541   6.167
 1349SOL    HW2 4947   4.836   2.429   6.096
 1350SOL     OW 4948   3.979   4.622   0.078
 1350SOL    HW1 4949   3.897   4.679   0.069
 1350SOL    HW2 4950   4.046   4.648   0.008
 1351SOL     OW 4951   0.103   1.952   2.981
 1351SOL    HW1 4952   0.185   1.996   3.018
 1351SOL    HW2 4953   0.073   2.002   2.899
 1352SOL     OW 4954   0.478   0.504   2.983
 1352SOL    HW1 4955   0.444   0.527   3.074
 1352SOL    HW2 4956   0.478   0.586   2.926
 1353SOL     OW 4957   6.355   3.984   5.672
 1353SOL    HW1 4958   6.320   4.042   5.746
 1353SOL    HW2 4959   6.300   3.901   5.666
 1354SOL     OW 4960   0.335   2.081   0.343
 1354SOL    HW1 4961   0.402   2.147   0.309
 1354SOL    HW2 4962   0.340   2.077   0.443
 1355SOL     OW 4963   5.955   2.381   6.058
 1355SOL    HW1 4964   5.960   2.300   6.000
 1355SOL    HW2 4965   5.956   2.354   6.154
 1356SOL     OW 4966   3.203   3.498   3.680
 1356SOL    HW1 4967   3.131   3.441   3.641
 1356SOL    HW2 4968   3.281   3.441   3.704
 1357SOL     OW 4969   1.553   4.160   5.721
 1357SOL    HW1 4970   1.475   4.192   5.667
 1357SOL    HW2 4971   1.577   4.067   5.693
 1358SOL     OW 4972   3.820   1.298   5.707
 1358SOL    HW1 4973   3.894   1.345   5.753
 1358SOL    HW2 4974   3.783   1.227   5.768
 1359SOL     OW 4975   6.808   5.156   1.261
 1359SOL    HW1 4976   6.820   5.188   1.355
 1359SOL    HW2 4977   6.721   5.108   1.252
 1360SOL     OW 4978   4.109   3.697   2.293
 1360SOL    HW1 4979   4.087   3.637   2.370
 1360SOL    HW2 4980   4.208   3.701   2.280
 1361SOL     OW 4981   6.929   6.732   6.063
 1361SOL    HW1 4982   6.971   6.648   6.099
 1361SOL    HW2 4983   6.974   6.757   5.977
 1362SOL     OW 4984   2.938   3.760   4.154
 1362SOL    HW1 4985   2.918   3.680   4.210
 1362SOL    HW2 4986   2.987   3.732   4.072
 1363SOL     OW 4987   6.377   6.026   3.714
 1363SOL    HW1 4988   6.454   6.029   3.777
 1363SOL    HW2 4989   6.407   6.057   3.623
 1364SOL     OW 4990   0.606   2.266   0.384
 1364SOL    HW1 4991   0.655   2.203   0.444
 1364SOL    HW2 4992   0.665   2.292   0.308
 1365SOL     OW 4993   0.462   3.504   5.652
 1365SOL    HW1 4994   0.515   3.452   5.718
 1365SOL    HW2 4995   0.442   3.448   5.572
 1366SOL     OW 4996   0.046   4.152   0.585
 1366SOL    HW1 4997   0.030   4.081   0.516
 1366SOL    HW2 4998   0.144   4.165   0.598
 1367SOL     OW 4999   1.329   6.006   3.093
 1367SOL    HW1 5000   1.412   5.949   3.101
 1367SOL    HW2 5001   1.280   5.980   3.009
 1368SOL     OW 5002   6.994   0.813   4.151
 1368SOL    HW1 5003   0.015   0.767   4.231
 1368SOL    HW2 5004   6.943   0.893   4.180
 1369SOL     OW 5005   2.201   0.179   2.564
 1369SOL    HW1 5006   2.265   0.174   2.487
 1369SOL    HW2 5007   2.107   0.179   2.530
 1370SOL     OW 5008   5.559   2.298   3.898
 1370SOL    HW1 5009   5.483   2.245   3.935
 1370SOL    HW2 5010   5.524   2.380   3.852
 1371SOL     OW 5011   4.780   1.848   4.838
 1371SOL    HW1 5012   4.859   1.896   4.802
 1371SOL    HW2 5013   4.700   1.908   4.837
 1372SOL     OW 5014   0.832   2.237   0.987
 1372SOL    HW1 5015   0.849   2.140   1.007
 1372SOL    HW2 5016   0.918   2.282   0.966
 1373SOL     OW 5017   4.434   2.214   6.988
 1373SOL    HW1 5018   4.367   2.183   6.921
 1373SOL    HW2 5019   4.399   2.198   0.062
 1374SOL     OW 5020   4.873   3.103   0.655
 1374SOL    HW1 5021   4.895   3.180   0.595
 1374SOL    HW2 5022   4.777   3.077   0.641
 1375SOL     OW 5023   0.458   0.124   6.521
 1375SOL    HW1 5024   0.557   0.120   6.512
 1375SOL    HW2 5025   0.430   0.092   6.612
 1376SOL     OW 5026   3.646   4.839   5.614
 1376SOL    HW1 5027   3.653   4.918   5.552
 1376SOL    HW2 5028   3.736   4.797   5.624
 1377SOL     OW 5029   0.943   3.588   3.421
 1377SOL    HW1 5030   0.941   3.489   3.438
 1377SOL    HW2 5031   0.938   3.605   3.323
 1378SOL     OW 5032   5.862   2.458   5.456
 1378SOL    HW1 5033   5.773   2.419   5.477
 1378SOL    HW2 5034   5.911   2.477   5.542
 1379SOL     OW 5035   4.313   5.649   3.263
 1379SOL    HW1 5036   4.279   5.559   3.238
 1379SOL    HW2 5037   4.412   5.645   3.277
 1380SOL     OW 5038   0.225   6.041   3.346
 1380SOL    HW1 5039   0.274   6.107   3.402
 1380SOL    HW2 5040   0.201   5.961   3.402
 1381SOL     OW 5041   5.584   1.385   0.080
 1381SOL    HW1 5042   5.672   1.424   0.110
 1381SOL    HW2 5043   5.545   1.442   0.008
 1382SOL     OW 5044   5.088   3.386   1.246
 1382SOL    HW1 5045   5.019   3.314   1.249
 1382SOL    HW2 5046   5.109   3.416   1.339
 1383SOL     OW 5047   1.188   0.049   1.504
 1383SOL    HW1 5048   1.158   0.143   1.522
 1383SOL    HW2 5049   1.140   7.005   1.565
 1384SOL     OW 5050   4.654   0.062   2.208
 1384SOL    HW1 5051   4.717   0.129   2.248
 1384SOL    HW2 5052   4.685   6.989   2.231
 1385SOL     OW 5053   2.963   4.771   3.667
 1385SOL    HW1 5054   2.925   4.842   3.608
 1385SOL    HW2 5055   3.026   4.813   3.733
 1386SOL     OW 5056   2.912   0.920   4.106
 1386SOL    HW1 5057   2.879   0.853   4.039
 1386SOL    HW2 5058   3.005   0.947   4.081
 1387SOL     OW 5059   4.107   5.332   2.902
 1387SOL    HW1 5060   4.067   5.386   2.827
 1387SOL    HW2 5061   4.040   5.323   2.975
 1388SOL     OW 5062   6.490   0.085   2.169
 1388SOL    HW1 5063   6.396   0.099   2.198
 1388SOL    HW2 5064   6.533   0.173   2.148
 1389SOL     OW 5065   6.380   1.248   4.280
 1389SOL    HW1 5066   6.316   1.314   4.241
 1389SOL    HW2 5067   6.393   1.172   4.216
 1390SOL     OW 5068   0.182   3.646   6.941
 1390SOL    HW1 5069   0.115   3.708   6.982
 1390SOL    HW2 5070   0.135   3.574   6.890
 1391SOL     OW 5071   6.544   6.310   4.863
 1391SOL    HW1 5072   6.596   6.394   4.846
 1391SOL    HW2 5073   6.603   6.231   4.848
 1392SOL     OW 5074   5.309   6.039   5.700
 1392SOL    HW1 5075   5.398   5.992   5.694
 1392SOL    HW2 5076   5.312   6.122   5.644
 1393SOL     OW 5077   6.364   4.941   5.456
 1393SOL    HW1 5078   6.313   4.856   5.469
 1393SOL    HW2 5079   6.444   4.923   5.398
 1394SOL     OW 5080   3.591   4.878   5.880
 1394SOL    HW1 5081   3.574   4.872   5.781
 1394SOL    HW2 5082   3.558   4.796   5.925
 1395SOL     OW 5083   2.538   4.648   5.436
 1395SOL    HW1 5084   2.564   4.668   5.530
 1395SOL    HW2 5085   2.586   4.710   5.374
 1396SOL     OW 5086   0.846   1.489   5.180
 1396SOL    HW1 5087   0.900   1.502   5.263
 1396SOL    HW2 5088   0.905   1.458   5.105
 1397SOL     OW 5089   0.090   0.021   4.162
 1397SOL    HW1 5090   0.155   6.965   4.180
 1397SOL    HW2 5091   0.110   0.099   4.221
 1398SOL     OW 5092   3.028   0.409   6.682
 1398SOL    HW1 5093   2.953   0.442   6.624
 1398SOL    HW2 5094   3.004   0.422   6.778
 1399SOL     OW 5095   3.633   5.436   0.709
 1399SOL    HW1 5096   3.534   5.430   0.698
 1399SOL    HW2 5097   3.667   5.515   0.658
 1400SOL     OW 5098   0.086   1.427   3.376
 1400SOL    HW1 5099   0.144   1.507   3.358
 1400SOL    HW2 5100   0.113   1.386   3.462
 1401SOL     OW 5101   6.307   1.071   4.899
 1401SOL    HW1 5102   6.376   1.060   4.970
 1401SOL    HW2 5103   6.350   1.064   4.809
 1402SOL     OW 5104   6.467   3.422   6.508
 1402SOL    HW1 5105   6.421   3.438   6.595
 1402SOL    HW2 5106   6.442   3.333   6.472
 1403SOL     OW 5107   2.646   2.489   1.805
 1403SOL    HW1 5108   2.737   2.488   1.846
 1403SOL    HW2 5109   2.625   2.581   1.771
 1404SOL     OW 5110   6.445   6.576   0.543
 1404SOL    HW1 5111   6.430   6.482   0.574
 1404SOL    HW2 5112   6.362   6.611   0.500
 1405SOL     OW 5113   2.533   3.341   0.844
 1405SOL    HW1 5114   2.592   3.296   0.776
 1405SOL    HW2 5115   2.586   3.406   0.897
 1406SOL     OW 5116   0.619   5.566   0.716
 1406SOL    HW1 5117   0.526   5.533   0.706
 1406SOL    HW2 5118   0.653   5.542   0.807
 1407SOL     OW 5119   0.347   3.205   2.053
 1407SOL    HW1 5120   0.258   3.165   2.032
 1407SOL    HW2 5121   0.399   3.143   2.112
 1408SOL     OW 5122   5.546   0.912   6.281
 1408SOL    HW1 5123   5.617   0.982   6.290
 1408SOL    HW2 5124   5.531   0.893   6.184
 1409SOL     OW 5125   6.863   0.106   5.057
 1409SOL    HW1 5126   6.791   0.150   5.004
 1409SOL    HW2 5127   6.923   0.175   5.097
 1410SOL     OW 5128   1.316   3.763   6.443
 1410SOL    HW1 5129   1.406   3.739   6.406
 1410SOL    HW2 5130   1.290   3.854   6.411
 1411SOL     OW 5131   3.455   6.626   1.009
 1411SOL    HW1 5132   3.486   6.698   0.946
 1411SOL    HW2 5133   3.421   6.548   0.957
 1412SOL     OW 5134   1.098   2.271   0.962
 1412SOL    HW1 5135   1.198   2.278   0.956
 1412SOL    HW2 5136   1.060   2.265   0.870
 1413SOL     OW 5137   1.490   2.607   5.419
 1413SOL    HW1 5138   1.432   2.589   5.340
 1413SOL    HW2 5139   1.478   2.534   5.487
 1414SOL     OW 5140   2.830   1.446   1.647
 1414SOL    HW1 5141   2.872   1.392   1.720
 1414SOL    HW2 5142   2.899   1.469   1.579
 1415SOL     OW 5143   2.211   1.236   4.078
 1415SOL    HW1 5144   2.130   1.246   4.137
 1415SOL    HW2 5145   2.269   1.317   4.088
 1416SOL     OW 5146   5.564   5.369   4.371
 1416SOL    HW1 5147   5.644   5.416   4.408
 1416SOL    HW2 5148   5.586   5.273   4.355
 1417SOL     OW 5149   3.062   2.137   0.387
 1417SOL    HW1 5150   3.123   2.194   0.442
 1417SOL    HW2 5151   3.090   2.142   0.291
 1418SOL     OW 5152   3.518   4.113   2.762
 1418SOL    HW1 5153   3.487   4.105   2.667
 1418SOL    HW2 5154   3.449   4.075   2.823
 1419SOL     OW 5155   2.553   5.692   4.450
 1419SOL    HW1 5156   2.572   5.726   4.357
 1419SOL    HW2 5157   2.486   5.752   4.494
 1420SOL     OW 5158   2.558   6.979   1.959
 1420SOL    HW1 5159   2.615   6.966   2.041
 1420SOL    HW2 5160   2.583   0.047   1.915
 1421SOL     OW 5161   2.165   5.194   3.521
 1421SOL    HW1 5162   2.187   5.200   3.618
 1421SOL    HW2 5163   2.168   5.285   3.480
 1422SOL     OW 5164   1.222   4.005   0.351
 1422SOL    HW1 5165   1.298   3.970   0.297
 1422SOL    HW2 5166   1.221   4.105   0.346
 1423SOL     OW 5167   4.911   6.490   3.441
 1423SOL    HW1 5168   4.925   6.403   3.488
 1423SOL    HW2 5169   4.968   6.560   3.483
 1424SOL     OW 5170   6.749   4.864   5.909
 1424SOL    HW1 5171   6.675   4.876   5.844
 1424SOL    HW2 5172   6.805   4.947   5.912
 1425SOL     OW 5173   1.891   5.508   5.349
 1425SOL    HW1 5174   1.949   5.476   5.423
 1425SOL    HW2 5175   1.902   5.447   5.270
 1426SOL     OW 5176   1.696   4.210   6.338
 1426SOL    HW1 5177   1.672   4.299   6.377
 1426SOL    HW2 5178   1.796   4.202   6.336
 1427SOL     OW 5179   0.226   0.124   3.419
 1427SOL    HW1 5180   0.265   0.178   3.494
 1427SOL    HW2 5181   0.254   0.163   3.331
 1428SOL     OW 5182   0.224   3.244   0.016
 1428SOL    HW1 5183   0.201   3.162   6.982
 1428SOL    HW2 5184   0.141   3.295   0.036
 1429SOL     OW 5185   4.014   1.633   6.643
 1429SOL    HW1 5186   3.943   1.600   6.704
 1429SOL    HW2 5187   4.071   1.556   6.614
 1430SOL     OW 5188   1.459   4.807   3.719
 1430SOL    HW1 5189   1.452   4.891   3.773
 1430SOL    HW2 5190   1.556   4.786   3.704
 1431SOL     OW 5191   2.852   1.885   0.694
 1431SOL    HW1 5192   2.894   1.937   0.768
 1431SOL    HW2 5193   2.774   1.936   0.657
 1432SOL     OW 5194   2.554   1.703   1.911
 1432SOL    HW1 5195   2.633   1.694   1.851
 1432SOL    HW2 5196   2.478   1.746   1.861
 1433SOL     OW 5197   4.484   0.832   5.214
 1433SOL    HW1 5198   4.527   0.917   5.186
 1433SOL    HW2 5199   4.461   0.778   5.133
 1434SOL     OW 5200   0.530   0.384   6.171
 1434SOL    HW1 5201   0.457   0.388   6.102
 1434SOL    HW2 5202   0.499   0.428   6.255
 1435SOL     OW 5203   6.649   6.972   2.980
 1435SOL    HW1 5204   6.691   6.990   2.891
 1435SOL    HW2 5205   6.618   6.877   2.984
 1436SOL     OW 5206   5.236   4.002   6.749
 1436SOL    HW1 5207   5.284   3.919   6.720
 1436SOL    HW2 5208   5.140   3.997   6.720
 1437SOL     OW 5209   3.152   2.222   4.464
 1437SOL    HW1 5210   3.064   2.266   4.445
 1437SOL    HW2 5211   3.163   2.209   4.562
 1438SOL     OW 5212   2.420   6.308   1.750
 1438SOL    HW1 5213   2.487   6.336   1.681
 1438SOL    HW2 5214   2.430   6.366   1.831
 1439SOL     OW 5215   6.287   5.824   1.364
 1439SOL    HW1 5216   6.252   5.914   1.392
 1439SOL    HW2 5217   6.373   5.836   1.314
 1440SOL     OW 5218   2.504   2.834   6.831
 1440SOL    HW1 5219   2.568   2.800   6.762
 1440SOL    HW2 5220   2.421   2.868   6.786
 1441SOL     OW 5221   6.371   0.630   3.644
 1441SOL    HW1 5222   6.468   0.652   3.657
 1441SOL    HW2 5223   6.357   0.596   3.551
 1442SOL     OW 5224   0.012   5.765   6.652
 1442SOL    HW1 5225   0.053   5.680   6.685
 1442SOL    HW2 5226   6.962   5.745   6.582
 1443SOL     OW 5227   0.648   2.929   4.508
 1443SOL    HW1 5228   0.621   2.985   4.430
 1443SOL    HW2 5229   0.724   2.973   4.556
 1444SOL     OW 5230   4.780   5.237   0.722
 1444SOL    HW1 5231   4.835   5.278   0.795
 1444SOL    HW2 5232   4.835   5.231   0.639
 1445SOL     OW 5233   1.565   2.897   3.154
 1445SOL    HW1 5234   1.526   2.829   3.092
 1445SOL    HW2 5235   1.623   2.960   3.102
 1446SOL     OW 5236   6.029   1.817   0.278
 1446SOL    HW1 5237   6.020   1.756   0.357
 1446SOL    HW2 5238   6.024   1.912   0.309
 1447SOL     OW 5239   5.634   6.223   4.511
 1447SOL    HW1 5240   5.726   6.252   4.487
 1447SOL    HW2 5241   5.604   6.272   4.593
 1448SOL     OW 5242   7.014   2.298   5.244
 1448SOL    HW1 5243   0.006   2.361   5.168
 1448SOL    HW2 5244   0.046   2.333   5.323
 1449SOL     OW 5245   0.972   2.628   6.837
 1449SOL    HW1 5246   1.003   2.719   6.812
 1449SOL    HW2 5247   0.875   2.619   6.817
 1450SOL     OW 5248   1.076   2.337   1.260
 1450SOL    HW1 5249   1.111   2.430   1.263
 1450SOL    HW2 5250   1.046   2.316   1.167
 1451SOL     OW 5251   0.503   6.870   2.333
 1451SOL    HW1 5252   0.501   6.900   2.428
 1451SOL    HW2 5253   0.458   6.781   2.325
 1452SOL     OW 5254   4.554   1.598   5.200
 1452SOL    HW1 5255   4.559   1.698   5.193
 1452SOL    HW2 5256   4.489   1.563   5.132
 1453SOL     OW 5257   0.116   3.780   5.964
 1453SOL    HW1 5258   0.092   3.826   5.879
 1453SOL    HW2 5259   0.174   3.700   5.945
 1454SOL     OW 5260   0.339   2.812   2.069
 1454SOL    HW1 5261   0.373   2.841   2.158
 1454SOL    HW2 5262   0.414   2.808   2.004
 1455SOL     OW 5263   1.618   0.218   1.459
 1455SOL    HW1 5264   1.579   0.128   1.442
 1455SOL    HW2 5265   1.586   0.282   1.389
 1456SOL     OW 5266   0.036   6.341   5.644
 1456SOL    HW1 5267   0.104   6.406   5.677
 1456SOL    HW2 5268   0.006   6.368   5.552
 1457SOL     OW 5269   0.479   6.815   1.593
 1457SOL    HW1 5270   0.497   6.802   1.495
 1457SOL    HW2 5271   0.381   6.824   1.608
 1458SOL     OW 5272   5.779   5.551   4.116
 1458SOL    HW1 5273   5.749   5.476   4.057
 1458SOL    HW2 5274   5.770   5.638   4.067
 1459SOL     OW 5275   3.290   6.147   5.636
 1459SOL    HW1 5276   3.264   6.149   5.733
 1459SOL    HW2 5277   3.256   6.063   5.594
 1460SOL     OW 5278   0.157   0.071   5.451
 1460SOL    HW1 5279   0.142   0.152   5.507
 1460SOL    HW2 5280   0.215   0.007   5.502
 1461SOL     OW 5281   6.418   3.946   2.813
 1461SOL    HW1 5282   6.346   3.927   2.746
 1461SOL    HW2 5283   6.383   4.009   2.882
 1462SOL     OW 5284   1.706   0.819   0.097
 1462SOL    HW1 5285   1.611   0.813   0.129
 1462SOL    HW2 5286   1.747   0.904   0.130
 1463SOL     OW 5287   6.776   5.254   6.655
 1463SOL    HW1 5288   6.836   5.281   6.579
 1463SOL    HW2 5289   6.813   5.172   6.699
 1464SOL     OW 5290   6.778   5.923   2.193
 1464SOL    HW1 5291   6.752   6.003   2.247
 1464SOL    HW2 5292   6.707   5.853   2.202
 1465SOL     OW 5293   1.442   0.507   3.427
 1465SOL    HW1 5294   1.453   0.572   3.502
 1465SOL    HW2 5295   1.366   0.445   3.447
 1466SOL     OW 5296   2.566   2.410   2.375
 1466SOL    HW1 5297   2.466   2.414   2.381
 1466SOL    HW2 5298   2.592   2.380   2.283
 1467SOL     OW 5299   1.858   1.290   3.195
 1467SOL    HW1 5300   1.873   1.344   3.112
 1467SOL    HW2 5301   1.835   1.351   3.271
 1468SOL     OW 5302   2.884   5.401   2.786
 1468SOL    HW1 5303   2.872   5.345   2.704
 1468SOL    HW2 5304   2.822   5.480   2.781
 1469SOL     OW 5305   0.593   0.722   2.070
 1469SOL    HW1 5306   0.690   0.735   2.054
 1469SOL    HW2 5307   0.541   0.782   2.010
 1470SOL     OW 5308   1.085   2.101   2.222
 1470SOL    HW1 5309   1.142   2.056   2.291
 1470SOL    HW2 5310   1.129   2.186   2.193
 1471SOL     OW 5311   0.704   0.322   0.663
 1471SOL    HW1 5312   0.664   0.263   0.594
 1471SOL    HW2 5313   0.719   0.413   0.625
 1472SOL     OW 5314   2.890   5.408   5.141
 1472SOL    HW1 5315   2.829   5.374   5.069
 1472SOL    HW2 5316   2.984   5.413   5.105
 1473SOL     OW 5317   4.229   5.268   4.969
 1473SOL    HW1 5318   4.294   5.315   4.909
 1473SOL    HW2 5319   4.141   5.258   4.922
 1474SOL     OW 5320   5.826   4.989   2.142
 1474SOL    HW1 5321   5.819   4.893   2.117
 1474SOL    HW2 5322   5.917   5.023   2.116
 1475SOL     OW 5323   5.942   0.503   1.800
 1475SOL    HW1 5324   5.877   0.519   1.874
 1475SOL    HW2 5325   5.959   0.588   1.751
 1476SOL     OW 5326   3.484   0.765   0.985
 1476SOL    HW1 5327   3.392   0.729   0.965
 1476SOL    HW2 5328   3.497   0.850   0.934
 1477SOL     OW 5329   3.141   6.555   5.775
 1477SOL    HW1 5330   3.182   6.643   5.799
 1477SOL    HW2 5331   3.189   6.515   5.698
 1478SOL     OW 5332   6.275   5.445   5.610
 1478SOL    HW1 5333   6.320   5.441   5.699
 1478SOL    HW2 5334   6.343   5.460   5.539
 1479SOL     OW 5335   1.919   2.592   1.100
 1479SOL    HW1 5336   1.917   2.689   1.123
 1479SOL    HW2 5337   1.904   2.537   1.182
 1480SOL     OW 5338   3.321   0.727   4.702
 1480SOL    HW1 5339   3.368   0.777   4.775
 1480SOL    HW2 5340   3.387   0.676   4.648
 1481SOL     OW 5341   6.394   2.888   6.925
 1481SOL    HW1 5342   6.482   2.858   6.962
 1481SOL    HW2 5343   6.357   2.816   6.866
 1482SOL     OW 5344   4.462   1.283   2.006
 1482SOL    HW1 5345   4.480   1.377   1.977
 1482SOL    HW2 5346   4.375   1.253   1.969
 1483SOL     OW 5347   4.638   1.830   6.218
 1483SOL    HW1 5348   4.672   1.789   6.303
 1483SOL    HW2 5349   4.648   1.764   6.144
 1484SOL     OW 5350   5.180   5.042   3.975
 1484SOL    HW1 5351   5.249   5.100   4.019
 1484SOL    HW2 5352   5.200   4.946   3.994
 1485SOL     OW 5353   3.735   1.109   4.131
 1485SOL    HW1 5354   3.739   1.045   4.208
 1485SOL    HW2 5355   3.724   1.202   4.167
 1486SOL     OW 5356   5.819   0.893   2.558
 1486SOL    HW1 5357   5.915   0.896   2.531
 1486SOL    HW2 5358   5.769   0.967   2.513
 1487SOL     OW 5359   0.570   2.460   6.792
 1487SOL    HW1 5360   0.617   2.407   6.721
 1487SOL    HW2 5361   0.610   2.552   6.797
 1488SOL     OW 5362   5.495   0.507   3.804
 1488SOL    HW1 5363   5.453   0.550   3.725
 1488SOL    HW2 5364   5.431   0.442   3.845
 1489SOL     OW 5365   4.156   4.741   6.045
 1489SOL    HW1 5366   4.088   4.726   5.973
 1489SOL    HW2 5367   4.196   4.832   6.034
 1490SOL     OW 5368   1.073   3.610   1.270
 1490SOL    HW1 5369   1.102   3.515   1.268
 1490SOL    HW2 5370   1.010   3.625   1.347
 1491SOL     OW 5371   5.859   4.640   2.382
 1491SOL    HW1 5372   5.781   4.629   2.320
 1491SOL    HW2 5373   5.861   4.564   2.447
 1492SOL     OW 5374   6.543   0.693   2.791
 1492SOL    HW1 5375   6.536   0.714   2.694
 1492SOL    HW2 5376   6.616   0.748   2.831
 1493SOL     OW 5377   3.423   6.760   5.894
 1493SOL    HW1 5378   3.495   6.696   5.921
 1493SOL    HW2 5379   3.370   6.787   5.975
 1494SOL     OW 5380   4.991   1.742   6.302
 1494SOL    HW1 5381   4.911   1.735   6.362
 1494SOL    HW2 5382   5.069   1.699   6.347
 1495SOL     OW 5383   0.068   3.208   5.638
 1495SOL    HW1 5384   0.165   3.202   5.662
 1495SOL    HW2 5385   0.056   3.279   5.567
 1496SOL     OW 5386   0.175   1.580   1.453
 1496SOL    HW1 5387   0.185   1.567   1.354
 1496SOL    HW2 5388   0.262   1.560   1.498
 1497SOL     OW 5389   5.544   3.437   2.694
 1497SOL    HW1 5390   5.496   3.353   2.720
 1497SOL    HW2 5391   5.506   3.514   2.744
 1498SOL     OW 5392   2.666   4.579   6.907
 1498SOL    HW1 5393   2.609   4.577   6.989
 1498SOL    HW2 5394   2.659   4.492   6.858
 1499SOL     OW 5395   0.889   2.493   5.389
 1499SOL    HW1 5396   0.842   2.405   5.395
 1499SOL    HW2 5397   0.958   2.499   5.461
 1500SOL     OW 5398   0.150   6.897   0.259
 1500SOL    HW1 5399   0.229   6.836   0.253
 1500SOL    HW2 5400   0.136   6.942   0.171
 1501SOL     OW 5401   4.934   2.294   6.597
 1501SOL    HW1 5402   4.873   2.294   6.518
 1501SOL    HW2 5403   4.883   2.317   6.679
 1502SOL     OW 5404   4.220   0.360   6.660
 1502SOL    HW1 5405   4.146   0.374   6.726
 1502SOL    HW2 5406   4.187   0.305   6.584
 1503SOL     OW 5407   1.507   2.946   2.200
 1503SOL    HW1 5408   1.507   3.016   2.129
 1503SOL    HW2 5409   1.575   2.876   2.178
 1504SOL     OW 5410   0.351   0.101   4.502
 1504SOL    HW1 5411   0.342   0.161   4.581
 1504SOL    HW2 5412   0.432   0.127   4.450
 1505SOL     OW 5413   4.839   0.307   4.719
 1505SOL    HW1 5414   4.750   0.333   4.756
 1505SOL    HW2 5415   4.911   0.352   4.772
 1506SOL     OW 5416   1.014   6.269   6.909
 1506SOL    HW1 5417   1.072   6.251   6.988
 1506SOL    HW2 5418   1.037   6.359   6.870
 1507SOL     OW 5419   0.536   1.707   5.981
 1507SOL    HW1 5420   0.616   1.698   6.040
 1507SOL    HW2 5421   0.475   1.777   6.017
 1508SOL     OW 5422   6.397   1.432   1.414
 1508SOL    HW1 5423   6.302   1.411   1.393
 1508SOL    HW2 5424   6.451   1.348   1.417
 1509SOL     OW 5425   3.950   1.693   5.371
 1509SOL    HW1 5426   3.879   1.665   5.436
 1509SOL    HW2 5427   3.909   1.751   5.301
 1510SOL     OW 5428   5.165   1.649   4.679
 1510SOL    HW1 5429   5.093   1.712   4.650
 1510SOL    HW2 5430   5.194   1.671   4.772
 1511SOL     OW 5431   4.061   3.316   3.441
 1511SOL    HW1 5432   4.067   3.274   3.531
 1511SOL    HW2 5433   4.106   3.405   3.443
 1512SOL     OW 5434   0.162   5.344   0.755
 1512SOL    HW1 5435   0.165   5.286   0.674
 1512SOL    HW2 5436   0.081   5.402   0.752
 1513SOL     OW 5437   3.952   0.586   5.217
 1513SOL    HW1 5438   4.044   0.602   5.253
 1513SOL    HW2 5439   3.886   0.640   5.269
 1514SOL     OW 5440   3.680   2.295   5.674
 1514SOL    HW1 5441   3.685   2.239   5.591
 1514SOL    HW2 5442   3.768   2.341   5.688
 1515SOL     OW 5443   5.683   2.246   2.419
 1515SOL    HW1 5444   5.598   2.193   2.424
 1515SOL    HW2 5445   5.663   2.337   2.384
 1516SOL     OW 5446   6.640   5.949   6.050
 1516SOL    HW1 5447   6.673   6.013   5.981
 1516SOL    HW2 5448   6.613   5.999   6.132
 1517SOL     OW 5449   4.566   6.422   3.106
 1517SOL    HW1 5450   4.637   6.473   3.153
 1517SOL    HW2 5451   4.592   6.325   3.101
 1518SOL     OW 5452   0.517   2.489   0.578
 1518SOL    HW1 5453   0.492   2.581   0.549
 1518SOL    HW2 5454   0.545   2.435   0.499
 1519SOL     OW 5455   6.648   4.708   1.837
 1519SOL    HW1 5456   6.607   4.746   1.754
 1519SOL    HW2 5457   6.725   4.765   1.865
 1520SOL     OW 5458   0.460   4.417   1.712
 1520SOL    HW1 5459   0.419   4.435   1.623
 1520SOL    HW2 5460   0.402   4.457   1.783
 1521SOL     OW 5461   1.917   3.748   6.311
 1521SOL    HW1 5462   2.001   3.696   6.328
 1521SOL    HW2 5463   1.940   3.835   6.267
 1522SOL     OW 5464   5.487   6.256   4.922
 1522SOL    HW1 5465   5.561   6.320   4.943
 1522SOL    HW2 5466   5.525   6.166   4.900
 1523SOL     OW 5467   4.762   5.704   6.967
 1523SOL    HW1 5468   4.774   5.770   0.022
 1523SOL    HW2 5469   4.700   5.741   6.898
 1524SOL     OW 5470   2.324   1.682   2.644
 1524SOL    HW1 5471   2.327   1.771   2.690
 1524SOL    HW2 5472   2.410   1.668   2.594
 1525SOL     OW 5473   6.726   3.582   0.489
 1525SOL    HW1 5474   6.708   3.652   0.420
 1525SOL    HW2 5475   6.809   3.604   0.540
 1526SOL     OW 5476   6.947   0.938   6.993
 1526SOL    HW1 5477   6.869   0.884   6.960
 1526SOL    HW2 5478   6.992   0.888   0.049
 1527SOL     OW 5479   4.246   1.332   4.763
 1527SOL    HW1 5480   4.334   1.297   4.730
 1527SOL    HW2 5481   4.197   1.260   4.811
 1528SOL     OW 5482   4.083   4.778   2.768
 1528SOL    HW1 5483   4.163   4.824   2.807
 1528SOL    HW2 5484   4.109   4.733   2.682
 1529SOL     OW 5485   4.485   0.144   0.407
 1529SOL    HW1 5486   4.454   0.078   0.339
 1529SOL    HW2 5487   4.571   0.113   0.446
 1530SOL     OW 5488   3.605   2.077   2.403
 1530SOL    HW1 5489   3.700   2.092   2.430
 1530SOL    HW2 5490   3.587   2.127   2.318
 1531SOL     OW 5491   4.594   6.740   5.867
 1531SOL    HW1 5492   4.562   6.807   5.800
 1531SOL    HW2 5493   4.603   6.783   5.956
 1532SOL     OW 5494   3.218   3.465   6.308
 1532SOL    HW1 5495   3.224   3.463   6.208
 1532SOL    HW2 5496   3.237   3.557   6.341
 1533SOL     OW 5497   5.793   4.809   6.424
 1533SOL    HW1 5498   5.892   4.812   6.411
 1533SOL    HW2 5499   5.748   4.843   6.341
 1534SOL     OW 5500   2.961   4.714   6.846
 1534SOL    HW1 5501   2.928   4.805   6.821
 1534SOL    HW2 5502   2.884   4.659   6.880
 1535SOL     OW 5503   5.198   6.685   4.387
 1535SOL    HW1 5504   5.124   6.747   4.362
 1535SOL    HW2 5505   5.165   6.591   4.385
 1536SOL     OW 5506   3.626   4.069   5.670
 1536SOL    HW1 5507   3.693   4.141   5.690
 1536SOL    HW2 5508   3.545   4.110   5.627
 1537SOL     OW 5509   4.761   6.184   3.789
 1537SOL    HW1 5510   4.806   6.152   3.872
 1537SOL    HW2 5511   4.675   6.136   3.777
 1538SOL     OW 5512   3.438   6.562   6.792
 1538SOL    HW1 5513   3.483   6.498   6.729
 1538SOL    HW2 5514   3.414   6.514   6.876
 1539SOL     OW 5515   4.858   4.101   1.481
 1539SOL    HW1 5516   4.794   4.073   1.553
 1539SOL    HW2 5517   4.942   4.135   1.522
 1540SOL     OW 5518   0.779   5.864   5.519
 1540SOL    HW1 5519   0.829   5.843   5.435
 1540SOL    HW2 5520   0.732   5.782   5.550
 1541SOL     OW 5521   3.253   2.973   3.926
 1541SOL    HW1 5522   3.180   2.905   3.930
 1541SOL    HW2 5523   3.306   2.961   3.843
 1542SOL     OW 5524   6.415   0.136   2.767
 1542SOL    HW1 5525   6.396   0.110   2.862
 1542SOL    HW2 5526   6.441   0.233   2.764
 1543SOL     OW 5527   3.259   5.203   5.186
 1543SOL    HW1 5528   3.201   5.272   5.229
 1543SOL    HW2 5529   3.317   5.160   5.255
 1544SOL     OW 5530   3.154   3.003   2.636
 1544SOL    HW1 5531   3.197   3.064   2.571
 1544SOL    HW2 5532   3.222   2.942   2.676
 1545SOL     OW 5533   5.382   0.581   3.102
 1545SOL    HW1 5534   5.466   0.538   3.070
 1545SOL    HW2 5535   5.341   0.525   3.173
 1546SOL     OW 5536   3.851   6.926   5.784
 1546SOL    HW1 5537   3.924   6.950   5.720
 1546SOL    HW2 5538   3.765   6.916   5.735
 1547SOL     OW 5539   1.723   3.987   2.799
 1547SOL    HW1 5540   1.667   3.909   2.829
 1547SOL    HW2 5541   1.729   4.054   2.874
 1548SOL     OW 5542   5.734   3.729   5.557
 1548SOL    HW1 5543   5.717   3.688   5.646
 1548SOL    HW2 5544   5.651   3.773   5.523
 1549SOL     OW 5545   4.524   1.176   2.261
 1549SOL    HW1 5546   4.503   1.222   2.174
 1549SOL    HW2 5547   4.505   1.239   2.337
 1550SOL     OW 5548   3.173   3.639   0.299
 1550SOL    HW1 5549   3.105   3.669   0.233
 1550SOL    HW2 5550   3.183   3.540   0.295
 1551SOL     OW 5551   2.591   3.917   6.262
 1551SOL    HW1 5552   2.513   3.873   6.219
 1551SOL    HW2 5553   2.603   4.009   6.223
 1552SOL     OW 5554   1.053   6.082   0.439
 1552SOL    HW1 5555   1.055   6.112   0.534
 1552SOL    HW2 5556   0.965   6.038   0.420
 1553SOL     OW 5557   0.590   2.078   5.773
 1553SOL    HW1 5558   0.500   2.076   5.729
 1553SOL    HW2 5559   0.578   2.072   5.872
 1554SOL     OW 5560   4.071   2.133   2.837
 1554SOL    HW1 5561   4.153   2.175   2.799
 1554SOL    HW2 5562   4.000   2.128   2.766
 1555SOL     OW 5563   4.779   2.253   6.850
 1555SOL    HW1 5564   4.707   2.273   6.784
 1555SOL    HW2 5565   4.739   2.241   6.941
 1556SOL     OW 5566   3.334   1.155   0.241
 1556SOL    HW1 5567   3.245   1.112   0.256
 1556SOL    HW2 5568   3.323   1.254   0.235
 1557SOL     OW 5569   2.548   1.652   5.794
 1557SOL    HW1 5570   2.557   1.709   5.712
 1557SOL    HW2 5571   2.464   1.677   5.843
 1558SOL     OW 5572   5.518   0.839   4.739
 1558SOL    HW1 5573   5.538   0.792   4.825
 1558SOL    HW2 5574   5.451   0.912   4.755
 1559SOL     OW 5575   0.589   2.792   0.186
 1559SOL    HW1 5576   0.635   2.804   0.274
 1559SOL    HW2 5577   0.545   2.702   0.184
 1560SOL     OW 5578   0.476   0.922   5.963
 1560SOL    HW1 5579   0.459   0.883   5.872
 1560SOL    HW2 5580   0.510   0.850   6.023
 1561SOL     OW 5581   6.497   6.566   4.115
 1561SOL    HW1 5582   6.465   6.649   4.070
 1561SOL    HW2 5583   6.596   6.570   4.127
 1562SOL     OW 5584   4.045   5.666   2.902
 1562SOL    HW1 5585   4.001   5.691   2.988
 1562SOL    HW2 5586   4.141   5.692   2.905
 1563SOL     OW 5587   1.773   0.234   5.652
 1563SOL    HW1 5588   1.869   0.247   5.678
 1563SOL    HW2 5589   1.721   0.316   5.675
 1564SOL     OW 5590   1.422   2.705   3.538
 1564SOL    HW1 5591   1.414   2.639   3.613
 1564SOL    HW2 5592   1.375   2.669   3.457
 1565SOL     OW 5593   4.209   4.738   4.407
 1565SOL    HW1 5594   4.275   4.673   4.370
 1565SOL    HW2 5595   4.238   4.766   4.499
 1566SOL     OW 5596   6.104   4.726   3.112
 1566SOL    HW1 5597   6.076   4.642   3.066
 1566SOL    HW2 5598   6.044   4.802   3.084
 1567SOL     OW 5599   6.153   5.936   0.750
 1567SOL    HW1 5600   6.058   5.968   0.744
 1567SOL    HW2 5601   6.208   5.981   0.680
 1568SOL     OW 5602   1.701   6.240   0.520
 1568SOL    HW1 5603   1.756   6.174   0.573
 1568SOL    HW2 5604   1.742   6.330   0.526
 1569SOL     OW 5605   4.096   6.228   3.336
 1569SOL    HW1 5606   4.174   6.280   3.300
 1569SOL    HW2 5607   4.128   6.139   3.369
 1570SOL     OW 5608   1.857   0.501   0.507
 1570SOL    HW1 5609   1.773   0.446   0.509
 1570SOL    HW2 5610   1.936   0.441   0.516
 1571SOL     OW 5611   5.294   2.246   1.343
 1571SOL    HW1 5612   5.195   2.251   1.327
 1571SOL    HW2 5613   5.312   2.244   1.442
 1572SOL     OW 5614   0.604   6.777   0.944
 1572SOL    HW1 5615   0.683   6.798   1.002
 1572SOL    HW2 5616   0.546   6.858   0.936
 1573SOL     OW 5617   5.277   3.490   1.758
 1573SOL    HW1 5618   5.190   3.519   1.798
 1573SOL    HW2 5619   5.266   3.401   1.714
 1574SOL     OW 5620   6.591   1.097   1.736
 1574SOL    HW1 5621   6.599   1.105   1.836
 1574SOL    HW2 5622   6.681   1.103   1.695
 1575SOL     OW 5623   4.251   1.114   0.641
 1575SOL    HW1 5624   4.269   1.109   0.542
 1575SOL    HW2 5625   4.338   1.120   0.690
 1576SOL     OW 5626   1.555   6.830   3.492
 1576SOL    HW1 5627   1.465   6.811   3.453
 1576SOL    HW2 5628   1.553   6.917   3.541
 1577SOL     OW 5629   2.995   1.420   4.788
 1577SOL    HW1 5630   2.986   1.455   4.695
 1577SOL    HW2 5631   2.948   1.481   4.852
 1578SOL     OW 5632   6.494   2.759   5.992
 1578SOL    HW1 5633   6.514   2.729   5.899
 1578SOL    HW2 5634   6.541   2.846   6.010
 1579SOL     OW 5635   0.101   1.452   2.515
 1579SOL    HW1 5636   0.194   1.464   2.549
 1579SOL    HW2 5637   0.088   1.358   2.484
 1580SOL     OW 5638   2.894   3.927   4.962
 1580SOL    HW1 5639   2.973   3.975   5.001
 1580SOL    HW2 5640   2.826   3.994   4.931
 1581SOL     OW 5641   0.406   3.670   4.983
 1581SOL    HW1 5642   0.314   3.640   4.956
 1581SOL    HW2 5643   0.402   3.765   5.016
 1582SOL     OW 5644   1.294   6.832   4.598
 1582SOL    HW1 5645   1.219   6.765   4.591
 1582SOL    HW2 5646   1.362   6.813   4.528
 1583SOL     OW 5647   1.024   4.785   3.452
 1583SOL    HW1 5648   1.015   4.879   3.419
 1583SOL    HW2 5649   0.935   4.740   3.447
 1584SOL     OW 5650   1.184   6.745   5.267
 1584SOL    HW1 5651   1.198   6.812   5.340
 1584SOL    HW2 5652   1.120   6.675   5.299
 1585SOL     OW 5653   6.229   1.846   3.485
 1585SOL    HW1 5654   6.325   1.829   3.460
 1585SOL    HW2 5655   6.169   1.808   3.414
 1586SOL     OW 5656   3.649   5.019   1.836
 1586SOL    HW1 5657   3.630   4.929   1.875
 1586SOL    HW2 5658   3.617   5.021   1.741
 1587SOL     OW 5659   2.833   6.154   6.403
 1587SOL    HW1 5660   2.913   6.094   6.397
 1587SOL    HW2 5661   2.759   6.107   6.450
 1588SOL     OW 5662   4.682   1.603   3.027
 1588SOL    HW1 5663   4.702   1.508   3.048
 1588SOL    HW2 5664   4.752   1.639   2.965
 1589SOL     OW 5665   5.820   4.280   1.689
 1589SOL    HW1 5666   5.882   4.202   1.691
 1589SOL    HW2 5667   5.776   4.286   1.599
 1590SOL     OW 5668   2.920   5.662   6.765
 1590SOL    HW1 5669   2.963   5.727   6.828
 1590SOL    HW2 5670   2.984   5.641   6.691
 1591SOL     OW 5671   6.930   5.060   2.720
 1591SOL    HW1 5672   6.865   5.024   2.787
 1591SOL    HW2 5673   6.880   5.097   2.642
 1592SOL     OW 5674   2.376   4.531   0.437
 1592SOL    HW1 5675   2.444   4.603   0.425
 1592SOL    HW2 5676   2.371   4.505   0.533
 1593SOL     OW 5677   1.102   6.461   4.362
 1593SOL    HW1 5678   1.086   6.509   4.275
 1593SOL    HW2 5679   1.024   6.402   4.382
 1594SOL     OW 5680   6.979   6.128   2.624
 1594SOL    HW1 5681   0.025   6.070   2.674
 1594SOL    HW2 5682   6.914   6.168   2.688
 1595SOL     OW 5683   1.087   5.110   6.692
 1595SOL    HW1 5684   1.021   5.058   6.746
 1595SOL    HW2 5685   1.114   5.191   6.743
 1596SOL     OW 5686   0.462   2.526   4.305
 1596SOL    HW1 5687   0.461   2.592   4.379
 1596SOL    HW2 5688   0.542   2.541   4.247
 1597SOL     OW 5689   1.925   6.456   0.023
 1597SOL    HW1 5690   1.855   6.508   6.993
 1597SOL    HW2 5691   1.908   6.460   0.121
 1598SOL     OW 5692   1.149   3.489   6.710
 1598SOL    HW1 5693   1.246   3.470   6.692
 1598SOL    HW2 5694   1.115   3.553   6.641
 1599SOL     OW 5695   4.051   4.221   5.854
 1599SOL    HW1 5696   3.982   4.194   5.922
 1599SOL    HW2 5697   4.079   4.315   5.871
 1600SOL     OW 5698   5.187   1.505   5.024
 1600SOL    HW1 5699   5.221   1.443   4.954
 1600SOL    HW2 5700   5.232   1.594   5.014
 1601SOL     OW 5701   6.982   4.908   4.845
 1601SOL    HW1 5702   7.012   4.938   4.754
 1601SOL    HW2 5703   0.011   4.823   4.868
 1602SOL     OW 5704   2.241   5.245   3.768
 1602SOL    HW1 5705   2.234   5.332   3.719
 1602SOL    HW2 5706   2.325   5.244   3.823
 1603SOL     OW 5707   6.581   6.120   2.717
 1603SOL    HW1 5708   6.648   6.194   2.724
 1603SOL    HW2 5709   6.507   6.136   2.783
 1604SOL     OW 5710   6.290   4.622   0.210
 1604SOL    HW1 5711   6.208   4.678   0.222
 1604SOL    HW2 5712   6.311   4.573   0.296
 1605SOL     OW 5713   6.618   6.358   2.033
 1605SOL    HW1 5714   6.713   6.373   2.008
 1605SOL    HW2 5715   6.610   6.274   2.087
 1606SOL     OW 5716   3.517   0.641   5.215
 1606SOL    HW1 5717   3.581   0.691   5.273
 1606SOL    HW2 5718   3.553   0.637   5.122
 1607SOL     OW 5719   3.861   2.251   0.590
 1607SOL    HW1 5720   3.853   2.350   0.583
 1607SOL    HW2 5721   3.774   2.213   0.622
 1608SOL     OW 5722   1.203   6.933   4.342
 1608SOL    HW1 5723   1.203   6.851   4.283
 1608SOL    HW2 5724   1.117   6.937   4.393
 1609SOL     OW 5725   4.587   0.438   0.823
 1609SOL    HW1 5726   4.587   0.531   0.788
 1609SOL    HW2 5727   4.530   0.380   0.764
 1610SOL     OW 5728   5.427   4.290   6.273
 1610SOL    HW1 5729   5.365   4.246   6.209
 1610SOL    HW2 5730   5.509   4.234   6.283
 1611SOL     OW 5731   2.929   3.698   1.411
 1611SOL    HW1 5732   3.023   3.696   1.445
 1611SOL    HW2 5733   2.866   3.711   1.487
 1612SOL     OW 5734   2.726   1.374   4.979
 1612SOL    HW1 5735   2.752   1.311   4.906
 1612SOL    HW2 5736   2.801   1.382   5.045
 1613SOL     OW 5737   1.754   5.307   1.587
 1613SOL    HW1 5738   1.698   5.230   1.619
 1613SOL    HW2 5739   1.720   5.392   1.629
 1614SOL     OW 5740   6.631   3.254   0.319
 1614SOL    HW1 5741   6.667   3.258   0.412
 1614SOL    HW2 5742   6.681   3.318   0.261
 1615SOL     OW 5743   6.373   5.060   0.998
 1615SOL    HW1 5744   6.367   4.985   0.932
 1615SOL    HW2 5745   6.424   5.135   0.957
 1616SOL     OW 5746   3.604   2.081   4.719
 1616SOL    HW1 5747   3.571   2.001   4.769
 1616SOL    HW2 5748   3.541   2.158   4.735
 1617SOL     OW 5749   5.792   0.573   2.035
 1617SOL    HW1 5750   5.860   0.615   2.095
 1617SOL    HW2 5751   5.727   0.520   2.090
 1618SOL     OW 5752   1.528   4.117   1.706
 1618SOL    HW1 5753   1.591   4.041   1.693
 1618SOL    HW2 5754   1.447   4.085   1.757
 1619SOL     OW 5755   0.947   2.687   2.926
 1619SOL    HW1 5756   0.892   2.712   3.006
 1619SOL    HW2 5757   1.018   2.622   2.953
 1620SOL     OW 5758   2.669   5.425   1.305
 1620SOL    HW1 5759   2.647   5.335   1.343
 1620SOL    HW2 5760   2.757   5.422   1.259
 1621SOL     OW 5761   0.455   1.326   0.516
 1621SOL    HW1 5762   0.491   1.319   0.423
 1621SOL    HW2 5763   0.475   1.242   0.566
 1622SOL     OW 5764   0.307   2.412   4.589
 1622SOL    HW1 5765   0.241   2.367   4.650
 1622SOL    HW2 5766   0.280   2.396   4.494
 1623SOL     OW 5767   2.458   3.359   5.457
 1623SOL    HW1 5768   2.364   3.347   5.425
 1623SOL    HW2 5769   2.473   3.453   5.486
 1624SOL     OW 5770   2.650   1.111   5.252
 1624SOL    HW1 5771   2.668   1.164   5.335
 1624SOL    HW2 5772   2.737   1.081   5.213
 1625SOL     OW 5773   1.368   5.583   1.688
 1625SOL    HW1 5774   1.466   5.571   1.706
 1625SOL    HW2 5775   1.323   5.617   1.771
 1626SOL     OW 5776   3.272   2.457   6.193
 1626SOL    HW1 5777   3.251   2.552   6.214
 1626SOL    HW2 5778   3.248   2.438   6.098
 1627SOL     OW 5779   6.559   2.910   3.842
 1627SOL    HW1 5780   6.593   2.828   3.795
 1627SOL    HW2 5781   6.610   2.923   3.927
 1628SOL     OW 5782   4.472   4.435   6.873
 1628SOL    HW1 5783   4.491   4.338   6.863
 1628SOL    HW2 5784   4.500   4.484   6.790
 1629SOL     OW 5785   2.842   1.249   4.047
 1629SOL    HW1 5786   2.878   1.341   4.029
 1629SOL    HW2 5787   2.918   1.186   4.060
 1630SOL     OW 5788   1.470   6.285   6.065
 1630SOL    HW1 5789   1.515   6.348   6.128
 1630SOL    HW2 5790   1.396   6.237   6.113
 1631SOL     OW 5791   7.004   1.730   6.333
 1631SOL    HW1 5792   6.945   1.770   6.262
 1631SOL    HW2 5793   0.067   1.691   6.289
 1632SOL     OW 5794   0.349   2.035   6.936
 1632SOL    HW1 5795   0.341   2.024   6.836
 1632SOL    HW2 5796   0.396   1.956   6.974
 1633SOL     OW 5797   4.993   2.726   4.011
 1633SOL    HW1 5798   4.909   2.776   3.989
 1633SOL    HW2 5799   4.980   2.629   3.988
 1634SOL     OW 5800   3.704   4.966   6.827
 1634SOL    HW1 5801   3.747   5.046   6.868
 1634SOL    HW2 5802   3.742   4.883   6.867
 1635SOL     OW 5803   6.963   5.731   5.573
 1635SOL    HW1 5804   6.965   5.656   5.508
 1635SOL    HW2 5805   6.868   5.751   5.597
 1636SOL     OW 5806   2.627   4.227   1.516
 1636SOL    HW1 5807   2.677   4.175   1.586
 1636SOL    HW2 5808   2.575   4.163   1.458
 1637SOL     OW 5809   0.312   0.248   3.194
 1637SOL    HW1 5810   0.267   0.249   3.104
 1637SOL    HW2 5811   0.412   0.244   3.180
 1638SOL     OW 5812   0.387   4.096   4.000
 1638SOL    HW1 5813   0.447   4.034   4.051
 1638SOL    HW2 5814   0.296   4.096   4.041
 1639SOL     OW 5815   4.242   0.159   2.900
 1639SOL    HW1 5816   4.306   0.083   2.914
 1639SOL    HW2 5817   4.195   0.178   2.986
 1640SOL     OW 5818   5.636   1.373   0.947
 1640SOL    HW1 5819   5.689   1.300   0.903
 1640SOL    HW2 5820   5.674   1.391   1.038
 1641SOL     OW 5821   5.398   2.734   4.287
 1641SOL    HW1 5822   5.370   2.722   4.192
 1641SOL    HW2 5823   5.321   2.768   4.340
 1642SOL     OW 5824   6.097   3.721   6.325
 1642SOL    HW1 5825   6.196   3.711   6.319
 1642SOL    HW2 5826   6.060   3.650   6.386
 1643SOL     OW 5827   2.829   4.911   4.046
 1643SOL    HW1 5828   2.795   4.972   4.118
 1643SOL    HW2 5829   2.784   4.822   4.054
 1644SOL     OW 5830   0.681   2.936   1.498
 1644SOL    HW1 5831   0.711   2.987   1.418
 1644SOL    HW2 5832   0.697   2.838   1.484
 1645SOL     OW 5833   2.611   5.987   5.806
 1645SOL    HW1 5834   2.523   6.035   5.804
 1645SOL    HW2 5835   2.682   6.050   5.835
 1646SOL     OW 5836   2.600   5.853   0.684
 1646SOL    HW1 5837   2.581   5.918   0.610
 1646SOL    HW2 5838   2.577   5.895   0.772
 1647SOL     OW 5839   6.032   2.474   4.597
 1647SOL    HW1 5840   5.985   2.551   4.555
 1647SOL    HW2 5841   6.024   2.481   4.696
 1648SOL     OW 5842   6.019   6.228   0.575
 1648SOL    HW1 5843   5.927   6.228   0.535
 1648SOL    HW2 5844   6.031   6.311   0.630
 1649SOL     OW 5845   3.925   0.015   4.525
 1649SOL    HW1 5846   3.913   6.953   4.583
 1649SOL    HW2 5847   3.971   7.007   4.441
 1650SOL     OW 5848   1.771   6.526   5.437
 1650SOL    HW1 5849   1.867   6.500   5.448
 1650SOL    HW2 5850   1.740   6.501   5.345
 1651SOL     OW 5851   0.557   1.283   1.816
 1651SOL    HW1 5852   0.501   1.202   1.797
 1651SOL    HW2 5853   0.505   1.347   1.873
 1652SOL     OW 5854   1.700   3.456   1.706
 1652SOL    HW1 5855   1.732   3.364   1.683
 1652SOL    HW2 5856   1.723   3.476   1.802
 1653SOL     OW 5857   0.921   0.078   1.024
 1653SOL    HW1 5858   0.917   6.997   1.032
 1653SOL    HW2 5859   0.839   0.111   0.978
 1654SOL     OW 5860   6.670   3.239   2.121
 1654SOL    HW1 5861   6.739   3.298   2.078
 1654SOL    HW2 5862   6.706   3.205   2.208
 1655SOL     OW 5863   6.046   2.428   4.888
 1655SOL    HW1 5864   6.005   2.337   4.897
 1655SOL    HW2 5865   6.143   2.419   4.867
 1656SOL     OW 5866   1.852   4.737   2.675
 1656SOL    HW1 5867   1.915   4.814   2.660
 1656SOL    HW2 5868   1.901   4.651   2.659
 1657SOL     OW 5869   6.959   0.921   4.446
 1657SOL    HW1 5870   7.010   0.841   4.414
 1657SOL    HW2 5871   6.885   0.942   4.382
 1658SOL     OW 5872   0.905   0.048   1.903
 1658SOL    HW1 5873   0.978   7.018   1.951
 1658SOL    HW2 5874   0.935   0.073   1.812
 1659SOL     OW 5875   3.760   1.172   5.262
 1659SOL    HW1 5876   3.828   1.136   5.197
 1659SOL    HW2 5877   3.680   1.112   5.263
 1660SOL     OW 5878   1.129   5.101   3.908
 1660SOL    HW1 5879   1.062   5.071   3.839
 1660SOL    HW2 5880   1.211   5.045   3.900
 1661SOL     OW 5881   3.313   1.368   2.116
 1661SOL    HW1 5882   3.407   1.390   2.087
 1661SOL    HW2 5883   3.255   1.449   2.102
 1662SOL     OW 5884   6.778   0.991   4.246
 1662SOL    HW1 5885   6.695   0.959   4.292
 1662SOL    HW2 5886   6.765   1.086   4.218
 1663SOL     OW 5887   3.070   1.054   3.035
 1663SOL    HW1 5888   2.980   1.022   3.064
 1663SOL    HW2 5889   3.140   0.991   3.067
 1664SOL     OW 5890   2.614   0.077   3.915
 1664SOL    HW1 5891   2.600   6.997   3.925
 1664SOL    HW2 5892   2.676   0.110   3.987
 1665SOL     OW 5893   0.463   0.926   2.673
 1665SOL    HW1 5894   0.442   0.922   2.575
 1665SOL    HW2 5895   0.523   0.849   2.696
 1666SOL     OW 5896   5.407   3.431   0.688
 1666SOL    HW1 5897   5.467   3.351   0.692
 1666SOL    HW2 5898   5.404   3.466   0.595
 1667SOL     OW 5899   6.393   6.829   1.305
 1667SOL    HW1 5900   6.485   6.826   1.342
 1667SOL    HW2 5901   6.328   6.800   1.375
 1668SOL     OW 5902   5.318   5.713   5.459
 1668SOL    HW1 5903   5.372   5.789   5.423
 1668SOL    HW2 5904   5.251   5.747   5.525
 1669SOL     OW 5905   6.519   6.194   6.471
 1669SOL    HW1 5906   6.600   6.135   6.463
 1669SOL    HW2 5907   6.483   6.188   6.564
 1670SOL     OW 5908   6.938   4.744   6.278
 1670SOL    HW1 5909   6.848   4.782   6.259
 1670SOL    HW2 5910   6.935   4.645   6.268
 1671SOL     OW 5911   4.111   3.163   0.977
 1671SOL    HW1 5912   4.173   3.235   1.010
 1671SOL    HW2 5913   4.164   3.081   0.955
 1672SOL     OW 5914   1.889   3.666   1.679
 1672SOL    HW1 5915   1.959   3.619   1.731
 1672SOL    HW2 5916   1.808   3.608   1.672
 1673SOL     OW 5917   6.761   1.982   4.267
 1673SOL    HW1 5918   6.751   1.920   4.189
 1673SOL    HW2 5919   6.692   2.054   4.261
 1674SOL     OW 5920   1.056   3.750   2.722
 1674SOL    HW1 5921   1.021   3.737   2.629
 1674SOL    HW2 5922   1.111   3.670   2.748
 1675SOL     OW 5923   4.023   0.274   5.597
 1675SOL    HW1 5924   4.085   0.254   5.521
 1675SOL    HW2 5925   4.049   0.220   5.677
 1676SOL     OW 5926   2.723   1.449   2.320
 1676SOL    HW1 5927   2.692   1.435   2.227
 1676SOL    HW2 5928   2.793   1.521   2.322
 1677SOL     OW 5929   4.292   3.426   5.289
 1677SOL    HW1 5930   4.277   3.511   5.239
 1677SOL    HW2 5931   4.212   3.406   5.346
 1678SOL     OW 5932   4.858   4.451   4.956
 1678SOL    HW1 5933   4.768   4.415   4.929
 1678SOL    HW2 5934   4.921   4.375   4.968
 1679SOL     OW 5935   2.040   3.281   5.062
 1679SOL    HW1 5936   2.037   3.229   4.977
 1679SOL    HW2 5937   2.072   3.223   5.136
 1680SOL     OW 5938   0.685   2.451   4.555
 1680SOL    HW1 5939   0.605   2.450   4.495
 1680SOL    HW2 5940   0.752   2.516   4.520
 1681SOL     OW 5941   6.304   6.032   1.104
 1681SOL    HW1 5942   6.368   6.038   1.181
 1681SOL    HW2 5943   6.350   5.990   1.026
 1682SOL     OW 5944   0.222   2.010   4.817
 1682SOL    HW1 5945   0.213   1.937   4.750
 1682SOL    HW2 5946   0.319   2.026   4.837
 1683SOL     OW 5947   4.001   5.669   0.926
 1683SOL    HW1 5948   3.994   5.756   0.975
 1683SOL    HW2 5949   3.956   5.597   0.978
 1684SOL     OW 5950   1.054   6.172   2.839
 1684SOL    HW1 5951   0.996   6.128   2.909
 1684SOL    HW2 5952   1.139   6.120   2.829
 1685SOL     OW 5953   2.839   0.979   6.306
 1685SOL    HW1 5954   2.813   1.075   6.295
 1685SOL    HW2 5955   2.757   0.924   6.322
 1686SOL     OW 5956   2.465   4.857   5.017
 1686SOL    HW1 5957   2.552   4.826   4.980
 1686SOL    HW2 5958   2.409   4.777   5.039
 1687SOL     OW 5959   2.378   2.848   1.516
 1687SOL    HW1 5960   2.444   2.776   1.493
 1687SOL    HW2 5961   2.319   2.865   1.437
 1688SOL     OW 5962   1.839   2.558   3.811
 1688SOL    HW1 5963   1.920   2.580   3.866
 1688SOL    HW2 5964   1.757   2.590   3.859
 1689SOL     OW 5965   4.959   0.699   2.163
 1689SOL    HW1 5966   5.016   0.708   2.245
 1689SOL    HW2 5967   4.947   0.603   2.142
 1690SOL     OW 5968   1.669   3.318   3.469
 1690SOL    HW1 5969   1.643   3.327   3.565
 1690SOL    HW2 5970   1.588   3.322   3.411
 1691SOL     OW 5971   5.414   4.210   3.377
 1691SOL    HW1 5972   5.388   4.238   3.469
 1691SOL    HW2 5973   5.464   4.284   3.332
 1692SOL     OW 5974   6.003   0.245   1.873
 1692SOL    HW1 5975   6.015   0.236   1.972
 1692SOL    HW2 5976   5.981   0.339   1.850
 1693SOL     OW 5977   0.328   1.920   2.575
 1693SOL    HW1 5978   0.235   1.893   2.599
 1693SOL    HW2 5979   0.393   1.865   2.628
 1694SOL     OW 5980   5.107   0.359   3.574
 1694SOL    HW1 5981   5.089   0.269   3.533
 1694SOL    HW2 5982   5.184   0.352   3.637
 1695SOL     OW 5983   2.652   1.403   5.866
 1695SOL    HW1 5984   2.622   1.328   5.806
 1695SOL    HW2 5985   2.613   1.489   5.834
 1696SOL     OW 5986   4.772   4.726   0.781
 1696SOL    HW1 5987   4.793   4.753   0.874
 1696SOL    HW2 5988   4.703   4.653   0.782
 1697SOL     OW 5989   5.577   5.894   2.042
 1697SOL    HW1 5990   5.623   5.805   2.051
 1697SOL    HW2 5991   5.556   5.910   1.945
 1698SOL     OW 5992   5.467   0.960   0.680
 1698SOL    HW1 5993   5.405   1.032   0.709
 1698SOL    HW2 5994   5.528   0.936   0.756
 1699SOL     OW 5995   2.877   1.468   1.185
 1699SOL    HW1 5996   2.976   1.485   1.185
 1699SOL    HW2 5997   2.854   1.405   1.110
 1700SOL     OW 5998   6.415   2.514   3.394
 1700SOL    HW1 5999   6.441   2.556   3.307
 1700SOL    HW2 6000   6.326   2.549   3.423
 1701SOL     OW 6001   5.633   3.657   6.053
 1701SOL    HW1 6002   5.672   3.591   6.118
 1701SOL    HW2 6003   5.571   3.718   6.102
 1702SOL     OW 6004   6.883   2.733   0.942
 1702SOL    HW1 6005   6.972   2.714   0.900
 1702SOL    HW2 6006   6.816   2.751   0.870
 1703SOL     OW 6007   4.118   3.335   2.603
 1703SOL    HW1 6008   4.085   3.247   2.567
 1703SOL    HW2 6009   4.141   3.324   2.699
 1704SOL     OW 6010   0.765   1.209   2.049
 1704SOL    HW1 6011   0.777   1.175   2.142
 1704SOL    HW2 6012   0.668   1.222   2.030
 1705SOL     OW 6013   3.680   2.740   1.424
 1705SOL    HW1 6014   3.669   2.749   1.325
 1705SOL    HW2 6015   3.594   2.712   1.465
 1706SOL     OW 6016   4.929   0.618   1.543
 1706SOL    HW1 6017   4.974   0.565   1.615
 1706SOL    HW2 6018   4.834   0.586   1.533
 1707SOL     OW 6019   4.732   2.176   2.482
 1707SOL    HW1 6020   4.663   2.195   2.412
 1707SOL    HW2 6021   4.787   2.097   2.454
 1708SOL     OW 6022   4.928   5.152   2.415
 1708SOL    HW1 6023   5.005   5.186   2.469
 1708SOL    HW2 6024   4.922   5.053   2.423
 1709SOL     OW 6025   2.415   5.923   1.524
 1709SOL    HW1 6026   2.444   5.966   1.609
 1709SOL    HW2 6027   2.495   5.907   1.465
 1710SOL     OW 6028   5.682   4.708   3.527
 1710SOL    HW1 6029   5.675   4.699   3.626
 1710SOL    HW2 6030   5.592   4.693   3.486
 1711SOL     OW 6031   1.338   4.434   4.768
 1711SOL    HW1 6032   1.396   4.377   4.710
 1711SOL    HW2 6033   1.306   4.514   4.717
 1712SOL     OW 6034   0.549   2.977   6.500
 1712SOL    HW1 6035   0.494   2.938   6.426
 1712SOL    HW2 6036   0.499   2.971   6.586
 1713SOL     OW 6037   3.918   2.284   1.544
 1713SOL    HW1 6038   4.007   2.270   1.588
 1713SOL    HW2 6039   3.919   2.373   1.498
 1714SOL     OW 6040   4.670   1.617   6.021
 1714SOL    HW1 6041   4.598   1.557   6.055
 1714SOL    HW2 6042   4.647   1.646   5.928
 1715SOL     OW 6043   6.830   3.543   2.438
 1715SOL    HW1 6044   6.787   3.557   2.349
 1715SOL    HW2 6045   6.920   3.588   2.439
 1716SOL     OW 6046   4.643   0.206   2.593
 1716SOL    HW1 6047   4.594   0.211   2.680
 1716SOL    HW2 6048   4.723   0.146   2.603
 1717SOL     OW 6049   2.019   6.631   6.139
 1717SOL    HW1 6050   2.040   6.568   6.064
 1717SOL    HW2 6051   2.007   6.580   6.224
 1718SOL     OW 6052   2.225   2.364   2.333
 1718SOL    HW1 6053   2.289   2.345   2.259
 1718SOL    HW2 6054   2.179   2.279   2.360
 1719SOL     OW 6055   2.407   4.272   0.959
 1719SOL    HW1 6056   2.492   4.220   0.962
 1719SOL    HW2 6057   2.333   4.218   0.998
 1720SOL     OW 6058   0.032   1.885   0.563
 1720SOL    HW1 6059   0.078   1.918   0.646
 1720SOL    HW2 6060   6.954   1.913   0.565
 1721SOL     OW 6061   1.130   6.838   2.991
 1721SOL    HW1 6062   1.142   6.915   3.053
 1721SOL    HW2 6063   1.033   6.816   2.983
 1722SOL     OW 6064   4.797   2.138   4.216
 1722SOL    HW1 6065   4.744   2.059   4.186
 1722SOL    HW2 6066   4.771   2.218   4.162
 1723SOL     OW 6067   0.074   2.507   2.510
 1723SOL    HW1 6068   0.066   2.410   2.533
 1723SOL    HW2 6069   0.100   2.517   2.414
 1724SOL     OW 6070   6.114   2.018   1.100
 1724SOL    HW1 6071   6.051   2.051   1.171
 1724SOL    HW2 6072   6.065   1.955   1.039
 1725SOL     OW 6073   2.134   4.616   6.804
 1725SOL    HW1 6074   2.092   4.699   6.767
 1725SOL    HW2 6075   2.206   4.641   6.869
 1726SOL     OW 6076   5.785   4.152   5.369
 1726SOL    HW1 6077   5.700   4.201   5.391
 1726SOL    HW2 6078   5.766   4.054   5.364
 1727SOL     OW 6079   3.578   3.263   4.573
 1727SOL    HW1 6080   3.611   3.347   4.531
 1727SOL    HW2 6081   3.622   3.250   4.662
 1728SOL     OW 6082   5.976   5.498   4.617
 1728SOL    HW1 6083   5.882   5.474   4.593
 1728SOL    HW2 6084   5.976   5.558   4.697
 1729SOL     OW 6085   2.060   3.931   3.544
 1729SOL    HW1 6086   2.070   3.850   3.485
 1729SOL    HW2 6087   2.145   3.983   3.545
 1730SOL     OW 6088   6.280   0.111   5.244
 1730SOL    HW1 6089   6.212   0.176   5.278
 1730SOL    HW2 6090   6.234   0.036   5.197
 1731SOL     OW 6091   0.220   4.929   2.034
 1731SOL    HW1 6092   0.169   4.982   2.101
 1731SOL    HW2 6093   0.171   4.844   2.014
 1732SOL     OW 6094   2.534   4.245   5.442
 1732SOL    HW1 6095   2.469   4.266   5.370
 1732SOL    HW2 6096   2.528   4.316   5.513
 1733SOL     OW 6097   1.082   3.834   2.985
 1733SOL    HW1 6098   1.042   3.812   2.896
 1733SOL    HW2 6099   1.180   3.851   2.973
 1734SOL     OW 6100   4.818   3.281   1.799
 1734SOL    HW1 6101   4.900   3.263   1.853
 1734SOL    HW2 6102   4.747   3.215   1.823
 1735SOL     OW 6103   5.908   5.979   1.417
 1735SOL    HW1 6104   5.889   6.063   1.467
 1735SOL    HW2 6105   5.917   5.999   1.320
 1736SOL     OW 6106   4.184   2.573   1.269
 1736SOL    HW1 6107   4.205   2.646   1.204
 1736SOL    HW2 6108   4.174   2.612   1.360
 1737SOL     OW 6109   2.732   0.832   4.280
 1737SOL    HW1 6110   2.673   0.900   4.324
 1737SOL    HW2 6111   2.790   0.878   4.212
 1738SOL     OW 6112   2.059   1.509   3.932
 1738SOL    HW1 6113   2.140   1.479   3.881
 1738SOL    HW2 6114   2.086   1.579   3.998
 1739SOL     OW 6115   5.520   1.886   5.762
 1739SOL    HW1 6116   5.455   1.955   5.792
 1739SOL    HW2 6117   5.591   1.929   5.705
 1740SOL     OW 6118   0.562   1.521   6.271
 1740SOL    HW1 6119   0.639   1.581   6.252
 1740SOL    HW2 6120   0.527   1.484   6.185
 1741SOL     OW 6121   1.992   0.508   4.007
 1741SOL    HW1 6122   1.998   0.606   3.993
 1741SOL    HW2 6123   2.025   0.460   3.926
 1742SOL     OW 6124   4.726   6.291   6.133
 1742SOL    HW1 6125   4.647   6.244   6.172
 1742SOL    HW2 6126   4.697   6.345   6.054
 1743SOL     OW 6127   2.109   2.152   2.436
 1743SOL    HW1 6128   2.038   2.085   2.454
 1743SOL    HW2 6129   2.197   2.116   2.466
 1744SOL     OW 6130   0.438   0.291   1.431
 1744SOL    HW1 6131   0.341   0.296   1.454
 1744SOL    HW2 6132   0.485   0.227   1.492
 1745SOL     OW 6133   6.327   0.520   3.382
 1745SOL    HW1 6134   6.288   0.580   3.312
 1745SOL    HW2 6135   6.264   0.444   3.399
 1746SOL     OW 6136   2.560   5.009   5.667
 1746SOL    HW1 6137   2.518   5.077   5.727
 1746SOL    HW2 6138   2.643   5.047   5.626
 1747SOL     OW 6139   5.899   1.151   3.153
 1747SOL    HW1 6140   5.819   1.155   3.213
 1747SOL    HW2 6141   5.887   1.079   3.085
 1748SOL     OW 6142   0.532   1.029   3.725
 1748SOL    HW1 6143   0.487   0.977   3.652
 1748SOL    HW2 6144   0.630   1.013   3.721
 1749SOL     OW 6145   2.609   6.964   5.356
 1749SOL    HW1 6146   2.545   6.888   5.347
 1749SOL    HW2 6147   2.669   6.948   5.434
 1750SOL     OW 6148   6.462   0.050   3.384
 1750SOL    HW1 6149   6.513   0.084   3.462
 1750SOL    HW2 6150   6.525   0.013   3.316
 1751SOL     OW 6151   4.106   5.420   4.350
 1751SOL    HW1 6152   4.124   5.441   4.446
 1751SOL    HW2 6153   4.187   5.379   4.309
 1752SOL     OW 6154   0.231   2.260   2.302
 1752SOL    HW1 6155   0.177   2.197   2.245
 1752SOL    HW2 6156   0.199   2.354   2.286
 1753SOL     OW 6157   0.021   2.224   0.642
 1753SOL    HW1 6158   6.999   2.308   0.606
 1753SOL    HW2 6159   0.056   2.169   0.566
 1754SOL     OW 6160   3.359   3.430   1.210
 1754SOL    HW1 6161   3.343   3.381   1.295
 1754SOL    HW2 6162   3.298   3.509   1.205
 1755SOL     OW 6163   6.116   5.794   2.801
 1755SOL    HW1 6164   6.050   5.722   2.781
 1755SOL    HW2 6165   6.068   5.880   2.815
 1756SOL     OW 6166   4.038   3.935   6.087
 1756SOL    HW1 6167   3.970   3.934   6.014
 1756SOL    HW2 6168   4.127   3.910   6.050
 1757SOL     OW 6169   2.675   5.025   4.758
 1757SOL    HW1 6170   2.609   5.079   4.706
 1757SOL    HW2 6171   2.690   4.937   4.711
 1758SOL     OW 6172   2.671   0.458   3.689
 1758SOL    HW1 6173   2.747   0.418   3.740
 1758SOL    HW2 6174   2.611   0.386   3.655
 1759SOL     OW 6175   1.323   5.347   5.893
 1759SOL    HW1 6176   1.414   5.379   5.919
 1759SOL    HW2 6177   1.296   5.272   5.953
 1760SOL     OW 6178   5.542   2.197   1.892
 1760SOL    HW1 6179   5.515   2.169   1.799
 1760SOL    HW2 6180   5.534   2.297   1.900
 1761SOL     OW 6181   0.244   0.581   0.715
 1761SOL    HW1 6182   0.166   0.530   0.680
 1761SOL    HW2 6183   0.315   0.516   0.746
 1762SOL     OW 6184   6.761   1.920   4.762
 1762SOL    HW1 6185   6.782   1.859   4.838
 1762SOL    HW2 6186   6.777   1.873   4.675
 1763SOL     OW 6187   1.245   3.681   4.011
 1763SOL    HW1 6188   1.281   3.592   3.985
 1763SOL    HW2 6189   1.208   3.677   4.103
 1764SOL     OW 6190   2.240   3.997   2.110
 1764SOL    HW1 6191   2.236   3.948   2.197
 1764SOL    HW2 6192   2.257   3.933   2.035
 1765SOL     OW 6193   4.161   1.714   6.996
 1765SOL    HW1 6194   4.205   1.624   7.004
 1765SOL    HW2 6195   4.062   1.702   6.991
 1766SOL     OW 6196   5.012   3.531   3.221
 1766SOL    HW1 6197   5.107   3.558   3.234
 1766SOL    HW2 6198   4.972   3.506   3.309
 1767SOL     OW 6199   6.390   3.898   3.212
 1767SOL    HW1 6200   6.380   3.813   3.161
 1767SOL    HW2 6201   6.407   3.877   3.308
 1768SOL     OW 6202   3.726   1.353   4.909
 1768SOL    HW1 6203   3.677   1.269   4.933
 1768SOL    HW2 6204   3.694   1.427   4.968
 1769SOL     OW 6205   4.449   2.537   5.091
 1769SOL    HW1 6206   4.354   2.511   5.073
 1769SOL    HW2 6207   4.471   2.621   5.041
 1770SOL     OW 6208   0.272   5.312   4.657
 1770SOL    HW1 6209   0.269   5.297   4.756
 1770SOL    HW2 6210   0.217   5.392   4.634
 1771SOL     OW 6211   2.161   4.996   6.987
 1771SOL    HW1 6212   2.249   4.999   0.016
 1771SOL    HW2 6213   2.094   5.052   0.018
 1772SOL     OW 6214   3.042   6.593   3.590
 1772SOL    HW1 6215   3.085   6.644   3.665
 1772SOL    HW2 6216   3.079   6.626   3.503
 1773SOL     OW 6217   2.847   4.759   5.983
 1773SOL    HW1 6218   2.836   4.845   6.032
 1773SOL    HW2 6219   2.814   4.768   5.890
 1774SOL     OW 6220   4.749   6.764   1.989
 1774SOL    HW1 6221   4.807   6.723   2.060
 1774SOL    HW2 6222   4.653   6.740   2.006
 1775SOL     OW 6223   1.075   4.611   4.173
 1775SOL    HW1 6224   1.104   4.706   4.160
 1775SOL    HW2 6225   1.109   4.555   4.097
 1776SOL     OW 6226   3.342   1.118   5.128
 1776SOL    HW1 6227   3.265   1.180   5.117
 1776SOL    HW2 6228   3.427   1.166   5.105
 1777SOL     OW 6229   3.393   5.286   5.601
 1777SOL    HW1 6230   3.353   5.204   5.560
 1777SOL    HW2 6231   3.444   5.261   5.683
 1778SOL     OW 6232   4.638   2.371   5.832
 1778SOL    HW1 6233   4.624   2.466   5.858
 1778SOL    HW2 6234   4.710   2.331   5.888
 1779SOL     OW 6235   4.529   1.337   4.731
 1779SOL    HW1 6236   4.582   1.260   4.697
 1779SOL    HW2 6237   4.534   1.340   4.831
 1780SOL     OW 6238   2.876   3.619   6.218
 1780SOL    HW1 6239   2.952   3.554   6.215
 1780SOL    HW2 6240   2.886   3.685   6.143
 1781SOL     OW 6241   4.159   5.400   3.873
 1781SOL    HW1 6242   4.233   5.451   3.829
 1781SOL    HW2 6243   4.117   5.338   3.807
 1782SOL     OW 6244   2.658   2.022   2.997
 1782SOL    HW1 6245   2.700   1.982   2.915
 1782SOL    HW2 6246   2.723   2.084   3.041
 1783SOL     OW 6247   1.700   3.914   6.450
 1783SOL    HW1 6248   1.689   3.995   6.392
 1783SOL    HW2 6249   1.790   3.874   6.435
 1784SOL     OW 6250   3.151   1.304   5.036
 1784SOL    HW1 6251   3.135   1.385   5.092
 1784SOL    HW2 6252   3.069   1.285   4.981
 1785SOL     OW 6253   5.806   5.550   3.485
 1785SOL    HW1 6254   5.782   5.565   3.389
 1785SOL    HW2 6255   5.791   5.634   3.536
 1786SOL     OW 6256   1.700   2.747   1.477
 1786SOL    HW1 6257   1.736   2.702   1.559
 1786SOL    HW2 6258   1.666   2.838   1.501
 1787SOL     OW 6259   2.359   0.895   4.434
 1787SOL    HW1 6260   2.391   0.940   4.351
 1787SOL    HW2 6261   2.435   0.845   4.476
 1788SOL     OW 6262   2.848   3.031   6.970
 1788SOL    HW1 6263   2.756   3.072   6.971
 1788SOL    HW2 6264   2.897   3.062   6.889
 1789SOL     OW 6265   6.198   1.721   2.447
 1789SOL    HW1 6266   6.155   1.631   2.454
 1789SOL    HW2 6267   6.235   1.734   2.355
 1790SOL     OW 6268   4.233   6.466   4.310
 1790SOL    HW1 6269   4.214   6.560   4.282
 1790SOL    HW2 6270   4.306   6.466   4.379
 1791SOL     OW 6271   0.029   1.316   3.941
 1791SOL    HW1 6272   0.083   1.275   4.014
 1791SOL    HW2 6273   0.085   1.384   3.892
 1792SOL     OW 6274   0.143   2.375   3.867
 1792SOL    HW1 6275   0.062   2.325   3.896
 1792SOL    HW2 6276   0.176   2.431   3.943
 1793SOL     OW 6277   6.932   6.887   3.764
 1793SOL    HW1 6278   6.845   6.912   3.807
 1793SOL    HW2 6279   6.938   6.930   3.674
 1794SOL     OW 6280   5.451   5.887   6.068
 1794SOL    HW1 6281   5.375   5.946   6.042
 1794SOL    HW2 6282   5.536   5.924   6.032
 1795SOL     OW 6283   0.143   2.940   2.459
 1795SOL    HW1 6284   0.103   3.030   2.445
 1795SOL    HW2 6285   0.143   2.890   2.372
 1796SOL     OW 6286   1.960   0.602   4.306
 1796SOL    HW1 6287   2.034   0.621   4.370
 1796SOL    HW2 6288   1.880   0.657   4.330
 1797SOL     OW 6289   1.330   1.029   6.417
 1797SOL    HW1 6290   1.396   1.101   6.395
 1797SOL    HW2 6291   1.317   1.026   6.516
 1798SOL     OW 6292   5.233   2.060   4.626
 1798SOL    HW1 6293   5.248   2.128   4.553
 1798SOL    HW2 6294   5.292   1.981   4.611
 1799SOL     OW 6295   6.384   1.455   6.092
 1799SOL    HW1 6296   6.407   1.552   6.090
 1799SOL    HW2 6297   6.327   1.436   6.172
 1800SOL     OW 6298   4.505   5.130   2.849
 1800SOL    HW1 6299   4.499   5.181   2.934
 1800SOL    HW2 6300   4.441   5.169   2.782
 1801SOL     OW 6301   0.847   0.819   2.108
 1801SOL    HW1 6302   0.903   0.757   2.163
 1801SOL    HW2 6303   0.861   0.913   2.140
 1802SOL     OW 6304   5.445   5.167   2.152
 1802SOL    HW1 6305   5.406   5.243   2.204
 1802SOL    HW2 6306   5.485   5.101   2.216
 1803SOL     OW 6307   0.054   6.301   0.364
 1803SOL    HW1 6308   0.071   6.358   0.444
 1803SOL    HW2 6309   0.059   6.357   0.281
 1804SOL     OW 6310   1.963   4.247   5.951
 1804SOL    HW1 6311   1.894   4.318   5.955
 1804SOL    HW2 6312   1.954   4.196   5.865
 1805SOL     OW 6313   6.732   3.797   5.669
 1805SOL    HW1 6314   6.687   3.786   5.758
 1805SOL    HW2 6315   6.815   3.740   5.667
 1806SOL     OW 6316   1.244   0.956   0.600
 1806SOL    HW1 6317   1.193   1.039   0.577
 1806SOL    HW2 6318   1.181   0.879   0.604
 1807SOL     OW 6319   4.820   2.264   5.981
 1807SOL    HW1 6320   4.919   2.272   5.971
 1807SOL    HW2 6321   4.800   2.191   6.046
 1808SOL     OW 6322   0.115   3.357   6.056
 1808SOL    HW1 6323   0.140   3.260   6.052
 1808SOL    HW2 6324   0.021   3.365   6.090
 1809SOL     OW 6325   2.076   3.416   4.363
 1809SOL    HW1 6326   2.097   3.320   4.341
 1809SOL    HW2 6327   2.077   3.470   4.279
 1810SOL     OW 6328   2.506   0.566   4.951
 1810SOL    HW1 6329   2.528   0.661   4.975
 1810SOL    HW2 6330   2.445   0.528   5.020
 1811SOL     OW 6331   4.510   4.529   3.765
 1811SOL    HW1 6332   4.576   4.467   3.805
 1811SOL    HW2 6333   4.511   4.518   3.665
 1812SOL     OW 6334   3.973   6.449   5.778
 1812SOL    HW1 6335   3.893   6.457   5.719
 1812SOL    HW2 6336   3.977   6.529   5.839
 1813SOL     OW 6337   4.889   4.859   0.282
 1813SOL    HW1 6338   4.821   4.832   0.351
 1813SOL    HW2 6339   4.909   4.782   0.223
 1814SOL     OW 6340   0.036   0.973   0.244
 1814SOL    HW1 6341   0.113   0.922   0.205
 1814SOL    HW2 6342   6.985   0.908   0.276
 1815SOL     OW 6343   5.938   2.510   1.816
 1815SOL    HW1 6344   5.933   2.410   1.818
 1815SOL    HW2 6345   5.881   2.545   1.742
 1816SOL     OW 6346   2.414   3.968   0.844
 1816SOL    HW1 6347   2.318   3.962   0.818
 1816SOL    HW2 6348   2.471   3.952   0.763
 1817SOL     OW 6349   3.145   6.950   3.365
 1817SOL    HW1 6350   3.181   6.904   3.284
 1817SOL    HW2 6351   3.215   6.953   3.436
 1818SOL     OW 6352   2.029   6.929   2.464
 1818SOL    HW1 6353   1.965   7.000   2.493
 1818SOL    HW2 6354   2.046   6.937   2.366
 1819SOL     OW 6355   0.251   5.401   1.545
 1819SOL    HW1 6356   0.195   5.333   1.499
 1819SOL    HW2 6357   0.204   5.432   1.628
 1820SOL     OW 6358   4.772   0.817   2.706
 1820SOL    HW1 6359   4.685   0.803   2.753
 1820SOL    HW2 6360   4.844   0.766   2.753
 1821SOL     OW 6361   2.601   0.673   1.664
 1821SOL    HW1 6362   2.516   0.652   1.711
 1821SOL    HW2 6363   2.605   0.623   1.578
 1822SOL     OW 6364   2.373   2.726   1.223
 1822SOL    HW1 6365   2.445   2.664   1.255
 1822SOL    HW2 6366   2.352   2.705   1.127
 1823SOL     OW 6367   2.691   5.976   3.485
 1823SOL    HW1 6368   2.778   6.017   3.513
 1823SOL    HW2 6369   2.618   6.043   3.497
 1824SOL     OW 6370   3.814   3.853   1.465
 1824SOL    HW1 6371   3.882   3.856   1.391
 1824SOL    HW2 6372   3.834   3.774   1.525
 1825SOL     OW 6373   1.289   1.855   4.005
 1825SOL    HW1 6374   1.355   1.909   4.057
 1825SOL    HW2 6375   1.197   1.871   4.041
 1826SOL     OW 6376   3.120   0.251   0.825
 1826SOL    HW1 6377   3.040   0.238   0.884
 1826SOL    HW2 6378   3.091   0.283   0.735
 1827SOL     OW 6379   0.329   6.037   1.374
 1827SOL    HW1 6380   0.359   6.098   1.447
 1827SOL    HW2 6381   0.241   5.997   1.398
 1828SOL     OW 6382   0.937   2.368   0.736
 1828SOL    HW1 6383   1.026   2.408   0.760
 1828SOL    HW2 6384   0.901   2.415   0.655
 1829SOL     OW 6385   2.849   0.511   3.466
 1829SOL    HW1 6386   2.789   0.554   3.400
 1829SOL    HW2 6387   2.796   0.480   3.545
 1830SOL     OW 6388   5.917   6.327   3.969
 1830SOL    HW1 6389   5.960   6.393   3.906
 1830SOL    HW2 6390   5.982   6.304   4.041
 1831SOL     OW 6391   5.775   0.243   2.658
 1831SOL    HW1 6392   5.839   0.188   2.604
 1831SOL    HW2 6393   5.762   0.201   2.748
 1832SOL     OW 6394   4.486   1.515   1.251
 1832SOL    HW1 6395   4.567   1.554   1.206
 1832SOL    HW2 6396   4.414   1.584   1.255
 1833SOL     OW 6397   5.126   0.347   6.335
 1833SOL    HW1 6398   5.050   0.393   6.288
 1833SOL    HW2 6399   5.123   0.249   6.317
 1834SOL     OW 6400   2.685   4.268   0.342
 1834SOL    HW1 6401   2.730   4.179   0.336
 1834SOL    HW2 6402   2.593   4.262   0.305
 1835SOL     OW 6403   0.071   3.682   2.442
 1835SOL    HW1 6404   0.085   3.719   2.533
 1835SOL    HW2 6405   0.107   3.588   2.438
 1836SOL     OW 6406   5.042   2.813   1.332
 1836SOL    HW1 6407   5.089   2.728   1.311
 1836SOL    HW2 6408   4.975   2.797   1.404
 1837SOL     OW 6409   1.210   1.020   4.931
 1837SOL    HW1 6410   1.218   1.117   4.909
 1837SOL    HW2 6411   1.214   0.967   4.846
 1838SOL     OW 6412   0.072   1.296   4.322
 1838SOL    HW1 6413   0.135   1.239   4.269
 1838SOL    HW2 6414   0.122   1.343   4.395
 1839SOL     OW 6415   5.633   2.336   5.522
 1839SOL    HW1 6416   5.587   2.303   5.440
 1839SOL    HW2 6417   5.609   2.278   5.600
 1840SOL     OW 6418   3.475   6.648   1.699
 1840SOL    HW1 6419   3.445   6.743   1.709
 1840SOL    HW2 6420   3.524   6.620   1.782
 1841SOL     OW 6421   2.207   1.030   3.584
 1841SOL    HW1 6422   2.210   1.047   3.683
 1841SOL    HW2 6423   2.135   1.086   3.543
 1842SOL     OW 6424   1.407   5.578   0.246
 1842SOL    HW1 6425   1.443   5.553   0.336
 1842SOL    HW2 6426   1.464   5.538   0.175
 1843SOL     OW 6427   6.633   2.306   3.342
 1843SOL    HW1 6428   6.562   2.355   3.394
 1843SOL    HW2 6429   6.723   2.342   3.368
 1844SOL     OW 6430   3.060   0.190   5.668
 1844SOL    HW1 6431   3.157   0.175   5.689
 1844SOL    HW2 6432   3.051   0.253   5.590
 1845SOL     OW 6433   2.517   0.423   5.362
 1845SOL    HW1 6434   2.530   0.367   5.444
 1845SOL    HW2 6435   2.448   0.493   5.380
 1846SOL     OW 6436   4.237   2.333   1.177
 1846SOL    HW1 6437   4.233   2.285   1.265
 1846SOL    HW2 6438   4.198   2.424   1.187
 1847SOL     OW 6439   1.675   1.146   6.952
 1847SOL    HW1 6440   1.736   1.111   0.005
 1847SOL    HW2 6441   1.589   1.176   6.993
 1848SOL     OW 6442   0.889   6.947   3.415
 1848SOL    HW1 6443   0.815   6.905   3.467
 1848SOL    HW2 6444   0.900   6.899   3.328
 1849SOL     OW 6445   3.870   2.541   0.550
 1849SOL    HW1 6446   3.901   2.583   0.465
 1849SOL    HW2 6447   3.797   2.596   0.591
 1850SOL     OW 6448   0.827   2.501   2.255
 1850SOL    HW1 6449   0.787   2.478   2.344
 1850SOL    HW2 6450   0.847   2.598   2.252
 1851SOL     OW 6451   0.120   2.666   0.847
 1851SOL    HW1 6452   0.168   2.744   0.805
 1851SOL    HW2 6453   0.141   2.583   0.796
 1852SOL     OW 6454   6.605   4.197   2.004
 1852SOL    HW1 6455   6.675   4.201   2.075
 1852SOL    HW2 6456   6.518   4.229   2.041
 1853SOL     OW 6457   0.190   2.601   2.731
 1853SOL    HW1 6458   0.150   2.581   2.642
 1853SOL    HW2 6459   0.183   2.520   2.790
 1854SOL     OW 6460   2.516   6.379   3.201
 1854SOL    HW1 6461   2.445   6.310   3.186
 1854SOL    HW2 6462   2.559   6.402   3.113
 1855SOL     OW 6463   5.334   3.101   5.864
 1855SOL    HW1 6464   5.416   3.114   5.920
 1855SOL    HW2 6465   5.300   3.007   5.875
 1856SOL     OW 6466   5.970   3.534   5.771
 1856SOL    HW1 6467   5.880   3.530   5.813
 1856SOL    HW2 6468   6.014   3.444   5.777
 1857SOL     OW 6469   4.311   1.347   5.370
 1857SOL    HW1 6470   4.398   1.385   5.402
 1857SOL    HW2 6471   4.245   1.421   5.356
 1858SOL     OW 6472   6.028   3.878   4.034
 1858SOL    HW1 6473   6.074   3.967   4.037
 1858SOL    HW2 6474   5.930   3.891   4.052
 1859SOL     OW 6475   5.059   2.098   2.941
 1859SOL    HW1 6476   5.060   2.109   2.841
 1859SOL    HW2 6477   4.964   2.087   2.971
 1860SOL     OW 6478   6.310   0.491   5.340
 1860SOL    HW1 6479   6.296   0.544   5.256
 1860SOL    HW2 6480   6.254   0.530   5.413
 1861SOL     OW 6481   5.922   0.085   2.472
 1861SOL    HW1 6482   5.877   0.130   2.395
 1861SOL    HW2 6483   5.864   0.010   2.505
 1862SOL     OW 6484   2.463   6.938   6.217
 1862SOL    HW1 6485   2.477   6.870   6.290
 1862SOL    HW2 6486   2.423   0.003   6.256
 1863SOL     OW 6487   1.360   2.243   2.387
 1863SOL    HW1 6488   1.381   2.255   2.484
 1863SOL    HW2 6489   1.348   2.146   2.367
 1864SOL     OW 6490   1.369   6.874   5.459
 1864SOL    HW1 6491   1.383   6.833   5.549
 1864SOL    HW2 6492   1.450   6.861   5.403
 1865SOL     OW 6493   3.621   6.481   6.269
 1865SOL    HW1 6494   3.547   6.529   6.315
 1865SOL    HW2 6495   3.584   6.430   6.191
 1866SOL     OW 6496   4.354   5.132   3.396
 1866SOL    HW1 6497   4.267   5.181   3.394
 1866SOL    HW2 6498   4.341   5.042   3.436
 1867SOL     OW 6499   0.436   4.189   0.127
 1867SOL    HW1 6500   0.389   4.105   0.100
 1867SOL    HW2 6501   0.389   4.268   0.087
 1868SOL     OW 6502   4.932   3.548   6.652
 1868SOL    HW1 6503   4.906   3.616   6.720
 1868SOL    HW2 6504   4.899   3.576   6.562
 1869SOL     OW 6505   5.832   2.871   5.532
 1869SOL    HW1 6506   5.807   2.910   5.621
 1869SOL    HW2 6507   5.856   2.944   5.469
 1870SOL     OW 6508   1.640   3.251   5.548
 1870SOL    HW1 6509   1.709   3.186   5.516
 1870SOL    HW2 6510   1.666   3.285   5.638
 1871SOL     OW 6511   0.433   0.691   0.126
 1871SOL    HW1 6512   0.399   0.647   0.042
 1871SOL    HW2 6513   0.488   0.626   0.178
 1872SOL     OW 6514   3.984   1.571   6.203
 1872SOL    HW1 6515   3.989   1.509   6.124
 1872SOL    HW2 6516   3.981   1.517   6.287
 1873SOL     OW 6517   5.137   1.381   5.654
 1873SOL    HW1 6518   5.097   1.366   5.744
 1873SOL    HW2 6519   5.091   1.459   5.610
 1874SOL     OW 6520   3.089   1.583   0.692
 1874SOL    HW1 6521   3.112   1.670   0.735
 1874SOL    HW2 6522   2.992   1.563   0.707
 1875SOL     OW 6523   0.235   0.744   0.301
 1875SOL    HW1 6524   0.198   0.655   0.327
 1875SOL    HW2 6525   0.300   0.732   0.225
 1876SOL     OW 6526   3.529   6.256   6.044
 1876SOL    HW1 6527   3.442   6.242   6.091
 1876SOL    HW2 6528   3.528   6.207   5.957
 1877SOL     OW 6529   0.358   0.392   2.745
 1877SOL    HW1 6530   0.416   0.409   2.825
 1877SOL    HW2 6531   0.393   0.444   2.667
 1878SOL     OW 6532   6.924   2.720   3.770
 1878SOL    HW1 6533   6.993   2.736   3.841
 1878SOL    HW2 6534   6.836   2.697   3.812
 1879SOL     OW 6535   1.472   4.986   4.163
 1879SOL    HW1 6536   1.483   5.067   4.220
 1879SOL    HW2 6537   1.516   4.908   4.208
 1880SOL     OW 6538   6.418   1.128   4.621
 1880SOL    HW1 6539   6.350   1.151   4.552
 1880SOL    HW2 6540   6.497   1.189   4.613
 1881SOL     OW 6541   6.149   2.770   2.412
 1881SOL    HW1 6542   6.173   2.729   2.500
 1881SOL    HW2 6543   6.223   2.755   2.346
 1882SOL     OW 6544   0.676   3.183   6.375
 1882SOL    HW1 6545   0.764   3.190   6.422
 1882SOL    HW2 6546   0.619   3.114   6.420
 1883SOL     OW 6547   0.949   2.034   3.840
 1883SOL    HW1 6548   0.954   2.133   3.854
 1883SOL    HW2 6549   1.031   2.003   3.793
 1884SOL     OW 6550   6.706   2.894   0.495
 1884SOL    HW1 6551   6.621   2.927   0.455
 1884SOL    HW2 6552   6.764   2.972   0.520
 1885SOL     OW 6553   1.367   2.569   6.246
 1885SOL    HW1 6554   1.447   2.554   6.304
 1885SOL    HW2 6555   1.346   2.667   6.244
 1886SOL     OW 6556   2.380   0.897   1.400
 1886SOL    HW1 6557   2.451   0.964   1.418
 1886SOL    HW2 6558   2.344   0.862   1.487
 1887SOL     OW 6559   0.950   5.541   4.885
 1887SOL    HW1 6560   0.926   5.444   4.887
 1887SOL    HW2 6561   0.974   5.571   4.978
 1888SOL     OW 6562   2.312   2.520   6.904
 1888SOL    HW1 6563   2.223   2.537   6.946
 1888SOL    HW2 6564   2.325   2.422   6.892
 1889SOL     OW 6565   0.176   2.901   6.115
 1889SOL    HW1 6566   0.139   2.859   6.032
 1889SOL    HW2 6567   0.229   2.982   6.090
 1890SOL     OW 6568   1.627   6.597   4.709
 1890SOL    HW1 6569   1.629   6.532   4.633
 1890SOL    HW2 6570   1.675   6.681   4.682
 1891SOL     OW 6571   5.218   2.005   1.820
 1891SOL    HW1 6572   5.138   1.948   1.837
 1891SOL    HW2 6573   5.223   2.077   1.889
 1892SOL     OW 6574   2.379   1.278   2.684
 1892SOL    HW1 6575   2.346   1.185   2.701
 1892SOL    HW2 6576   2.407   1.320   2.770
 1893SOL     OW 6577   3.747   2.979   6.983
 1893SOL    HW1 6578   3.698   2.900   0.000
 1893SOL    HW2 6579   3.799   2.953   6.902
 1894SOL     OW 6580   3.515   3.806   3.765
 1894SOL    HW1 6581   3.468   3.781   3.850
 1894SOL    HW2 6582   3.595   3.748   3.753
 1895SOL     OW 6583   5.122   0.454   1.638
 1895SOL    HW1 6584   5.138   0.516   1.561
 1895SOL    HW2 6585   5.132   0.360   1.606
 1896SOL     OW 6586   5.540   0.342   1.499
 1896SOL    HW1 6587   5.498   0.382   1.581
 1896SOL    HW2 6588   5.633   0.378   1.488
 1897SOL     OW 6589   1.506   4.892   1.551
 1897SOL    HW1 6590   1.407   4.876   1.560
 1897SOL    HW2 6591   1.539   4.849   1.467
 1898SOL     OW 6592   2.072   5.816   3.353
 1898SOL    HW1 6593   2.054   5.759   3.273
 1898SOL    HW2 6594   1.991   5.872   3.372
 1899SOL     OW 6595   1.233   0.874   2.229
 1899SOL    HW1 6596   1.310   0.853   2.169
 1899SOL    HW2 6597   1.260   0.947   2.293
 1900SOL     OW 6598   1.325   0.211   6.334
 1900SOL    HW1 6599   1.285   0.201   6.243
 1900SOL    HW2 6600   1.420   0.180   6.333
 1901SOL     OW 6601   1.893   1.708   1.131
 1901SOL    HW1 6602   1.889   1.804   1.157
 1901SOL    HW2 6603   1.812   1.683   1.079
 1902SOL     OW 6604   2.190   2.124   5.197
 1902SOL    HW1 6605   2.131   2.107   5.118
 1902SOL    HW2 6606   2.256   2.195   5.174
 1903SOL     OW 6607   0.004   3.199   2.470
 1903SOL    HW1 6608   7.010   3.199   2.569
 1903SOL    HW2 6609   0.057   3.279   2.443
 1904SOL     OW 6610   5.122   5.663   3.419
 1904SOL    HW1 6611   5.133   5.686   3.516
 1904SOL    HW2 6612   5.126   5.746   3.364
 1905SOL     OW 6613   1.356   0.299   3.915
 1905SOL    HW1 6614   1.446   0.295   3.872
 1905SOL    HW2 6615   1.354   0.240   3.995
 1906SOL     OW 6616   2.305   0.456   5.058
 1906SOL    HW1 6617   2.290   0.442   5.156
 1906SOL    HW2 6618   2.234   0.408   5.006
 1907SOL     OW 6619   3.663   0.739   1.600
 1907SOL    HW1 6620   3.600   0.786   1.539
 1907SOL    HW2 6621   3.633   0.644   1.613
 1908SOL     OW 6622   3.617   6.840   5.283
 1908SOL    HW1 6623   3.710   6.873   5.264
 1908SOL    HW2 6624   3.565   6.837   5.198
 1909SOL     OW 6625   0.143   3.748   2.701
 1909SOL    HW1 6626   0.132   3.733   2.799
 1909SOL    HW2 6627   0.240   3.759   2.680
 1910SOL     OW 6628   0.526   3.859   6.937
 1910SOL    HW1 6629   0.546   3.781   6.879
 1910SOL    HW2 6630   0.586   3.858   7.017
 1911SOL     OW 6631   6.768   3.427   5.057
 1911SOL    HW1 6632   6.685   3.404   5.107
 1911SOL    HW2 6633   6.844   3.440   5.122
 1912SOL     OW 6634   3.940   5.624   0.615
 1912SOL    HW1 6635   3.986   5.557   0.673
 1912SOL    HW2 6636   3.870   5.671   0.668
 1913SOL     OW 6637   2.418   6.562   4.870
 1913SOL    HW1 6638   2.334   6.524   4.831
 1913SOL    HW2 6639   2.497   6.514   4.831
 1914SOL     OW 6640   3.818   2.936   5.918
 1914SOL    HW1 6641   3.731   2.937   5.869
 1914SOL    HW2 6642   3.803   2.957   6.014
 1915SOL     OW 6643   3.532   2.126   5.074
 1915SOL    HW1 6644   3.448   2.111   5.023
 1915SOL    HW2 6645   3.510   2.155   5.168
 1916SOL     OW 6646   4.343   5.847   1.584
 1916SOL    HW1 6647   4.368   5.768   1.640
 1916SOL    HW2 6648   4.252   5.879   1.612
 1917SOL     OW 6649   2.619   3.097   6.085
 1917SOL    HW1 6650   2.576   3.179   6.048
 1917SOL    HW2 6651   2.602   3.092   6.183
 1918SOL     OW 6652   0.944   1.251   5.360
 1918SOL    HW1 6653   0.954   1.347   5.385
 1918SOL    HW2 6654   1.028   1.219   5.317
 1919SOL     OW 6655   2.149   0.752   1.814
 1919SOL    HW1 6656   2.054   0.773   1.790
 1919SOL    HW2 6657   2.183   0.820   1.879
 1920SOL     OW 6658   0.377   3.687   2.987
 1920SOL    HW1 6659   0.448   3.750   2.955
 1920SOL    HW2 6660   0.362   3.702   3.085
 1921SOL     OW 6661   1.458   3.678   6.147
 1921SOL    HW1 6662   1.460   3.630   6.059
 1921SOL    HW2 6663   1.457   3.776   6.132
 1922SOL     OW 6664   2.219   3.664   0.986
 1922SOL    HW1 6665   2.181   3.692   0.898
 1922SOL    HW2 6666   2.184   3.725   1.058
 1923SOL     OW 6667   4.225   0.776   5.548
 1923SOL    HW1 6668   4.202   0.804   5.641
 1923SOL    HW2 6669   4.315   0.812   5.524
 1924SOL     OW 6670   4.824   5.920   0.101
 1924SOL    HW1 6671   4.781   6.010   0.115
 1924SOL    HW2 6672   4.923   5.932   0.091
 1925SOL     OW 6673   1.659   4.860   0.935
 1925SOL    HW1 6674   1.597   4.828   1.007
 1925SOL    HW2 6675   1.684   4.955   0.952
 1926SOL     OW 6676   2.641   6.961   2.924
 1926SOL    HW1 6677   2.729   6.914   2.926
 1926SOL    HW2 6678   2.645   0.018   2.858
 1927SOL     OW 6679   2.565   4.531   0.150
 1927SOL    HW1 6680   2.515   4.446   0.162
 1927SOL    HW2 6681   2.545   4.593   0.226
 1928SOL     OW 6682   6.565   4.125   5.561
 1928SOL    HW1 6683   6.536   4.220   5.567
 1928SOL    HW2 6684   6.486   4.065   5.579
 1929SOL     OW 6685   2.578   6.886   1.506
 1929SOL    HW1 6686   2.550   6.813   1.445
 1929SOL    HW2 6687   2.500   6.947   1.523
 1930SOL     OW 6688   3.785   3.677   6.582
 1930SOL    HW1 6689   3.769   3.625   6.666
 1930SOL    HW2 6690   3.808   3.772   6.605
 1931SOL     OW 6691   1.371   2.570   1.413
 1931SOL    HW1 6692   1.291   2.613   1.371
 1931SOL    HW2 6693   1.430   2.641   1.451
 1932SOL     OW 6694   4.603   2.561   3.215
 1932SOL    HW1 6695   4.585   2.608   3.128
 1932SOL    HW2 6696   4.664   2.483   3.198
 1933SOL     OW 6697   2.080   3.227   1.004
 1933SOL    HW1 6698   2.170   3.212   1.043
 1933SOL    HW2 6699   2.087   3.237   0.905
 1934SOL     OW 6700   6.985   6.914   5.393
 1934SOL    HW1 6701   0.027   6.986   5.428
 1934SOL    HW2 6702   6.914   6.955   5.337
 1935SOL     OW 6703   4.539   6.083   3.693
 1935SOL    HW1 6704   4.518   6.092   3.596
 1935SOL    HW2 6705   4.492   6.004   3.730
 1936SOL     OW 6706   5.291   4.178   3.731
 1936SOL    HW1 6707   5.355   4.245   3.694
 1936SOL    HW2 6708   5.321   4.151   3.823
 1937SOL     OW 6709   4.536   6.035   0.769
 1937SOL    HW1 6710   4.622   5.986   0.777
 1937SOL    HW2 6711   4.488   6.035   0.857
 1938SOL     OW 6712   1.454   1.801   1.851
 1938SOL    HW1 6713   1.440   1.744   1.770
 1938SOL    HW2 6714   1.383   1.871   1.855
 1939SOL     OW 6715   7.004   6.726   4.463
 1939SOL    HW1 6716   6.962   6.639   4.439
 1939SOL    HW2 6717   6.966   6.798   4.405
 1940SOL     OW 6718   5.911   5.491   0.793
 1940SOL    HW1 6719   5.924   5.590   0.794
 1940SOL    HW2 6720   5.849   5.466   0.718
 1941SOL     OW 6721   1.184   3.133   4.162
 1941SOL    HW1 6722   1.100   3.136   4.107
 1941SOL    HW2 6723   1.221   3.225   4.171
 1942SOL     OW 6724   5.548   3.076   1.575
 1942SOL    HW1 6725   5.488   3.007   1.615
 1942SOL    HW2 6726   5.507   3.167   1.587
 1943SOL     OW 6727   1.930   6.910   3.184
 1943SOL    HW1 6728   1.954   6.840   3.252
 1943SOL    HW2 6729   1.869   6.977   3.226
 1944SOL     OW 6730   6.312   3.189   0.428
 1944SOL    HW1 6731   6.379   3.263   0.423
 1944SOL    HW2 6732   6.267   3.190   0.517
 1945SOL     OW 6733   4.100   5.542   0.283
 1945SOL    HW1 6734   4.127   5.446   0.272
 1945SOL    HW2 6735   4.088   5.584   0.193
 1946SOL     OW 6736   5.818   6.656   0.927
 1946SOL    HW1 6737   5.842   6.561   0.910
 1946SOL    HW2 6738   5.823   6.707   0.841
 1947SOL     OW 6739   5.613   6.529   4.371
 1947SOL    HW1 6740   5.673   6.484   4.305
 1947SOL    HW2 6741   5.521   6.490   4.365
 1948SOL     OW 6742   6.381   4.937   3.130
 1948SOL    HW1 6743   6.371   4.930   3.031
 1948SOL    HW2 6744   6.425   5.024   3.152
 1949SOL     OW 6745   3.443   3.322   6.441
 1949SOL    HW1 6746   3.518   3.350   6.381
 1949SOL    HW2 6747   3.357   3.329   6.392
 1950SOL     OW 6748   3.937   2.990   1.087
 1950SOL    HW1 6749   3.851   3.017   1.132
 1950SOL    HW2 6750   3.983   3.071   1.052
 1951SOL     OW 6751   6.696   4.672   6.669
 1951SOL    HW1 6752   6.650   4.618   6.738
 1951SOL    HW2 6753   6.656   4.764   6.666
 1952SOL     OW 6754   5.102   4.386   1.423
 1952SOL    HW1 6755   5.040   4.416   1.496
 1952SOL    HW2 6756   5.131   4.292   1.440
 1953SOL     OW 6757   6.026   1.663   5.346
 1953SOL    HW1 6758   5.941   1.686   5.393
 1953SOL    HW2 6759   6.005   1.616   5.260
 1954SOL     OW 6760   6.728   0.216   1.417
 1954SOL    HW1 6761   6.773   0.303   1.397
 1954SOL    HW2 6762   6.704   0.170   1.331
 1955SOL     OW 6763   0.580   0.262   3.102
 1955SOL    HW1 6764   0.555   0.341   3.045
 1955SOL    HW2 6765   0.629   0.295   3.183
 1956SOL     OW 6766   4.869   6.789   1.549
 1956SOL    HW1 6767   4.915   6.856   1.490
 1956SOL    HW2 6768   4.877   6.817   1.644
 1957SOL     OW 6769   5.465   4.346   3.624
 1957SOL    HW1 6770   5.562   4.352   3.600
 1957SOL    HW2 6771   5.418   4.429   3.594
 1958SOL     OW 6772   4.478   1.541   1.929
 1958SOL    HW1 6773   4.529   1.608   1.982
 1958SOL    HW2 6774   4.381   1.545   1.953
 1959SOL     OW 6775   1.391   6.943   3.814
 1959SOL    HW1 6776   1.396   6.844   3.798
 1959SOL    HW2 6777   1.347   6.987   3.736
 1960SOL     OW 6778   0.394   3.827   2.605
 1960SOL    HW1 6779   0.463   3.755   2.607
 1960SOL    HW2 6780   0.437   3.915   2.623
 1961SOL     OW 6781   6.664   4.514   5.098
 1961SOL    HW1 6782   6.730   4.584   5.125
 1961SOL    HW2 6783   6.666   4.502   4.999
 1962SOL     OW 6784   1.714   6.319   2.345
 1962SOL    HW1 6785   1.732   6.398   2.404
 1962SOL    HW2 6786   1.800   6.284   2.309
 1963SOL     OW 6787   0.783   1.788   1.343
 1963SOL    HW1 6788   0.838   1.833   1.412
 1963SOL    HW2 6789   0.729   1.856   1.294
 1964SOL     OW 6790   4.296   4.589   1.767
 1964SOL    HW1 6791   4.342   4.657   1.709
 1964SOL    HW2 6792   4.315   4.497   1.732
 1965SOL     OW 6793   1.554   3.116   4.447
 1965SOL    HW1 6794   1.476   3.057   4.467
 1965SOL    HW2 6795   1.545   3.202   4.496
 1966SOL     OW 6796   0.545   6.039   1.189
 1966SOL    HW1 6797   0.490   6.062   1.269
 1966SOL    HW2 6798   0.594   5.953   1.206
 1967SOL     OW 6799   5.457   2.941   3.845
 1967SOL    HW1 6800   5.510   2.869   3.888
 1967SOL    HW2 6801   5.408   2.994   3.915
 1968SOL     OW 6802   1.949   0.699   5.431
 1968SOL    HW1 6803   1.854   0.669   5.430
 1968SOL    HW2 6804   1.987   0.691   5.339
 1969SOL     OW 6805   2.846   1.495   0.732
 1969SOL    HW1 6806   2.830   1.396   0.727
 1969SOL    HW2 6807   2.762   1.541   0.761
 1970SOL     OW 6808   2.075   0.002   5.655
 1970SOL    HW1 6809   2.141   0.020   5.729
 1970SOL    HW2 6810   2.013   6.948   5.684
 1971SOL     OW 6811   0.130   0.305   5.572
 1971SOL    HW1 6812   0.127   0.342   5.665
 1971SOL    HW2 6813   0.054   0.343   5.519
 1972SOL     OW 6814   5.516   2.122   1.237
 1972SOL    HW1 6815   5.521   2.023   1.244
 1972SOL    HW2 6816   5.445   2.157   1.299
 1973SOL     OW 6817   2.754   3.727   0.634
 1973SOL    HW1 6818   2.839   3.772   0.606
 1973SOL    HW2 6819   2.677   3.790   0.623
 1974SOL     OW 6820   5.127   0.614   4.735
 1974SOL    HW1 6821   5.126   0.674   4.654
 1974SOL    HW2 6822   5.202   0.548   4.727
 1975SOL     OW 6823   2.043   1.875   4.426
 1975SOL    HW1 6824   2.018   1.784   4.457
 1975SOL    HW2 6825   1.961   1.933   4.423
 1976SOL     OW 6826   6.725   6.462   0.475
 1976SOL    HW1 6827   6.634   6.497   0.457
 1976SOL    HW2 6828   6.784   6.478   0.396
 1977SOL     OW 6829   1.776   3.307   5.131
 1977SOL    HW1 6830   1.784   3.271   5.223
 1977SOL    HW2 6831   1.863   3.298   5.083
 1978SOL     OW 6832   1.926   5.806   2.939
 1978SOL    HW1 6833   1.860   5.776   3.007
 1978SOL    HW2 6834   1.905   5.764   2.851
 1979SOL     OW 6835   5.284   4.908   6.739
 1979SOL    HW1 6836   5.260   5.000   6.772
 1979SOL    HW2 6837   5.299   4.911   6.640
 1980SOL     OW 6838   3.830   6.940   4.070
 1980SOL    HW1 6839   3.839   0.002   4.011
 1980SOL    HW2 6840   3.821   6.858   4.014
 1981SOL     OW 6841   5.846   3.752   2.335
 1981SOL    HW1 6842   5.770   3.767   2.271
 1981SOL    HW2 6843   5.851   3.655   2.359
 1982SOL     OW 6844   6.739   4.490   3.843
 1982SOL    HW1 6845   6.677   4.539   3.904
 1982SOL    HW2 6846   6.751   4.543   3.759
 1983SOL     OW 6847   1.730   6.776   1.418
 1983SOL    HW1 6848   1.740   6.816   1.509
 1983SOL    HW2 6849   1.656   6.709   1.419
 1984SOL     OW 6850   4.987   2.745   4.837
 1984SOL    HW1 6851   4.958   2.666   4.783
 1984SOL    HW2 6852   4.906   2.790   4.875
 1985SOL     OW 6853   0.202   6.127   2.910
 1985SOL    HW1 6854   0.229   6.187   2.835
 1985SOL    HW2 6855   0.146   6.178   2.975
 1986SOL     OW 6856   2.953   0.947   6.877
 1986SOL    HW1 6857   2.943   0.945   6.777
 1986SOL    HW2 6858   2.924   1.036   6.911
 1987SOL     OW 6859   2.432   1.941   3.226
 1987SOL    HW1 6860   2.492   2.015   3.258
 1987SOL    HW2 6861   2.472   1.853   3.251
 1988SOL     OW 6862   6.864   3.313   0.994
 1988SOL    HW1 6863   6.809   3.253   0.935
 1988SOL    HW2 6864   6.960   3.284   0.991
 1989SOL     OW 6865   2.086   5.750   5.270
 1989SOL    HW1 6866   2.169   5.739   5.325
 1989SOL    HW2 6867   2.051   5.661   5.244
 1990SOL     OW 6868   4.043   5.766   0.433
 1990SOL    HW1 6869   4.024   5.710   0.352
 1990SOL    HW2 6870   4.008   5.721   0.514
 1991SOL     OW 6871   2.799   5.717   0.384
 1991SOL    HW1 6872   2.817   5.664   0.301
 1991SOL    HW2 6873   2.733   5.790   0.363
 1992SOL     OW 6874   7.007   0.644   0.476
 1992SOL    HW1 6875   6.969   0.688   0.557
 1992SOL    HW2 6876   0.022   0.714   0.413
 1993SOL     OW 6877   3.549   1.721   6.006
 1993SOL    HW1 6878   3.564   1.646   5.942
 1993SOL    HW2 6879   3.603   1.800   5.977
 1994SOL     OW 6880   6.704   2.234   0.541
 1994SOL    HW1 6881   6.700   2.244   0.641
 1994SOL    HW2 6882   6.767   2.301   0.504
 1995SOL     OW 6883   4.984   3.098   3.799
 1995SOL    HW1 6884   5.025   3.189   3.797
 1995SOL    HW2 6885   4.998   3.053   3.711
 1996SOL     OW 6886   2.540   2.217   0.815
 1996SOL    HW1 6887   2.608   2.286   0.792
 1996SOL    HW2 6888   2.543   2.143   0.748
 1997SOL     OW 6889   3.899   2.004   4.344
 1997SOL    HW1 6890   3.872   1.942   4.270
 1997SOL    HW2 6891   3.818   2.046   4.383
 1998SOL     OW 6892   1.622   3.441   0.376
 1998SOL    HW1 6893   1.585   3.428   0.283
 1998SOL    HW2 6894   1.627   3.352   0.422
 1999SOL     OW 6895   1.890   6.840   6.243
 1999SOL    HW1 6896   1.913   6.846   6.340
 1999SOL    HW2 6897   1.923   6.752   6.207
 2000SOL     OW 6898   3.724   2.630   5.744
 2000SOL    HW1 6899   3.762   2.688   5.672
 2000SOL    HW2 6900   3.630   2.604   5.720
 2001SOL     OW 6901   2.176   1.166   1.487
 2001SOL    HW1 6902   2.189   1.112   1.404
 2001SOL    HW2 6903   2.263   1.177   1.534
 2002SOL     OW 6904   0.114   4.611   0.208
 2002SOL    HW1 6905   0.098   4.550   0.285
 2002SOL    HW2 6906   0.051   4.589   0.134
 2003SOL     OW 6907   0.044   4.886   2.505
 2003SOL    HW1 6908   0.065   4.928   2.593
 2003SOL    HW2 6909   6.975   4.921   2.471
 2004SOL     OW 6910   5.773   1.028   4.312
 2004SOL    HW1 6911   5.680   0.993   4.322
 2004SOL    HW2 6912   5.838   0.952   4.323
 2005SOL     OW 6913   0.000   4.612   0.598
 2005SOL    HW1 6914   0.095   4.579   0.598
 2005SOL    HW2 6915   7.014   4.699   0.647
 2006SOL     OW 6916   5.504   0.255   3.352
 2006SOL    HW1 6917   5.417   0.304   3.339
 2006SOL    HW2 6918   5.579   0.314   3.323
 2007SOL     OW 6919   4.975   4.669   1.328
 2007SOL    HW1 6920   4.893   4.613   1.316
 2007SOL    HW2 6921   5.054   4.622   1.287
 2008SOL     OW 6922   2.075   4.271   3.648
 2008SOL    HW1 6923   2.118   4.224   3.571
 2008SOL    HW2 6924   1.987   4.228   3.667
 2009SOL     OW 6925   4.895   0.077   2.650
 2009SOL    HW1 6926   4.924   0.065   2.555
 2009SOL    HW2 6927   4.963   0.132   2.699
 2010SOL     OW 6928   2.502   1.490   1.627
 2010SOL    HW1 6929   2.525   1.561   1.560
 2010SOL    HW2 6930   2.577   1.482   1.694
 2011SOL     OW 6931   0.484   0.849   4.769
 2011SOL    HW1 6932   0.545   0.827   4.693
 2011SOL    HW2 6933   0.529   0.912   4.832
 2012SOL     OW 6934   1.286   3.887   2.594
 2012SOL    HW1 6935   1.219   3.864   2.665
 2012SOL    HW2 6936   1.267   3.979   2.559
 2013SOL     OW 6937   5.857   3.016   3.595
 2013SOL    HW1 6938   5.765   3.029   3.559
 2013SOL    HW2 6939   5.856   3.031   3.694
 2014SOL     OW 6940   2.893   6.841   3.221
 2014SOL    HW1 6941   2.979   6.823   3.268
 2014SOL    HW2 6942   2.822   6.782   3.258
 2015SOL     OW 6943   2.315   0.092   0.881
 2015SOL    HW1 6944   2.232   0.036   0.878
 2015SOL    HW2 6945   2.370   0.075   0.800
 2016SOL     OW 6946   1.554   5.821   5.929
 2016SOL    HW1 6947   1.469   5.773   5.903
 2016SOL    HW2 6948   1.542   5.919   5.917
 2017SOL     OW 6949   4.040   0.859   3.108
 2017SOL    HW1 6950   4.061   0.905   3.022
 2017SOL    HW2 6951   3.945   0.827   3.107
 2018SOL     OW 6952   6.004   2.999   3.340
 2018SOL    HW1 6953   5.948   3.008   3.422
 2018SOL    HW2 6954   6.037   2.905   3.331
 2019SOL     OW 6955   5.398   3.804   6.590
 2019SOL    HW1 6956   5.485   3.831   6.632
 2019SOL    HW2 6957   5.405   3.710   6.556
 2020SOL     OW 6958   1.954   6.861   6.498
 2020SOL    HW1 6959   1.945   6.958   6.520
 2020SOL    HW2 6960   2.048   6.831   6.517
 2021SOL     OW 6961   6.675   6.771   4.857
 2021SOL    HW1 6962   6.769   6.798   4.835
 2021SOL    HW2 6963   6.615   6.793   4.780
 2022SOL     OW 6964   1.537   4.690   4.098
 2022SOL    HW1 6965   1.526   4.642   4.011
 2022SOL    HW2 6966   1.486   4.641   4.169
 2023SOL     OW 6967   0.480   0.948   6.723
 2023SOL    HW1 6968   0.560   0.915   6.772
 2023SOL    HW2 6969   0.398   0.931   6.778
 2024SOL     OW 6970   0.088   5.379   3.935
 2024SOL    HW1 6971   0.130   5.317   3.868
 2024SOL    HW2 6972   0.148   5.457   3.950
 2025SOL     OW 6973   3.944   1.019   3.892
 2025SOL    HW1 6974   3.953   0.975   3.981
 2025SOL    HW2 6975   3.853   1.001   3.855
 2026SOL     OW 6976   6.644   2.224   6.138
 2026SOL    HW1 6977   6.711   2.176   6.196
 2026SOL    HW2 6978   6.564   2.165   6.125
 2027SOL     OW 6979   1.454   0.328   1.240
 2027SOL    HW1 6980   1.424   0.411   1.192
 2027SOL    HW2 6981   1.385   0.257   1.230
 2028SOL     OW 6982   3.266   5.644   4.427
 2028SOL    HW1 6983   3.322   5.570   4.389
 2028SOL    HW2 6984   3.202   5.607   4.494
 2029SOL     OW 6985   6.320   1.796   0.259
 2029SOL    HW1 6986   6.345   1.828   0.350
 2029SOL    HW2 6987   6.235   1.841   0.230
 2030SOL     OW 6988   3.116   0.493   3.463
 2030SOL    HW1 6989   3.125   0.404   3.508
 2030SOL    HW2 6990   3.022   0.525   3.471
 2031SOL     OW 6991   6.481   5.695   1.678
 2031SOL    HW1 6992   6.552   5.760   1.650
 2031SOL    HW2 6993   6.391   5.729   1.652
 2032SOL     OW 6994   4.015   1.290   1.407
 2032SOL    HW1 6995   4.023   1.380   1.451
 2032SOL    HW2 6996   4.066   1.223   1.461
 2033SOL     OW 6997   2.419   1.807   0.549
 2033SOL    HW1 6998   2.446   1.759   0.466
 2033SOL    HW2 6999   2.372   1.743   0.610
 2034SOL     OW 7000   2.777   5.108   5.553
 2034SOL    HW1 7001   2.754   5.203   5.536
 2034SOL    HW2 7002   2.815   5.067   5.471
 2035SOL     OW 7003   6.377   6.569   3.417
 2035SOL    HW1 7004   6.392   6.664   3.389
 2035SOL    HW2 7005   6.423   6.552   3.504
 2036SOL     OW 7006   1.342   3.426   2.620
 2036SOL    HW1 7007   1.347   3.444   2.522
 2036SOL    HW2 7008   1.426   3.459   2.664
 2037SOL     OW 7009   6.418   2.648   6.228
 2037SOL    HW1 7010   6.440   2.688   6.138
 2037SOL    HW2 7011   6.374   2.559   6.214
 2038SOL     OW 7012   2.302   1.588   0.651
 2038SOL    HW1 7013   2.238   1.587   0.728
 2038SOL    HW2 7014   2.253   1.567   0.566
 2039SOL     OW 7015   6.781   6.056   3.481
 2039SOL    HW1 7016   6.752   5.961   3.492
 2039SOL    HW2 7017   6.828   6.085   3.564
 2040SOL     OW 7018   1.795   2.456   0.013
 2040SOL    HW1 7019   1.743   2.395   0.072
 2040SOL    HW2 7020   1.795   2.420   6.938
 2041SOL     OW 7021   0.846   0.113   4.982
 2041SOL    HW1 7022   0.916   0.064   5.035
 2041SOL    HW2 7023   0.841   0.075   4.890
 2042SOL     OW 7024   5.350   6.354   6.121
 2042SOL    HW1 7025   5.270   6.374   6.063
 2042SOL    HW2 7026   5.319   6.309   6.204
 2043SOL     OW 7027   6.489   2.601   2.771
 2043SOL    HW1 7028   6.466   2.512   2.731
 2043SOL    HW2 7029   6.483   2.671   2.700
 2044SOL     OW 7030   6.420   0.639   1.178
 2044SOL    HW1 7031   6.460   0.561   1.226
 2044SOL    HW2 7032   6.323   0.647   1.202
 2045SOL     OW 7033   1.343   4.787   4.489
 2045SOL    HW1 7034   1.274   4.726   4.451
 2045SOL    HW2 7035   1.356   4.767   4.586
 2046SOL     OW 7036   6.203   1.857   4.819
 2046SOL    HW1 7037   6.296   1.891   4.825
 2046SOL    HW2 7038   6.186   1.793   4.895
 2047SOL     OW 7039   0.138   2.299   0.342
 2047SOL    HW1 7040   0.090   2.211   0.347
 2047SOL    HW2 7041   0.185   2.307   0.254
 2048SOL     OW 7042   0.197   7.014   4.983
 2048SOL    HW1 7043   0.245   0.038   5.060
 2048SOL    HW2 7044   0.262   6.992   4.911
 2049SOL     OW 7045   5.941   1.818   4.515
 2049SOL    HW1 7046   6.012   1.760   4.555
 2049SOL    HW2 7047   5.887   1.766   4.450
 2050SOL     OW 7048   6.766   2.586   4.280
 2050SOL    HW1 7049   6.798   2.501   4.321
 2050SOL    HW2 7050   6.769   2.578   4.180
 2051SOL     OW 7051   1.697   6.288   6.891
 2051SOL    HW1 7052   1.746   6.214   6.845
 2051SOL    HW2 7053   1.742   6.309   6.978
 2052SOL     OW 7054   1.634   2.738   1.075
 2052SOL    HW1 7055   1.699   2.713   1.003
 2052SOL    HW2 7056   1.658   2.691   1.160
 2053SOL     OW 7057   6.978   5.484   4.977
 2053SOL    HW1 7058   6.925   5.423   5.037
 2053SOL    HW2 7059   0.043   5.512   5.025
 2054SOL     OW 7060   2.940   3.651   2.923
 2054SOL    HW1 7061   2.986   3.566   2.895
 2054SOL    HW2 7062   2.893   3.691   2.845
 2055SOL     OW 7063   5.966   2.578   5.114
 2055SOL    HW1 7064   6.007   2.520   5.044
 2055SOL    HW2 7065   5.871   2.551   5.128
 2056SOL     OW 7066   4.003   5.298   1.817
 2056SOL    HW1 7067   4.017   5.371   1.750
 2056SOL    HW2 7068   4.084   5.289   1.874
 2057SOL     OW 7069   4.859   3.606   5.743
 2057SOL    HW1 7070   4.927   3.643   5.806
 2057SOL    HW2 7071   4.771   3.649   5.761
 2058SOL     OW 7072   0.055   6.364   2.488
 2058SOL    HW1 7073   0.094   6.272   2.492
 2058SOL    HW2 7074   0.106   6.425   2.548
 2059SOL     OW 7075   2.189   6.435   6.958
 2059SOL    HW1 7076   2.096   6.418   6.989
 2059SOL    HW2 7077   2.187   6.491   6.875
 2060SOL     OW 7078   0.636   3.959   1.753
 2060SOL    HW1 7079   0.677   4.000   1.835
 2060SOL    HW2 7080   0.637   3.859   1.762
 2061SOL     OW 7081   1.602   2.232   2.534
 2061SOL    HW1 7082   1.690   2.276   2.551
 2061SOL    HW2 7083   1.598   2.145   2.583
 2062SOL     OW 7084   0.165   6.123   5.775
 2062SOL    HW1 7085   0.135   6.188   5.705
 2062SOL    HW2 7086   0.242   6.163   5.826
 2063SOL     OW 7087   1.244   5.999   5.199
 2063SOL    HW1 7088   1.261   6.074   5.263
 2063SOL    HW2 7089   1.193   6.033   5.120
 2064SOL     OW 7090   0.118   2.253   4.709
 2064SOL    HW1 7091   0.035   2.299   4.740
 2064SOL    HW2 7092   0.137   2.175   4.769
 2065SOL     OW 7093   6.206   3.060   6.143
 2065SOL    HW1 7094   6.140   3.004   6.093
 2065SOL    HW2 7095   6.200   3.155   6.113
 2066SOL     OW 7096   6.839   3.915   5.229
 2066SOL    HW1 7097   6.748   3.884   5.257
 2066SOL    HW2 7098   6.829   3.988   5.161
 2067SOL     OW 7099   7.006   5.130   0.919
 2067SOL    HW1 7100   6.977   5.172   0.833
 2067SOL    HW2 7101   6.988   5.193   0.994
 2068SOL     OW 7102   3.763   0.207   4.185
 2068SOL    HW1 7103   3.859   0.188   4.163
 2068SOL    HW2 7104   3.719   0.123   4.216
 2069SOL     OW 7105   6.935   2.275   3.993
 2069SOL    HW1 7106   6.838   2.299   3.991
 2069SOL    HW2 7107   6.951   2.197   3.932
 2070SOL     OW 7108   0.805   1.939   0.994
 2070SOL    HW1 7109   0.759   1.873   0.935
 2070SOL    HW2 7110   0.895   1.904   1.019
 2071SOL     OW 7111   6.275   1.039   5.882
 2071SOL    HW1 7112   6.181   1.018   5.908
 2071SOL    HW2 7113   6.329   1.058   5.964
 2072SOL     OW 7114   4.490   5.183   4.402
 2072SOL    HW1 7115   4.565   5.120   4.421
 2072SOL    HW2 7116   4.447   5.210   4.488
 2073SOL     OW 7117   3.644   6.045   5.198
 2073SOL    HW1 7118   3.632   6.121   5.262
 2073SOL    HW2 7119   3.596   6.065   5.113
 2074SOL     OW 7120   1.674   2.741   6.603
 2074SOL    HW1 7121   1.661   2.839   6.589
 2074SOL    HW2 7122   1.770   2.723   6.624
 2075SOL     OW 7123   6.854   2.629   2.581
 2075SOL    HW1 7124   6.941   2.584   2.562
 2075SOL    HW2 7125   6.826   2.609   2.674
 2076SOL     OW 7126   5.579   6.389   5.996
 2076SOL    HW1 7127   5.506   6.364   6.059
 2076SOL    HW2 7128   5.651   6.437   6.045
 2077SOL     OW 7129   6.706   2.093   1.797
 2077SOL    HW1 7130   6.804   2.102   1.816
 2077SOL    HW2 7131   6.693   2.061   1.703
 2078SOL     OW 7132   2.061   5.214   6.488
 2078SOL    HW1 7133   2.113   5.261   6.559
 2078SOL    HW2 7134   2.083   5.116   6.491
 2079SOL     OW 7135   7.013   0.980   2.915
 2079SOL    HW1 7136   0.050   1.059   2.941
 2079SOL    HW2 7137   6.972   0.996   2.825
 2080SOL     OW 7138   3.051   1.050   4.884
 2080SOL    HW1 7139   3.059   0.961   4.841
 2080SOL    HW2 7140   3.121   1.112   4.846
 2081SOL     OW 7141   1.066   6.646   4.556
 2081SOL    HW1 7142   1.082   6.575   4.488
 2081SOL    HW2 7143   1.020   6.607   4.636
 2082SOL     OW 7144   1.016   6.565   3.533
 2082SOL    HW1 7145   0.967   6.568   3.445
 2082SOL    HW2 7146   1.053   6.473   3.547
 2083SOL     OW 7147   1.451   5.932   4.971
 2083SOL    HW1 7148   1.497   5.846   4.952
 2083SOL    HW2 7149   1.357   5.914   5.000
 2084SOL     OW 7150   0.862   2.802   2.176
 2084SOL    HW1 7151   0.781   2.834   2.224
 2084SOL    HW2 7152   0.852   2.820   2.078
 2085SOL     OW 7153   4.868   6.547   0.938
 2085SOL    HW1 7154   4.961   6.510   0.933
 2085SOL    HW2 7155   4.856   6.595   1.025
 2086SOL     OW 7156   3.812   6.016   0.285
 2086SOL    HW1 7157   3.872   6.047   0.358
 2086SOL    HW2 7158   3.866   5.968   0.215
 2087SOL     OW 7159   4.464   2.294   0.715
 2087SOL    HW1 7160   4.385   2.345   0.680
 2087SOL    HW2 7161   4.523   2.267   0.639
 2088SOL     OW 7162   1.586   5.674   6.386
 2088SOL    HW1 7163   1.615   5.615   6.312
 2088SOL    HW2 7164   1.584   5.769   6.354
 2089SOL     OW 7165   4.477   2.314   5.337
 2089SOL    HW1 7166   4.577   2.308   5.341
 2089SOL    HW2 7167   4.437   2.253   5.405
 2090SOL     OW 7168   4.857   3.078   5.570
 2090SOL    HW1 7169   4.797   3.159   5.568
 2090SOL    HW2 7170   4.952   3.107   5.563
 2091SOL     OW 7171   6.826   5.856   0.804
 2091SOL    HW1 7172   6.859   5.857   0.710
 2091SOL    HW2 7173   6.741   5.909   0.810
 2092SOL     OW 7174   5.847   3.673   0.807
 2092SOL    HW1 7175   5.757   3.683   0.764
 2092SOL    HW2 7176   5.836   3.639   0.900
 2093SOL     OW 7177   3.396   1.839   1.820
 2093SOL    HW1 7178   3.425   1.747   1.795
 2093SOL    HW2 7179   3.476   1.892   1.850
 2094SOL     OW 7180   5.168   2.051   1.133
 2094SOL    HW1 7181   5.241   1.996   1.092
 2094SOL    HW2 7182   5.188   2.067   1.229
 2095SOL     OW 7183   6.023   6.828   4.054
 2095SOL    HW1 7184   5.931   6.860   4.034
 2095SOL    HW2 7185   6.083   6.848   3.976
 2096SOL     OW 7186   4.575   5.609   3.286
 2096SOL    HW1 7187   4.617   5.592   3.196
 2096SOL    HW2 7188   4.621   5.686   3.330
 2097SOL     OW 7189   2.778   3.348   0.085
 2097SOL    HW1 7190   2.702   3.286   0.072
 2097SOL    HW2 7191   2.859   3.297   0.114
 2098SOL     OW 7192   3.900   6.009   3.084
 2098SOL    HW1 7193   3.903   6.106   3.107
 2098SOL    HW2 7194   3.993   5.977   3.064
 2099SOL     OW 7195   4.622   1.221   6.430
 2099SOL    HW1 7196   4.603   1.123   6.422
 2099SOL    HW2 7197   4.706   1.242   6.381
 2100SOL     OW 7198   4.747   1.381   0.468
 2100SOL    HW1 7199   4.703   1.292   0.473
 2100SOL    HW2 7200   4.712   1.431   0.388
 2101SOL     OW 7201   6.954   6.161   1.029
 2101SOL    HW1 7202   6.967   6.152   0.930
 2101SOL    HW2 7203   0.024   6.156   1.075
 2102SOL     OW 7204   4.594   3.680   1.580
 2102SOL    HW1 7205   4.631   3.618   1.649
 2102SOL    HW2 7206   4.667   3.741   1.548
 2103SOL     OW 7207   4.078   4.003   0.309
 2103SOL    HW1 7208   4.093   3.926   0.247
 2103SOL    HW2 7209   4.072   3.970   0.403
 2104SOL     OW 7210   1.349   4.483   1.697
 2104SOL    HW1 7211   1.315   4.402   1.743
 2104SOL    HW2 7212   1.449   4.483   1.698
 2105SOL     OW 7213   3.990   4.878   6.887
 2105SOL    HW1 7214   4.001   4.944   6.961
 2105SOL    HW2 7215   4.080   4.842   6.860
 2106SOL     OW 7216   5.424   3.500   0.954
 2106SOL    HW1 7217   5.410   3.470   0.860
 2106SOL    HW2 7218   5.389   3.432   1.018
 2107SOL     OW 7219   5.986   2.532   5.683
 2107SOL    HW1 7220   6.084   2.542   5.665
 2107SOL    HW2 7221   5.944   2.622   5.690
 2108SOL     OW 7222   6.015   5.711   4.827
 2108SOL    HW1 7223   5.929   5.694   4.876
 2108SOL    HW2 7224   6.086   5.649   4.860
 2109SOL     OW 7225   2.733   6.001   2.429
 2109SOL    HW1 7226   2.691   5.984   2.518
 2109SOL    HW2 7227   2.812   5.941   2.417
 2110SOL     OW 7228   3.772   0.554   6.093
 2110SOL    HW1 7229   3.720   0.601   6.165
 2110SOL    HW2 7230   3.869   0.557   6.116
 2111SOL     OW 7231   1.853   3.105   5.369
 2111SOL    HW1 7232   1.788   3.030   5.361
 2111SOL    HW2 7233   1.945   3.072   5.349
 2112SOL     OW 7234   5.225   2.141   6.913
 2112SOL    HW1 7235   5.149   2.112   6.971
 2112SOL    HW2 7236   5.290   2.066   6.904
 2113SOL     OW 7237   1.930   0.147   5.275
 2113SOL    HW1 7238   1.964   0.117   5.186
 2113SOL    HW2 7239   2.007   0.173   5.333
 2114SOL     OW 7240   1.925   2.678   6.710
 2114SOL    HW1 7241   1.865   2.630   6.774
 2114SOL    HW2 7242   1.992   2.614   6.674
 2115SOL     OW 7243   1.002   4.119   2.120
 2115SOL    HW1 7244   0.979   4.210   2.086
 2115SOL    HW2 7245   0.995   4.053   2.045
 2116SOL     OW 7246   1.539   3.288   1.527
 2116SOL    HW1 7247   1.483   3.231   1.588
 2116SOL    HW2 7248   1.587   3.357   1.581
 2117SOL     OW 7249   5.440   3.739   1.418
 2117SOL    HW1 7250   5.384   3.778   1.492
 2117SOL    HW2 7251   5.442   3.803   1.341
 2118SOL     OW 7252   6.563   3.294   2.632
 2118SOL    HW1 7253   6.581   3.386   2.599
 2118SOL    HW2 7254   6.469   3.289   2.667
 2119SOL     OW 7255   2.021   1.272   0.988
 2119SOL    HW1 7256   2.054   1.360   1.024
 2119SOL    HW2 7257   2.097   1.208   0.982
 2120SOL     OW 7258   0.107   2.852   2.193
 2120SOL    HW1 7259   0.032   2.799   2.153
 2120SOL    HW2 7260   0.188   2.843   2.135
 2121SOL     OW 7261   2.111   2.813   6.261
 2121SOL    HW1 7262   2.153   2.726   6.234
 2121SOL    HW2 7263   2.094   2.868   6.179
 2122SOL     OW 7264   5.813   6.423   5.777
 2122SOL    HW1 7265   5.787   6.480   5.855
 2122SOL    HW2 7266   5.884   6.359   5.805
 2123SOL     OW 7267   6.137   6.398   2.468
 2123SOL    HW1 7268   6.208   6.334   2.496
 2123SOL    HW2 7269   6.150   6.422   2.372
 2124SOL     OW 7270   3.011   1.669   0.027
 2124SOL    HW1 7271   2.949   1.621   6.984
 2124SOL    HW2 7272   3.106   1.653   7.016
 2125SOL     OW 7273   0.630   5.571   2.183
 2125SOL    HW1 7274   0.536   5.598   2.201
 2125SOL    HW2 7275   0.663   5.618   2.101
 2126SOL     OW 7276   3.869   2.675   5.969
 2126SOL    HW1 7277   3.806   2.640   5.900
 2126SOL    HW2 7278   3.874   2.775   5.962
 2127SOL     OW 7279   0.607   1.767   5.462
 2127SOL    HW1 7280   0.638   1.803   5.550
 2127SOL    HW2 7281   0.541   1.693   5.478
 2128SOL     OW 7282   6.030   2.595   1.404
 2128SOL    HW1 7283   5.998   2.558   1.317
 2128SOL    HW2 7284   5.952   2.629   1.456
 2129SOL     OW 7285   4.551   4.449   4.414
 2129SOL    HW1 7286   4.511   4.521   4.471
 2129SOL    HW2 7287   4.541   4.473   4.318
 2130SOL     OW 7288   2.239   1.587   1.644
 2130SOL    HW1 7289   2.178   1.526   1.695
 2130SOL    HW2 7290   2.333   1.555   1.653
 2131SOL     OW 7291   4.550   1.787   1.067
 2131SOL    HW1 7292   4.594   1.786   1.157
 2131SOL    HW2 7293   4.620   1.784   0.995
 2132SOL     OW 7294   3.381   1.360   6.801
 2132SOL    HW1 7295   3.341   1.273   6.830
 2132SOL    HW2 7296   3.468   1.375   6.847
 2133SOL     OW 7297   3.632   2.212   0.728
 2133SOL    HW1 7298   3.668   2.250   0.812
 2133SOL    HW2 7299   3.560   2.145   0.749
 2134SOL     OW 7300   1.024   0.729   4.804
 2134SOL    HW1 7301   0.975   0.813   4.831
 2134SOL    HW2 7302   1.121   0.748   4.796
 2135SOL     OW 7303   0.436   1.489   4.557
 2135SOL    HW1 7304   0.502   1.415   4.571
 2135SOL    HW2 7305   0.430   1.510   4.459
 2136SOL     OW 7306   1.220   3.409   4.222
 2136SOL    HW1 7307   1.135   3.461   4.212
 2136SOL    HW2 7308   1.278   3.453   4.290
 2137SOL     OW 7309   0.515   6.442   4.359
 2137SOL    HW1 7310   0.505   6.531   4.314
 2137SOL    HW2 7311   0.465   6.373   4.308
 2138SOL     OW 7312   6.184   2.974   1.853
 2138SOL    HW1 7313   6.147   2.882   1.866
 2138SOL    HW2 7314   6.264   2.987   1.911
 2139SOL     OW 7315   3.946   1.406   3.267
 2139SOL    HW1 7316   3.926   1.454   3.353
 2139SOL    HW2 7317   4.041   1.421   3.241
 2140SOL     OW 7318   2.985   6.402   3.418
 2140SOL    HW1 7319   2.889   6.376   3.423
 2140SOL    HW2 7320   3.006   6.470   3.488
 2141SOL     OW 7321   6.526   2.869   1.753
 2141SOL    HW1 7322   6.613   2.894   1.795
 2141SOL    HW2 7323   6.526   2.900   1.658
 2142SOL     OW 7324   1.246   2.223   3.514
 2142SOL    HW1 7325   1.269   2.152   3.582
 2142SOL    HW2 7326   1.190   2.182   3.442
 2143SOL     OW 7327   3.335   5.317   1.008
 2143SOL    HW1 7328   3.400   5.390   0.987
 2143SOL    HW2 7329   3.258   5.320   0.944
 2144SOL     OW 7330   1.920   0.803   2.873
 2144SOL    HW1 7331   1.884   0.855   2.950
 2144SOL    HW2 7332   1.915   0.705   2.892
 2145SOL     OW 7333   3.591   5.228   4.158
 2145SOL    HW1 7334   3.652   5.255   4.084
 2145SOL    HW2 7335   3.599   5.129   4.174
 2146SOL     OW 7336   2.986   3.730   2.381
 2146SOL    HW1 7337   2.975   3.720   2.282
 2146SOL    HW2 7338   2.899   3.715   2.426
 2147SOL     OW 7339   6.611   1.200   0.258
 2147SOL    HW1 7340   6.697   1.187   0.209
 2147SOL    HW2 7341   6.583   1.296   0.252
 2148SOL     OW 7342   5.220   3.168   4.516
 2148SOL    HW1 7343   5.281   3.168   4.437
 2148SOL    HW2 7344   5.266   3.125   4.594
 2149SOL     OW 7345   3.913   0.419   1.135
 2149SOL    HW1 7346   3.995   0.371   1.103
 2149SOL    HW2 7347   3.924   0.517   1.119
 2150SOL     OW 7348   3.315   1.955   2.069
 2150SOL    HW1 7349   3.288   1.923   1.978
 2150SOL    HW2 7350   3.415   1.962   2.073
 2151SOL     OW 7351   2.824   1.779   4.322
 2151SOL    HW1 7352   2.793   1.760   4.229
 2151SOL    HW2 7353   2.752   1.827   4.372
 2152SOL     OW 7354   4.144   6.249   2.316
 2152SOL    HW1 7355   4.069   6.236   2.250
 2152SOL    HW2 7356   4.195   6.331   2.292
 2153SOL     OW 7357   4.034   0.749   3.523
 2153SOL    HW1 7358   4.063   0.808   3.598
 2153SOL    HW2 7359   4.031   0.803   3.438
 2154SOL     OW 7360   3.240   6.016   4.674
 2154SOL    HW1 7361   3.289   6.092   4.716
 2154SOL    HW2 7362   3.295   5.933   4.681
 2155SOL     OW 7363   1.605   5.012   0.389
 2155SOL    HW1 7364   1.551   5.069   0.451
 2155SOL    HW2 7365   1.675   4.963   0.441
 2156SOL     OW 7366   2.897   0.672   1.647
 2156SOL    HW1 7367   2.801   0.673   1.675
 2156SOL    HW2 7368   2.921   0.582   1.612
 2157SOL     OW 7369   6.431   1.157   3.179
 2157SOL    HW1 7370   6.409   1.201   3.092
 2157SOL    HW2 7371   6.386   1.206   3.253
 2158SOL     OW 7372   3.707   6.405   0.688
 2158SOL    HW1 7373   3.696   6.501   0.715
 2158SOL    HW2 7374   3.762   6.401   0.604
 2159SOL     OW 7375   1.391   6.054   5.606
 2159SOL    HW1 7376   1.477   6.032   5.652
 2159SOL    HW2 7377   1.314   6.022   5.661
 2160SOL     OW 7378   4.356   3.745   1.630
 2160SOL    HW1 7379   4.353   3.844   1.646
 2160SOL    HW2 7380   4.450   3.717   1.614
 2161SOL     OW 7381   4.919   3.497   3.779
 2161SOL    HW1 7382   4.856   3.500   3.856
 2161SOL    HW2 7383   4.945   3.590   3.752
 2162SOL     OW 7384   2.482   0.325   0.256
 2162SOL    HW1 7385   2.461   0.397   0.322
 2162SOL    HW2 7386   2.567   0.279   0.283
 2163SOL     OW 7387   6.852   5.667   6.438
 2163SOL    HW1 7388   6.835   5.572   6.462
 2163SOL    HW2 7389   6.789   5.696   6.367
 2164SOL     OW 7390   1.567   1.626   6.987
 2164SOL    HW1 7391   1.575   1.718   6.950
 2164SOL    HW2 7392   1.470   1.605   7.004
 2165SOL     OW 7393   1.513   1.517   3.170
 2165SOL    HW1 7394   1.538   1.485   3.262
 2165SOL    HW2 7395   1.485   1.438   3.114
 2166SOL     OW 7396   2.010   2.432   5.719
 2166SOL    HW1 7397   1.914   2.444   5.744
 2166SOL    HW2 7398   2.036   2.505   5.655
 2167SOL     OW 7399   2.554   0.673   2.533
 2167SOL    HW1 7400   2.605   0.755   2.505
 2167SOL    HW2 7401   2.457   0.696   2.542
 2168SOL     OW 7402   6.530   2.153   4.262
 2168SOL    HW1 7403   6.468   2.226   4.234
 2168SOL    HW2 7404   6.479   2.083   4.312
 2169SOL     OW 7405   5.687   1.958   6.459
 2169SOL    HW1 7406   5.677   2.057   6.448
 2169SOL    HW2 7407   5.782   1.937   6.484
 2170SOL     OW 7408   5.937   4.715   5.022
 2170SOL    HW1 7409   5.913   4.798   5.072
 2170SOL    HW2 7410   5.894   4.715   4.932
 2171SOL     OW 7411   6.311   2.847   0.813
 2171SOL    HW1 7412   6.303   2.851   0.714
 2171SOL    HW2 7413   6.398   2.886   0.842
 2172SOL     OW 7414   3.210   1.366   0.559
 2172SOL    HW1 7415   3.293   1.354   0.614
 2172SOL    HW2 7416   3.165   1.451   0.586
 2173SOL     OW 7417   3.668   0.474   5.660
 2173SOL    HW1 7418   3.637   0.407   5.592
 2173SOL    HW2 7419   3.745   0.526   5.623
 2174SOL     OW 7420   6.548   4.897   5.738
 2174SOL    HW1 7421   6.454   4.931   5.742
 2174SOL    HW2 7422   6.591   4.927   5.653
 2175SOL     OW 7423   3.044   1.975   2.891
 2175SOL    HW1 7424   3.038   2.029   2.975
 2175SOL    HW2 7425   3.140   1.957   2.869
 2176SOL     OW 7426   0.907   2.255   1.664
 2176SOL    HW1 7427   0.832   2.222   1.722
 2176SOL    HW2 7428   0.984   2.282   1.721
 2177SOL     OW 7429   6.455   0.435   2.263
 2177SOL    HW1 7430   6.424   0.377   2.188
 2177SOL    HW2 7431   6.544   0.474   2.241
 2178SOL     OW 7432   0.723   4.331   0.419
 2178SOL    HW1 7433   0.626   4.326   0.441
 2178SOL    HW2 7434   0.759   4.238   0.405
 2179SOL     OW 7435   2.210   5.485   4.428
 2179SOL    HW1 7436   2.260   5.547   4.487
 2179SOL    HW2 7437   2.254   5.482   4.338
 2180SOL     OW 7438   3.136   3.211   1.903
 2180SOL    HW1 7439   3.143   3.123   1.951
 2180SOL    HW2 7440   3.227   3.240   1.875
 2181SOL     OW 7441   4.575   4.018   5.654
 2181SOL    HW1 7442   4.512   4.017   5.576
 2181SOL    HW2 7443   4.568   4.107   5.701
 2182SOL     OW 7444   6.551   3.301   6.179
 2182SOL    HW1 7445   6.507   3.267   6.262
 2182SOL    HW2 7446   6.507   3.260   6.099
 2183SOL     OW 7447   3.594   3.421   0.397
 2183SOL    HW1 7448   3.524   3.421   0.469
 2183SOL    HW2 7449   3.683   3.403   0.438
 2184SOL     OW 7450   3.349   0.448   5.349
 2184SOL    HW1 7451   3.400   0.532   5.328
 2184SOL    HW2 7452   3.316   0.407   5.264
 2185SOL     OW 7453   2.014   1.523   1.814
 2185SOL    HW1 7454   1.931   1.578   1.817
 2185SOL    HW2 7455   2.001   1.445   1.752
 2186SOL     OW 7456   0.292   4.239   2.355
 2186SOL    HW1 7457   0.272   4.141   2.347
 2186SOL    HW2 7458   0.387   4.251   2.384
 2187SOL     OW 7459   0.646   0.982   1.687
 2187SOL    HW1 7460   0.742   0.960   1.705
 2187SOL    HW2 7461   0.638   1.076   1.654
 2188SOL     OW 7462   4.726   5.821   3.718
 2188SOL    HW1 7463   4.681   5.831   3.807
 2188SOL    HW2 7464   4.797   5.891   3.709
 2189SOL     OW 7465   1.215   6.750   6.445
 2189SOL    HW1 7466   1.119   6.755   6.471
 2189SOL    HW2 7467   1.237   6.825   6.383
 2190SOL     OW 7468   6.270   2.633   1.581
 2190SOL    HW1 7469   6.194   2.603   1.523
 2190SOL    HW2 7470   6.268   2.732   1.589
 2191SOL     OW 7471   3.640   1.788   6.428
 2191SOL    HW1 7472   3.653   1.765   6.331
 2191SOL    HW2 7473   3.705   1.859   6.454
 2192SOL     OW 7474   4.063   0.024   4.761
 2192SOL    HW1 7475   4.098   0.117   4.776
 2192SOL    HW2 7476   4.051   0.008   4.663
 2193SOL     OW 7477   6.562   5.536   6.109
 2193SOL    HW1 7478   6.560   5.592   6.026
 2193SOL    HW2 7479   6.591   5.591   6.186
 2194SOL     OW 7480   2.661   5.455   0.049
 2194SOL    HW1 7481   2.654   5.360   0.081
 2194SOL    HW2 7482   2.595   5.471   6.995
 2195SOL     OW 7483   6.921   6.780   1.891
 2195SOL    HW1 7484   6.931   6.772   1.791
 2195SOL    HW2 7485   6.931   6.876   1.917
 2196SOL     OW 7486   1.939   0.564   5.959
 2196SOL    HW1 7487   2.006   0.635   5.938
 2196SOL    HW2 7488   1.848   0.595   5.933
 2197SOL     OW 7489   5.136   4.120   1.550
 2197SOL    HW1 7490   5.147   4.021   1.558
 2197SOL    HW2 7491   5.141   4.161   1.642
 2198SOL     OW 7492   6.901   2.755   6.949
 2198SOL    HW1 7493   6.967   2.685   6.923
 2198SOL    HW2 7494   6.947   2.827   7.002
 2199SOL     OW 7495   5.267   6.833   0.782
 2199SOL    HW1 7496   5.344   6.805   0.840
 2199SOL    HW2 7497   5.214   6.752   0.755
 2200SOL     OW 7498   3.901   0.589   4.216
 2200SOL    HW1 7499   3.941   0.526   4.283
 2200SOL    HW2 7500   3.877   0.539   4.133
 2201SOL     OW 7501   6.079   3.928   2.274
 2201SOL    HW1 7502   6.005   3.882   2.323
 2201SOL    HW2 7503   6.063   4.027   2.277
 2202SOL     OW 7504   3.416   5.160   4.544
 2202SOL    HW1 7505   3.499   5.118   4.508
 2202SOL    HW2 7506   3.395   5.121   4.633
 2203SOL     OW 7507   3.375   1.990   2.531
 2203SOL    HW1 7508   3.459   2.025   2.491
 2203SOL    HW2 7509   3.302   1.991   2.463
 2204SOL     OW 7510   3.969   1.358   6.460
 2204SOL    HW1 7511   3.872   1.377   6.441
 2204SOL    HW2 7512   4.009   1.309   6.383
 2205SOL     OW 7513   1.241   0.770   6.588
 2205SOL    HW1 7514   1.315   0.731   6.533
 2205SOL    HW2 7515   1.265   0.764   6.685
 2206SOL     OW 7516   3.133   4.192   5.465
 2206SOL    HW1 7517   3.079   4.117   5.503
 2206SOL    HW2 7518   3.080   4.238   5.394
 2207SOL     OW 7519   2.044   4.568   6.490
 2207SOL    HW1 7520   1.970   4.566   6.557
 2207SOL    HW2 7521   2.026   4.639   6.422
 2208SOL     OW 7522   1.616   4.509   1.689
 2208SOL    HW1 7523   1.631   4.527   1.592
 2208SOL    HW2 7524   1.703   4.486   1.733
 2209SOL     OW 7525   1.190   5.948   5.745
 2209SOL    HW1 7526   1.217   5.946   5.841
 2209SOL    HW2 7527   1.168   5.855   5.715
 2210SOL     OW 7528   0.880   5.436   3.209
 2210SOL    HW1 7529   0.864   5.531   3.234
 2210SOL    HW2 7530   0.846   5.376   3.282
 2211SOL     OW 7531   5.439   1.407   5.644
 2211SOL    HW1 7532   5.421   1.333   5.709
 2211SOL    HW2 7533   5.377   1.484   5.663
 2212SOL     OW 7534   0.544   6.218   6.968
 2212SOL    HW1 7535   0.463   6.256   6.923
 2212SOL    HW2 7536   0.585   6.148   6.910
 2213SOL     OW 7537   4.561   2.689   4.833
 2213SOL    HW1 7538   4.567   2.609   4.773
 2213SOL    HW2 7539   4.626   2.758   4.803
 2214SOL     OW 7540   4.466   0.490   5.369
 2214SOL    HW1 7541   4.556   0.524   5.342
 2214SOL    HW2 7542   4.444   0.409   5.314
 2215SOL     OW 7543   0.095   1.395   5.472
 2215SOL    HW1 7544   0.107   1.335   5.551
 2215SOL    HW2 7545   0.151   1.363   5.396
 2216SOL     OW 7546   1.616   0.480   6.646
 2216SOL    HW1 7547   1.591   0.511   6.737
 2216SOL    HW2 7548   1.710   0.444   6.648
 2217SOL     OW 7549   3.596   0.195   1.051
 2217SOL    HW1 7550   3.612   0.289   1.081
 2217SOL    HW2 7551   3.497   0.179   1.044
 2218SOL     OW 7552   0.968   6.867   0.544
 2218SOL    HW1 7553   1.064   6.871   0.517
 2218SOL    HW2 7554   0.914   6.926   0.484
 2219SOL     OW 7555   1.648   4.081   3.335
 2219SOL    HW1 7556   1.603   4.127   3.259
 2219SOL    HW2 7557   1.731   4.131   3.360
 2220SOL     OW 7558   0.448   1.386   4.092
 2220SOL    HW1 7559   0.452   1.453   4.166
 2220SOL    HW2 7560   0.467   1.432   4.005
 2221SOL     OW 7561   0.101   1.801   7.002
 2221SOL    HW1 7562   0.145   1.838   0.066
 2221SOL    HW2 7563   0.150   1.718   6.973
 2222SOL     OW 7564   3.930   0.692   1.053
 2222SOL    HW1 7565   3.891   0.758   0.989
 2222SOL    HW2 7566   3.981   0.740   1.124
 2223SOL     OW 7567   5.823   5.314   3.618
 2223SOL    HW1 7568   5.815   5.405   3.577
 2223SOL    HW2 7569   5.736   5.290   3.662
 2224SOL     OW 7570   1.813   4.485   1.206
 2224SOL    HW1 7571   1.805   4.387   1.226
 2224SOL    HW2 7572   1.904   4.517   1.231
 2225SOL     OW 7573   6.320   4.419   2.590
 2225SOL    HW1 7574   6.353   4.415   2.684
 2225SOL    HW2 7575   6.360   4.344   2.537
 2226SOL     OW 7576   3.627   3.422   0.840
 2226SOL    HW1 7577   3.697   3.475   0.793
 2226SOL    HW2 7578   3.647   3.324   0.831
 2227SOL     OW 7579   6.046   4.272   6.611
 2227SOL    HW1 7580   6.010   4.292   6.701
 2227SOL    HW2 7581   5.973   4.281   6.543
 2228SOL     OW 7582   3.366   5.439   0.705
 2228SOL    HW1 7583   3.362   5.532   0.742
 2228SOL    HW2 7584   3.281   5.392   0.727
 2229SOL     OW 7585   4.574   1.920   3.902
 2229SOL    HW1 7586   4.581   2.019   3.918
 2229SOL    HW2 7587   4.487   1.887   3.939
 2230SOL     OW 7588   1.076   6.001   3.838
 2230SOL    HW1 7589   1.110   6.045   3.921
 2230SOL    HW2 7590   1.135   5.924   3.813
 2231SOL     OW 7591   1.558   1.816   2.624
 2231SOL    HW1 7592   1.573   1.807   2.525
 2231SOL    HW2 7593   1.594   1.903   2.655
 2232SOL     OW 7594   0.702   3.284   4.456
 2232SOL    HW1 7595   0.711   3.358   4.523
 2232SOL    HW2 7596   0.792   3.246   4.436
 2233SOL     OW 7597   3.337   5.056   6.969
 2233SOL    HW1 7598   3.339   5.042   6.870
 2233SOL    HW2 7599   3.406   4.997   7.012
 2234SOL     OW 7600   4.293   2.501   0.680
 2234SOL    HW1 7601   4.254   2.449   0.756
 2234SOL    HW2 7602   4.287   2.599   0.701
 2235SOL     OW 7603   1.491   0.189   0.412
 2235SOL    HW1 7604   1.394   0.167   0.397
 2235SOL    HW2 7605   1.546   0.152   0.337
 2236SOL     OW 7606   0.811   4.553   1.131
 2236SOL    HW1 7607   0.867   4.611   1.189
 2236SOL    HW2 7608   0.725   4.532   1.179
 2237SOL     OW 7609   6.587   3.486   4.588
 2237SOL    HW1 7610   6.681   3.482   4.553
 2237SOL    HW2 7611   6.576   3.568   4.643
 2238SOL     OW 7612   6.952   5.055   2.129
 2238SOL    HW1 7613   6.880   5.121   2.108
 2238SOL    HW2 7614   0.009   5.102   2.174
 2239SOL     OW 7615   4.013   4.916   3.872
 2239SOL    HW1 7616   4.103   4.947   3.840
 2239SOL    HW2 7617   3.987   4.834   3.821
 2240SOL     OW 7618   6.428   5.184   3.212
 2240SOL    HW1 7619   6.431   5.257   3.144
 2240SOL    HW2 7620   6.439   5.223   3.303
 2241SOL     OW 7621   0.123   5.836   2.446
 2241SOL    HW1 7622   0.068   5.825   2.529
 2241SOL    HW2 7623   0.195   5.767   2.445
 2242SOL     OW 7624   5.664   1.207   3.366
 2242SOL    HW1 7625   5.652   1.219   3.465
 2242SOL    HW2 7626   5.625   1.285   3.318
 2243SOL     OW 7627   2.215   6.201   5.072
 2243SOL    HW1 7628   2.209   6.300   5.057
 2243SOL    HW2 7629   2.180   6.179   5.163
 2244SOL     OW 7630   3.805   1.090   2.971
 2244SOL    HW1 7631   3.832   1.126   3.060
 2244SOL    HW2 7632   3.708   1.110   2.956
 2245SOL     OW 7633   0.495   2.344   2.350
 2245SOL    HW1 7634   0.397   2.324   2.350
 2245SOL    HW2 7635   0.511   2.432   2.305
 2246SOL     OW 7636   1.712   2.821   5.696
 2246SOL    HW1 7637   1.702   2.726   5.722
 2246SOL    HW2 7638   1.671   2.836   5.606
 2247SOL     OW 7639   2.774   2.099   5.908
 2247SOL    HW1 7640   2.678   2.125   5.913
 2247SOL    HW2 7641   2.781   2.000   5.895
 2248SOL     OW 7642   5.214   4.254   6.003
 2248SOL    HW1 7643   5.144   4.300   6.056
 2248SOL    HW2 7644   5.282   4.321   5.971
 2249SOL     OW 7645   6.156   6.213   3.076
 2249SOL    HW1 7646   6.125   6.260   3.158
 2249SOL    HW2 7647   6.142   6.272   2.996
 2250SOL     OW 7648   5.489   4.169   1.103
 2250SOL    HW1 7649   5.531   4.079   1.092
 2250SOL    HW2 7650   5.425   4.185   1.028
 2251SOL     OW 7651   6.010   1.665   0.509
 2251SOL    HW1 7652   5.964   1.660   0.598
 2251SOL    HW2 7653   6.108   1.676   0.523
 2252SOL     OW 7654   6.452   2.539   5.367
 2252SOL    HW1 7655   6.455   2.629   5.409
 2252SOL    HW2 7656   6.358   2.506   5.366
 2253SOL     OW 7657   1.040   2.990   6.467
 2253SOL    HW1 7658   1.109   3.061   6.481
 2253SOL    HW2 7659   0.956   3.015   6.514
 2254SOL     OW 7660   2.314   2.991   5.965
 2254SOL    HW1 7661   2.290   2.989   5.868
 2254SOL    HW2 7662   2.331   3.085   5.993
 2255SOL     OW 7663   6.240   2.486   1.163
 2255SOL    HW1 7664   6.209   2.474   1.258
 2255SOL    HW2 7665   6.328   2.533   1.163
 2256SOL     OW 7666   3.710   5.447   2.065
 2256SOL    HW1 7667   3.717   5.364   2.009
 2256SOL    HW2 7668   3.802   5.482   2.085
 2257SOL     OW 7669   1.136   2.639   4.456
 2257SOL    HW1 7670   1.215   2.627   4.516
 2257SOL    HW2 7671   1.131   2.562   4.392
 2258SOL     OW 7672   1.672   5.482   4.486
 2258SOL    HW1 7673   1.703   5.401   4.535
 2258SOL    HW2 7674   1.576   5.498   4.505
 2259SOL     OW 7675   5.211   3.601   6.472
 2259SOL    HW1 7676   5.196   3.656   6.390
 2259SOL    HW2 7677   5.252   3.514   6.447
 2260SOL     OW 7678   4.520   4.357   3.000
 2260SOL    HW1 7679   4.549   4.414   2.923
 2260SOL    HW2 7680   4.583   4.280   3.010
 2261SOL     OW 7681   5.884   6.421   0.816
 2261SOL    HW1 7682   5.849   6.442   0.725
 2261SOL    HW2 7683   5.983   6.432   0.818
 2262SOL     OW 7684   5.557   2.203   2.933
 2262SOL    HW1 7685   5.630   2.249   2.984
 2262SOL    HW2 7686   5.591   2.116   2.898
 2263SOL     OW 7687   2.416   6.275   6.208
 2263SOL    HW1 7688   2.351   6.349   6.222
 2263SOL    HW2 7689   2.369   6.198   6.165
 2264SOL     OW 7690   3.224   3.964   2.275
 2264SOL    HW1 7691   3.165   3.925   2.346
 2264SOL    HW2 7692   3.169   3.988   2.195
 2265SOL     OW 7693   0.452   0.907   3.478
 2265SOL    HW1 7694   0.377   0.968   3.451
 2265SOL    HW2 7695   0.429   0.813   3.452
 2266SOL     OW 7696   6.919   1.574   1.212
 2266SOL    HW1 7697   6.962   1.572   1.122
 2266SOL    HW2 7698   6.962   1.645   1.268
 2267SOL     OW 7699   5.685   2.466   4.505
 2267SOL    HW1 7700   5.617   2.519   4.555
 2267SOL    HW2 7701   5.740   2.527   4.448
 2268SOL     OW 7702   6.366   5.914   0.367
 2268SOL    HW1 7703   6.303   5.843   0.334
 2268SOL    HW2 7704   6.422   5.947   0.290
 2269SOL     OW 7705   6.082   5.484   5.295
 2269SOL    HW1 7706   5.984   5.473   5.315
 2269SOL    HW2 7707   6.102   5.581   5.281
 2270SOL     OW 7708   3.518   3.881   1.119
 2270SOL    HW1 7709   3.434   3.928   1.092
 2270SOL    HW2 7710   3.597   3.938   1.096
 2271SOL     OW 7711   6.356   4.264   1.175
 2271SOL    HW1 7712   6.358   4.290   1.079
 2271SOL    HW2 7713   6.410   4.329   1.228
 2272SOL     OW 7714   6.157   2.354   4.387
 2272SOL    HW1 7715   6.097   2.417   4.436
 2272SOL    HW2 7716   6.187   2.281   4.449
 2273SOL     OW 7717   1.819   1.574   3.288
 2273SOL    HW1 7718   1.751   1.623   3.233
 2273SOL    HW2 7719   1.902   1.629   3.295
 2274SOL     OW 7720   1.479   3.543   4.775
 2274SOL    HW1 7721   1.497   3.608   4.702
 2274SOL    HW2 7722   1.384   3.512   4.770
 2275SOL     OW 7723   4.415   0.154   4.643
 2275SOL    HW1 7724   4.398   0.064   4.604
 2275SOL    HW2 7725   4.454   0.214   4.573
 2276SOL     OW 7726   3.243   5.548   1.466
 2276SOL    HW1 7727   3.271   5.573   1.559
 2276SOL    HW2 7728   3.282   5.612   1.401
 2277SOL     OW 7729   3.403   3.448   4.729
 2277SOL    HW1 7730   3.476   3.403   4.679
 2277SOL    HW2 7731   3.367   3.386   4.799
 2278SOL     OW 7732   4.567   0.018   3.117
 2278SOL    HW1 7733   4.627   6.962   3.145
 2278SOL    HW2 7734   4.474   7.001   3.106
 2279SOL     OW 7735   5.639   4.384   3.858
 2279SOL    HW1 7736   5.676   4.373   3.766
 2279SOL    HW2 7737   5.641   4.481   3.884
 2280SOL     OW 7738   6.396   6.479   5.049
 2280SOL    HW1 7739   6.458   6.437   4.983
 2280SOL    HW2 7740   6.439   6.561   5.088
 2281SOL     OW 7741   3.252   1.680   1.330
 2281SOL    HW1 7742   3.263   1.779   1.333
 2281SOL    HW2 7743   3.333   1.636   1.369
 2282SOL     OW 7744   5.342   6.365   4.689
 2282SOL    HW1 7745   5.323   6.301   4.615
 2282SOL    HW2 7746   5.376   6.315   4.769
 2283SOL     OW 7747   6.403   3.205   2.248
 2283SOL    HW1 7748   6.487   3.221   2.195
 2283SOL    HW2 7749   6.333   3.270   2.220
 2284SOL     OW 7750   2.758   2.018   1.660
 2284SOL    HW1 7751   2.776   2.019   1.758
 2284SOL    HW2 7752   2.757   1.923   1.627
 2285SOL     OW 7753   1.331   3.684   0.293
 2285SOL    HW1 7754   1.411   3.722   0.339
 2285SOL    HW2 7755   1.278   3.758   0.251
 2286SOL     OW 7756   6.817   5.616   5.202
 2286SOL    HW1 7757   6.779   5.702   5.236
 2286SOL    HW2 7758   6.844   5.627   5.106
 2287SOL     OW 7759   2.616   3.181   1.563
 2287SOL    HW1 7760   2.547   3.211   1.497
 2287SOL    HW2 7761   2.579   3.103   1.615
 2288SOL     OW 7762   0.751   5.900   4.092
 2288SOL    HW1 7763   0.795   5.988   4.074
 2288SOL    HW2 7764   0.730   5.855   4.005
 2289SOL     OW 7765   5.556   2.827   1.871
 2289SOL    HW1 7766   5.614   2.898   1.911
 2289SOL    HW2 7767   5.501   2.785   1.943
 2290SOL     OW 7768   3.076   3.065   2.310
 2290SOL    HW1 7769   2.989   3.087   2.266
 2290SOL    HW2 7770   3.145   3.049   2.240
 2291SOL     OW 7771   1.893   1.985   1.125
 2291SOL    HW1 7772   1.892   2.055   1.197
 2291SOL    HW2 7773   1.799   1.957   1.106
 2292SOL     OW 7774   5.340   3.595   3.887
 2292SOL    HW1 7775   5.256   3.636   3.923
 2292SOL    HW2 7776   5.411   3.665   3.881
 2293SOL     OW 7777   5.848   1.059   0.389
 2293SOL    HW1 7778   5.945   1.036   0.387
 2293SOL    HW2 7779   5.797   0.992   0.442
 2294SOL     OW 7780   3.092   1.859   6.303
 2294SOL    HW1 7781   3.138   1.774   6.277
 2294SOL    HW2 7782   3.158   1.934   6.306
 2295SOL     OW 7783   6.628   0.964   2.229
 2295SOL    HW1 7784   6.615   0.933   2.324
 2295SOL    HW2 7785   6.546   0.946   2.176
 2296SOL     OW 7786   2.702   4.724   2.822
 2296SOL    HW1 7787   2.703   4.734   2.921
 2296SOL    HW2 7788   2.630   4.661   2.795
 2297SOL     OW 7789   4.391   4.812   5.696
 2297SOL    HW1 7790   4.389   4.739   5.764
 2297SOL    HW2 7791   4.375   4.900   5.741
 2298SOL     OW 7792   3.683   3.482   3.278
 2298SOL    HW1 7793   3.625   3.423   3.222
 2298SOL    HW2 7794   3.648   3.575   3.278
 2299SOL     OW 7795   4.878   3.837   5.199
 2299SOL    HW1 7796   4.856   3.753   5.149
 2299SOL    HW2 7797   4.856   3.916   5.142
 2300SOL     OW 7798   3.523   6.877   3.294
 2300SOL    HW1 7799   3.596   6.883   3.362
 2300SOL    HW2 7800   3.456   6.949   3.311
 2301SOL     OW 7801   3.402   2.895   4.154
 2301SOL    HW1 7802   3.420   2.919   4.059
 2301SOL    HW2 7803   3.303   2.884   4.167
 2302SOL     OW 7804   4.290   0.372   0.941
 2302SOL    HW1 7805   4.217   0.313   0.975
 2302SOL    HW2 7806   4.251   0.460   0.914
 2303SOL     OW 7807   2.494   2.982   1.104
 2303SOL    HW1 7808   2.589   2.973   1.076
 2303SOL    HW2 7809   2.463   2.896   1.144
 2304SOL     OW 7810   6.273   5.776   3.835
 2304SOL    HW1 7811   6.347   5.733   3.887
 2304SOL    HW2 7812   6.306   5.862   3.796
 2305SOL     OW 7813   1.630   0.673   4.043
 2305SOL    HW1 7814   1.677   0.746   4.094
 2305SOL    HW2 7815   1.642   0.689   3.945
 2306SOL     OW 7816   1.519   5.072   2.332
 2306SOL    HW1 7817   1.423   5.042   2.342
 2306SOL    HW2 7818   1.534   5.155   2.386
 2307SOL     OW 7819   1.357   2.900   5.622
 2307SOL    HW1 7820   1.430   2.930   5.683
 2307SOL    HW2 7821   1.275   2.954   5.639
 2308SOL     OW 7822   2.567   5.050   1.201
 2308SOL    HW1 7823   2.488   4.999   1.236
 2308SOL    HW2 7824   2.538   5.142   1.175
 2309SOL     OW 7825   1.750   0.424   4.045
 2309SOL    HW1 7826   1.679   0.494   4.042
 2309SOL    HW2 7827   1.839   0.466   4.025
 2310SOL     OW 7828   5.564   6.612   2.456
 2310SOL    HW1 7829   5.640   6.665   2.418
 2310SOL    HW2 7830   5.490   6.607   2.389
 2311SOL     OW 7831   1.895   5.819   6.863
 2311SOL    HW1 7832   1.982   5.808   6.911
 2311SOL    HW2 7833   1.860   5.730   6.837
 2312SOL     OW 7834   3.718   5.440   3.404
 2312SOL    HW1 7835   3.666   5.407   3.483
 2312SOL    HW2 7836   3.784   5.509   3.435
 2313SOL     OW 7837   5.138   5.093   2.199
 2313SOL    HW1 7838   5.079   5.058   2.272
 2313SOL    HW2 7839   5.194   5.019   2.163
 2314SOL     OW 7840   3.636   5.876   2.938
 2314SOL    HW1 7841   3.718   5.922   2.971
 2314SOL    HW2 7842   3.655   5.778   2.927
 2315SOL     OW 7843   5.268   3.702   6.023
 2315SOL    HW1 7844   5.264   3.629   6.092
 2315SOL    HW2 7845   5.293   3.788   6.068
 2316SOL     OW 7846   5.009   1.935   3.361
 2316SOL    HW1 7847   4.935   1.921   3.295
 2316SOL    HW2 7848   5.035   2.032   3.363
 2317SOL     OW 7849   0.976   5.231   3.027
 2317SOL    HW1 7850   0.943   5.304   3.088
 2317SOL    HW2 7851   0.903   5.204   2.965
 2318SOL     OW 7852   0.293   2.666   3.626
 2318SOL    HW1 7853   0.361   2.612   3.674
 2318SOL    HW2 7854   0.212   2.677   3.684
 2319SOL     OW 7855   2.074   4.232   5.053
 2319SOL    HW1 7856   2.048   4.239   5.149
 2319SOL    HW2 7857   2.155   4.174   5.044
 2320SOL     OW 7858   0.040   2.336   4.244
 2320SOL    HW1 7859   0.008   2.280   4.320
 2320SOL    HW2 7860   0.003   2.301   4.158
 2321SOL     OW 7861   3.683   0.911   5.111
 2321SOL    HW1 7862   3.777   0.916   5.076
 2321SOL    HW2 7863   3.625   0.863   5.044
 2322SOL     OW 7864   1.921   1.817   5.625
 2322SOL    HW1 7865   1.942   1.883   5.553
 2322SOL    HW2 7866   1.844   1.760   5.597
 2323SOL     OW 7867   3.411   5.693   3.435
 2323SOL    HW1 7868   3.327   5.645   3.458
 2323SOL    HW2 7869   3.438   5.672   3.341
 2324SOL     OW 7870   0.482   6.028   2.306
 2324SOL    HW1 7871   0.486   6.120   2.346
 2324SOL    HW2 7872   0.475   5.960   2.379
 2325SOL     OW 7873   1.261   3.702   1.617
 2325SOL    HW1 7874   1.229   3.795   1.600
 2325SOL    HW2 7875   1.352   3.689   1.578
 2326SOL     OW 7876   2.207   3.931   6.405
 2326SOL    HW1 7877   2.284   3.933   6.469
 2326SOL    HW2 7878   2.122   3.912   6.454
 2327SOL     OW 7879   4.859   2.984   4.477
 2327SOL    HW1 7880   4.791   2.993   4.405
 2327SOL    HW2 7881   4.923   2.910   4.454
 2328SOL     OW 7882   5.060   0.831   3.238
 2328SOL    HW1 7883   5.115   0.863   3.160
 2328SOL    HW2 7884   5.074   0.893   3.315
 2329SOL     OW 7885   1.125   5.160   4.464
 2329SOL    HW1 7886   1.094   5.248   4.499
 2329SOL    HW2 7887   1.089   5.146   4.371
 2330SOL     OW 7888   0.094   5.168   1.471
 2330SOL    HW1 7889   0.115   5.119   1.556
 2330SOL    HW2 7890   0.094   5.103   1.395
 2331SOL     OW 7891   6.896   4.374   5.580
 2331SOL    HW1 7892   6.855   4.295   5.534
 2331SOL    HW2 7893   6.850   4.458   5.552
 2332SOL     OW 7894   5.149   2.143   5.777
 2332SOL    HW1 7895   5.139   2.058   5.725
 2332SOL    HW2 7896   5.245   2.172   5.774
 2333SOL     OW 7897   0.622   5.120   2.609
 2333SOL    HW1 7898   0.633   5.133   2.510
 2333SOL    HW2 7899   0.631   5.208   2.655
 2334SOL     OW 7900   3.342   6.448   0.020
 2334SOL    HW1 7901   3.369   6.512   0.092
 2334SOL    HW2 7902   3.405   6.371   0.018
 2335SOL     OW 7903   6.195   0.953   3.226
 2335SOL    HW1 7904   6.133   1.017   3.272
 2335SOL    HW2 7905   6.277   1.001   3.196
 2336SOL     OW 7906   4.668   1.137   5.654
 2336SOL    HW1 7907   4.727   1.210   5.689
 2336SOL    HW2 7908   4.717   1.050   5.659
 2337SOL     OW 7909   5.273   0.371   3.319
 2337SOL    HW1 7910   5.236   0.411   3.404
 2337SOL    HW2 7911   5.198   0.334   3.265
 2338SOL     OW 7912   0.615   6.873   0.115
 2338SOL    HW1 7913   0.669   6.957   0.111
 2338SOL    HW2 7914   0.673   6.795   0.092
 2339SOL     OW 7915   3.383   3.319   5.607
 2339SOL    HW1 7916   3.366   3.225   5.638
 2339SOL    HW2 7917   3.481   3.330   5.589
 2340SOL     OW 7918   3.685   6.424   5.018
 2340SOL    HW1 7919   3.784   6.441   5.014
 2340SOL    HW2 7920   3.668   6.328   5.036
 2341SOL     OW 7921   5.237   4.477   0.341
 2341SOL    HW1 7922   5.183   4.445   0.264
 2341SOL    HW2 7923   5.296   4.553   0.312
 2342SOL     OW 7924   0.562   6.814   5.881
 2342SOL    HW1 7925   0.604   6.738   5.832
 2342SOL    HW2 7926   0.464   6.796   5.892
 2343SOL     OW 7927   1.241   6.374   1.092
 2343SOL    HW1 7928   1.200   6.298   1.143
 2343SOL    HW2 7929   1.172   6.445   1.078
 2344SOL     OW 7930   3.081   1.652   2.346
 2344SOL    HW1 7931   3.103   1.560   2.379
 2344SOL    HW2 7932   3.058   1.711   2.423
 2345SOL     OW 7933   1.284   6.974   5.030
 2345SOL    HW1 7934   1.366   6.955   5.083
 2345SOL    HW2 7935   1.209   6.999   5.092
 2346SOL     OW 7936   4.600   2.852   5.178
 2346SOL    HW1 7937   4.660   2.834   5.100
 2346SOL    HW2 7938   4.644   2.917   5.240
 2347SOL     OW 7939   1.905   4.018   2.008
 2347SOL    HW1 7940   1.904   3.995   2.106
 2347SOL    HW2 7941   1.985   4.074   1.988
 2348SOL     OW 7942   2.128   6.540   3.339
 2348SOL    HW1 7943   2.203   6.593   3.301
 2348SOL    HW2 7944   2.047   6.598   3.348
 2349SOL     OW 7945   0.079   6.469   6.007
 2349SOL    HW1 7946   0.090   6.432   5.915
 2349SOL    HW2 7947   0.168   6.471   6.053
 2350SOL     OW 7948   3.147   0.642   5.603
 2350SOL    HW1 7949   3.181   0.705   5.534
 2350SOL    HW2 7950   3.223   0.612   5.662
 2351SOL     OW 7951   2.933   5.152   3.733
 2351SOL    HW1 7952   2.869   5.101   3.675
 2351SOL    HW2 7953   2.907   5.248   3.735
 2352SOL     OW 7954   6.398   4.172   4.083
 2352SOL    HW1 7955   6.381   4.150   4.179
 2352SOL    HW2 7956   6.311   4.179   4.035
 2353SOL     OW 7957   2.512   4.091   5.687
 2353SOL    HW1 7958   2.523   4.111   5.589
 2353SOL    HW2 7959   2.465   4.004   5.698
 2354SOL     OW 7960   3.311   2.524   6.959
 2354SOL    HW1 7961   3.353   2.537   6.869
 2354SOL    HW2 7962   3.285   2.613   6.996
 2355SOL     OW 7963   0.671   0.101   0.843
 2355SOL    HW1 7964   0.689   0.184   0.790
 2355SOL    HW2 7965   0.628   0.032   0.784
 2356SOL     OW 7966   2.204   4.813   2.076
 2356SOL    HW1 7967   2.202   4.813   1.976
 2356SOL    HW2 7968   2.210   4.719   2.109
 2357SOL     OW 7969   5.293   4.819   3.625
 2357SOL    HW1 7970   5.274   4.911   3.590
 2357SOL    HW2 7971   5.209   4.781   3.664
 2358SOL     OW 7972   2.861   0.123   3.724
 2358SOL    HW1 7973   2.828   0.136   3.631
 2358SOL    HW2 7974   2.846   0.206   3.777
 2359SOL     OW 7975   2.743   1.251   6.310
 2359SOL    HW1 7976   2.799   1.330   6.334
 2359SOL    HW2 7977   2.681   1.275   6.235
 2360SOL     OW 7978   3.831   4.626   6.844
 2360SOL    HW1 7979   3.909   4.577   6.804
 2360SOL    HW2 7980   3.786   4.567   6.911
 2361SOL     OW 7981   2.761   0.047   3.277
 2361SOL    HW1 7982   2.719   7.012   3.350
 2361SOL    HW2 7983   2.828   7.009   3.228
 2362SOL     OW 7984   4.552   5.950   4.860
 2362SOL    HW1 7985   4.566   6.044   4.828
 2362SOL    HW2 7986   4.520   5.893   4.785
 2363SOL     OW 7987   4.393   1.847   5.327
 2363SOL    HW1 7988   4.315   1.893   5.285
 2363SOL    HW2 7989   4.458   1.915   5.359
 2364SOL     OW 7990   5.497   1.626   1.822
 2364SOL    HW1 7991   5.545   1.676   1.894
 2364SOL    HW2 7992   5.402   1.611   1.849
 2365SOL     OW 7993   5.957   4.287   4.873
 2365SOL    HW1 7994   5.897   4.294   4.953
 2365SOL    HW2 7995   6.015   4.206   4.882
 2366SOL     OW 7996   1.663   4.099   4.996
 2366SOL    HW1 7997   1.617   4.100   4.907
 2366SOL    HW2 7998   1.721   4.018   5.002
 2367SOL     OW 7999   0.959   3.451   5.520
 2367SOL    HW1 8000   0.922   3.421   5.432
 2367SOL    HW2 8001   0.942   3.549   5.531
 2368SOL     OW 8002   4.258   1.604   4.803
 2368SOL    HW1 8003   4.246   1.518   4.753
 2368SOL    HW2 8004   4.279   1.586   4.898
 2369SOL     OW 8005   3.367   1.727   3.274
 2369SOL    HW1 8006   3.272   1.731   3.304
 2369SOL    HW2 8007   3.407   1.639   3.302
 2370SOL     OW 8008   4.681   2.862   0.215
 2370SOL    HW1 8009   4.726   2.871   0.304
 2370SOL    HW2 8010   4.609   2.792   0.221
 2371SOL     OW 8011   0.924   6.845   2.454
 2371SOL    HW1 8012   1.011   6.821   2.412
 2371SOL    HW2 8013   0.934   6.930   2.506
 2372SOL     OW 8014   6.659   0.710   6.317
 2372SOL    HW1 8015   6.607   0.685   6.399
 2372SOL    HW2 8016   6.656   0.809   6.304
 2373SOL     OW 8017   5.989   0.651   6.599
 2373SOL    HW1 8018   6.071   0.612   6.641
 2373SOL    HW2 8019   6.007   0.671   6.503
 2374SOL     OW 8020   5.664   5.518   2.845
 2374SOL    HW1 8021   5.652   5.436   2.788
 2374SOL    HW2 8022   5.598   5.515   2.920
 2375SOL     OW 8023   0.472   0.307   3.766
 2375SOL    HW1 8024   0.558   0.274   3.726
 2375SOL    HW2 8025   0.427   0.232   3.814
 2376SOL     OW 8026   6.715   2.623   3.495
 2376SOL    HW1 8027   6.684   2.688   3.425
 2376SOL    HW2 8028   6.787   2.565   3.457
 2377SOL     OW 8029   3.224   4.211   6.152
 2377SOL    HW1 8030   3.166   4.289   6.176
 2377SOL    HW2 8031   3.226   4.146   6.227
 2378SOL     OW 8032   5.681   2.053   0.233
 2378SOL    HW1 8033   5.630   2.050   0.146
 2378SOL    HW2 8034   5.655   1.974   0.289
 2379SOL     OW 8035   6.977   4.491   7.017
 2379SOL    HW1 8036   6.959   4.401   0.039
 2379SOL    HW2 8037   0.025   4.481   6.943
 2380SOL     OW 8038   6.076   1.937   5.196
 2380SOL    HW1 8039   6.090   1.843   5.165
 2380SOL    HW2 8040   5.978   1.952   5.211
 2381SOL     OW 8041   2.314   4.953   4.735
 2381SOL    HW1 8042   2.368   5.030   4.701
 2381SOL    HW2 8043   2.362   4.910   4.811
 2382SOL     OW 8044   1.546   6.228   2.673
 2382SOL    HW1 8045   1.539   6.246   2.771
 2382SOL    HW2 8046   1.641   6.238   2.644
 2383SOL     OW 8047   5.032   5.404   5.699
 2383SOL    HW1 8048   4.957   5.467   5.679
 2383SOL    HW2 8049   5.091   5.396   5.619
 2384SOL     OW 8050   1.038   2.151   1.452
 2384SOL    HW1 8051   0.986   2.190   1.528
 2384SOL    HW2 8052   1.060   2.223   1.386
 2385SOL     OW 8053   1.027   1.999   7.017
 2385SOL    HW1 8054   1.105   1.938   0.011
 2385SOL    HW2 8055   0.949   1.966   0.053
 2386SOL     OW 8056   3.375   4.988   4.777
 2386SOL    HW1 8057   3.351   4.955   4.868
 2386SOL    HW2 8058   3.334   4.929   4.708
 2387SOL     OW 8059   6.747   3.207   4.065
 2387SOL    HW1 8060   6.784   3.155   3.988
 2387SOL    HW2 8061   6.818   3.222   4.133
 2388SOL     OW 8062   0.257   1.631   5.719
 2388SOL    HW1 8063   0.345   1.660   5.682
 2388SOL    HW2 8064   0.262   1.534   5.745
 2389SOL     OW 8065   5.165   4.611   4.268
 2389SOL    HW1 8066   5.176   4.535   4.204
 2389SOL    HW2 8067   5.100   4.677   4.230
 2390SOL     OW 8068   3.864   3.534   5.019
 2390SOL    HW1 8069   3.811   3.471   4.964
 2390SOL    HW2 8070   3.806   3.610   5.048
 2391SOL     OW 8071   3.476   3.600   6.011
 2391SOL    HW1 8072   3.548   3.531   6.017
 2391SOL    HW2 8073   3.478   3.644   5.921
 2392SOL     OW 8074   3.129   4.221   6.573
 2392SOL    HW1 8075   3.216   4.179   6.599
 2392SOL    HW2 8076   3.103   4.288   6.642
 2393SOL     OW 8077   3.888   6.049   1.545
 2393SOL    HW1 8078   3.924   6.048   1.452
 2393SOL    HW2 8079   3.926   6.126   1.595
 2394SOL     OW 8080   0.262   3.807   3.922
 2394SOL    HW1 8081   0.320   3.789   3.843
 2394SOL    HW2 8082   0.193   3.875   3.899
 2395SOL     OW 8083   0.003   2.935   0.080
 2395SOL    HW1 8084   0.078   2.877   0.113
 2395SOL    HW2 8085   6.982   2.984   0.157
 2396SOL     OW 8086   5.514   0.513   0.564
 2396SOL    HW1 8087   5.426   0.467   0.558
 2396SOL    HW2 8088   5.500   0.610   0.583
 2397SOL     OW 8089   0.097   4.598   6.633
 2397SOL    HW1 8090   0.025   4.663   6.608
 2397SOL    HW2 8091   0.167   4.644   6.687
 2398SOL     OW 8092   2.937   5.076   4.517
 2398SOL    HW1 8093   2.911   5.068   4.613
 2398SOL    HW2 8094   2.991   5.159   4.504
 2399SOL     OW 8095   3.920   2.209   3.971
 2399SOL    HW1 8096   3.834   2.158   3.975
 2399SOL    HW2 8097   3.915   2.275   3.896
 2400SOL     OW 8098   1.918   3.275   0.525
 2400SOL    HW1 8099   1.835   3.233   0.563
 2400SOL    HW2 8100   1.904   3.295   0.429
 2401SOL     OW 8101   3.632   0.255   3.834
 2401SOL    HW1 8102   3.567   0.316   3.880
 2401SOL    HW2 8103   3.674   0.304   3.757
 2402SOL     OW 8104   0.185   2.095   3.456
 2402SOL    HW1 8105   0.144   2.016   3.501
 2402SOL    HW2 8106   0.207   2.073   3.362
 2403SOL     OW 8107   3.821   3.776   0.934
 2403SOL    HW1 8108   3.859   3.701   0.989
 2403SOL    HW2 8109   3.777   3.738   0.853
 2404SOL     OW 8110   5.717   1.843   1.497
 2404SOL    HW1 8111   5.759   1.930   1.520
 2404SOL    HW2 8112   5.706   1.788   1.580
 2405SOL     OW 8113   3.089   5.128   5.558
 2405SOL    HW1 8114   3.019   5.121   5.630
 2405SOL    HW2 8115   3.111   5.037   5.524
 2406SOL     OW 8116   2.400   6.968   4.050
 2406SOL    HW1 8117   2.423   0.025   3.989
 2406SOL    HW2 8118   2.406   6.998   4.145
 2407SOL     OW 8119   4.488   2.388   2.845
 2407SOL    HW1 8120   4.547   2.307   2.836
 2407SOL    HW2 8121   4.535   2.467   2.806
 2408SOL     OW 8122   2.495   5.741   2.821
 2408SOL    HW1 8123   2.508   5.646   2.792
 2408SOL    HW2 8124   2.398   5.765   2.810
 2409SOL     OW 8125   2.716   3.053   0.915
 2409SOL    HW1 8126   2.797   3.069   0.971
 2409SOL    HW2 8127   2.717   3.113   0.835
 2410SOL     OW 8128   6.454   3.125   5.915
 2410SOL    HW1 8129   6.363   3.162   5.893
 2410SOL    HW2 8130   6.505   3.110   5.830
 2411SOL     OW 8131   2.886   3.763   5.977
 2411SOL    HW1 8132   2.843   3.842   5.934
 2411SOL    HW2 8133   2.980   3.753   5.944
 2412SOL     OW 8134   2.302   2.934   0.554
 2412SOL    HW1 8135   2.382   2.945   0.494
 2412SOL    HW2 8136   2.333   2.914   0.647
 2413SOL     OW 8137   6.135   3.427   6.656
 2413SOL    HW1 8138   6.160   3.523   6.650
 2413SOL    HW2 8139   6.066   3.414   6.727
 2414SOL     OW 8140   5.893   2.690   3.507
 2414SOL    HW1 8141   5.798   2.692   3.537
 2414SOL    HW2 8142   5.905   2.616   3.441
 2415SOL     OW 8143   2.492   0.180   1.064
 2415SOL    HW1 8144   2.566   0.113   1.059
 2415SOL    HW2 8145   2.410   0.142   1.022
 2416SOL     OW 8146   1.372   3.031   3.550
 2416SOL    HW1 8147   1.308   3.093   3.505
 2416SOL    HW2 8148   1.462   3.037   3.507
 2417SOL     OW 8149   4.300   1.904   6.841
 2417SOL    HW1 8150   4.390   1.865   6.822
 2417SOL    HW2 8151   4.243   1.837   6.887
 2418SOL     OW 8152   3.742   3.741   5.085
 2418SOL    HW1 8153   3.650   3.768   5.115
 2418SOL    HW2 8154   3.782   3.814   5.030
 2419SOL     OW 8155   1.930   6.653   4.808
 2419SOL    HW1 8156   1.909   6.731   4.866
 2419SOL    HW2 8157   1.881   6.662   4.721
 2420SOL     OW 8158   3.335   5.687   1.907
 2420SOL    HW1 8159   3.373   5.635   1.985
 2420SOL    HW2 8160   3.326   5.783   1.933
 2421SOL     OW 8161   4.191   6.726   4.241
 2421SOL    HW1 8162   4.162   6.715   4.146
 2421SOL    HW2 8163   4.276   6.779   4.244
 2422SOL     OW 8164   3.821   6.711   0.962
 2422SOL    HW1 8165   3.774   6.715   1.051
 2422SOL    HW2 8166   3.756   6.682   0.892
 2423SOL     OW 8167   1.571   5.663   1.271
 2423SOL    HW1 8168   1.473   5.650   1.260
 2423SOL    HW2 8169   1.613   5.574   1.293
 2424SOL     OW 8170   5.979   6.711   6.632
 2424SOL    HW1 8171   6.020   6.669   6.551
 2424SOL    HW2 8172   5.919   6.786   6.604
 2425SOL     OW 8173   5.046   5.696   5.575
 2425SOL    HW1 8174   4.960   5.651   5.552
 2425SOL    HW2 8175   5.050   5.713   5.673
 2426SOL     OW 8176   1.002   5.017   4.926
 2426SOL    HW1 8177   0.911   5.042   4.893
 2426SOL    HW2 8178   1.064   5.008   4.848
 2427SOL     OW 8179   5.307   5.867   6.699
 2427SOL    HW1 8180   5.345   5.797   6.759
 2427SOL    HW2 8181   5.282   5.947   6.752
 2428SOL     OW 8182   0.266   0.520   2.418
 2428SOL    HW1 8183   0.186   0.555   2.466
 2428SOL    HW2 8184   0.269   0.421   2.426
 2429SOL     OW 8185   6.021   4.444   2.759
 2429SOL    HW1 8186   6.082   4.367   2.776
 2429SOL    HW2 8187   5.975   4.469   2.844
 2430SOL     OW 8188   5.358   1.913   0.180
 2430SOL    HW1 8189   5.446   1.910   0.228
 2430SOL    HW2 8190   5.358   1.990   0.117
 2431SOL     OW 8191   5.150   1.671   1.348
 2431SOL    HW1 8192   5.151   1.675   1.448
 2431SOL    HW2 8193   5.200   1.590   1.317
 2432SOL     OW 8194   3.240   6.276   1.389
 2432SOL    HW1 8195   3.257   6.295   1.486
 2432SOL    HW2 8196   3.142   6.288   1.370
 2433SOL     OW 8197   0.943   6.567   0.351
 2433SOL    HW1 8198   1.013   6.598   0.415
 2433SOL    HW2 8199   0.885   6.499   0.396
 2434SOL     OW 8200   5.308   1.820   2.494
 2434SOL    HW1 8201   5.244   1.755   2.535
 2434SOL    HW2 8202   5.263   1.908   2.482
 2435SOL     OW 8203   5.798   5.778   0.115
 2435SOL    HW1 8204   5.787   5.683   0.087
 2435SOL    HW2 8205   5.893   5.794   0.142
 2436SOL     OW 8206   1.722   0.341   1.187
 2436SOL    HW1 8207   1.625   0.325   1.205
 2436SOL    HW2 8208   1.755   0.275   1.120
 2437SOL     OW 8209   5.335   6.387   1.485
 2437SOL    HW1 8210   5.318   6.344   1.397
 2437SOL    HW2 8211   5.433   6.403   1.496
 2438SOL     OW 8212   4.551   1.687   4.688
 2438SOL    HW1 8213   4.483   1.723   4.752
 2438SOL    HW2 8214   4.578   1.596   4.717
 2439SOL     OW 8215   0.352   4.976   7.004
 2439SOL    HW1 8216   0.404   4.899   6.968
 2439SOL    HW2 8217   0.414   5.053   0.002
 2440SOL     OW 8218   3.823   6.603   6.063
 2440SOL    HW1 8219   3.748   6.605   5.997
 2440SOL    HW2 8220   3.807   6.531   6.130
 2441SOL     OW 8221   5.994   1.359   6.856
 2441SOL    HW1 8222   5.912   1.306   6.879
 2441SOL    HW2 8223   5.968   1.454   6.839
 2442SOL     OW 8224   5.917   4.948   3.040
 2442SOL    HW1 8225   5.975   5.017   2.998
 2442SOL    HW2 8226   5.821   4.974   3.029
 2443SOL     OW 8227   2.821   0.919   0.129
 2443SOL    HW1 8228   2.725   0.948   0.126
 2443SOL    HW2 8229   2.866   0.947   0.044
 2444SOL     OW 8230   4.205   4.951   0.162
 2444SOL    HW1 8231   4.189   4.929   0.258
 2444SOL    HW2 8232   4.117   4.959   0.115
 2445SOL     OW 8233   5.989   1.368   1.730
 2445SOL    HW1 8234   6.030   1.316   1.656
 2445SOL    HW2 8235   5.940   1.307   1.792
 2446SOL     OW 8236   1.126   2.854   3.243
 2446SOL    HW1 8237   1.162   2.943   3.214
 2446SOL    HW2 8238   1.036   2.840   3.202
 2447SOL     OW 8239   2.514   0.922   1.019
 2447SOL    HW1 8240   2.504   0.957   0.926
 2447SOL    HW2 8241   2.606   0.942   1.052
 2448SOL     OW 8242   5.933   1.840   4.101
 2448SOL    HW1 8243   5.835   1.860   4.109
 2448SOL    HW2 8244   5.965   1.869   4.011
 2449SOL     OW 8245   1.737   3.361   1.221
 2449SOL    HW1 8246   1.802   3.405   1.283
 2449SOL    HW2 8247   1.760   3.265   1.211
 2450SOL     OW 8248   2.916   5.479   6.309
 2450SOL    HW1 8249   2.856   5.421   6.254
 2450SOL    HW2 8250   2.972   5.536   6.248
 2451SOL     OW 8251   1.235   0.641   3.280
 2451SOL    HW1 8252   1.295   0.580   3.331
 2451SOL    HW2 8253   1.147   0.598   3.267
 2452SOL     OW 8254   3.025   1.941   3.791
 2452SOL    HW1 8255   2.999   1.870   3.726
 2452SOL    HW2 8256   3.124   1.939   3.805
 2453SOL     OW 8257   0.340   3.133   0.849
 2453SOL    HW1 8258   0.431   3.114   0.812
 2453SOL    HW2 8259   0.321   3.069   0.924
 2454SOL     OW 8260   2.819   6.312   0.052
 2454SOL    HW1 8261   2.800   6.357   0.139
 2454SOL    HW2 8262   2.824   6.381   6.998
 2455SOL     OW 8263   4.565   0.595   0.439
 2455SOL    HW1 8264   4.633   0.590   0.512
 2455SOL    HW2 8265   4.500   0.669   0.459
 2456SOL     OW 8266   0.104   2.484   6.665
 2456SOL    HW1 8267   0.088   2.525   6.576
 2456SOL    HW2 8268   0.200   2.458   6.673
 2457SOL     OW 8269   6.396   1.151   6.114
 2457SOL    HW1 8270   6.354   1.146   6.205
 2457SOL    HW2 8271   6.381   1.242   6.076
 2458SOL     OW 8272   1.521   6.254   3.728
 2458SOL    HW1 8273   1.491   6.264   3.633
 2458SOL    HW2 8274   1.618   6.277   3.735
 2459SOL     OW 8275   2.767   6.573   5.496
 2459SOL    HW1 8276   2.801   6.589   5.589
 2459SOL    HW2 8277   2.764   6.475   5.478
 2460SOL     OW 8278   1.528   1.379   0.343
 2460SOL    HW1 8279   1.595   1.407   0.275
 2460SOL    HW2 8280   1.550   1.287   0.376
 2461SOL     OW 8281   4.674   1.009   4.248
 2461SOL    HW1 8282   4.733   1.089   4.264
 2461SOL    HW2 8283   4.581   1.041   4.228
 2462SOL     OW 8284   2.082   4.896   6.747
 2462SOL    HW1 8285   2.117   4.937   6.832
 2462SOL    HW2 8286   1.995   4.938   6.724
 2463SOL     OW 8287   5.914   1.769   0.033
 2463SOL    HW1 8288   5.950   1.807   0.118
 2463SOL    HW2 8289   5.936   1.672   0.027
 2464SOL     OW 8290   1.998   3.271   2.898
 2464SOL    HW1 8291   2.025   3.321   2.980
 2464SOL    HW2 8292   2.060   3.293   2.823
 2465SOL     OW 8293   0.711   6.758   6.634
 2465SOL    HW1 8294   0.638   6.737   6.570
 2465SOL    HW2 8295   0.675   6.813   6.709
 2466SOL     OW 8296   1.933   1.414   2.975
 2466SOL    HW1 8297   1.984   1.375   2.899
 2466SOL    HW2 8298   1.911   1.509   2.956
 2467SOL     OW 8299   5.066   1.648   5.236
 2467SOL    HW1 8300   5.105   1.600   5.157
 2467SOL    HW2 8301   4.985   1.700   5.207
 2468SOL     OW 8302   4.324   6.727   1.256
 2468SOL    HW1 8303   4.366   6.690   1.173
 2468SOL    HW2 8304   4.353   6.672   1.334
 2469SOL     OW 8305   3.987   3.366   4.536
 2469SOL    HW1 8306   3.925   3.436   4.570
 2469SOL    HW2 8307   4.071   3.366   4.591
 2470SOL     OW 8308   3.864   4.691   5.582
 2470SOL    HW1 8309   3.834   4.607   5.626
 2470SOL    HW2 8310   3.908   4.670   5.495
 2471SOL     OW 8311   3.469   5.865   0.176
 2471SOL    HW1 8312   3.383   5.908   0.148
 2471SOL    HW2 8313   3.537   5.878   0.104
 2472SOL     OW 8314   5.033   2.223   3.374
 2472SOL    HW1 8315   5.017   2.315   3.410
 2472SOL    HW2 8316   5.056   2.229   3.277
 2473SOL     OW 8317   1.031   3.966   4.855
 2473SOL    HW1 8318   0.978   3.959   4.771
 2473SOL    HW2 8319   0.968   3.973   4.933
 2474SOL     OW 8320   0.110   5.932   1.497
 2474SOL    HW1 8321   0.118   5.832   1.495
 2474SOL    HW2 8322   0.015   5.959   1.482
 2475SOL     OW 8323   4.205   0.771   2.558
 2475SOL    HW1 8324   4.140   0.761   2.483
 2475SOL    HW2 8325   4.281   0.707   2.545
 2476SOL     OW 8326   5.854   1.163   2.620
 2476SOL    HW1 8327   5.813   1.081   2.661
 2476SOL    HW2 8328   5.858   1.236   2.689
 2477SOL     OW 8329   4.051   1.030   2.875
 2477SOL    HW1 8330   4.116   1.092   2.919
 2477SOL    HW2 8331   3.960   1.043   2.913
 2478SOL     OW 8332   6.361   1.775   1.316
 2478SOL    HW1 8333   6.428   1.760   1.388
 2478SOL    HW2 8334   6.272   1.793   1.358
 2479SOL     OW 8335   1.094   2.591   2.481
 2479SOL    HW1 8336   1.191   2.573   2.501
 2479SOL    HW2 8337   1.085   2.621   2.386
 2480SOL     OW 8338   4.585   4.537   0.818
 2480SOL    HW1 8339   4.529   4.485   0.754
 2480SOL    HW2 8340   4.611   4.478   0.895
 2481SOL     OW 8341   4.117   6.463   0.600
 2481SOL    HW1 8342   4.115   6.456   0.699
 2481SOL    HW2 8343   4.190   6.405   0.563
 2482SOL     OW 8344   5.369   3.564   5.809
 2482SOL    HW1 8345   5.372   3.626   5.888
 2482SOL    HW2 8346   5.298   3.495   5.824
 2483SOL     OW 8347   1.967   1.770   0.702
 2483SOL    HW1 8348   1.975   1.835   0.778
 2483SOL    HW2 8349   2.002   1.812   0.619
 2484SOL     OW 8350   3.987   0.446   6.764
 2484SOL    HW1 8351   3.944   0.373   6.711
 2484SOL    HW2 8352   3.916   0.503   6.806
 2485SOL     OW 8353   5.608   3.488   1.499
 2485SOL    HW1 8354   5.536   3.557   1.496
 2485SOL    HW2 8355   5.626   3.454   1.407
 2486SOL     OW 8356   1.950   4.693   5.098
 2486SOL    HW1 8357   1.890   4.625   5.056
 2486SOL    HW2 8358   1.997   4.745   5.026
 2487SOL     OW 8359   4.355   6.214   0.272
 2487SOL    HW1 8360   4.255   6.215   0.262
 2487SOL    HW2 8361   4.396   6.171   0.192
 2488SOL     OW 8362   1.384   4.228   2.083
 2488SOL    HW1 8363   1.368   4.295   2.155
 2488SOL    HW2 8364   1.472   4.247   2.039
 2489SOL     OW 8365   1.096   6.684   4.176
 2489SOL    HW1 8366   1.142   6.633   4.103
 2489SOL    HW2 8367   1.062   6.771   4.139
 2490SOL     OW 8368   6.920   5.463   1.457
 2490SOL    HW1 8369   6.917   5.413   1.543
 2490SOL    HW2 8370   6.830   5.504   1.439
 2491SOL     OW 8371   2.305   4.695   7.015
 2491SOL    HW1 8372   2.308   4.712   0.096
 2491SOL    HW2 8373   2.355   4.767   6.968
 2492SOL     OW 8374   4.900   3.447   0.856
 2492SOL    HW1 8375   4.908   3.494   0.943
 2492SOL    HW2 8376   4.910   3.349   0.870
 2493SOL     OW 8377   5.412   0.238   2.158
 2493SOL    HW1 8378   5.333   0.297   2.175
 2493SOL    HW2 8379   5.428   0.179   2.237
 2494SOL     OW 8380   5.390   4.874   2.667
 2494SOL    HW1 8381   5.454   4.824   2.609
 2494SOL    HW2 8382   5.317   4.812   2.697
 2495SOL     OW 8383   4.956   6.766   4.325
 2495SOL    HW1 8384   4.900   6.849   4.320
 2495SOL    HW2 8385   4.897   6.687   4.340
 2496SOL     OW 8386   0.291   2.338   5.946
 2496SOL    HW1 8387   0.245   2.391   6.017
 2496SOL    HW2 8388   0.257   2.243   5.949
 2497SOL     OW 8389   0.327   0.346   0.512
 2497SOL    HW1 8390   0.252   0.318   0.572
 2497SOL    HW2 8391   0.401   0.384   0.567
 2498SOL     OW 8392   2.829   2.287   4.261
 2498SOL    HW1 8393   2.779   2.242   4.334
 2498SOL    HW2 8394   2.781   2.371   4.234
 2499SOL     OW 8395   6.106   2.215   2.066
 2499SOL    HW1 8396   6.106   2.230   1.967
 2499SOL    HW2 8397   6.017   2.237   2.104
 2500SOL     OW 8398   4.291   4.268   6.507
 2500SOL    HW1 8399   4.330   4.238   6.594
 2500SOL    HW2 8400   4.270   4.189   6.451
 2501SOL     OW 8401   5.655   5.209   0.446
 2501SOL    HW1 8402   5.754   5.194   0.446
 2501SOL    HW2 8403   5.607   5.121   0.454
 2502SOL     OW 8404   0.979   0.443   3.304
 2502SOL    HW1 8405   0.973   0.459   3.206
 2502SOL    HW2 8406   0.954   0.349   3.325
 2503SOL     OW 8407   2.322   6.313   4.508
 2503SOL    HW1 8408   2.290   6.396   4.553
 2503SOL    HW2 8409   2.327   6.239   4.575
 2504SOL     OW 8410   3.618   5.562   4.785
 2504SOL    HW1 8411   3.608   5.577   4.687
 2504SOL    HW2 8412   3.533   5.526   4.823
 2505SOL     OW 8413   0.706   6.549   3.349
 2505SOL    HW1 8414   0.702   6.556   3.448
 2505SOL    HW2 8415   0.776   6.481   3.323
 2506SOL     OW 8416   5.859   3.842   5.935
 2506SOL    HW1 8417   5.813   3.764   5.978
 2506SOL    HW2 8418   5.813   3.864   5.849
 2507SOL     OW 8419   6.940   3.662   0.617
 2507SOL    HW1 8420   6.899   3.709   0.695
 2507SOL    HW2 8421   6.992   3.728   0.562
 2508SOL     OW 8422   2.557   1.645   3.688
 2508SOL    HW1 8423   2.597   1.734   3.669
 2508SOL    HW2 8424   2.508   1.613   3.606
 2509SOL     OW 8425   6.897   3.581   1.007
 2509SOL    HW1 8426   6.988   3.583   0.965
 2509SOL    HW2 8427   6.864   3.487   1.010
 2510SOL     OW 8428   2.920   5.022   1.086
 2510SOL    HW1 8429   2.857   5.012   1.010
 2510SOL    HW2 8430   2.959   5.114   1.086
 2511SOL     OW 8431   4.037   2.275   4.490
 2511SOL    HW1 8432   3.948   2.253   4.450
 2511SOL    HW2 8433   4.047   2.228   4.578
 2512SOL     OW 8434   5.399   3.532   5.312
 2512SOL    HW1 8435   5.379   3.436   5.290
 2512SOL    HW2 8436   5.315   3.585   5.312
 2513SOL     OW 8437   1.946   4.165   5.280
 2513SOL    HW1 8438   1.900   4.227   5.344
 2513SOL    HW2 8439   1.905   4.074   5.286
 2514SOL     OW 8440   6.981   3.202   5.072
 2514SOL    HW1 8441   0.060   3.200   5.047
 2514SOL    HW2 8442   6.937   3.281   5.030
 2515SOL     OW 8443   1.673   6.918   0.842
 2515SOL    HW1 8444   1.613   6.859   0.896
 2515SOL    HW2 8445   1.628   6.943   0.757
 2516SOL     OW 8446   5.909   2.335   2.574
 2516SOL    HW1 8447   5.829   2.308   2.520
 2516SOL    HW2 8448   5.927   2.265   2.644
 2517SOL     OW 8449   1.377   6.395   5.812
 2517SOL    HW1 8450   1.374   6.354   5.903
 2517SOL    HW2 8451   1.463   6.444   5.800
 2518SOL     OW 8452   1.481   4.788   6.844
 2518SOL    HW1 8453   1.451   4.714   6.904
 2518SOL    HW2 8454   1.464   4.876   6.888
 2519SOL     OW 8455   4.135   6.594   2.612
 2519SOL    HW1 8456   4.182   6.632   2.691
 2519SOL    HW2 8457   4.154   6.496   2.605
 2520SOL     OW 8458   3.148   1.634   0.257
 2520SOL    HW1 8459   3.116   1.692   0.332
 2520SOL    HW2 8460   3.080   1.636   0.183
 2521SOL     OW 8461   2.088   1.084   5.344
 2521SOL    HW1 8462   1.999   1.078   5.389
 2521SOL    HW2 8463   2.079   1.133   5.258
 2522SOL     OW 8464   0.443   2.839   5.170
 2522SOL    HW1 8465   0.514   2.906   5.189
 2522SOL    HW2 8466   0.441   2.819   5.072
 2523SOL     OW 8467   0.437   3.350   1.597
 2523SOL    HW1 8468   0.365   3.302   1.547
 2523SOL    HW2 8469   0.506   3.384   1.532
 2524SOL     OW 8470   0.894   5.964   4.725
 2524SOL    HW1 8471   0.971   6.002   4.674
 2524SOL    HW2 8472   0.893   5.865   4.715
 2525SOL     OW 8473   1.111   2.589   5.955
 2525SOL    HW1 8474   1.119   2.535   6.039
 2525SOL    HW2 8475   1.028   2.564   5.907
 2526SOL     OW 8476   0.862   4.706   6.721
 2526SOL    HW1 8477   0.876   4.607   6.733
 2526SOL    HW2 8478   0.884   4.731   6.627
 2527SOL     OW 8479   5.547   5.571   4.848
 2527SOL    HW1 8480   5.519   5.661   4.815
 2527SOL    HW2 8481   5.473   5.506   4.834
 2528SOL     OW 8482   5.770   4.609   0.404
 2528SOL    HW1 8483   5.792   4.612   0.306
 2528SOL    HW2 8484   5.672   4.596   0.416
 2529SOL     OW 8485   6.495   6.465   6.583
 2529SOL    HW1 8486   6.579   6.420   6.612
 2529SOL    HW2 8487   6.468   6.431   6.493
 2530SOL     OW 8488   2.530   6.334   5.396
 2530SOL    HW1 8489   2.559   6.412   5.340
 2530SOL    HW2 8490   2.609   6.298   5.445
 2531SOL     OW 8491   5.175   6.172   4.324
 2531SOL    HW1 8492   5.165   6.073   4.329
 2531SOL    HW2 8493   5.198   6.199   4.231
 2532SOL     OW 8494   0.427   5.944   0.563
 2532SOL    HW1 8495   0.505   5.882   0.569
 2532SOL    HW2 8496   0.457   6.033   0.529
 2533SOL     OW 8497   3.121   6.560   4.173
 2533SOL    HW1 8498   3.077   6.518   4.253
 2533SOL    HW2 8499   3.209   6.598   4.201
 2534SOL     OW 8500   3.521   0.930   3.076
 2534SOL    HW1 8501   3.426   0.904   3.089
 2534SOL    HW2 8502   3.529   0.995   3.001
 2535SOL     OW 8503   3.539   2.402   5.352
 2535SOL    HW1 8504   3.456   2.376   5.403
 2535SOL    HW2 8505   3.532   2.498   5.325
 2536SOL     OW 8506   1.500   2.296   5.262
 2536SOL    HW1 8507   1.536   2.205   5.283
 2536SOL    HW2 8508   1.402   2.290   5.244
 2537SOL     OW 8509   3.911   0.206   6.608
 2537SOL    HW1 8510   3.922   0.229   6.512
 2537SOL    HW2 8511   3.883   0.110   6.616
 2538SOL     OW 8512   0.893   4.260   3.869
 2538SOL    HW1 8513   0.825   4.192   3.896
 2538SOL    HW2 8514   0.928   4.306   3.951
 2539SOL     OW 8515   5.469   1.244   4.952
 2539SOL    HW1 8516   5.515   1.327   4.981
 2539SOL    HW2 8517   5.520   1.164   4.984
 2540SOL     OW 8518   4.075   1.881   2.659
 2540SOL    HW1 8519   4.100   1.826   2.739
 2540SOL    HW2 8520   3.989   1.928   2.676
 2541SOL     OW 8521   2.489   0.195   5.535
 2541SOL    HW1 8522   2.485   0.160   5.629
 2541SOL    HW2 8523   2.424   0.144   5.478
 2542SOL     OW 8524   3.610   1.034   6.226
 2542SOL    HW1 8525   3.701   1.065   6.252
 2542SOL    HW2 8526   3.567   1.104   6.168
 2543SOL     OW 8527   1.592   1.105   3.441
 2543SOL    HW1 8528   1.677   1.134   3.485
 2543SOL    HW2 8529   1.588   1.143   3.348
 2544SOL     OW 8530   0.474   6.479   1.991
 2544SOL    HW1 8531   0.482   6.556   1.929
 2544SOL    HW2 8532   0.561   6.465   2.039
 2545SOL     OW 8533   1.466   6.979   1.433
 2545SOL    HW1 8534   1.376   7.013   1.459
 2545SOL    HW2 8535   1.456   6.893   1.383
 2546SOL     OW 8536   0.432   1.501   1.525
 2546SOL    HW1 8537   0.477   1.524   1.439
 2546SOL    HW2 8538   0.486   1.537   1.601
 2547SOL     OW 8539   6.325   5.314   0.581
 2547SOL    HW1 8540   6.269   5.338   0.661
 2547SOL    HW2 8541   6.328   5.215   0.571
 2548SOL     OW 8542   1.204   6.686   6.118
 2548SOL    HW1 8543   1.291   6.677   6.070
 2548SOL    HW2 8544   1.209   6.762   6.182
 2549SOL     OW 8545   2.073   0.758   0.449
 2549SOL    HW1 8546   2.102   0.705   0.529
 2549SOL    HW2 8547   2.022   0.839   0.480
 2550SOL     OW 8548   0.000   0.335   6.619
 2550SOL    HW1 8549   0.031   0.393   6.543
 2550SOL    HW2 8550   6.965   0.259   6.583
 2551SOL     OW 8551   3.310   5.113   0.505
 2551SOL    HW1 8552   3.407   5.129   0.524
 2551SOL    HW2 8553   3.275   5.184   0.443
 2552SOL     OW 8554   2.047   5.337   5.533
 2552SOL    HW1 8555   2.075   5.394   5.610
 2552SOL    HW2 8556   2.118   5.269   5.515
 2553SOL     OW 8557   5.119   3.094   5.457
 2553SOL    HW1 8558   5.218   3.101   5.471
 2553SOL    HW2 8559   5.085   3.181   5.421
 2554SOL     OW 8560   1.916   6.451   0.557
 2554SOL    HW1 8561   1.955   6.417   0.643
 2554SOL    HW2 8562   1.842   6.515   0.577
 2555SOL     OW 8563   5.889   6.674   5.466
 2555SOL    HW1 8564   5.849   6.743   5.527
 2555SOL    HW2 8565   5.858   6.691   5.372
 2556SOL     OW 8566   4.256   5.771   0.698
 2556SOL    HW1 8567   4.260   5.720   0.613
 2556SOL    HW2 8568   4.167   5.758   0.741
 2557SOL     OW 8569   2.525   3.820   6.970
 2557SOL    HW1 8570   2.465   3.855   0.024
 2557SOL    HW2 8571   2.539   3.722   6.982
 2558SOL     OW 8572   5.283   2.037   4.231
 2558SOL    HW1 8573   5.195   2.075   4.259
 2558SOL    HW2 8574   5.291   1.943   4.265
 2559SOL     OW 8575   6.706   3.749   4.108
 2559SOL    HW1 8576   6.756   3.687   4.047
 2559SOL    HW2 8577   6.652   3.695   4.173
 2560SOL     OW 8578   5.549   3.446   4.534
 2560SOL    HW1 8579   5.479   3.511   4.503
 2560SOL    HW2 8580   5.571   3.382   4.460
 2561SOL     OW 8581   3.380   6.217   5.223
 2561SOL    HW1 8582   3.371   6.288   5.293
 2561SOL    HW2 8583   3.333   6.246   5.140
 2562SOL     OW 8584   1.936   5.148   2.308
 2562SOL    HW1 8585   1.999   5.071   2.322
 2562SOL    HW2 8586   1.986   5.225   2.269
 2563SOL     OW 8587   3.880   2.631   0.311
 2563SOL    HW1 8588   3.843   2.571   0.239
 2563SOL    HW2 8589   3.973   2.658   0.287
 2564SOL     OW 8590   2.093   6.459   5.931
 2564SOL    HW1 8591   2.186   6.421   5.937
 2564SOL    HW2 8592   2.060   6.450   5.837
 2565SOL     OW 8593   0.965   0.773   6.561
 2565SOL    HW1 8594   0.920   0.841   6.504
 2565SOL    HW2 8595   1.064   0.782   6.553
 2566SOL     OW 8596   3.172   6.618   1.143
 2566SOL    HW1 8597   3.139   6.690   1.204
 2566SOL    HW2 8598   3.249   6.653   1.089
 2567SOL     OW 8599   0.858   1.109   1.043
 2567SOL    HW1 8600   0.889   1.201   1.065
 2567SOL    HW2 8601   0.842   1.102   0.945
 2568SOL     OW 8602   4.670   6.700   0.477
 2568SOL    HW1 8603   4.583   6.671   0.517
 2568SOL    HW2 8604   4.652   6.748   0.391
 2569SOL     OW 8605   3.060   1.333   1.366
 2569SOL    HW1 8606   3.020   1.251   1.409
 2569SOL    HW2 8607   3.109   1.306   1.284
 2570SOL     OW 8608   5.393   0.341   6.229
 2570SOL    HW1 8609   5.340   0.311   6.308
 2570SOL    HW2 8610   5.363   0.289   6.148
 2571SOL     OW 8611   2.405   4.606   5.785
 2571SOL    HW1 8612   2.328   4.620   5.723
 2571SOL    HW2 8613   2.440   4.512   5.773
 2572SOL     OW 8614   2.460   4.910   6.937
 2572SOL    HW1 8615   2.451   5.006   6.909
 2572SOL    HW2 8616   2.514   4.860   6.869
 2573SOL     OW 8617   6.766   2.520   1.900
 2573SOL    HW1 8618   6.687   2.530   1.839
 2573SOL    HW2 8619   6.834   2.460   1.857
 2574SOL     OW 8620   6.465   3.586   0.195
 2574SOL    HW1 8621   6.476   3.509   0.133
 2574SOL    HW2 8622   6.369   3.594   0.222
 2575SOL     OW 8623   5.567   4.862   0.633
 2575SOL    HW1 8624   5.602   4.829   0.721
 2575SOL    HW2 8625   5.500   4.935   0.650
 2576SOL     OW 8626   3.893   6.447   4.439
 2576SOL    HW1 8627   3.992   6.455   4.437
 2576SOL    HW2 8628   3.866   6.354   4.413
 2577SOL     OW 8629   4.503   6.655   2.079
 2577SOL    HW1 8630   4.413   6.655   2.037
 2577SOL    HW2 8631   4.498   6.616   2.171
 2578SOL     OW 8632   4.921   1.262   4.940
 2578SOL    HW1 8633   4.970   1.315   5.009
 2578SOL    HW2 8634   4.904   1.320   4.860
 2579SOL     OW 8635   1.495   6.246   3.440
 2579SOL    HW1 8636   1.420   6.298   3.400
 2579SOL    HW2 8637   1.577   6.255   3.384
 2580SOL     OW 8638   2.716   3.695   6.426
 2580SOL    HW1 8639   2.773   3.647   6.359
 2580SOL    HW2 8640   2.661   3.765   6.380
 2581SOL     OW 8641   0.811   5.172   1.171
 2581SOL    HW1 8642   0.747   5.249   1.166
 2581SOL    HW2 8643   0.829   5.137   1.079
 2582SOL     OW 8644   0.675   4.144   2.213
 2582SOL    HW1 8645   0.674   4.203   2.133
 2582SOL    HW2 8646   0.610   4.069   2.200
 2583SOL     OW 8647   0.782   1.491   0.426
 2583SOL    HW1 8648   0.699   1.446   0.392
 2583SOL    HW2 8649   0.827   1.538   0.350
 2584SOL     OW 8650   4.451   5.108   6.493
 2584SOL    HW1 8651   4.534   5.128   6.546
 2584SOL    HW2 8652   4.390   5.188   6.495
 2585SOL     OW 8653   4.235   2.690   6.789
 2585SOL    HW1 8654   4.327   2.727   6.795
 2585SOL    HW2 8655   4.204   2.660   6.879
 2586SOL     OW 8656   3.513   1.484   3.087
 2586SOL    HW1 8657   3.533   1.393   3.123
 2586SOL    HW2 8658   3.419   1.486   3.051
 2587SOL     OW 8659   0.205   0.635   3.473
 2587SOL    HW1 8660   0.107   0.639   3.453
 2587SOL    HW2 8661   0.250   0.577   3.406
 2588SOL     OW 8662   4.930   0.949   6.679
 2588SOL    HW1 8663   5.027   0.975   6.679
 2588SOL    HW2 8664   4.896   0.946   6.585
 2589SOL     OW 8665   0.853   6.437   6.094
 2589SOL    HW1 8666   0.935   6.448   6.037
 2589SOL    HW2 8667   0.820   6.343   6.088
 2590SOL     OW 8668   3.496   5.703   1.057
 2590SOL    HW1 8669   3.536   5.614   1.035
 2590SOL    HW2 8670   3.561   5.756   1.112
 2591SOL     OW 8671   0.057   4.666   3.140
 2591SOL    HW1 8672   0.085   4.660   3.044
 2591SOL    HW2 8673   6.990   4.718   3.146
 2592SOL     OW 8674   3.682   5.937   0.005
 2592SOL    HW1 8675   3.688   5.997   6.944
 2592SOL    HW2 8676   3.751   5.864   7.016
 2593SOL     OW 8677   3.621   5.480   0.985
 2593SOL    HW1 8678   3.609   5.451   0.890
 2593SOL    HW2 8679   3.715   5.461   1.014
 2594SOL     OW 8680   2.302   4.344   6.533
 2594SOL    HW1 8681   2.223   4.402   6.552
 2594SOL    HW2 8682   2.317   4.282   6.610
 2595SOL     OW 8683   6.715   1.041   3.929
 2595SOL    HW1 8684   6.621   1.073   3.943
 2595SOL    HW2 8685   6.765   1.109   3.876
 2596SOL     OW 8686   3.360   1.920   1.570
 2596SOL    HW1 8687   3.371   1.918   1.669
 2596SOL    HW2 8688   3.446   1.891   1.527
 2597SOL     OW 8689   1.234   4.922   5.679
 2597SOL    HW1 8690   1.333   4.925   5.663
 2597SOL    HW2 8691   1.210   4.834   5.720
 2598SOL     OW 8692   6.720   1.147   3.100
 2598SOL    HW1 8693   6.811   1.162   3.138
 2598SOL    HW2 8694   6.654   1.140   3.174
 2599SOL     OW 8695   1.763   6.348   1.279
 2599SOL    HW1 8696   1.734   6.326   1.373
 2599SOL    HW2 8697   1.729   6.277   1.217
 2600SOL     OW 8698   5.552   2.657   4.639
 2600SOL    HW1 8699   5.580   2.753   4.632
 2600SOL    HW2 8700   5.458   2.647   4.608
 2601SOL     OW 8701   1.701   1.518   2.234
 2601SOL    HW1 8702   1.709   1.458   2.313
 2601SOL    HW2 8703   1.624   1.580   2.246
 2602SOL     OW 8704   1.320   4.977   5.025
 2602SOL    HW1 8705   1.287   5.040   5.095
 2602SOL    HW2 8706   1.407   4.937   5.054
 2603SOL     OW 8707   3.148   1.226   4.098
 2603SOL    HW1 8708   3.146   1.260   4.004
 2603SOL    HW2 8709   3.159   1.302   4.162
 2604SOL     OW 8710   5.182   2.069   2.375
 2604SOL    HW1 8711   5.092   2.029   2.359
 2604SOL    HW2 8712   5.172   2.164   2.404
 2605SOL     OW 8713   2.110   3.553   3.685
 2605SOL    HW1 8714   2.153   3.491   3.619
 2605SOL    HW2 8715   2.087   3.639   3.639
 2606SOL     OW 8716   5.577   5.002   1.725
 2606SOL    HW1 8717   5.672   5.024   1.744
 2606SOL    HW2 8718   5.520   5.028   1.803
 2607SOL     OW 8719   1.195   1.526   2.011
 2607SOL    HW1 8720   1.287   1.516   1.974
 2607SOL    HW2 8721   1.128   1.508   1.939
 2608SOL     OW 8722   4.397   4.529   0.084
 2608SOL    HW1 8723   4.445   4.613   0.107
 2608SOL    HW2 8724   4.435   4.490   0.000
 2609SOL     OW 8725   6.209   0.871   1.704
 2609SOL    HW1 8726   6.307   0.887   1.691
 2609SOL    HW2 8727   6.184   0.891   1.799
 2610SOL     OW 8728   0.603   4.469   4.671
 2610SOL    HW1 8729   0.519   4.428   4.708
 2610SOL    HW2 8730   0.681   4.412   4.695
 2611SOL     OW 8731   4.165   6.159   1.074
 2611SOL    HW1 8732   4.258   6.137   1.043
 2611SOL    HW2 8733   4.099   6.120   1.010
 2612SOL     OW 8734   6.232   0.036   4.596
 2612SOL    HW1 8735   6.317   0.023   4.545
 2612SOL    HW2 8736   6.202   0.131   4.588
 2613SOL     OW 8737   2.222   5.716   6.295
 2613SOL    HW1 8738   2.191   5.801   6.253
 2613SOL    HW2 8739   2.143   5.666   6.331
 2614SOL     OW 8740   6.385   1.838   0.515
 2614SOL    HW1 8741   6.360   1.931   0.542
 2614SOL    HW2 8742   6.449   1.800   0.581
 2615SOL     OW 8743   0.926   2.850   2.618
 2615SOL    HW1 8744   0.992   2.775   2.617
 2615SOL    HW2 8745   0.890   2.862   2.710
 2616SOL     OW 8746   2.751   2.734   5.769
 2616SOL    HW1 8747   2.690   2.804   5.806
 2616SOL    HW2 8748   2.781   2.760   5.677
 2617SOL     OW 8749   4.437   0.048   0.921
 2617SOL    HW1 8750   4.480   0.131   0.884
 2617SOL    HW2 8751   4.362   0.020   0.862
 2618SOL     OW 8752   6.599   0.352   3.549
 2618SOL    HW1 8753   6.512   0.320   3.585
 2618SOL    HW2 8754   6.649   0.401   3.620
 2619SOL     OW 8755   4.600   1.965   2.034
 2619SOL    HW1 8756   4.527   1.934   1.974
 2619SOL    HW2 8757   4.572   2.050   2.080
 2620SOL     OW 8758   6.400   6.374   3.725
 2620SOL    HW1 8759   6.477   6.364   3.662
 2620SOL    HW2 8760   6.435   6.387   3.818
 2621SOL     OW 8761   1.145   5.100   1.705
 2621SOL    HW1 8762   1.079   5.052   1.764
 2621SOL    HW2 8763   1.224   5.128   1.759
 2622SOL     OW 8764   1.281   3.833   5.803
 2622SOL    HW1 8765   1.308   3.875   5.889
 2622SOL    HW2 8766   1.277   3.902   5.731
 2623SOL     OW 8767   0.334   0.685   5.548
 2623SOL    HW1 8768   0.243   0.720   5.567
 2623SOL    HW2 8769   0.334   0.585   5.556
 2624SOL     OW 8770   0.525   1.214   4.576
 2624SOL    HW1 8771   0.443   1.157   4.563
 2624SOL    HW2 8772   0.582   1.208   4.495
 2625SOL     OW 8773   2.474   3.716   5.413
 2625SOL    HW1 8774   2.562   3.670   5.420
 2625SOL    HW2 8775   2.401   3.651   5.432
 2626SOL     OW 8776   6.834   0.507   6.294
 2626SOL    HW1 8777   6.778   0.588   6.313
 2626SOL    HW2 8778   6.850   0.500   6.195
 2627SOL     OW 8779   0.979   1.282   6.152
 2627SOL    HW1 8780   0.942   1.333   6.074
 2627SOL    HW2 8781   0.910   1.219   6.187
 2628SOL     OW 8782   2.182   3.990   5.762
 2628SOL    HW1 8783   2.179   3.956   5.856
 2628SOL    HW2 8784   2.089   4.004   5.728
 2629SOL     OW 8785   3.909   3.049   2.094
 2629SOL    HW1 8786   3.876   2.954   2.094
 2629SOL    HW2 8787   3.979   3.059   2.024
 2630SOL     OW 8788   3.450   1.682   2.554
 2630SOL    HW1 8789   3.497   1.768   2.534
 2630SOL    HW2 8790   3.515   1.617   2.592
 2631SOL     OW 8791   5.269   0.583   6.133
 2631SOL    HW1 8792   5.308   0.516   6.196
 2631SOL    HW2 8793   5.235   0.662   6.184
 2632SOL     OW 8794   5.176   2.991   0.668
 2632SOL    HW1 8795   5.087   2.958   0.637
 2632SOL    HW2 8796   5.163   3.071   0.727
 2633SOL     OW 8797   0.647   1.636   4.360
 2633SOL    HW1 8798   0.629   1.691   4.441
 2633SOL    HW2 8799   0.572   1.646   4.295
 2634SOL     OW 8800   0.434   5.508   3.717
 2634SOL    HW1 8801   0.380   5.452   3.654
 2634SOL    HW2 8802   0.502   5.450   3.762
 2635SOL     OW 8803   0.231   5.986   4.593
 2635SOL    HW1 8804   0.151   5.948   4.638
 2635SOL    HW2 8805   0.205   6.064   4.537
 2636SOL     OW 8806   4.265   0.290   5.768
 2636SOL    HW1 8807   4.306   0.348   5.698
 2636SOL    HW2 8808   4.294   0.195   5.754
 2637SOL     OW 8809   6.373   2.151   3.380
 2637SOL    HW1 8810   6.456   2.188   3.338
 2637SOL    HW2 8811   6.295   2.168   3.319
 2638SOL     OW 8812   6.901   6.942   4.301
 2638SOL    HW1 8813   6.812   6.936   4.255
 2638SOL    HW2 8814   6.972   6.963   4.233
 2639SOL     OW 8815   0.417   6.196   0.452
 2639SOL    HW1 8816   0.440   6.196   0.354
 2639SOL    HW2 8817   0.346   6.264   0.469
 2640SOL     OW 8818   6.499   6.542   5.298
 2640SOL    HW1 8819   6.556   6.565   5.219
 2640SOL    HW2 8820   6.546   6.474   5.354
 2641SOL     OW 8821   5.784   2.726   2.281
 2641SOL    HW1 8822   5.813   2.807   2.332
 2641SOL    HW2 8823   5.864   2.675   2.251
 2642SOL     OW 8824   6.172   0.589   3.816
 2642SOL    HW1 8825   6.256   0.610   3.766
 2642SOL    HW2 8826   6.100   0.566   3.750
 2643SOL     OW 8827   1.469   3.661   3.586
 2643SOL    HW1 8828   1.408   3.669   3.507
 2643SOL    HW2 8829   1.425   3.700   3.667
 2644SOL     OW 8830   5.190   5.325   4.586
 2644SOL    HW1 8831   5.181   5.402   4.524
 2644SOL    HW2 8832   5.100   5.284   4.601
 2645SOL     OW 8833   4.419   6.118   3.369
 2645SOL    HW1 8834   4.495   6.094   3.310
 2645SOL    HW2 8835   4.397   6.215   3.357
 2646SOL     OW 8836   6.402   1.938   0.035
 2646SOL    HW1 8837   6.445   1.889   0.111
 2646SOL    HW2 8838   6.370   2.027   0.067
 2647SOL     OW 8839   6.357   0.087   1.834
 2647SOL    HW1 8840   6.426   0.030   1.880
 2647SOL    HW2 8841   6.363   0.073   1.736
 2648SOL     OW 8842   0.801   6.486   4.106
 2648SOL    HW1 8843   0.837   6.485   4.199
 2648SOL    HW2 8844   0.873   6.457   4.042
 2649SOL     OW 8845   6.610   3.477   1.168
 2649SOL    HW1 8846   6.622   3.576   1.170
 2649SOL    HW2 8847   6.650   3.440   1.085
 2650SOL     OW 8848   1.718   4.803   3.642
 2650SOL    HW1 8849   1.753   4.755   3.561
 2650SOL    HW2 8850   1.795   4.825   3.703
 2651SOL     OW 8851   2.699   1.805   1.224
 2651SOL    HW1 8852   2.601   1.792   1.215
 2651SOL    HW2 8853   2.747   1.726   1.185
 2652SOL     OW 8854   4.525   3.098   5.400
 2652SOL    HW1 8855   4.549   3.193   5.377
 2652SOL    HW2 8856   4.603   3.039   5.384
 2653SOL     OW 8857   4.415   6.548   5.878
 2653SOL    HW1 8858   4.353   6.551   5.800
 2653SOL    HW2 8859   4.480   6.625   5.873
 2654SOL     OW 8860   4.453   6.939   1.622
 2654SOL    HW1 8861   4.534   6.963   1.676
 2654SOL    HW2 8862   4.476   6.936   1.525
 2655SOL     OW 8863   5.576   6.004   3.786
 2655SOL    HW1 8864   5.587   6.057   3.870
 2655SOL    HW2 8865   5.527   6.059   3.718
 2656SOL     OW 8866   3.710   5.072   4.565
 2656SOL    HW1 8867   3.681   4.997   4.505
 2656SOL    HW2 8868   3.800   5.051   4.603
 2657SOL     OW 8869   1.712   4.469   6.416
 2657SOL    HW1 8870   1.753   4.515   6.337
 2657SOL    HW2 8871   1.738   4.517   6.500
 2658SOL     OW 8872   5.281   4.828   0.132
 2658SOL    HW1 8873   5.206   4.763   0.146
 2658SOL    HW2 8874   5.249   4.903   0.074
 2659SOL     OW 8875   4.977   3.268   4.858
 2659SOL    HW1 8876   4.897   3.218   4.892
 2659SOL    HW2 8877   4.982   3.258   4.759
 2660SOL     OW 8878   1.433   0.575   1.744
 2660SOL    HW1 8879   1.517   0.525   1.721
 2660SOL    HW2 8880   1.374   0.516   1.799
 2661SOL     OW 8881   2.234   6.868   1.151
 2661SOL    HW1 8882   2.254   6.809   1.073
 2661SOL    HW2 8883   2.235   6.813   1.235
 2662SOL     OW 8884   3.298   6.466   5.073
 2662SOL    HW1 8885   3.345   6.501   4.992
 2662SOL    HW2 8886   3.220   6.410   5.044
 2663SOL     OW 8887   4.047   4.071   6.864
 2663SOL    HW1 8888   4.145   4.082   6.879
 2663SOL    HW2 8889   3.998   4.142   6.913
 2664SOL     OW 8890   4.548   2.940   5.614
 2664SOL    HW1 8891   4.459   2.896   5.617
 2664SOL    HW2 8892   4.547   3.014   5.547
 2665SOL     OW 8893   2.781   3.351   5.359
 2665SOL    HW1 8894   2.816   3.358   5.265
 2665SOL    HW2 8895   2.710   3.281   5.363
 2666SOL     OW 8896   1.233   4.874   1.583
 2666SOL    HW1 8897   1.219   4.787   1.631
 2666SOL    HW2 8898   1.196   4.948   1.639
 2667SOL     OW 8899   1.412   5.493   4.032
 2667SOL    HW1 8900   1.509   5.489   4.058
 2667SOL    HW2 8901   1.356   5.505   4.114
 2668SOL     OW 8902   6.488   2.617   4.828
 2668SOL    HW1 8903   6.540   2.591   4.746
 2668SOL    HW2 8904   6.547   2.608   4.908
 2669SOL     OW 8905   2.856   5.249   5.878
 2669SOL    HW1 8906   2.949   5.276   5.899
 2669SOL    HW2 8907   2.829   5.287   5.789
 2670SOL     OW 8908   6.093   3.134   4.806
 2670SOL    HW1 8909   6.061   3.084   4.887
 2670SOL    HW2 8910   6.193   3.129   4.802
 2671SOL     OW 8911   4.184   5.315   0.210
 2671SOL    HW1 8912   4.169   5.312   0.111
 2671SOL    HW2 8913   4.279   5.288   0.229
 2672SOL     OW 8914   2.962   6.007   0.738
 2672SOL    HW1 8915   2.922   6.057   0.662
 2672SOL    HW2 8916   2.923   5.915   0.742
 2673SOL     OW 8917   6.251   1.909   1.758
 2673SOL    HW1 8918   6.297   1.984   1.711
 2673SOL    HW2 8919   6.157   1.936   1.781
 2674SOL     OW 8920   1.176   4.549   4.407
 2674SOL    HW1 8921   1.259   4.511   4.366
 2674SOL    HW2 8922   1.105   4.559   4.337
 2675SOL     OW 8923   6.495   6.293   4.010
 2675SOL    HW1 8924   6.483   6.380   4.058
 2675SOL    HW2 8925   6.461   6.219   4.067
 2676SOL     OW 8926   3.383   2.991   1.153
 2676SOL    HW1 8927   3.358   2.911   1.208
 2676SOL    HW2 8928   3.376   3.073   1.209
 2677SOL     OW 8929   2.858   3.844   0.839
 2677SOL    HW1 8930   2.814   3.757   0.819
 2677SOL    HW2 8931   2.799   3.919   0.808
 2678SOL     OW 8932   0.568   2.579   2.872
 2678SOL    HW1 8933   0.651   2.634   2.885
 2678SOL    HW2 8934   0.563   2.548   2.777
 2679SOL     OW 8935   1.997   4.972   2.564
 2679SOL    HW1 8936   1.961   4.915   2.491
 2679SOL    HW2 8937   1.933   5.046   2.583
 2680SOL     OW 8938   1.331   1.910   0.884
 2680SOL    HW1 8939   1.364   1.818   0.864
 2680SOL    HW2 8940   1.394   1.978   0.846
 2681SOL     OW 8941   1.276   2.401   4.769
 2681SOL    HW1 8942   1.188   2.442   4.793
 2681SOL    HW2 8943   1.265   2.343   4.688
 2682SOL     OW 8944   4.784   4.072   3.994
 2682SOL    HW1 8945   4.876   4.098   3.963
 2682SOL    HW2 8946   4.747   4.145   4.052
 2683SOL     OW 8947   2.715   4.801   2.072
 2683SOL    HW1 8948   2.656   4.814   1.993
 2683SOL    HW2 8949   2.789   4.738   2.048
 2684SOL     OW 8950   4.431   6.921   2.824
 2684SOL    HW1 8951   4.529   6.934   2.816
 2684SOL    HW2 8952   4.386   6.944   2.738
 2685SOL     OW 8953   5.782   5.821   5.752
 2685SOL    HW1 8954   5.820   5.873   5.676
 2685SOL    HW2 8955   5.847   5.751   5.781
 2686SOL     OW 8956   1.433   1.855   5.477
 2686SOL    HW1 8957   1.406   1.847   5.573
 2686SOL    HW2 8958   1.352   1.844   5.419
 2687SOL     OW 8959   4.501   5.635   0.890
 2687SOL    HW1 8960   4.457   5.667   0.806
 2687SOL    HW2 8961   4.437   5.641   0.966
 2688SOL     OW 8962   2.608   2.393   0.256
 2688SOL    HW1 8963   2.547   2.450   0.312
 2688SOL    HW2 8964   2.676   2.451   0.211
 2689SOL     OW 8965   6.863   3.456   2.022
 2689SOL    HW1 8966   6.820   3.502   1.944
 2689SOL    HW2 8967   6.955   3.425   1.997
 2690SOL     OW 8968   3.153   3.373   5.433
 2690SOL    HW1 8969   3.220   3.357   5.506
 2690SOL    HW2 8970   3.083   3.302   5.435
 2691SOL     OW 8971   0.214   5.182   3.780
 2691SOL    HW1 8972   0.139   5.117   3.765
 2691SOL    HW2 8973   0.301   5.133   3.781
 2692SOL     OW 8974   2.773   6.711   3.580
 2692SOL    HW1 8975   2.708   6.690   3.652
 2692SOL    HW2 8976   2.862   6.670   3.601
 2693SOL     OW 8977   2.699   4.676   4.071
 2693SOL    HW1 8978   2.724   4.677   3.974
 2693SOL    HW2 8979   2.603   4.701   4.081
 2694SOL     OW 8980   3.950   0.001   3.180
 2694SOL    HW1 8981   3.953   6.951   3.107
 2694SOL    HW2 8982   3.972   6.976   3.267
 2695SOL     OW 8983   5.981   0.494   3.097
 2695SOL    HW1 8984   6.005   0.398   3.112
 2695SOL    HW2 8985   6.033   0.551   3.160
 2696SOL     OW 8986   4.041   3.396   5.695
 2696SOL    HW1 8987   4.005   3.305   5.717
 2696SOL    HW2 8988   4.088   3.433   5.775
 2697SOL     OW 8989   3.615   1.798   3.384
 2697SOL    HW1 8990   3.693   1.835   3.334
 2697SOL    HW2 8991   3.532   1.808   3.329
 2698SOL     OW 8992   1.560   4.142   0.514
 2698SOL    HW1 8993   1.624   4.089   0.459
 2698SOL    HW2 8994   1.496   4.190   0.455
 2699SOL     OW 8995   2.792   5.749   1.251
 2699SOL    HW1 8996   2.856   5.825   1.239
 2699SOL    HW2 8997   2.834   5.679   1.309
 2700SOL     OW 8998   2.838   2.248   0.992
 2700SOL    HW1 8999   2.793   2.284   0.910
 2700SOL    HW2 9000   2.793   2.163   1.020
 2701SOL     OW 9001   4.787   2.053   6.129
 2701SOL    HW1 9002   4.856   2.098   6.186
 2701SOL    HW2 9003   4.748   1.975   6.179
 2702SOL     OW 9004   1.023   2.631   3.524
 2702SOL    HW1 9005   0.970   2.701   3.476
 2702SOL    HW2 9006   0.964   2.583   3.589
 2703SOL     OW 9007   0.743   5.994   0.904
 2703SOL    HW1 9008   0.646   5.971   0.897
 2703SOL    HW2 9009   0.753   6.087   0.938
 2704SOL     OW 9010   6.175   6.258   2.174
 2704SOL    HW1 9011   6.216   6.179   2.220
 2704SOL    HW2 9012   6.081   6.238   2.150
 2705SOL     OW 9013   6.334   0.253   5.010
 2705SOL    HW1 9014   6.406   0.278   4.946
 2705SOL    HW2 9015   6.365   0.179   5.069
 2706SOL     OW 9016   6.439   4.761   3.320
 2706SOL    HW1 9017   6.508   4.696   3.286
 2706SOL    HW2 9018   6.418   4.827   3.248
 2707SOL     OW 9019   3.643   6.999   4.260
 2707SOL    HW1 9020   3.717   6.959   4.206
 2707SOL    HW2 9021   3.648   6.965   4.354
 2708SOL     OW 9022   6.439   2.690   1.235
 2708SOL    HW1 9023   6.531   2.707   1.201
 2708SOL    HW2 9024   6.401   2.775   1.273
 2709SOL     OW 9025   5.227   6.893   0.174
 2709SOL    HW1 9026   5.202   6.983   0.212
 2709SOL    HW2 9027   5.313   6.902   0.123
 2710SOL     OW 9028   0.982   3.151   3.999
 2710SOL    HW1 9029   0.963   3.241   4.039
 2710SOL    HW2 9030   0.984   3.158   3.899
 2711SOL     OW 9031   2.710   0.858   3.758
 2711SOL    HW1 9032   2.636   0.862   3.826
 2711SOL    HW2 9033   2.679   0.806   3.679
 2712SOL     OW 9034   2.675   5.341   1.786
 2712SOL    HW1 9035   2.586   5.349   1.741
 2712SOL    HW2 9036   2.676   5.398   1.868
 2713SOL     OW 9037   2.555   3.637   6.132
 2713SOL    HW1 9038   2.609   3.554   6.138
 2713SOL    HW2 9039   2.609   3.709   6.090
 2714SOL     OW 9040   4.113   2.749   0.178
 2714SOL    HW1 9041   4.120   2.839   0.135
 2714SOL    HW2 9042   4.143   2.679   0.113
 2715SOL     OW 9043   5.137   2.384   0.697
 2715SOL    HW1 9044   5.167   2.479   0.702
 2715SOL    HW2 9045   5.165   2.336   0.780
 2716SOL     OW 9046   5.182   3.459   4.195
 2716SOL    HW1 9047   5.112   3.447   4.124
 2716SOL    HW2 9048   5.138   3.485   4.281
 2717SOL     OW 9049   0.711   6.831   1.980
 2717SOL    HW1 9050   0.795   6.882   1.963
 2717SOL    HW2 9051   0.708   6.805   2.077
 2718SOL     OW 9052   1.240   1.358   5.484
 2718SOL    HW1 9053   1.238   1.258   5.481
 2718SOL    HW2 9054   1.333   1.390   5.472
 2719SOL     OW 9055   0.809   5.202   1.443
 2719SOL    HW1 9056   0.834   5.209   1.346
 2719SOL    HW2 9057   0.788   5.106   1.464
 2720SOL     OW 9058   1.338   0.297   2.314
 2720SOL    HW1 9059   1.336   0.268   2.409
 2720SOL    HW2 9060   1.269   0.368   2.299
 2721SOL     OW 9061   2.925   6.358   3.113
 2721SOL    HW1 9062   3.020   6.340   3.087
 2721SOL    HW2 9063   2.905   6.311   3.199
 2722SOL     OW 9064   5.605   5.214   6.984
 2722SOL    HW1 9065   5.681   5.264   0.007
 2722SOL    HW2 9066   5.622   5.116   6.994
 2723SOL     OW 9067   1.284   5.746   6.654
 2723SOL    HW1 9068   1.199   5.735   6.704
 2723SOL    HW2 9069   1.290   5.678   6.581
 2724SOL     OW 9070   1.577   6.514   6.810
 2724SOL    HW1 9071   1.624   6.426   6.813
 2724SOL    HW2 9072   1.491   6.504   6.760
 2725SOL     OW 9073   5.135   4.801   5.059
 2725SOL    HW1 9074   5.059   4.738   5.074
 2725SOL    HW2 9075   5.221   4.755   5.079
 2726SOL     OW 9076   0.308   2.548   2.036
 2726SOL    HW1 9077   0.375   2.509   2.098
 2726SOL    HW2 9078   0.324   2.646   2.025
 2727SOL     OW 9079   0.468   4.521   4.412
 2727SOL    HW1 9080   0.507   4.457   4.478
 2727SOL    HW2 9081   0.512   4.610   4.423
 2728SOL     OW 9082   4.393   6.430   5.505
 2728SOL    HW1 9083   4.364   6.445   5.411
 2728SOL    HW2 9084   4.492   6.432   5.511
 2729SOL     OW 9085   7.010   6.551   0.626
 2729SOL    HW1 9086   6.931   6.490   0.621
 2729SOL    HW2 9087   0.042   6.535   0.711
 2730SOL     OW 9088   1.520   5.899   1.855
 2730SOL    HW1 9089   1.425   5.930   1.855
 2730SOL    HW2 9090   1.525   5.810   1.900
 2731SOL     OW 9091   3.053   3.518   3.240
 2731SOL    HW1 9092   3.018   3.447   3.180
 2731SOL    HW2 9093   3.024   3.608   3.206
 2732SOL     OW 9094   5.610   1.843   0.854
 2732SOL    HW1 9095   5.569   1.906   0.788
 2732SOL    HW2 9096   5.616   1.752   0.814
 2733SOL     OW 9097   6.497   1.670   5.133
 2733SOL    HW1 9098   6.442   1.591   5.107
 2733SOL    HW2 9099   6.457   1.753   5.093
 2734SOL     OW 9100   2.918   5.461   1.117
 2734SOL    HW1 9101   2.977   5.386   1.146
 2734SOL    HW2 9102   2.960   5.509   1.040
 2735SOL     OW 9103   1.539   2.563   2.010
 2735SOL    HW1 9104   1.469   2.545   1.941
 2735SOL    HW2 9105   1.504   2.535   2.100
 2736SOL     OW 9106   6.926   6.267   4.642
 2736SOL    HW1 9107   6.982   6.209   4.701
 2736SOL    HW2 9108   6.984   6.307   4.570
 2737SOL     OW 9109   2.963   3.972   5.559
 2737SOL    HW1 9110   2.879   4.010   5.520
 2737SOL    HW2 9111   2.972   3.876   5.532
 2738SOL     OW 9112   5.272   6.086   2.009
 2738SOL    HW1 9113   5.185   6.067   2.054
 2738SOL    HW2 9114   5.320   6.001   1.990
 2739SOL     OW 9115   1.113   4.888   0.505
 2739SOL    HW1 9116   1.105   4.835   0.589
 2739SOL    HW2 9117   1.186   4.955   0.515
 2740SOL     OW 9118   6.550   4.661   1.428
 2740SOL    HW1 9119   6.568   4.616   1.340
 2740SOL    HW2 9120   6.516   4.594   1.493
 2741SOL     OW 9121   6.654   0.645   4.172
 2741SOL    HW1 9122   6.724   0.581   4.141
 2741SOL    HW2 9123   6.602   0.678   4.093
 2742SOL     OW 9124   1.776   4.858   0.557
 2742SOL    HW1 9125   1.800   4.911   0.638
 2742SOL    HW2 9126   1.856   4.808   0.525
 2743SOL     OW 9127   0.478   4.092   2.555
 2743SOL    HW1 9128   0.520   4.174   2.516
 2743SOL    HW2 9129   0.395   4.117   2.603
 2744SOL     OW 9130   4.722   2.597   0.519
 2744SOL    HW1 9131   4.783   2.562   0.448
 2744SOL    HW2 9132   4.632   2.555   0.508
 2745SOL     OW 9133   0.078   0.991   4.692
 2745SOL    HW1 9134   0.037   0.966   4.604
 2745SOL    HW2 9135   0.043   1.081   4.720
 2746SOL     OW 9136   0.923   2.700   4.938
 2746SOL    HW1 9137   1.016   2.665   4.952
 2746SOL    HW2 9138   0.869   2.682   5.020
 2747SOL     OW 9139   4.924   5.339   6.870
 2747SOL    HW1 9140   4.957   5.292   6.952
 2747SOL    HW2 9141   4.964   5.431   6.866
 2748SOL     OW 9142   4.300   1.551   2.766
 2748SOL    HW1 9143   4.236   1.575   2.692
 2748SOL    HW2 9144   4.347   1.466   2.744
 2749SOL     OW 9145   6.679   4.591   0.884
 2749SOL    HW1 9146   6.655   4.512   0.827
 2749SOL    HW2 9147   6.744   4.649   0.835
 2750SOL     OW 9148   2.054   4.105   1.555
 2750SOL    HW1 9149   1.960   4.138   1.544
 2750SOL    HW2 9150   2.056   4.006   1.542
 2751SOL     OW 9151   1.265   2.924   1.363
 2751SOL    HW1 9152   1.303   2.912   1.454
 2751SOL    HW2 9153   1.336   2.952   1.299
 2752SOL     OW 9154   3.454   4.673   5.686
 2752SOL    HW1 9155   3.524   4.737   5.656
 2752SOL    HW2 9156   3.435   4.686   5.783
 2753SOL     OW 9157   6.921   6.684   4.739
 2753SOL    HW1 9158   6.967   6.703   4.652
 2753SOL    HW2 9159   6.984   6.704   4.814
 2754SOL     OW 9160   0.478   0.182   1.017
 2754SOL    HW1 9161   0.516   0.236   1.091
 2754SOL    HW2 9162   0.551   0.148   0.958
 2755SOL     OW 9163   3.634   6.667   2.278
 2755SOL    HW1 9164   3.679   6.581   2.302
 2755SOL    HW2 9165   3.702   6.730   2.239
 2756SOL     OW 9166   5.238   5.440   6.910
 2756SOL    HW1 9167   5.243   5.475   7.004
 2756SOL    HW2 9168   5.183   5.501   6.854
 2757SOL     OW 9169   2.381   6.362   0.129
 2757SOL    HW1 9170   2.355   6.293   0.197
 2757SOL    HW2 9171   2.312   6.365   0.056
 2758SOL     OW 9172   3.799   6.830   3.795
 2758SOL    HW1 9173   3.875   6.789   3.745
 2758SOL    HW2 9174   3.810   6.929   3.796
 2759SOL     OW 9175   5.372   6.429   5.827
 2759SOL    HW1 9176   5.292   6.379   5.858
 2759SOL    HW2 9177   5.452   6.403   5.882
 2760SOL     OW 9178   0.029   6.276   1.817
 2760SOL    HW1 9179   0.046   6.274   1.719
 2760SOL    HW2 9180   0.115   6.258   1.866
 2761SOL     OW 9181   1.839   5.259   4.530
 2761SOL    HW1 9182   1.784   5.187   4.572
 2761SOL    HW2 9183   1.933   5.227   4.521
 2762SOL     OW 9184   1.530   1.110   5.562
 2762SOL    HW1 9185   1.576   1.192   5.594
 2762SOL    HW2 9186   1.542   1.101   5.463
 2763SOL     OW 9187   4.905   1.693   3.651
 2763SOL    HW1 9188   4.842   1.709   3.727
 2763SOL    HW2 9189   4.959   1.776   3.634
 2764SOL     OW 9190   5.921   1.195   1.037
 2764SOL    HW1 9191   5.861   1.115   1.034
 2764SOL    HW2 9192   5.881   1.265   1.096
 2765SOL     OW 9193   5.740   0.105   1.096
 2765SOL    HW1 9194   5.652   0.060   1.110
 2765SOL    HW2 9195   5.811   0.036   1.086
 2766SOL     OW 9196   4.333   2.092   0.228
 2766SOL    HW1 9197   4.340   1.993   0.225
 2766SOL    HW2 9198   4.298   2.120   0.318
 2767SOL     OW 9199   0.212   5.299   0.286
 2767SOL    HW1 9200   0.303   5.323   0.252
 2767SOL    HW2 9201   0.146   5.369   0.258
 2768SOL     OW 9202   4.688   0.472   1.099
 2768SOL    HW1 9203   4.787   0.484   1.110
 2768SOL    HW2 9204   4.667   0.456   1.003
 2769SOL     OW 9205   0.547   3.938   4.400
 2769SOL    HW1 9206   0.638   3.967   4.429
 2769SOL    HW2 9207   0.529   3.972   4.307
 2770SOL     OW 9208   3.115   5.372   5.867
 2770SOL    HW1 9209   3.154   5.404   5.781
 2770SOL    HW2 9210   3.068   5.447   5.913
 2771SOL     OW 9211   6.510   0.837   3.206
 2771SOL    HW1 9212   6.480   0.765   3.269
 2771SOL    HW2 9213   6.496   0.927   3.248
 2772SOL     OW 9214   4.324   1.765   0.907
 2772SOL    HW1 9215   4.255   1.779   0.979
 2772SOL    HW2 9216   4.414   1.788   0.943
 2773SOL     OW 9217   5.917   2.160   5.476
 2773SOL    HW1 9218   5.890   2.254   5.451
 2773SOL    HW2 9219   6.012   2.161   5.509
 2774SOL     OW 9220   5.842   3.663   3.069
 2774SOL    HW1 9221   5.822   3.634   2.976
 2774SOL    HW2 9222   5.811   3.757   3.083
 2775SOL     OW 9223   6.647   5.621   6.959
 2775SOL    HW1 9224   6.726   5.562   6.943
 2775SOL    HW2 9225   6.587   5.580   0.008
 2776SOL     OW 9226   4.299   5.067   5.770
 2776SOL    HW1 9227   4.257   5.050   5.859
 2776SOL    HW2 9228   4.228   5.064   5.699
 2777SOL     OW 9229   2.785   1.262   2.018
 2777SOL    HW1 9230   2.700   1.241   1.970
 2777SOL    HW2 9231   2.813   1.355   1.996
 2778SOL     OW 9232   1.161   0.261   5.543
 2778SOL    HW1 9233   1.223   0.245   5.466
 2778SOL    HW2 9234   1.163   0.183   5.605
 2779SOL     OW 9235   4.783   6.198   0.949
 2779SOL    HW1 9236   4.736   6.262   0.889
 2779SOL    HW2 9237   4.755   6.214   1.044
 2780SOL     OW 9238   6.353   6.400   6.872
 2780SOL    HW1 9239   6.343   6.408   6.971
 2780SOL    HW2 9240   6.265   6.375   6.832
 2781SOL     OW 9241   5.172   6.401   1.715
 2781SOL    HW1 9242   5.232   6.398   1.635
 2781SOL    HW2 9243   5.079   6.426   1.686
 2782SOL     OW 9244   4.027   2.002   5.495
 2782SOL    HW1 9245   3.967   1.947   5.553
 2782SOL    HW2 9246   4.072   1.944   5.427
 2783SOL     OW 9247   5.018   4.223   3.920
 2783SOL    HW1 9248   5.034   4.310   3.872
 2783SOL    HW2 9249   5.093   4.161   3.901
 2784SOL     OW 9250   3.863   1.261   0.894
 2784SOL    HW1 9251   3.909   1.303   0.972
 2784SOL    HW2 9252   3.921   1.268   0.813
 2785SOL     OW 9253   5.091   1.010   0.650
 2785SOL    HW1 9254   5.112   0.913   0.660
 2785SOL    HW2 9255   5.013   1.034   0.708
 2786SOL     OW 9256   4.892   6.073   1.951
 2786SOL    HW1 9257   4.792   6.063   1.955
 2786SOL    HW2 9258   4.934   6.009   2.015
 2787SOL     OW 9259   3.446   1.960   6.650
 2787SOL    HW1 9260   3.393   2.044   6.654
 2787SOL    HW2 9261   3.386   1.882   6.669
 2788SOL     OW 9262   2.448   4.549   6.032
 2788SOL    HW1 9263   2.407   4.460   6.051
 2788SOL    HW2 9264   2.441   4.569   5.934
 2789SOL     OW 9265   2.252   2.221   3.256
 2789SOL    HW1 9266   2.258   2.275   3.172
 2789SOL    HW2 9267   2.211   2.277   3.329
 2790SOL     OW 9268   3.206   5.935   2.048
 2790SOL    HW1 9269   3.149   5.883   2.112
 2790SOL    HW2 9270   3.148   5.987   1.986
 2791SOL     OW 9271   1.239   3.838   3.325
 2791SOL    HW1 9272   1.240   3.872   3.419
 2791SOL    HW2 9273   1.147   3.850   3.286
 2792SOL     OW 9274   1.487   6.798   4.115
 2792SOL    HW1 9275   1.488   6.796   4.015
 2792SOL    HW2 9276   1.482   6.893   4.147
 2793SOL     OW 9277   5.058   3.527   2.900
 2793SOL    HW1 9278   5.010   3.588   2.838
 2793SOL    HW2 9279   5.035   3.551   2.995
 2794SOL     OW 9280   0.335   3.136   0.231
 2794SOL    HW1 9281   0.303   3.182   0.148
 2794SOL    HW2 9282   0.272   3.063   0.255
 2795SOL     OW 9283   1.893   2.711   0.574
 2795SOL    HW1 9284   1.991   2.726   0.560
 2795SOL    HW2 9285   1.863   2.633   0.519
 2796SOL     OW 9286   6.658   5.529   2.366
 2796SOL    HW1 9287   6.647   5.577   2.453
 2796SOL    HW2 9288   6.733   5.571   2.314
 2797SOL     OW 9289   5.862   5.245   4.593
 2797SOL    HW1 9290   5.845   5.219   4.688
 2797SOL    HW2 9291   5.955   5.280   4.584
 2798SOL     OW 9292   0.558   5.460   1.823
 2798SOL    HW1 9293   0.621   5.451   1.746
 2798SOL    HW2 9294   0.606   5.501   1.901
 2799SOL     OW 9295   6.548   6.749   7.013
 2799SOL    HW1 9296   6.466   6.766   6.958
 2799SOL    HW2 9297   6.521   6.734   0.089
 2800SOL     OW 9298   4.494   5.306   0.186
 2800SOL    HW1 9299   4.505   5.226   0.244
 2800SOL    HW2 9300   4.579   5.324   0.137
 2801SOL     OW 9301   5.821   5.257   5.103
 2801SOL    HW1 9302   5.739   5.257   5.046
 2801SOL    HW2 9303   5.810   5.324   5.177
 2802SOL     OW 9304   4.564   1.448   5.428
 2802SOL    HW1 9305   4.555   1.490   5.337
 2802SOL    HW2 9306   4.621   1.507   5.486
 2803SOL     OW 9307   3.757   5.870   6.200
 2803SOL    HW1 9308   3.781   5.952   6.148
 2803SOL    HW2 9309   3.658   5.860   6.205
 2804SOL     OW 9310   0.095   4.681   4.969
 2804SOL    HW1 9311   0.088   4.584   4.946
 2804SOL    HW2 9312   0.188   4.713   4.949
 2805SOL     OW 9313   5.196   3.106   1.842
 2805SOL    HW1 9314   5.144   3.028   1.877
 2805SOL    HW2 9315   5.152   3.191   1.871
 2806SOL     OW 9316   6.379   5.092   5.154
 2806SOL    HW1 9317   6.417   5.008   5.192
 2806SOL    HW2 9318   6.346   5.150   5.229
 2807SOL     OW 9319   4.922   5.521   3.245
 2807SOL    HW1 9320   4.967   5.575   3.315
 2807SOL    HW2 9321   4.949   5.555   3.155
 2808SOL     OW 9322   5.169   3.810   2.602
 2808SOL    HW1 9323   5.217   3.897   2.615
 2808SOL    HW2 9324   5.226   3.748   2.547
 2809SOL     OW 9325   6.102   3.067   1.203
 2809SOL    HW1 9326   6.043   3.105   1.132
 2809SOL    HW2 9327   6.106   2.968   1.194
 2810SOL     OW 9328   3.131   5.899   4.141
 2810SOL    HW1 9329   3.111   5.908   4.238
 2810SOL    HW2 9330   3.230   5.891   4.127
 2811SOL     OW 9331   1.318   1.357   3.431
 2811SOL    HW1 9332   1.413   1.326   3.431
 2811SOL    HW2 9333   1.262   1.292   3.483
 2812SOL     OW 9334   4.968   3.993   6.713
 2812SOL    HW1 9335   4.925   3.915   6.759
 2812SOL    HW2 9336   4.946   3.991   6.616
 2813SOL     OW 9337   6.532   6.899   5.825
 2813SOL    HW1 9338   6.557   6.905   5.729
 2813SOL    HW2 9339   6.464   6.826   5.838
 2814SOL     OW 9340   4.554   3.373   6.235
 2814SOL    HW1 9341   4.639   3.368   6.287
 2814SOL    HW2 9342   4.568   3.433   6.156
 2815SOL     OW 9343   5.967   0.433   5.717
 2815SOL    HW1 9344   6.043   0.433   5.781
 2815SOL    HW2 9345   5.882   0.454   5.766
 2816SOL     OW 9346   6.575   5.502   3.760
 2816SOL    HW1 9347   6.519   5.419   3.753
 2816SOL    HW2 9348   6.671   5.476   3.765
 2817SOL     OW 9349   2.770   6.988   1.210
 2817SOL    HW1 9350   2.762   6.914   1.277
 2817SOL    HW2 9351   2.768   6.950   1.118
 2818SOL     OW 9352   0.047   0.401   0.640
 2818SOL    HW1 9353   0.025   0.304   0.629
 2818SOL    HW2 9354   0.005   0.453   0.565
 2819SOL     OW 9355   0.604   1.213   1.307
 2819SOL    HW1 9356   0.601   1.133   1.248
 2819SOL    HW2 9357   0.515   1.224   1.352
 2820SOL     OW 9358   0.840   2.290   2.988
 2820SOL    HW1 9359   0.768   2.298   2.918
 2820SOL    HW2 9360   0.800   2.307   3.078
 2821SOL     OW 9361   3.949   3.425   0.202
 2821SOL    HW1 9362   4.042   3.401   0.231
 2821SOL    HW2 9363   3.914   3.356   0.140
 2822SOL     OW 9364   4.360   1.363   0.052
 2822SOL    HW1 9365   4.290   1.413   0.102
 2822SOL    HW2 9366   4.450   1.403   0.071
 2823SOL     OW 9367   4.323   6.299   0.541
 2823SOL    HW1 9368   4.318   6.231   0.614
 2823SOL    HW2 9369   4.326   6.253   0.453
 2824SOL     OW 9370   2.685   0.982   3.368
 2824SOL    HW1 9371   2.608   1.042   3.389
 2824SOL    HW2 9372   2.747   1.029   3.305
 2825SOL     OW 9373   6.622   0.303   6.749
 2825SOL    HW1 9374   6.636   0.350   6.662
 2825SOL    HW2 9375   6.710   0.289   6.794
 2826SOL     OW 9376   4.742   0.753   6.839
 2826SOL    HW1 9377   4.763   0.764   6.936
 2826SOL    HW2 9378   4.799   0.815   6.785
 2827SOL     OW 9379   6.954   0.400   5.407
 2827SOL    HW1 9380   6.904   0.325   5.366
 2827SOL    HW2 9381   6.890   0.472   5.435
 2828SOL     OW 9382   3.241   0.663   0.006
 2828SOL    HW1 9383   3.158   0.616   6.995
 2828SOL    HW2 9384   3.222   0.760   0.020
 2829SOL     OW 9385   3.525   3.535   5.012
 2829SOL    HW1 9386   3.575   3.560   5.095
 2829SOL    HW2 9387   3.455   3.603   4.994
 2830SOL     OW 9388   1.493   3.045   5.806
 2830SOL    HW1 9389   1.464   3.139   5.791
 2830SOL    HW2 9390   1.587   3.044   5.839
 2831SOL     OW 9391   0.711   5.784   3.868
 2831SOL    HW1 9392   0.789   5.781   3.805
 2831SOL    HW2 9393   0.628   5.805   3.817
 2832SOL     OW 9394   1.330   1.606   2.515
 2832SOL    HW1 9395   1.343   1.625   2.613
 2832SOL    HW2 9396   1.253   1.543   2.504
 2833SOL     OW 9397   4.084   1.847   2.193
 2833SOL    HW1 9398   4.082   1.946   2.204
 2833SOL    HW2 9399   4.001   1.816   2.147
 2834SOL     OW 9400   3.412   5.446   6.561
 2834SOL    HW1 9401   3.392   5.471   6.467
 2834SOL    HW2 9402   3.370   5.358   6.582
 2835SOL     OW 9403   6.984   0.376   1.563
 2835SOL    HW1 9404   6.966   0.413   1.654
 2835SOL    HW2 9405   6.945   0.436   1.494
 2836SOL     OW 9406   5.804   0.513   2.521
 2836SOL    HW1 9407   5.902   0.527   2.514
 2836SOL    HW2 9408   5.785   0.418   2.546
 2837SOL     OW 9409   5.675   4.199   2.925
 2837SOL    HW1 9410   5.700   4.143   2.846
 2837SOL    HW2 9411   5.725   4.167   3.006
 2838SOL     OW 9412   2.219   4.459   1.067
 2838SOL    HW1 9413   2.135   4.461   1.014
 2838SOL    HW2 9414   2.294   4.428   1.010
 2839SOL     OW 9415   0.047   1.558   1.678
 2839SOL    HW1 9416   0.030   1.657   1.678
 2839SOL    HW2 9417   0.064   1.527   1.584
 2840SOL     OW 9418   2.133   0.803   3.420
 2840SOL    HW1 9419   2.108   0.713   3.454
 2840SOL    HW2 9420   2.158   0.862   3.496
 2841SOL     OW 9421   0.199   0.957   6.081
 2841SOL    HW1 9422   0.191   0.959   5.981
 2841SOL    HW2 9423   0.183   0.864   6.114
 2842SOL     OW 9424   6.789   3.993   3.932
 2842SOL    HW1 9425   6.754   4.079   3.970
 2842SOL    HW2 9426   6.741   3.916   3.973
 2843SOL     OW 9427   2.673   1.449   3.197
 2843SOL    HW1 9428   2.587   1.397   3.205
 2843SOL    HW2 9429   2.723   1.444   3.283
 2844SOL     OW 9430   0.141   5.392   7.012
 2844SOL    HW1 9431   0.057   5.366   0.042
 2844SOL    HW2 9432   0.193   5.456   0.050
 2845SOL     OW 9433   6.342   2.943   1.338
 2845SOL    HW1 9434   6.297   2.920   1.424
 2845SOL    HW2 9435   6.299   3.024   1.298
 2846SOL     OW 9436   4.309   0.916   6.283
 2846SOL    HW1 9437   4.275   0.823   6.296
 2846SOL    HW2 9438   4.278   0.975   6.357
 2847SOL     OW 9439   5.034   3.734   3.807
 2847SOL    HW1 9440   4.971   3.810   3.796
 2847SOL    HW2 9441   5.113   3.746   3.746
 2848SOL     OW 9442   1.236   3.199   5.589
 2848SOL    HW1 9443   1.301   3.246   5.529
 2848SOL    HW2 9444   1.198   3.264   5.655
 2849SOL     OW 9445   4.040   6.086   0.835
 2849SOL    HW1 9446   3.957   6.068   0.783
 2849SOL    HW2 9447   4.118   6.089   0.772
 2850SOL     OW 9448   2.149   0.510   1.926
 2850SOL    HW1 9449   2.166   0.606   1.905
 2850SOL    HW2 9450   2.097   0.504   2.012
 2851SOL     OW 9451   6.509   1.604   5.614
 2851SOL    HW1 9452   6.598   1.624   5.572
 2851SOL    HW2 9453   6.437   1.610   5.545
 2852SOL     OW 9454   5.605   4.941   6.956
 2852SOL    HW1 9455   5.586   4.849   6.989
 2852SOL    HW2 9456   5.586   4.946   6.858
 2853SOL     OW 9457   1.535   2.928   6.799
 2853SOL    HW1 9458   1.539   2.934   6.898
 2853SOL    HW2 9459   1.586   3.004   6.759
 2854SOL     OW 9460   4.070   1.445   5.197
 2854SOL    HW1 9461   4.057   1.380   5.272
 2854SOL    HW2 9462   3.987   1.499   5.185
 2855SOL     OW 9463   2.854   1.595   6.853
 2855SOL    HW1 9464   2.878   1.527   6.784
 2855SOL    HW2 9465   2.776   1.649   6.822
 2856SOL     OW 9466   1.254   3.088   6.090
 2856SOL    HW1 9467   1.262   3.186   6.107
 2856SOL    HW2 9468   1.326   3.059   6.028
 2857SOL     OW 9469   2.909   1.937   2.153
 2857SOL    HW1 9470   2.958   2.004   2.207
 2857SOL    HW2 9471   2.852   1.984   2.085
 2858SOL     OW 9472   4.774   4.039   2.619
 2858SOL    HW1 9473   4.750   4.090   2.537
 2858SOL    HW2 9474   4.725   3.952   2.621
 2859SOL     OW 9475   4.520   1.807   6.749
 2859SOL    HW1 9476   4.581   1.733   6.778
 2859SOL    HW2 9477   4.565   1.861   6.678
 2860SOL     OW 9478   3.572   1.619   1.408
 2860SOL    HW1 9479   3.620   1.626   1.495
 2860SOL    HW2 9480   3.560   1.522   1.384
 2861SOL     OW 9481   3.865   3.854   5.341
 2861SOL    HW1 9482   3.889   3.758   5.328
 2861SOL    HW2 9483   3.813   3.886   5.262
 2862SOL     OW 9484   5.263   1.584   2.828
 2862SOL    HW1 9485   5.265   1.509   2.894
 2862SOL    HW2 9486   5.327   1.656   2.858
 2863SOL     OW 9487   5.213   1.046   6.659
 2863SOL    HW1 9488   5.270   0.970   6.689
 2863SOL    HW2 9489   5.232   1.127   6.716
 2864SOL     OW 9490   4.325   1.582   1.616
 2864SOL    HW1 9491   4.352   1.492   1.580
 2864SOL    HW2 9492   4.367   1.595   1.706
 2865SOL     OW 9493   4.237   4.115   6.247
 2865SOL    HW1 9494   4.308   4.078   6.187
 2865SOL    HW2 9495   4.154   4.061   6.238
 2866SOL     OW 9496   6.543   5.420   0.425
 2866SOL    HW1 9497   6.489   5.343   0.458
 2866SOL    HW2 9498   6.532   5.497   0.488
 2867SOL     OW 9499   6.075   4.162   2.685
 2867SOL    HW1 9500   6.107   4.069   2.699
 2867SOL    HW2 9501   6.102   4.194   2.594
 2868SOL     OW 9502   0.210   1.906   5.430
 2868SOL    HW1 9503   0.268   1.830   5.460
 2868SOL    HW2 9504   0.196   1.901   5.331
 2869SOL     OW 9505   6.375   0.868   2.954
 2869SOL    HW1 9506   6.409   0.869   3.048
 2869SOL    HW2 9507   6.417   0.792   2.904
 2870SOL     OW 9508   0.159   1.477   4.519
 2870SOL    HW1 9509   0.108   1.464   4.605
 2870SOL    HW2 9510   0.256   1.486   4.540
 2871SOL     OW 9511   0.202   1.876   0.230
 2871SOL    HW1 9512   0.234   1.817   0.304
 2871SOL    HW2 9513   0.181   1.967   0.267
 2872SOL     OW 9514   2.802   1.118   3.173
 2872SOL    HW1 9515   2.743   1.161   3.105
 2872SOL    HW2 9516   2.851   1.188   3.224
 2873SOL     OW 9517   0.094   4.735   2.873
 2873SOL    HW1 9518   0.114   4.673   2.796
 2873SOL    HW2 9519   0.151   4.816   2.865
 2874SOL     OW 9520   3.402   6.638   3.538
 2874SOL    HW1 9521   3.388   6.641   3.439
 2874SOL    HW2 9522   3.395   6.730   3.575
 2875SOL     OW 9523   5.145   6.902   0.493
 2875SOL    HW1 9524   5.149   6.833   0.566
 2875SOL    HW2 9525   5.161   6.858   0.405
 2876SOL     OW 9526   1.023   6.839   2.042
 2876SOL    HW1 9527   1.120   6.863   2.038
 2876SOL    HW2 9528   1.000   6.810   2.134
 2877SOL     OW 9529   3.237   2.447   5.434
 2877SOL    HW1 9530   3.243   2.427   5.336
 2877SOL    HW2 9531   3.193   2.371   5.481
 2878SOL     OW 9532   4.677   4.856   4.686
 2878SOL    HW1 9533   4.768   4.828   4.716
 2878SOL    HW2 9534   4.651   4.941   4.732
 2879SOL     OW 9535   5.199   4.935   0.705
 2879SOL    HW1 9536   5.101   4.947   0.694
 2879SOL    HW2 9537   5.232   4.865   0.642
 2880SOL     OW 9538   6.066   0.240   1.590
 2880SOL    HW1 9539   5.973   0.270   1.570
 2880SOL    HW2 9540   6.079   0.235   1.689
 2881SOL     OW 9541   5.430   5.724   6.921
 2881SOL    HW1 9542   5.475   5.812   6.930
 2881SOL    HW2 9543   5.379   5.703   7.004
 2882SOL     OW 9544   0.737   4.010   2.608
 2882SOL    HW1 9545   0.776   3.980   2.521
 2882SOL    HW2 9546   0.637   4.018   2.598
 2883SOL     OW 9547   6.079   0.280   3.682
 2883SOL    HW1 9548   5.998   0.336   3.662
 2883SOL    HW2 9549   6.051   0.185   3.695
 2884SOL     OW 9550   0.940   6.407   3.304
 2884SOL    HW1 9551   0.930   6.309   3.287
 2884SOL    HW2 9552   1.000   6.448   3.235
 2885SOL     OW 9553   0.873   3.153   2.589
 2885SOL    HW1 9554   0.916   3.167   2.500
 2885SOL    HW2 9555   0.870   3.056   2.611
 2886SOL     OW 9556   2.519   4.368   5.711
 2886SOL    HW1 9557   2.518   4.268   5.706
 2886SOL    HW2 9558   2.608   4.399   5.743
 2887SOL     OW 9559   0.737   0.501   4.597
 2887SOL    HW1 9560   0.641   0.505   4.567
 2887SOL    HW2 9561   0.765   0.590   4.632
 2888SOL     OW 9562   0.612   4.397   6.911
 2888SOL    HW1 9563   0.666   4.395   6.996
 2888SOL    HW2 9564   0.535   4.459   6.923
 2889SOL     OW 9565   1.747   0.201   1.974
 2889SOL    HW1 9566   1.820   0.168   2.034
 2889SOL    HW2 9567   1.775   0.288   1.933
 2890SOL     OW 9568   2.626   6.142   0.625
 2890SOL    HW1 9569   2.675   6.157   0.711
 2890SOL    HW2 9570   2.682   6.088   0.563
 2891SOL     OW 9571   1.196   4.372   3.483
 2891SOL    HW1 9572   1.129   4.307   3.520
 2891SOL    HW2 9573   1.184   4.379   3.384
 2892SOL     OW 9574   5.145   3.438   0.151
 2892SOL    HW1 9575   5.179   3.499   0.079
 2892SOL    HW2 9576   5.132   3.346   0.113
 2893SOL     OW 9577   0.459   6.169   4.672
 2893SOL    HW1 9578   0.537   6.175   4.610
 2893SOL    HW2 9579   0.393   6.104   4.637
 2894SOL     OW 9580   2.422   2.317   1.446
 2894SOL    HW1 9581   2.391   2.363   1.529
 2894SOL    HW2 9582   2.342   2.290   1.392
 2895SOL     OW 9583   4.433   2.209   5.836
 2895SOL    HW1 9584   4.404   2.182   5.928
 2895SOL    HW2 9585   4.506   2.278   5.843
 2896SOL     OW 9586   4.087   5.345   6.355
 2896SOL    HW1 9587   4.059   5.249   6.358
 2896SOL    HW2 9588   4.045   5.390   6.277
 2897SOL     OW 9589   3.247   4.942   3.183
 2897SOL    HW1 9590   3.327   5.002   3.181
 2897SOL    HW2 9591   3.204   4.941   3.092
 2898SOL     OW 9592   3.751   5.482   4.085
 2898SOL    HW1 9593   3.657   5.515   4.087
 2898SOL    HW2 9594   3.786   5.475   4.178
 2899SOL     OW 9595   0.607   1.979   0.664
 2899SOL    HW1 9596   0.686   2.033   0.634
 2899SOL    HW2 9597   0.602   1.895   0.611
 2900SOL     OW 9598   1.999   4.663   5.373
 2900SOL    HW1 9599   2.052   4.581   5.353
 2900SOL    HW2 9600   1.963   4.700   5.287
 2901SOL     OW 9601   2.226   6.162   3.869
 2901SOL    HW1 9602   2.208   6.132   3.963
 2901SOL    HW2 9603   2.315   6.128   3.839
 2902SOL     OW 9604   4.760   6.852   2.320
 2902SOL    HW1 9605   4.678   6.814   2.363
 2902SOL    HW2 9606   4.794   6.789   2.250
 2903SOL     OW 9607   3.955   0.699   0.729
 2903SOL    HW1 9608   4.015   0.772   0.698
 2903SOL    HW2 9609   3.861   0.733   0.736
 2904SOL     OW 9610   2.157   3.931   5.297
 2904SOL    HW1 9611   2.119   4.020   5.319
 2904SOL    HW2 9612   2.248   3.942   5.258
 2905SOL     OW 9613   1.495   2.370   3.860
 2905SOL    HW1 9614   1.447   2.433   3.800
 2905SOL    HW2 9615   1.567   2.418   3.910
 2906SOL     OW 9616   4.447   5.902   2.573
 2906SOL    HW1 9617   4.539   5.916   2.537
 2906SOL    HW2 9618   4.453   5.878   2.670
 2907SOL     OW 9619   0.740   1.715   3.711
 2907SOL    HW1 9620   0.776   1.744   3.622
 2907SOL    HW2 9621   0.816   1.694   3.772
 2908SOL     OW 9622   4.520   6.266   4.383
 2908SOL    HW1 9623   4.488   6.179   4.421
 2908SOL    HW2 9624   4.481   6.342   4.435
 2909SOL     OW 9625   1.365   6.547   3.598
 2909SOL    HW1 9626   1.285   6.508   3.643
 2909SOL    HW2 9627   1.336   6.619   3.535
 2910SOL     OW 9628   4.509   6.574   4.737
 2910SOL    HW1 9629   4.602   6.558   4.702
 2910SOL    HW2 9630   4.487   6.505   4.805
 2911SOL     OW 9631   1.483   5.296   3.562
 2911SOL    HW1 9632   1.477   5.203   3.524
 2911SOL    HW2 9633   1.422   5.304   3.640
 2912SOL     OW 9634   5.064   0.162   6.896
 2912SOL    HW1 9635   5.033   0.076   6.938
 2912SOL    HW2 9636   5.026   0.239   6.947
 2913SOL     OW 9637   2.324   4.382   3.121
 2913SOL    HW1 9638   2.387   4.392   3.198
 2913SOL    HW2 9639   2.367   4.418   3.038
 2914SOL     OW 9640   5.674   6.167   5.752
 2914SOL    HW1 9641   5.647   6.229   5.826
 2914SOL    HW2 9642   5.706   6.220   5.674
 2915SOL     OW 9643   5.892   1.837   4.810
 2915SOL    HW1 9644   5.927   1.890   4.733
 2915SOL    HW2 9645   5.872   1.899   4.886
 2916SOL     OW 9646   0.669   6.477   6.679
 2916SOL    HW1 9647   0.704   6.570   6.669
 2916SOL    HW2 9648   0.738   6.421   6.725
 2917SOL     OW 9649   3.584   6.778   2.580
 2917SOL    HW1 9650   3.512   6.710   2.593
 2917SOL    HW2 9651   3.570   6.824   2.492
 2918SOL     OW 9652   6.861   4.882   3.867
 2918SOL    HW1 9653   6.904   4.796   3.895
 2918SOL    HW2 9654   6.793   4.910   3.935
 2919SOL     OW 9655   6.398   1.320   1.044
 2919SOL    HW1 9656   6.367   1.404   1.087
 2919SOL    HW2 9657   6.379   1.324   0.946
 2920SOL     OW 9658   2.803   2.094   1.911
 2920SOL    HW1 9659   2.731   2.064   1.973
 2920SOL    HW2 9660   2.839   2.183   1.942
 2921SOL     OW 9661   1.437   0.783   3.127
 2921SOL    HW1 9662   1.402   0.852   3.063
 2921SOL    HW2 9663   1.360   0.732   3.166
 2922SOL     OW 9664   4.938   0.685   0.414
 2922SOL    HW1 9665   4.856   0.701   0.359
 2922SOL    HW2 9666   4.989   0.771   0.424
 2923SOL     OW 9667   6.724   5.208   2.103
 2923SOL    HW1 9668   6.661   5.162   2.040
 2923SOL    HW2 9669   6.673   5.270   2.162
 2924SOL     OW 9670   6.926   1.895   6.079
 2924SOL    HW1 9671   6.910   1.992   6.060
 2924SOL    HW2 9672   6.879   1.839   6.011
 2925SOL     OW 9673   4.252   1.225   2.621
 2925SOL    HW1 9674   4.308   1.178   2.689
 2925SOL    HW2 9675   4.176   1.167   2.595
 2926SOL     OW 9676   6.612   1.242   4.441
 2926SOL    HW1 9677   6.698   1.226   4.393
 2926SOL    HW2 9678   6.537   1.246   4.375
 2927SOL     OW 9679   1.047   2.309   2.473
 2927SOL    HW1 9680   1.039   2.407   2.456
 2927SOL    HW2 9681   1.143   2.281   2.463
 2928SOL     OW 9682   0.384   1.865   6.180
 2928SOL    HW1 9683   0.385   1.817   6.268
 2928SOL    HW2 9684   0.318   1.940   6.184
 2929SOL     OW 9685   0.853   1.673   6.791
 2929SOL    HW1 9686   0.910   1.753   6.773
 2929SOL    HW2 9687   0.770   1.677   6.735
 2930SOL     OW 9688   4.518   6.230   4.875
 2930SOL    HW1 9689   4.579   6.214   4.953
 2930SOL    HW2 9690   4.458   6.307   4.896
 2931SOL     OW 9691   5.553   4.689   7.012
 2931SOL    HW1 9692   5.533   4.688   0.092
 2931SOL    HW2 9693   5.467   4.686   6.961
 2932SOL     OW 9694   0.389   5.422   1.236
 2932SOL    HW1 9695   0.408   5.371   1.321
 2932SOL    HW2 9696   0.331   5.367   1.177
 2933SOL     OW 9697   6.088   4.740   3.566
 2933SOL    HW1 9698   6.131   4.709   3.481
 2933SOL    HW2 9699   6.067   4.838   3.559
 2934SOL     OW 9700   4.660   1.006   0.154
 2934SOL    HW1 9701   4.692   0.936   0.218
 2934SOL    HW2 9702   4.739   1.045   0.106
 2935SOL     OW 9703   6.457   3.116   1.060
 2935SOL    HW1 9704   6.444   3.023   1.023
 2935SOL    HW2 9705   6.544   3.152   1.028
 2936SOL     OW 9706   3.672   5.426   1.643
 2936SOL    HW1 9707   3.596   5.490   1.655
 2936SOL    HW2 9708   3.688   5.377   1.729
 2937SOL     OW 9709   4.504   4.183   0.255
 2937SOL    HW1 9710   4.425   4.168   0.314
 2937SOL    HW2 9711   4.544   4.273   0.275
 2938SOL     OW 9712   4.527   5.571   6.818
 2938SOL    HW1 9713   4.519   5.534   6.725
 2938SOL    HW2 9714   4.553   5.498   6.881
 2939SOL     OW 9715   1.159   1.080   3.817
 2939SOL    HW1 9716   1.171   1.116   3.909
 2939SOL    HW2 9717   1.243   1.032   3.788
 2940SOL     OW 9718   5.945   5.719   6.423
 2940SOL    HW1 9719   5.850   5.702   6.395
 2940SOL    HW2 9720   6.004   5.651   6.380
 2941SOL     OW 9721   1.744   3.248   4.058
 2941SOL    HW1 9722   1.837   3.285   4.064
 2941SOL    HW2 9723   1.682   3.319   4.026
 2942SOL     OW 9724   3.359   2.625   1.006
 2942SOL    HW1 9725   3.426   2.552   1.021
 2942SOL    HW2 9726   3.336   2.631   0.909
 2943SOL     OW 9727   5.109   4.672   3.111
 2943SOL    HW1 9728   5.048   4.592   3.111
 2943SOL    HW2 9729   5.056   4.754   3.088
 2944SOL     OW 9730   2.682   5.464   5.336
 2944SOL    HW1 9731   2.750   5.460   5.263
 2944SOL    HW2 9732   2.716   5.523   5.410
 2945SOL     OW 9733   3.434   4.146   3.405
 2945SOL    HW1 9734   3.510   4.190   3.358
 2945SOL    HW2 9735   3.458   4.131   3.501
 2946SOL     OW 9736   0.928   5.398   6.734
 2946SOL    HW1 9737   0.886   5.315   6.698
 2946SOL    HW2 9738   0.896   5.413   6.828
 2947SOL     OW 9739   0.360   3.635   0.190
 2947SOL    HW1 9740   0.326   3.612   0.098
 2947SOL    HW2 9741   0.453   3.599   0.200
 2948SOL     OW 9742   0.250   4.385   5.857
 2948SOL    HW1 9743   0.256   4.475   5.813
 2948SOL    HW2 9744   0.264   4.396   5.956
 2949SOL     OW 9745   2.606   5.244   0.786
 2949SOL    HW1 9746   2.534   5.194   0.737
 2949SOL    HW2 9747   2.593   5.342   0.773
 2950SOL     OW 9748   5.114   3.594   4.427
 2950SOL    HW1 9749   5.039   3.560   4.483
 2950SOL    HW2 9750   5.098   3.690   4.405
 2951SOL     OW 9751   5.855   1.686   1.036
 2951SOL    HW1 9752   5.922   1.715   1.104
 2951SOL    HW2 9753   5.871   1.735   0.950
 2952SOL     OW 9754   0.984   5.196   5.149
 2952SOL    HW1 9755   1.065   5.254   5.158
 2952SOL    HW2 9756   1.001   5.124   5.082
 2953SOL     OW 9757   5.294   3.582   3.241
 2953SOL    HW1 9758   5.382   3.623   3.217
 2953SOL    HW2 9759   5.291   3.565   3.339
 2954SOL     OW 9760   0.474   5.931   2.035
 2954SOL    HW1 9761   0.413   5.854   2.016
 2954SOL    HW2 9762   0.464   5.958   2.131
 2955SOL     OW 9763   1.002   3.586   1.708
 2955SOL    HW1 9764   1.097   3.615   1.713
 2955SOL    HW2 9765   0.956   3.632   1.632
 2956SOL     OW 9766   5.858   6.774   3.283
 2956SOL    HW1 9767   5.870   6.714   3.203
 2956SOL    HW2 9768   5.764   6.767   3.315
 2957SOL     OW 9769   6.181   3.014   2.229
 2957SOL    HW1 9770   6.164   2.947   2.301
 2957SOL    HW2 9771   6.280   3.025   2.217
 2958SOL     OW 9772   2.378   4.509   4.661
 2958SOL    HW1 9773   2.437   4.534   4.738
 2958SOL    HW2 9774   2.362   4.410   4.663
 2959SOL     OW 9775   4.941   4.578   0.611
 2959SOL    HW1 9776   4.909   4.484   0.599
 2959SOL    HW2 9777   4.875   4.629   0.667
 2960SOL     OW 9778   3.963   6.940   6.323
 2960SOL    HW1 9779   4.023   6.867   6.355
 2960SOL    HW2 9780   4.019   7.014   6.285
 2961SOL     OW 9781   4.875   3.249   3.159
 2961SOL    HW1 9782   4.930   3.209   3.232
 2961SOL    HW2 9783   4.877   3.349   3.166
 2962SOL     OW 9784   4.078   1.005   3.322
 2962SOL    HW1 9785   4.064   0.941   3.246
 2962SOL    HW2 9786   3.992   1.055   3.340
 2963SOL     OW 9787   2.489   0.673   6.423
 2963SOL    HW1 9788   2.407   0.705   6.375
 2963SOL    HW2 9789   2.517   0.584   6.386
 2964SOL     OW 9790   0.333   6.960   2.903
 2964SOL    HW1 9791   0.407   6.958   2.971
 2964SOL    HW2 9792   0.356   0.008   2.832
 2965SOL     OW 9793   6.520   1.068   5.102
 2965SOL    HW1 9794   6.579   1.014   5.042
 2965SOL    HW2 9795   6.575   1.121   5.166
 2966SOL     OW 9796   6.770   5.919   4.109
 2966SOL    HW1 9797   6.697   5.971   4.064
 2966SOL    HW2 9798   6.804   5.849   4.047
 2967SOL     OW 9799   5.883   1.349   4.903
 2967SOL    HW1 9800   5.877   1.290   4.822
 2967SOL    HW2 9801   5.813   1.322   4.969
 2968SOL     OW 9802   0.419   3.211   6.271
 2968SOL    HW1 9803   0.492   3.231   6.337
 2968SOL    HW2 9804   0.446   3.243   6.180
 2969SOL     OW 9805   5.737   0.940   4.622
 2969SOL    HW1 9806   5.770   0.887   4.544
 2969SOL    HW2 9807   5.659   0.892   4.663
 2970SOL     OW 9808   1.293   4.530   6.125
 2970SOL    HW1 9809   1.238   4.474   6.063
 2970SOL    HW2 9810   1.372   4.566   6.076
 2971SOL     OW 9811   5.632   4.104   6.275
 2971SOL    HW1 9812   5.715   4.121   6.221
 2971SOL    HW2 9813   5.654   4.111   6.372
 2972SOL     OW 9814   6.071   4.686   6.458
 2972SOL    HW1 9815   6.078   4.759   6.525
 2972SOL    HW2 9816   6.162   4.660   6.427
 2973SOL     OW 9817   5.983   1.184   4.104
 2973SOL    HW1 9818   5.976   1.220   4.010
 2973SOL    HW2 9819   5.934   1.245   4.166
 2974SOL     OW 9820   0.944   4.232   2.951
 2974SOL    HW1 9821   1.014   4.224   3.022
 2974SOL    HW2 9822   0.891   4.147   2.948
 2975SOL     OW 9823   6.722   2.337   4.895
 2975SOL    HW1 9824   6.708   2.257   4.954
 2975SOL    HW2 9825   6.683   2.418   4.938
 2976SOL     OW 9826   4.291   2.346   3.052
 2976SOL    HW1 9827   4.224   2.312   2.985
 2976SOL    HW2 9828   4.376   2.368   3.005
 2977SOL     OW 9829   2.084   0.021   3.451
 2977SOL    HW1 9830   2.077   7.013   3.355
 2977SOL    HW2 9831   2.038   0.109   3.464
 2978SOL     OW 9832   4.257   4.783   6.849
 2978SOL    HW1 9833   4.333   4.784   6.915
 2978SOL    HW2 9834   4.295   4.782   6.756
 2979SOL     OW 9835   4.830   1.216   4.304
 2979SOL    HW1 9836   4.845   1.236   4.401
 2979SOL    HW2 9837   4.839   1.300   4.250
 2980SOL     OW 9838   1.427   5.813   4.063
 2980SOL    HW1 9839   1.405   5.897   4.014
 2980SOL    HW2 9840   1.525   5.794   4.056
 2981SOL     OW 9841   1.846   0.979   6.300
 2981SOL    HW1 9842   1.827   0.911   6.229
 2981SOL    HW2 9843   1.945   0.990   6.310
 2982SOL     OW 9844   3.646   5.831   3.312
 2982SOL    HW1 9845   3.616   5.771   3.386
 2982SOL    HW2 9846   3.710   5.782   3.253
 2983SOL     OW 9847   0.961   1.617   3.843
 2983SOL    HW1 9848   1.006   1.550   3.785
 2983SOL    HW2 9849   0.953   1.581   3.936
 2984SOL     OW 9850   5.253   5.863   1.563
 2984SOL    HW1 9851   5.156   5.871   1.543
 2984SOL    HW2 9852   5.289   5.952   1.591
 2985SOL     OW 9853   1.431   2.452   5.671
 2985SOL    HW1 9854   1.450   2.398   5.754
 2985SOL    HW2 9855   1.444   2.549   5.691
 2986SOL     OW 9856   2.770   3.610   5.771
 2986SOL    HW1 9857   2.805   3.657   5.852
 2986SOL    HW2 9858   2.844   3.562   5.725
 2987SOL     OW 9859   5.776   1.311   4.277
 2987SOL    HW1 9860   5.755   1.368   4.357
 2987SOL    HW2 9861   5.741   1.218   4.292
 2988SOL     OW 9862   0.447   6.388   2.890
 2988SOL    HW1 9863   0.390   6.349   2.963
 2988SOL    HW2 9864   0.489   6.313   2.838
 2989SOL     OW 9865   6.807   6.113   6.845
 2989SOL    HW1 9866   6.745   6.186   6.873
 2989SOL    HW2 9867   6.755   6.028   6.832
 2990SOL     OW 9868   4.934   2.205   4.695
 2990SOL    HW1 9869   4.874   2.231   4.771
 2990SOL    HW2 9870   5.027   2.191   4.729
 2991SOL     OW 9871   6.416   4.003   5.982
 2991SOL    HW1 9872   6.400   4.076   6.048
 2991SOL    HW2 9873   6.509   4.012   5.945
 2992SOL     OW 9874   2.452   5.263   5.826
 2992SOL    HW1 9875   2.502   5.311   5.754
 2992SOL    HW2 9876   2.357   5.295   5.828
 2993SOL     OW 9877   0.504   5.237   1.433
 2993SOL    HW1 9878   0.603   5.246   1.427
 2993SOL    HW2 9879   0.476   5.228   1.529
 2994SOL     OW 9880   3.883   6.417   0.489
 2994SOL    HW1 9881   3.891   6.317   0.480
 2994SOL    HW2 9882   3.973   6.455   0.508
 2995SOL     OW 9883   1.945   2.907   6.977
 2995SOL    HW1 9884   1.862   2.850   6.975
 2995SOL    HW2 9885   2.016   2.863   6.921
 2996SOL     OW 9886   1.993   6.895   4.262
 2996SOL    HW1 9887   1.905   6.941   4.267
 2996SOL    HW2 9888   2.031   6.905   4.170
 2997SOL     OW 9889   5.165   0.672   2.384
 2997SOL    HW1 9890   5.224   0.671   2.303
 2997SOL    HW2 9891   5.196   0.743   2.447
 2998SOL     OW 9892   4.847   0.010   4.306
 2998SOL    HW1 9893   4.888   0.090   4.349
 2998SOL    HW2 9894   4.755   0.033   4.272
 2999SOL     OW 9895   3.106   4.854   4.316
 2999SOL    HW1 9896   3.100   4.895   4.407
 2999SOL    HW2 9897   3.097   4.755   4.323
 3000SOL     OW 9898   1.845   3.664   0.226
 3000SOL    HW1 9899   1.825   3.761   0.210
 3000SOL    HW2 9900   1.848   3.616   0.138
 3001SOL     OW 9901   5.242   6.023   5.975
 3001SOL    HW1 9902   5.237   6.014   5.875
 3001SOL    HW2 9903   5.254   6.119   5.998
 3002SOL     OW 9904   3.908   0.340   6.361
 3002SOL    HW1 9905   3.838   0.325   6.291
 3002SOL    HW2 9906   3.899   0.433   6.397
 3003SOL     OW 9907   2.393   6.684   7.002
 3003SOL    HW1 9908   2.342   6.766   0.008
 3003SOL    HW2 9909   2.335   6.603   7.012
 3004SOL     OW 9910   1.247   4.773   3.238
 3004SOL    HW1 9911   1.179   4.700   3.232
 3004SOL    HW2 9912   1.219   4.838   3.308
 3005SOL     OW 9913   3.383   2.614   6.533
 3005SOL    HW1 9914   3.309   2.551   6.513
 3005SOL    HW2 9915   3.348   2.693   6.584
 3006SOL     OW 9916   5.088   2.202   6.066
 3006SOL    HW1 9917   5.057   2.174   6.157
 3006SOL    HW2 9918   5.114   2.121   6.013
 3007SOL     OW 9919   5.717   5.772   1.254
 3007SOL    HW1 9920   5.718   5.775   1.154
 3007SOL    HW2 9921   5.766   5.852   1.290
 3008SOL     OW 9922   3.697   0.894   6.502
 3008SOL    HW1 9923   3.677   0.828   6.430
 3008SOL    HW2 9924   3.625   0.962   6.507
 3009SOL     OW 9925   0.785   1.001   2.711
 3009SOL    HW1 9926   0.688   0.991   2.690
 3009SOL    HW2 9927   0.840   0.954   2.642
 3010SOL     OW 9928   3.266   6.314   3.336
 3010SOL    HW1 9929   3.176   6.333   3.377
 3010SOL    HW2 9930   3.336   6.315   3.408
 3011SOL     OW 9931   5.258   1.283   1.107
 3011SOL    HW1 9932   5.275   1.325   1.018
 3011SOL    HW2 9933   5.200   1.203   1.095
 3012SOL     OW 9934   1.267   3.854   5.230
 3012SOL    HW1 9935   1.263   3.762   5.269
 3012SOL    HW2 9936   1.189   3.868   5.170
 3013SOL     OW 9937   5.397   5.837   4.805
 3013SOL    HW1 9938   5.477   5.894   4.824
 3013SOL    HW2 9939   5.314   5.883   4.837
 3014SOL     OW 9940   4.768   2.855   4.962
 3014SOL    HW1 9941   4.837   2.886   5.027
 3014SOL    HW2 9942   4.717   2.934   4.927
 3015SOL     OW 9943   2.960   2.341   6.883
 3015SOL    HW1 9944   2.878   2.390   6.852
 3015SOL    HW2 9945   3.009   2.397   6.949
 3016SOL     OW 9946   3.157   6.190   4.322
 3016SOL    HW1 9947   3.065   6.152   4.334
 3016SOL    HW2 9948   3.165   6.227   4.229
 3017SOL     OW 9949   0.320   5.409   1.960
 3017SOL    HW1 9950   0.264   5.375   1.885
 3017SOL    HW2 9951   0.417   5.402   1.936
 3018SOL     OW 9952   1.897   6.743   5.770
 3018SOL    HW1 9953   1.828   6.682   5.807
 3018SOL    HW2 9954   1.949   6.784   5.846
 3019SOL     OW 9955   0.983   0.251   6.917
 3019SOL    HW1 9956   0.890   0.241   6.882
 3019SOL    HW2 9957   1.017   0.342   6.896
 3020SOL     OW 9958   4.208   3.310   1.968
 3020SOL    HW1 9959   4.253   3.316   2.057
 3020SOL    HW2 9960   4.258   3.365   1.902
 3021SOL     OW 9961   2.970   0.061   6.775
 3021SOL    HW1 9962   3.029   0.057   6.855
 3021SOL    HW2 9963   3.024   0.041   6.693
 3022SOL     OW 9964   3.987   4.916   4.428
 3022SOL    HW1 9965   3.989   4.981   4.352
 3022SOL    HW2 9966   4.062   4.851   4.418
 3023SOL     OW 9967   4.208   0.221   2.624
 3023SOL    HW1 9968   4.212   0.207   2.723
 3023SOL    HW2 9969   4.289   0.271   2.594
 3024SOL     OW 9970   4.009   6.212   5.402
 3024SOL    HW1 9971   4.081   6.222   5.333
 3024SOL    HW2 9972   4.035   6.141   5.467
 3025SOL     OW 9973   3.410   0.706   0.363
 3025SOL    HW1 9974   3.409   0.798   0.324
 3025SOL    HW2 9975   3.500   0.686   0.402
 3026SOL     OW 9976   1.105   1.339   0.802
 3026SOL    HW1 9977   1.198   1.373   0.793
 3026SOL    HW2 9978   1.086   1.316   0.898
 3027SOL     OW 9979   3.992   0.709   2.868
 3027SOL    HW1 9980   4.020   0.792   2.821
 3027SOL    HW2 9981   3.973   0.637   2.801
 3028SOL     OW 9982   1.274   4.327   5.614
 3028SOL    HW1 9983   1.303   4.414   5.573
 3028SOL    HW2 9984   1.210   4.281   5.552
 3029SOL     OW 9985   6.942   2.699   5.019
 3029SOL    HW1 9986   7.003   2.623   4.997
 3029SOL    HW2 9987   6.965   2.735   5.109
 3030SOL     OW 9988   0.878   2.713   5.839
 3030SOL    HW1 9989   0.789   2.691   5.800
 3030SOL    HW2 9990   0.869   2.730   5.937
 3031SOL     OW 9991   0.713   3.078   0.985
 3031SOL    HW1 9992   0.752   3.127   0.908
 3031SOL    HW2 9993   0.681   3.143   1.054
 3032SOL     OW 9994   4.211   6.333   2.002
 3032SOL    HW1 9995   4.120   6.346   2.040
 3032SOL    HW2 9996   4.221   6.240   1.968
 3033SOL     OW 9997   7.014   1.810   1.533
 3033SOL    HW1 9998   6.957   1.845   1.459
 3033SOL    HW2 9999   0.084   1.782   1.498
 3034SOL     OW10000   1.714   5.462   3.481
 3034SOL    HW110001   1.767   5.473   3.565
 3034SOL    HW210002   1.634   5.405   3.500
 3035SOL     OW10003   6.890   3.090   0.249
 3035SOL    HW110004   6.919   3.182   0.224
 3035SOL    HW210005   6.792   3.081   0.237
 3036SOL     OW10006   1.286   2.770   6.951
 3036SOL    HW110007   1.377   2.737   6.927
 3036SOL    HW210008   1.242   2.810   6.870
 3037SOL     OW10009   0.440   6.288   5.406
 3037SOL    HW110010   0.430   6.284   5.505
 3037SOL    HW210011   0.385   6.216   5.363
 3038SOL     OW10012   5.957   6.074   5.643
 3038SOL    HW110013   5.963   6.126   5.729
 3038SOL    HW210014   5.971   6.136   5.566
 3039SOL     OW10015   6.735   3.940   1.391
 3039SOL    HW110016   6.740   3.958   1.489
 3039SOL    HW210017   6.828   3.942   1.353
 3040SOL     OW10018   3.878   3.410   6.186
 3040SOL    HW110019   3.839   3.442   6.273
 3040SOL    HW210020   3.951   3.344   6.205
 3041SOL     OW10021   2.257   3.004   4.583
 3041SOL    HW110022   2.254   2.927   4.647
 3041SOL    HW210023   2.345   3.006   4.537
 3042SOL     OW10024   4.933   6.645   2.145
 3042SOL    HW110025   4.909   6.550   2.163
 3042SOL    HW210026   5.019   6.649   2.094
 3043SOL     OW10027   1.239   5.733   1.921
 3043SOL    HW110028   1.198   5.823   1.913
 3043SOL    HW210029   1.167   5.664   1.929
 3044SOL     OW10030   3.286   3.473   5.789
 3044SOL    HW110031   3.331   3.562   5.783
 3044SOL    HW210032   3.327   3.410   5.723
 3045SOL     OW10033   4.861   1.585   2.515
 3045SOL    HW110034   4.783   1.523   2.512
 3045SOL    HW210035   4.834   1.671   2.558
 3046SOL     OW10036   2.418   1.477   6.752
 3046SOL    HW110037   2.492   1.473   6.685
 3046SOL    HW210038   2.333   1.506   6.707
 3047SOL     OW10039   5.209   0.160   2.566
 3047SOL    HW110040   5.167   0.199   2.648
 3047SOL    HW210041   5.272   0.227   2.527
 3048SOL     OW10042   3.742   2.815   1.802
 3048SOL    HW110043   3.724   2.819   1.900
 3048SOL    HW210044   3.700   2.733   1.764
 3049SOL     OW10045   0.772   6.852   1.663
 3049SOL    HW110046   0.764   6.765   1.710
 3049SOL    HW210047   0.681   6.894   1.654
 3050SOL     OW10048   3.242   0.970   2.184
 3050SOL    HW110049   3.150   0.936   2.167
 3050SOL    HW210050   3.307   0.894   2.184
 3051SOL     OW10051   2.051   4.046   0.218
 3051SOL    HW110052   2.047   4.119   0.286
 3051SOL    HW210053   2.005   4.075   0.135
 3052SOL     OW10054   5.221   6.842   2.500
 3052SOL    HW110055   5.195   6.800   2.413
 3052SOL    HW210056   5.152   6.911   2.526
 3053SOL     OW10057   0.162   1.858   6.754
 3053SOL    HW110058   0.122   1.859   6.846
 3053SOL    HW210059   0.145   1.947   6.710
 3054SOL     OW10060   6.750   2.086   1.353
 3054SOL    HW110061   6.688   2.164   1.352
 3054SOL    HW210062   6.811   2.090   1.273
 3055SOL     OW10063   5.208   0.098   3.962
 3055SOL    HW110064   5.112   0.070   3.966
 3055SOL    HW210065   5.262   0.026   3.917
 3056SOL     OW10066   6.293   1.159   5.624
 3056SOL    HW110067   6.297   1.156   5.724
 3056SOL    HW210068   6.200   1.136   5.594
 3057SOL     OW10069   3.691   6.275   3.492
 3057SOL    HW110070   3.646   6.231   3.414
 3057SOL    HW210071   3.696   6.211   3.569
 3058SOL     OW10072   6.909   5.470   0.750
 3058SOL    HW110073   6.943   5.523   0.827
 3058SOL    HW210074   6.880   5.532   0.677
 3059SOL     OW10075   2.648   2.054   4.197
 3059SOL    HW110076   2.746   2.033   4.185
 3059SOL    HW210077   2.599   2.029   4.114
 3060SOL     OW10078   0.465   5.343   0.019
 3060SOL    HW110079   0.493   5.376   6.947
 3060SOL    HW210080   0.402   5.409   0.061
 3061SOL     OW10081   5.919   6.970   5.412
 3061SOL    HW110082   5.922   0.050   5.430
 3061SOL    HW210083   5.861   6.953   5.333
 3062SOL     OW10084   1.264   6.964   0.024
 3062SOL    HW110085   1.208   6.882   0.039
 3062SOL    HW210086   1.322   6.950   6.962
 3063SOL     OW10087   2.614   5.572   1.523
 3063SOL    HW110088   2.548   5.504   1.557
 3063SOL    HW210089   2.642   5.548   1.430
 3064SOL     OW10090   5.786   4.074   3.361
 3064SOL    HW110091   5.868   4.023   3.333
 3064SOL    HW210092   5.755   4.041   3.450
 3065SOL     OW10093   2.609   1.278   0.162
 3065SOL    HW110094   2.601   1.194   0.107
 3065SOL    HW210095   2.644   1.352   0.105
 3066SOL     OW10096   5.176   4.810   1.159
 3066SOL    HW110097   5.094   4.842   1.205
 3066SOL    HW210098   5.209   4.881   1.096
 3067SOL     OW10099   3.710   2.151   5.423
 3067SOL    HW110100   3.692   2.240   5.381
 3067SOL    HW210101   3.774   2.100   5.366
 3068SOL     OW10102   6.460   6.452   1.822
 3068SOL    HW110103   6.509   6.439   1.908
 3068SOL    HW210104   6.520   6.428   1.746
 3069SOL     OW10105   6.471   6.539   2.187
 3069SOL    HW110106   6.536   6.477   2.144
 3069SOL    HW210107   6.388   6.488   2.211
 3070SOL     OW10108   1.353   1.137   1.929
 3070SOL    HW110109   1.424   1.203   1.955
 3070SOL    HW210110   1.387   1.044   1.944
 3071SOL     OW10111   6.385   6.042   3.172
 3071SOL    HW110112   6.306   6.093   3.139
 3071SOL    HW210113   6.392   5.956   3.123
 3072SOL     OW10114   1.459   0.266   6.958
 3072SOL    HW110115   1.500   0.200   0.002
 3072SOL    HW210116   1.448   0.354   7.005
 3073SOL     OW10117   6.313   2.389   4.847
 3073SOL    HW110118   6.382   2.349   4.787
 3073SOL    HW210119   6.349   2.472   4.888
 3074SOL     OW10120   5.939   3.199   1.036
 3074SOL    HW110121   5.958   3.272   0.971
 3074SOL    HW210122   5.850   3.214   1.078
 3075SOL     OW10123   2.316   5.955   1.908
 3075SOL    HW110124   2.285   6.045   1.938
 3075SOL    HW210125   2.397   5.965   1.850
 3076SOL     OW10126   6.837   0.438   4.198
 3076SOL    HW110127   6.903   0.460   4.270
 3076SOL    HW210128   6.863   0.352   4.153
 3077SOL     OW10129   4.669   5.978   2.473
 3077SOL    HW110130   4.733   5.959   2.398
 3077SOL    HW210131   4.626   6.067   2.459
 3078SOL     OW10132   1.284   3.464   2.067
 3078SOL    HW110133   1.204   3.423   2.024
 3078SOL    HW210134   1.320   3.537   2.009
 3079SOL     OW10135   2.503   1.661   4.352
 3079SOL    HW110136   2.532   1.749   4.390
 3079SOL    HW210137   2.413   1.670   4.311
 3080SOL     OW10138   4.780   4.026   3.475
 3080SOL    HW110139   4.831   4.088   3.415
 3080SOL    HW210140   4.786   3.933   3.439
 3081SOL     OW10141   0.825   2.682   6.156
 3081SOL    HW110142   0.909   2.643   6.196
 3081SOL    HW210143   0.809   2.772   6.196
 3082SOL     OW10144   2.879   0.222   4.062
 3082SOL    HW110145   2.927   0.280   4.128
 3082SOL    HW210146   2.902   0.126   4.078
 3083SOL     OW10147   3.898   6.278   3.147
 3083SOL    HW110148   3.893   6.345   3.073
 3083SOL    HW210149   3.985   6.289   3.197
 3084SOL     OW10150   5.397   4.162   5.060
 3084SOL    HW110151   5.318   4.102   5.053
 3084SOL    HW210152   5.480   4.107   5.065
 3085SOL     OW10153   6.962   4.537   1.722
 3085SOL    HW110154   6.931   4.528   1.817
 3085SOL    HW210155   6.897   4.492   1.662
 3086SOL     OW10156   3.888   2.047   2.149
 3086SOL    HW110157   3.813   2.109   2.127
 3086SOL    HW210158   3.869   1.956   2.112
 3087SOL     OW10159   0.369   5.361   4.103
 3087SOL    HW110160   0.401   5.405   4.187
 3087SOL    HW210161   0.411   5.270   4.095
 3088SOL     OW10162   2.593   4.754   5.668
 3088SOL    HW110163   2.574   4.852   5.661
 3088SOL    HW210164   2.514   4.708   5.709
 3089SOL     OW10165   1.111   3.811   0.178
 3089SOL    HW110166   1.115   3.770   0.086
 3089SOL    HW210167   1.097   3.910   0.169
 3090SOL     OW10168   1.840   1.959   2.196
 3090SOL    HW110169   1.852   1.860   2.202
 3090SOL    HW210170   1.919   2.005   2.235
 3091SOL     OW10171   1.654   0.626   1.122
 3091SOL    HW110172   1.610   0.666   1.203
 3091SOL    HW210173   1.667   0.527   1.137
 3092SOL     OW10174   5.266   6.331   0.636
 3092SOL    HW110175   5.316   6.374   0.711
 3092SOL    HW210176   5.168   6.342   0.651
 3093SOL     OW10177   5.121   6.336   5.931
 3093SOL    HW110178   5.090   6.426   5.959
 3093SOL    HW210179   5.061   6.266   5.970
 3094SOL     OW10180   2.395   6.348   4.059
 3094SOL    HW110181   2.395   6.434   4.112
 3094SOL    HW210182   2.305   6.306   4.065
 3095SOL     OW10183   2.095   5.643   5.899
 3095SOL    HW110184   2.016   5.584   5.882
 3095SOL    HW210185   2.173   5.587   5.929
 3096SOL     OW10186   1.704   6.274   4.958
 3096SOL    HW110187   1.675   6.258   4.863
 3096SOL    HW210188   1.651   6.215   5.019
 3097SOL     OW10189   6.696   2.717   0.727
 3097SOL    HW110190   6.724   2.783   0.657
 3097SOL    HW210191   6.618   2.664   0.692
 3098SOL     OW10192   3.078   3.300   1.102
 3098SOL    HW110193   3.010   3.235   1.067
 3098SOL    HW210194   3.111   3.268   1.191
 3099SOL     OW10195   0.732   6.832   3.610
 3099SOL    HW110196   0.661   6.771   3.574
 3099SOL    HW210197   0.733   6.827   3.709
 3100SOL     OW10198   6.586   6.552   4.535
 3100SOL    HW110199   6.514   6.485   4.519
 3100SOL    HW210200   6.666   6.506   4.574
 3101SOL     OW10201   4.822   6.600   6.133
 3101SOL    HW110202   4.788   6.690   6.106
 3101SOL    HW210203   4.758   6.529   6.103
 3102SOL     OW10204   0.575   4.299   2.413
 3102SOL    HW110205   0.648   4.346   2.463
 3102SOL    HW210206   0.612   4.262   2.327
 3103SOL     OW10207   3.743   0.553   2.260
 3103SOL    HW110208   3.741   0.622   2.333
 3103SOL    HW210209   3.681   0.581   2.187
 3104SOL     OW10210   5.223   6.592   5.006
 3104SOL    HW110211   5.269   6.529   5.069
 3104SOL    HW210212   5.260   6.684   5.018
 3105SOL     OW10213   6.238   4.141   1.964
 3105SOL    HW110214   6.312   4.075   1.955
 3105SOL    HW210215   6.209   4.172   1.873
 3106SOL     OW10216   5.827   1.796   2.506
 3106SOL    HW110217   5.739   1.838   2.525
 3106SOL    HW210218   5.846   1.800   2.408
 3107SOL     OW10219   4.036   1.083   4.318
 3107SOL    HW110220   3.959   1.020   4.314
 3107SOL    HW210221   4.017   1.155   4.384
 3108SOL     OW10222   0.678   6.952   4.274
 3108SOL    HW110223   0.651   7.017   4.345
 3108SOL    HW210224   0.697   7.001   4.189
 3109SOL     OW10225   5.323   6.597   2.277
 3109SOL    HW110226   5.257   6.557   2.340
 3109SOL    HW210227   5.312   6.696   2.276
 3110SOL     OW10228   1.926   2.188   3.610
 3110SOL    HW110229   1.861   2.232   3.548
 3110SOL    HW210230   1.943   2.094   3.580
 3111SOL     OW10231   5.910   6.060   3.842
 3111SOL    HW110232   5.902   6.153   3.878
 3111SOL    HW210233   5.948   6.064   3.749
 3112SOL     OW10234   4.783   2.278   6.351
 3112SOL    HW110235   4.691   2.313   6.369
 3112SOL    HW210236   4.831   2.341   6.291
 3113SOL     OW10237   1.927   5.785   3.879
 3113SOL    HW110238   2.013   5.748   3.914
 3113SOL    HW210239   1.877   5.714   3.830
 3114SOL     OW10240   4.260   2.157   0.487
 3114SOL    HW110241   4.229   2.146   0.581
 3114SOL    HW210242   4.359   2.140   0.482
 3115SOL     OW10243   4.249   3.081   6.400
 3115SOL    HW110244   4.208   3.007   6.453
 3115SOL    HW210245   4.189   3.104   6.323
 3116SOL     OW10246   0.194   2.979   0.387
 3116SOL    HW110247   0.132   2.901   0.395
 3116SOL    HW210248   0.182   3.039   0.467
 3117SOL     OW10249   4.124   3.661   5.470
 3117SOL    HW110250   4.184   3.667   5.390
 3117SOL    HW210251   4.032   3.636   5.441
 3118SOL     OW10252   0.258   4.451   1.175
 3118SOL    HW110253   0.278   4.375   1.113
 3118SOL    HW210254   0.231   4.531   1.122
 3119SOL     OW10255   1.878   3.700   5.613
 3119SOL    HW110256   1.971   3.706   5.575
 3119SOL    HW210257   1.882   3.711   5.712
 3120SOL     OW10258   2.983   6.778   4.326
 3120SOL    HW110259   2.941   6.712   4.264
 3120SOL    HW210260   3.029   6.849   4.273
 3121SOL     OW10261   6.772   1.814   3.452
 3121SOL    HW110262   6.680   1.827   3.490
 3121SOL    HW210263   6.776   1.727   3.404
 3122SOL     OW10264   3.303   6.430   5.556
 3122SOL    HW110265   3.318   6.331   5.561
 3122SOL    HW210266   3.354   6.467   5.478
 3123SOL     OW10267   4.443   1.731   4.215
 3123SOL    HW110268   4.536   1.708   4.245
 3123SOL    HW210269   4.436   1.830   4.201
 3124SOL     OW10270   4.205   6.467   4.613
 3124SOL    HW110271   4.247   6.381   4.642
 3124SOL    HW210272   4.179   6.521   4.693
 3125SOL     OW10273   6.386   1.916   5.087
 3125SOL    HW110274   6.353   2.008   5.064
 3125SOL    HW210275   6.358   1.893   5.180
 3126SOL     OW10276   4.277   4.693   6.369
 3126SOL    HW110277   4.262   4.687   6.270
 3126SOL    HW210278   4.191   4.676   6.417
 3127SOL     OW10279   0.999   3.216   3.724
 3127SOL    HW110280   0.955   3.306   3.729
 3127SOL    HW210281   0.953   3.160   3.656
 3128SOL     OW10282   2.083   0.694   6.730
 3128SOL    HW110283   2.138   0.631   6.785
 3128SOL    HW210284   2.069   0.655   6.639
 3129SOL     OW10285   0.785   3.987   6.635
 3129SOL    HW110286   0.697   3.981   6.588
 3129SOL    HW210287   0.773   4.031   6.724
 3130SOL     OW10288   1.912   4.429   1.544
 3130SOL    HW110289   1.995   4.413   1.491
 3130SOL    HW210290   1.845   4.479   1.489
 3131SOL     OW10291   6.939   2.792   1.376
 3131SOL    HW110292   0.009   2.745   1.369
 3131SOL    HW210293   6.890   2.760   1.457
 3132SOL     OW10294   4.540   5.195   5.484
 3132SOL    HW110295   4.561   5.137   5.563
 3132SOL    HW210296   4.526   5.138   5.404
 3133SOL     OW10297   3.677   2.092   3.999
 3133SOL    HW110298   3.578   2.100   4.016
 3133SOL    HW210299   3.714   2.015   4.051
 3134SOL     OW10300   4.413   4.684   1.501
 3134SOL    HW110301   4.474   4.699   1.423
 3134SOL    HW210302   4.376   4.771   1.532
 3135SOL     OW10303   5.093   0.550   5.471
 3135SOL    HW110304   5.093   0.569   5.569
 3135SOL    HW210305   5.135   0.460   5.455
 3136SOL     OW10306   5.436   0.460   0.980
 3136SOL    HW110307   5.410   0.478   1.075
 3136SOL    HW210308   5.410   0.537   0.923
 3137SOL     OW10309   6.190   0.651   3.173
 3137SOL    HW110310   6.168   0.747   3.188
 3137SOL    HW210311   6.269   0.644   3.113
 3138SOL     OW10312   5.906   3.175   3.872
 3138SOL    HW110313   5.858   3.168   3.959
 3138SOL    HW210314   5.961   3.093   3.858
 3139SOL     OW10315   5.034   6.465   0.261
 3139SOL    HW110316   4.947   6.482   0.308
 3139SOL    HW210317   5.108   6.464   0.328
 3140SOL     OW10318   6.074   0.009   6.459
 3140SOL    HW110319   6.051   6.933   6.436
 3140SOL    HW210320   5.990   0.064   6.462
 3141SOL     OW10321   6.774   6.054   6.442
 3141SOL    HW110322   6.849   6.098   6.392
 3141SOL    HW210323   6.810   6.009   6.523
 3142SOL     OW10324   4.268   6.597   1.984
 3142SOL    HW110325   4.186   6.611   1.929
 3142SOL    HW210326   4.300   6.503   1.972
 3143SOL     OW10327   6.884   1.784   6.717
 3143SOL    HW110328   6.975   1.823   6.731
 3143SOL    HW210329   6.839   1.770   6.805
 3144SOL     OW10330   4.221   4.169   1.155
 3144SOL    HW110331   4.260   4.212   1.073
 3144SOL    HW210332   4.121   4.175   1.151
 3145SOL     OW10333   1.691   5.296   2.147
 3145SOL    HW110334   1.710   5.226   2.215
 3145SOL    HW210335   1.700   5.387   2.189
 3146SOL     OW10336   1.538   0.230   2.584
 3146SOL    HW110337   1.557   0.141   2.543
 3146SOL    HW210338   1.469   0.220   2.656
 3147SOL     OW10339   2.931   4.984   0.238
 3147SOL    HW110340   2.866   4.988   0.163
 3147SOL    HW210341   2.934   5.074   0.284
 3148SOL     OW10342   4.969   6.018   4.634
 3148SOL    HW110343   4.940   5.989   4.543
 3148SOL    HW210344   4.907   5.981   4.702
 3149SOL     OW10345   2.555   0.836   5.428
 3149SOL    HW110346   2.529   0.835   5.331
 3149SOL    HW210347   2.487   0.888   5.480
 3150SOL     OW10348   6.909   6.127   4.336
 3150SOL    HW110349   6.832   6.173   4.381
 3150SOL    HW210350   6.880   6.093   4.247
 3151SOL     OW10351   4.217   1.421   6.591
 3151SOL    HW110352   4.247   1.361   6.665
 3151SOL    HW210353   4.139   1.379   6.544
 3152SOL     OW10354   1.411   5.942   1.137
 3152SOL    HW110355   1.396   5.928   1.039
 3152SOL    HW210356   1.424   5.853   1.181
 3153SOL     OW10357   6.779   4.280   2.245
 3153SOL    HW110358   6.733   4.222   2.311
 3153SOL    HW210359   6.742   4.373   2.251
 3154SOL     OW10360   6.833   1.211   0.087
 3154SOL    HW110361   6.885   1.129   0.065
 3154SOL    HW210362   6.862   1.286   0.028
 3155SOL     OW10363   6.584   4.542   1.189
 3155SOL    HW110364   6.539   4.579   1.108
 3155SOL    HW210365   6.677   4.578   1.194
 3156SOL     OW10366   3.323   3.456   3.317
 3156SOL    HW110367   3.330   3.509   3.402
 3156SOL    HW210368   3.232   3.467   3.278
 3157SOL     OW10369   2.119   2.740   4.942
 3157SOL    HW110370   2.026   2.766   4.915
 3157SOL    HW210371   2.178   2.739   4.861
 3158SOL     OW10372   4.107   6.854   2.173
 3158SOL    HW110373   4.196   6.898   2.189
 3158SOL    HW210374   4.089   6.788   2.246
 3159SOL     OW10375   5.794   1.510   0.229
 3159SOL    HW110376   5.830   1.601   0.249
 3159SOL    HW210377   5.860   1.441   0.259
 3160SOL     OW10378   0.602   6.285   4.948
 3160SOL    HW110379   0.504   6.265   4.955
 3160SOL    HW210380   0.619   6.378   4.982
 3161SOL     OW10381   2.147   1.756   4.021
 3161SOL    HW110382   2.083   1.802   3.959
 3161SOL    HW210383   2.169   1.816   4.098
 3162SOL     OW10384   1.122   6.626   1.515
 3162SOL    HW110385   1.093   6.706   1.568
 3162SOL    HW210386   1.217   6.638   1.486
 3163SOL     OW10387   3.534   2.090   6.371
 3163SOL    HW110388   3.481   2.136   6.443
 3163SOL    HW210389   3.546   1.994   6.397
 3164SOL     OW10390   4.815   4.377   1.484
 3164SOL    HW110391   4.806   4.279   1.468
 3164SOL    HW210392   4.775   4.400   1.573
 3165SOL     OW10393   0.841   5.763   1.027
 3165SOL    HW110394   0.804   5.837   0.971
 3165SOL    HW210395   0.778   5.744   1.102
 3166SOL     OW10396   4.581   0.524   5.881
 3166SOL    HW110397   4.536   0.539   5.793
 3166SOL    HW210398   4.675   0.557   5.876
 3167SOL     OW10399   6.623   3.751   1.205
 3167SOL    HW110400   6.698   3.763   1.271
 3167SOL    HW210401   6.564   3.831   1.208
 3168SOL     OW10402   5.035   2.834   6.433
 3168SOL    HW110403   4.961   2.819   6.367
 3168SOL    HW210404   5.028   2.767   6.507
 3169SOL     OW10405   2.121   3.316   4.666
 3169SOL    HW110406   2.171   3.285   4.747
 3169SOL    HW210407   2.178   3.382   4.616
 3170SOL     OW10408   4.187   0.787   1.603
 3170SOL    HW110409   4.237   0.855   1.550
 3170SOL    HW210410   4.108   0.830   1.646
 3171SOL     OW10411   0.468   6.806   1.315
 3171SOL    HW110412   0.533   6.822   1.242
 3171SOL    HW210413   0.415   6.723   1.296
 3172SOL     OW10414   0.802   5.035   6.014
 3172SOL    HW110415   0.738   4.959   6.005
 3172SOL    HW210416   0.822   5.073   5.923
 3173SOL     OW10417   3.512   1.946   1.098
 3173SOL    HW110418   3.477   2.029   1.054
 3173SOL    HW210419   3.477   1.866   1.049
 3174SOL     OW10420   2.724   2.712   6.165
 3174SOL    HW110421   2.710   2.654   6.084
 3174SOL    HW210422   2.711   2.808   6.139
 3175SOL     OW10423   0.455   6.637   0.624
 3175SOL    HW110424   0.497   6.701   0.560
 3175SOL    HW210425   0.521   6.566   0.649
 3176SOL     OW10426   2.156   4.941   5.030
 3176SOL    HW110427   2.174   4.864   4.969
 3176SOL    HW210428   2.205   5.022   4.998
 3177SOL     OW10429   4.937   4.879   4.844
 3177SOL    HW110430   5.002   4.903   4.916
 3177SOL    HW210431   4.856   4.838   4.886
 3178SOL     OW10432   6.795   2.300   0.195
 3178SOL    HW110433   6.829   2.352   0.273
 3178SOL    HW210434   6.863   2.303   0.121
 3179SOL     OW10435   1.572   2.682   2.449
 3179SOL    HW110436   1.578   2.678   2.349
 3179SOL    HW210437   1.656   2.721   2.486
 3180SOL     OW10438   4.670   0.280   0.255
 3180SOL    HW110439   4.652   0.244   0.164
 3180SOL    HW210440   4.589   0.266   0.313
 3181SOL     OW10441   1.343   1.091   3.162
 3181SOL    HW110442   1.443   1.099   3.153
 3181SOL    HW210443   1.301   1.178   3.135
 3182SOL     OW10444   1.901   1.495   5.409
 3182SOL    HW110445   1.835   1.564   5.437
 3182SOL    HW210446   1.993   1.533   5.414
 3183SOL     OW10447   4.677   4.047   1.244
 3183SOL    HW110448   4.708   4.107   1.170
 3183SOL    HW210449   4.713   4.081   1.331
 3184SOL     OW10450   1.458   2.507   3.139
 3184SOL    HW110451   1.386   2.567   3.174
 3184SOL    HW210452   1.507   2.554   3.065
 3185SOL     OW10453   5.829   0.149   6.448
 3185SOL    HW110454   5.791   0.217   6.385
 3185SOL    HW210455   5.829   0.187   6.541
 3186SOL     OW10456   3.868   2.076   2.658
 3186SOL    HW110457   3.868   2.107   2.563
 3186SOL    HW210458   3.776   2.085   2.696
 3187SOL     OW10459   4.700   4.422   0.275
 3187SOL    HW110460   4.755   4.409   0.357
 3187SOL    HW210461   4.755   4.405   0.194
 3188SOL     OW10462   3.365   6.582   4.634
 3188SOL    HW110463   3.293   6.518   4.660
 3188SOL    HW210464   3.436   6.584   4.705
 3189SOL     OW10465   1.998   1.327   2.195
 3189SOL    HW110466   2.042   1.396   2.137
 3189SOL    HW210467   1.900   1.348   2.202
 3190SOL     OW10468   0.495   5.853   1.472
 3190SOL    HW110469   0.473   5.766   1.517
 3190SOL    HW210470   0.414   5.885   1.422
 3191SOL     OW10471   4.473   6.521   0.662
 3191SOL    HW110472   4.416   6.455   0.613
 3191SOL    HW210473   4.428   6.610   0.662
 3192SOL     OW10474   0.026   2.283   1.076
 3192SOL    HW110475   0.084   2.220   1.128
 3192SOL    HW210476   0.083   2.339   1.017
 3193SOL     OW10477   4.489   1.456   5.845
 3193SOL    HW110478   4.434   1.531   5.807
 3193SOL    HW210479   4.549   1.420   5.774
 3194SOL     OW10480   1.106   3.412   5.747
 3194SOL    HW110481   1.069   3.442   5.835
 3194SOL    HW210482   1.047   3.446   5.674
 3195SOL     OW10483   2.072   2.848   2.692
 3195SOL    HW110484   2.030   2.890   2.773
 3195SOL    HW210485   2.132   2.914   2.648
 3196SOL     OW10486   6.883   0.501   4.944
 3196SOL    HW110487   6.799   0.494   4.999
 3196SOL    HW210488   6.962   0.504   5.005
 3197SOL     OW10489   1.911   6.108   3.506
 3197SOL    HW110490   1.935   6.085   3.600
 3197SOL    HW210491   1.978   6.172   3.469
 3198SOL     OW10492   6.503   2.152   5.860
 3198SOL    HW110493   6.542   2.155   5.767
 3198SOL    HW210494   6.534   2.233   5.911
 3199SOL     OW10495   4.684   2.852   1.703
 3199SOL    HW110496   4.732   2.871   1.617
 3199SOL    HW210497   4.703   2.926   1.768
 3200SOL     OW10498   0.339   1.905   2.295
 3200SOL    HW110499   0.250   1.942   2.270
 3200SOL    HW210500   0.347   1.903   2.395
 3201SOL     OW10501   5.321   4.722   4.656
 3201SOL    HW110502   5.393   4.774   4.701
 3201SOL    HW210503   5.246   4.705   4.721
 3202SOL     OW10504   1.182   4.718   1.797
 3202SOL    HW110505   1.187   4.794   1.861
 3202SOL    HW210506   1.232   4.639   1.835
 3203SOL     OW10507   5.417   1.375   0.303
 3203SOL    HW110508   5.454   1.457   0.347
 3203SOL    HW210509   5.472   1.353   0.223
 3204SOL     OW10510   5.282   6.097   1.696
 3204SOL    HW110511   5.183   6.088   1.692
 3204SOL    HW210512   5.308   6.142   1.782
 3205SOL     OW10513   0.760   3.506   6.597
 3205SOL    HW110514   0.804   3.434   6.542
 3205SOL    HW210515   0.709   3.567   6.537
 3206SOL     OW10516   6.803   6.418   6.060
 3206SOL    HW110517   6.775   6.487   5.993
 3206SOL    HW210518   6.899   6.394   6.044
 3207SOL     OW10519   0.175   1.380   5.947
 3207SOL    HW110520   0.082   1.413   5.966
 3207SOL    HW210521   0.201   1.313   6.016
 3208SOL     OW10522   4.765   6.173   5.661
 3208SOL    HW110523   4.812   6.225   5.590
 3208SOL    HW210524   4.666   6.189   5.653
 3209SOL     OW10525   3.265   5.414   3.546
 3209SOL    HW110526   3.352   5.374   3.575
 3209SOL    HW210527   3.204   5.342   3.513
 3210SOL     OW10528   0.684   3.749   2.154
 3210SOL    HW110529   0.707   3.666   2.206
 3210SOL    HW210530   0.587   3.768   2.163
 3211SOL     OW10531   2.661   3.552   1.021
 3211SOL    HW110532   2.596   3.598   0.961
 3211SOL    HW210533   2.732   3.617   1.049
 3212SOL     OW10534   3.473   1.117   6.506
 3212SOL    HW110535   3.542   1.189   6.495
 3212SOL    HW210536   3.404   1.126   6.435
 3213SOL     OW10537   5.938   5.564   2.751
 3213SOL    HW110538   5.922   5.592   2.656
 3213SOL    HW210539   5.851   5.537   2.793
 3214SOL     OW10540   5.196   5.429   0.260
 3214SOL    HW110541   5.274   5.383   0.218
 3214SOL    HW210542   5.111   5.387   0.227
 3215SOL     OW10543   0.126   3.326   1.490
 3215SOL    HW110544   0.051   3.334   1.555
 3215SOL    HW210545   0.139   3.414   1.443
 3216SOL     OW10546   5.497   5.901   1.723
 3216SOL    HW110547   5.449   5.980   1.684
 3216SOL    HW210548   5.516   5.835   1.651
 3217SOL     OW10549   0.746   5.378   2.352
 3217SOL    HW110550   0.710   5.451   2.294
 3217SOL    HW210551   0.704   5.291   2.324
 3218SOL     OW10552   3.660   6.590   3.759
 3218SOL    HW110553   3.691   6.683   3.778
 3218SOL    HW210554   3.569   6.593   3.719
 3219SOL     OW10555   0.094   1.698   3.071
 3219SOL    HW110556   0.123   1.791   3.049
 3219SOL    HW210557   7.013   1.696   3.087
 3220SOL     OW10558   6.607   5.729   5.901
 3220SOL    HW110559   6.674   5.772   5.962
 3220SOL    HW210560   6.527   5.787   5.893
 3221SOL     OW10561   3.380   0.490   2.177
 3221SOL    HW110562   3.317   0.413   2.165
 3221SOL    HW210563   3.433   0.477   2.260
 3222SOL     OW10564   4.734   1.983   3.589
 3222SOL    HW110565   4.827   1.968   3.622
 3222SOL    HW210566   4.725   2.077   3.554
 3223SOL     OW10567   1.494   5.158   6.628
 3223SOL    HW110568   1.558   5.176   6.554
 3223SOL    HW210569   1.492   5.061   6.649
 3224SOL     OW10570   3.906   4.839   6.303
 3224SOL    HW110571   3.857   4.888   6.230
 3224SOL    HW210572   3.859   4.752   6.322
 3225SOL     OW10573   4.395   2.772   5.370
 3225SOL    HW110574   4.448   2.753   5.453
 3225SOL    HW210575   4.451   2.822   5.305
 3226SOL     OW10576   1.549   2.014   5.074
 3226SOL    HW110577   1.627   2.072   5.098
 3226SOL    HW210578   1.531   2.020   4.976
 3227SOL     OW10579   3.301   2.036   6.219
 3227SOL    HW110580   3.397   2.057   6.235
 3227SOL    HW210581   3.294   1.968   6.145
 3228SOL     OW10582   5.359   3.287   4.113
 3228SOL    HW110583   5.381   3.312   4.018
 3228SOL    HW210584   5.297   3.355   4.152
 3229SOL     OW10585   3.429   1.751   5.697
 3229SOL    HW110586   3.475   1.835   5.669
 3229SOL    HW210587   3.495   1.689   5.739
 3230SOL     OW10588   1.090   2.448   4.051
 3230SOL    HW110589   1.054   2.529   4.006
 3230SOL    HW210590   1.176   2.470   4.096
 3231SOL     OW10591   3.460   6.224   2.373
 3231SOL    HW110592   3.430   6.133   2.344
 3231SOL    HW210593   3.397   6.260   2.442
 3232SOL     OW10594   4.270   4.962   3.811
 3232SOL    HW110595   4.282   5.022   3.890
 3232SOL    HW210596   4.337   4.888   3.815
 3233SOL     OW10597   2.326   3.273   1.305
 3233SOL    HW110598   2.423   3.266   1.285
 3233SOL    HW210599   2.284   3.341   1.245
 3234SOL     OW10600   0.111   2.726   0.530
 3234SOL    HW110601   0.146   2.635   0.509
 3234SOL    HW210602   0.157   2.763   0.610
 3235SOL     OW10603   4.941   6.329   1.273
 3235SOL    HW110604   4.990   6.290   1.195
 3235SOL    HW210605   4.903   6.418   1.248
 3236SOL     OW10606   1.558   3.573   1.166
 3236SOL    HW110607   1.617   3.498   1.195
 3236SOL    HW210608   1.491   3.593   1.237
 3237SOL     OW10609   5.621   1.292   3.607
 3237SOL    HW110610   5.529   1.328   3.622
 3237SOL    HW210611   5.632   1.207   3.657
 3238SOL     OW10612   0.091   5.050   0.048
 3238SOL    HW110613   0.116   5.146   0.035
 3238SOL    HW210614   0.173   4.994   0.052
 3239SOL     OW10615   6.049   1.399   0.294
 3239SOL    HW110616   6.082   1.321   0.241
 3239SOL    HW210617   6.046   1.373   0.391
 3240SOL     OW10618   1.115   6.160   5.025
 3240SOL    HW110619   1.056   6.227   5.069
 3240SOL    HW210620   1.172   6.205   4.957
 3241SOL     OW10621   5.537   1.545   4.416
 3241SOL    HW110622   5.460   1.600   4.447
 3241SOL    HW210623   5.508   1.487   4.340
 3242SOL     OW10624   3.404   4.910   1.240
 3242SOL    HW110625   3.437   4.981   1.178
 3242SOL    HW210626   3.401   4.822   1.192
 3243SOL     OW10627   5.959   5.492   0.322
 3243SOL    HW110628   5.899   5.493   0.242
 3243SOL    HW210629   5.942   5.409   0.376
 3244SOL     OW10630   4.812   5.454   6.592
 3244SOL    HW110631   4.884   5.442   6.661
 3244SOL    HW210632   4.850   5.502   6.513
 3245SOL     OW10633   4.962   2.368   5.676
 3245SOL    HW110634   4.930   2.434   5.745
 3245SOL    HW210635   5.046   2.325   5.708
 3246SOL     OW10636   6.310   0.440   3.035
 3246SOL    HW110637   6.327   0.446   3.133
 3246SOL    HW210638   6.392   0.405   2.989
 3247SOL     OW10639   6.990   5.171   3.102
 3247SOL    HW110640   0.005   5.149   3.194
 3247SOL    HW210641   6.906   5.120   3.085
 3248SOL     OW10642   5.867   3.240   1.812
 3248SOL    HW110643   5.963   3.234   1.784
 3248SOL    HW210644   5.861   3.236   1.911
 3249SOL     OW10645   3.846   3.813   5.615
 3249SOL    HW110646   3.931   3.841   5.660
 3249SOL    HW210647   3.848   3.840   5.519
 3250SOL     OW10648   5.434   0.627   2.761
 3250SOL    HW110649   5.498   0.672   2.823
 3250SOL    HW210650   5.465   0.641   2.666
 3251SOL     OW10651   4.071   1.015   2.610
 3251SOL    HW110652   4.050   1.016   2.708
 3251SOL    HW210653   4.123   0.933   2.588
 3252SOL     OW10654   3.014   0.876   2.097
 3252SOL    HW110655   2.971   0.941   2.159
 3252SOL    HW210656   2.961   0.870   2.012
 3253SOL     OW10657   4.924   3.447   2.625
 3253SOL    HW110658   5.016   3.438   2.586
 3253SOL    HW210659   4.890   3.357   2.651
 3254SOL     OW10660   3.963   5.152   4.883
 3254SOL    HW110661   3.923   5.073   4.837
 3254SOL    HW210662   3.901   5.184   4.955
 3255SOL     OW10663   4.646   6.082   1.646
 3255SOL    HW110664   4.721   6.145   1.666
 3255SOL    HW210665   4.559   6.124   1.673
 3256SOL     OW10666   5.275   0.477   6.523
 3256SOL    HW110667   5.351   0.425   6.564
 3256SOL    HW210668   5.224   0.417   6.461
 3257SOL     OW10669   1.228   1.919   1.235
 3257SOL    HW110670   1.183   1.920   1.146
 3257SOL    HW210671   1.167   1.876   1.302
 3258SOL     OW10672   4.480   5.638   2.469
 3258SOL    HW110673   4.548   5.587   2.522
 3258SOL    HW210674   4.492   5.736   2.486
 3259SOL     OW10675   4.628   6.054   4.147
 3259SOL    HW110676   4.659   6.122   4.213
 3259SOL    HW210677   4.530   6.037   4.159
 3260SOL     OW10678   1.982   2.261   1.837
 3260SOL    HW110679   1.912   2.189   1.838
 3260SOL    HW210680   2.070   2.220   1.815
 3261SOL     OW10681   4.556   6.086   0.147
 3261SOL    HW110682   4.599   6.069   0.236
 3261SOL    HW210683   4.512   6.002   0.115
 3262SOL     OW10684   3.589   1.869   2.212
 3262SOL    HW110685   3.612   1.909   2.300
 3262SOL    HW210686   3.496   1.834   2.214
 3263SOL     OW10687   4.966   0.581   3.667
 3263SOL    HW110688   4.883   0.605   3.618
 3263SOL    HW210689   5.011   0.504   3.622
 3264SOL     OW10690   0.893   4.571   0.452
 3264SOL    HW110691   0.843   4.485   0.445
 3264SOL    HW210692   0.866   4.619   0.535
 3265SOL     OW10693   4.122   1.974   5.896
 3265SOL    HW110694   4.209   1.976   5.947
 3265SOL    HW210695   4.060   2.043   5.933
 3266SOL     OW10696   0.780   2.775   0.388
 3266SOL    HW110697   0.851   2.842   0.364
 3266SOL    HW210698   0.808   2.726   0.471
 3267SOL     OW10699   3.513   2.319   0.491
 3267SOL    HW110700   3.573   2.287   0.565
 3267SOL    HW210701   3.498   2.246   0.425
 3268SOL     OW10702   1.066   3.636   6.477
 3268SOL    HW110703   1.012   3.691   6.413
 3268SOL    HW210704   1.156   3.678   6.488
 3269SOL     OW10705   4.424   5.013   1.879
 3269SOL    HW110706   4.465   5.093   1.924
 3269SOL    HW210707   4.497   4.949   1.853
 3270SOL     OW10708   1.507   5.279   5.095
 3270SOL    HW110709   1.546   5.339   5.165
 3270SOL    HW210710   1.436   5.222   5.136
 3271SOL     OW10711   5.614   3.383   2.438
 3271SOL    HW110712   5.616   3.284   2.421
 3271SOL    HW210713   5.575   3.401   2.528
 3272SOL     OW10714   3.344   4.659   0.772
 3272SOL    HW110715   3.314   4.738   0.718
 3272SOL    HW210716   3.434   4.629   0.740
 3273SOL     OW10717   0.728   6.442   2.093
 3273SOL    HW110718   0.788   6.441   2.013
 3273SOL    HW210719   0.782   6.430   2.176
 3274SOL     OW10720   3.844   2.104   6.896
 3274SOL    HW110721   3.918   2.156   6.853
 3274SOL    HW210722   3.780   2.072   6.825
 3275SOL     OW10723   1.703   0.572   6.959
 3275SOL    HW110724   1.744   0.654   6.997
 3275SOL    HW210725   1.732   0.492   7.013
 3276SOL     OW10726   3.023   4.815   6.330
 3276SOL    HW110727   3.013   4.740   6.395
 3276SOL    HW210728   3.045   4.777   6.239
 3277SOL     OW10729   5.483   6.807   6.149
 3277SOL    HW110730   5.513   6.877   6.214
 3277SOL    HW210731   5.555   6.794   6.080
 3278SOL     OW10732   6.642   1.293   5.711
 3278SOL    HW110733   6.725   1.321   5.760
 3278SOL    HW210734   6.562   1.332   5.755
 3279SOL     OW10735   0.386   1.232   0.985
 3279SOL    HW110736   0.445   1.190   1.054
 3279SOL    HW210737   0.361   1.324   1.015
 3280SOL     OW10738   3.250   5.287   6.130
 3280SOL    HW110739   3.290   5.195   6.131
 3280SOL    HW210740   3.192   5.298   6.050
 3281SOL     OW10741   1.637   5.340   1.237
 3281SOL    HW110742   1.540   5.364   1.251
 3281SOL    HW210743   1.644   5.275   1.161
 3282SOL     OW10744   2.332   5.182   4.359
 3282SOL    HW110745   2.380   5.122   4.294
 3282SOL    HW210746   2.334   5.276   4.326
 3283SOL     OW10747   2.986   1.152   1.817
 3283SOL    HW110748   3.080   1.130   1.845
 3283SOL    HW210749   2.935   1.186   1.896
 3284SOL     OW10750   6.056   6.785   6.344
 3284SOL    HW110751   5.976   6.793   6.285
 3284SOL    HW210752   6.139   6.779   6.288
 3285SOL     OW10753   6.265   3.104   3.419
 3285SOL    HW110754   6.269   3.055   3.506
 3285SOL    HW210755   6.171   3.103   3.384
 3286SOL     OW10756   3.997   3.340   3.747
 3286SOL    HW110757   4.031   3.338   3.841
 3286SOL    HW210758   3.948   3.255   3.727
 3287SOL     OW10759   1.236   5.865   0.473
 3287SOL    HW110760   1.236   5.851   0.572
 3287SOL    HW210761   1.173   5.940   0.450
 3288SOL     OW10762   0.795   5.183   6.578
 3288SOL    HW110763   0.727   5.236   6.527
 3288SOL    HW210764   0.753   5.147   6.662
 3289SOL     OW10765   2.032   6.679   5.522
 3289SOL    HW110766   1.993   6.743   5.456
 3289SOL    HW210767   2.001   6.703   5.615
 3290SOL     OW10768   0.272   6.787   2.042
 3290SOL    HW110769   0.344   6.744   1.987
 3290SOL    HW210770   0.283   6.759   2.137
 3291SOL     OW10771   1.159   6.751   6.757
 3291SOL    HW110772   1.069   6.793   6.740
 3291SOL    HW210773   1.231   6.814   6.729
 3292SOL     OW10774   0.271   1.545   6.951
 3292SOL    HW110775   0.293   1.551   6.854
 3292SOL    HW210776   0.268   1.449   6.979
 3293SOL     OW10777   6.503   2.966   2.816
 3293SOL    HW110778   6.548   2.902   2.753
 3293SOL    HW210779   6.561   3.047   2.827
 3294SOL     OW10780   6.889   0.436   6.025
 3294SOL    HW110781   6.880   0.373   5.947
 3294SOL    HW210782   6.909   0.527   5.991
 3295SOL     OW10783   2.301   2.669   0.958
 3295SOL    HW110784   2.317   2.581   0.913
 3295SOL    HW210785   2.205   2.695   0.947
 3296SOL     OW10786   2.443   6.705   1.323
 3296SOL    HW110787   2.472   6.718   1.228
 3296SOL    HW210788   2.426   6.608   1.339
 3297SOL     OW10789   2.586   0.815   4.546
 3297SOL    HW110790   2.639   0.900   4.549
 3297SOL    HW210791   2.635   0.744   4.597
 3298SOL     OW10792   6.163   2.780   3.283
 3298SOL    HW110793   6.242   2.822   3.239
 3298SOL    HW210794   6.191   2.743   3.372
 3299SOL     OW10795   1.935   6.799   3.628
 3299SOL    HW110796   2.010   6.734   3.640
 3299SOL    HW210797   1.849   6.757   3.659
 3300SOL     OW10798   6.811   0.148   6.100
 3300SOL    HW110799   6.847   0.071   6.152
 3300SOL    HW210800   6.863   0.230   6.122
 3301SOL     OW10801   2.266   4.100   3.525
 3301SOL    HW110802   2.343   4.150   3.565
 3301SOL    HW210803   2.283   4.086   3.428
 3302SOL     OW10804   1.430   5.589   4.680
 3302SOL    HW110805   1.503   5.655   4.660
 3302SOL    HW210806   1.362   5.632   4.739
 3303SOL     OW10807   3.548   3.100   1.750
 3303SOL    HW110808   3.478   3.071   1.685
 3303SOL    HW210809   3.637   3.064   1.721
 3304SOL     OW10810   1.434   5.046   3.402
 3304SOL    HW110811   1.426   5.023   3.305
 3304SOL    HW210812   1.381   4.981   3.456
 3305SOL     OW10813   2.806   1.885   2.819
 3305SOL    HW110814   2.895   1.927   2.837
 3305SOL    HW210815   2.820   1.793   2.782
 3306SOL     OW10816   2.393   4.720   3.804
 3306SOL    HW110817   2.440   4.769   3.731
 3306SOL    HW210818   2.302   4.693   3.773
 3307SOL     OW10819   0.671   5.704   6.230
 3307SOL    HW110820   0.728   5.716   6.149
 3307SOL    HW210821   0.622   5.788   6.249
 3308SOL     OW10822   4.880   5.992   6.518
 3308SOL    HW110823   4.967   5.996   6.468
 3308SOL    HW210824   4.885   5.922   6.588
 3309SOL     OW10825   0.639   5.383   2.718
 3309SOL    HW110826   0.665   5.470   2.677
 3309SOL    HW210827   0.542   5.367   2.702
 3310SOL     OW10828   6.713   3.992   3.655
 3310SOL    HW110829   6.776   3.944   3.715
 3310SOL    HW210830   6.721   4.091   3.671
 3311SOL     OW10831   2.947   4.879   1.312
 3311SOL    HW110832   2.994   4.791   1.303
 3311SOL    HW210833   2.942   4.923   1.223
 3312SOL     OW10834   2.622   4.372   6.259
 3312SOL    HW110835   2.690   4.348   6.328
 3312SOL    HW210836   2.660   4.440   6.196
 3313SOL     OW10837   0.359   4.985   2.573
 3313SOL    HW110838   0.297   4.996   2.650
 3313SOL    HW210839   0.444   5.035   2.592
 3314SOL     OW10840   1.773   2.765   5.189
 3314SOL    HW110841   1.825   2.797   5.109
 3314SOL    HW210842   1.676   2.761   5.166
 3315SOL     OW10843   6.576   2.796   4.331
 3315SOL    HW110844   6.616   2.706   4.315
 3315SOL    HW210845   6.648   2.866   4.327
 3316SOL     OW10846   3.545   1.256   5.898
 3316SOL    HW110847   3.518   1.263   5.802
 3316SOL    HW210848   3.618   1.188   5.907
 3317SOL     OW10849   4.898   2.961   2.241
 3317SOL    HW110850   4.871   3.016   2.161
 3317SOL    HW210851   4.907   3.021   2.321
 3318SOL     OW10852   2.882   6.794   0.399
 3318SOL    HW110853   2.809   6.735   0.432
 3318SOL    HW210854   2.964   6.780   0.455
 3319SOL     OW10855   6.327   6.677   3.704
 3319SOL    HW110856   6.231   6.663   3.681
 3319SOL    HW210857   6.365   6.593   3.743
 3320SOL     OW10858   5.457   1.126   5.768
 3320SOL    HW110859   5.431   1.130   5.671
 3320SOL    HW210860   5.375   1.117   5.824
 3321SOL     OW10861   3.139   2.551   1.519
 3321SOL    HW110862   3.226   2.600   1.524
 3321SOL    HW210863   3.155   2.453   1.532
 3322SOL     OW10864   5.107   2.626   1.910
 3322SOL    HW110865   5.194   2.656   1.948
 3322SOL    HW210866   5.048   2.593   1.984
 3323SOL     OW10867   1.879   3.991   6.755
 3323SOL    HW110868   1.890   4.083   6.716
 3323SOL    HW210869   1.787   3.982   6.793
 3324SOL     OW10870   0.781   3.738   0.002
 3324SOL    HW110871   0.719   3.663   0.025
 3324SOL    HW210872   0.814   3.727   6.927
 3325SOL     OW10873   2.052   3.217   6.987
 3325SOL    HW110874   2.106   3.279   0.026
 3325SOL    HW210875   2.105   3.135   6.967
 3326SOL     OW10876   4.909   1.648   1.730
 3326SOL    HW110877   4.862   1.661   1.643
 3326SOL    HW210878   4.914   1.735   1.779
 3327SOL     OW10879   2.861   6.232   1.113
 3327SOL    HW110880   2.929   6.248   1.185
 3327SOL    HW210881   2.836   6.135   1.110
 3328SOL     OW10882   4.470   1.203   2.918
 3328SOL    HW110883   4.535   1.168   2.986
 3328SOL    HW210884   4.379   1.166   2.938
 3329SOL     OW10885   4.154   0.139   5.392
 3329SOL    HW110886   4.123   0.184   5.309
 3329SOL    HW210887   4.237   0.086   5.373
 3330SOL     OW10888   5.505   6.379   2.225
 3330SOL    HW110889   5.472   6.309   2.289
 3330SOL    HW210890   5.433   6.447   2.209
 3331SOL     OW10891   1.581   3.359   2.409
 3331SOL    HW110892   1.574   3.346   2.508
 3331SOL    HW210893   1.502   3.318   2.364
 3332SOL     OW10894   6.676   4.442   6.829
 3332SOL    HW110895   6.721   4.352   6.823
 3332SOL    HW210896   6.682   4.475   6.923
 3333SOL     OW10897   2.584   3.551   7.002
 3333SOL    HW110898   2.523   3.513   6.933
 3333SOL    HW210899   2.668   3.497   7.006
 3334SOL     OW10900   2.096   3.209   1.963
 3334SOL    HW110901   2.129   3.302   1.974
 3334SOL    HW210902   2.131   3.170   1.878
 3335SOL     OW10903   4.622   6.035   6.055
 3335SOL    HW110904   4.617   6.040   6.155
 3335SOL    HW210905   4.654   6.122   6.019
 3336SOL     OW10906   2.168   0.359   4.424
 3336SOL    HW110907   2.097   0.306   4.470
 3336SOL    HW210908   2.191   0.439   4.479
 3337SOL     OW10909   3.325   3.369   1.492
 3337SOL    HW110910   3.282   3.353   1.581
 3337SOL    HW210911   3.339   3.467   1.479
 3338SOL     OW10912   0.316   2.459   1.687
 3338SOL    HW110913   0.224   2.479   1.722
 3338SOL    HW210914   0.368   2.411   1.758
 3339SOL     OW10915   1.560   0.048   6.579
 3339SOL    HW110916   1.586   0.044   6.483
 3339SOL    HW210917   1.478   0.105   6.589
 3340SOL     OW10918   4.223   0.956   4.201
 3340SOL    HW110919   4.149   1.009   4.241
 3340SOL    HW210920   4.282   0.922   4.275
 3341SOL     OW10921   2.240   4.483   3.927
 3341SOL    HW110922   2.213   4.552   3.859
 3341SOL    HW210923   2.335   4.457   3.912
 3342SOL     OW10924   0.486   0.529   2.541
 3342SOL    HW110925   0.396   0.535   2.498
 3342SOL    HW210926   0.557   0.553   2.475
 3343SOL     OW10927   5.275   5.184   6.271
 3343SOL    HW110928   5.309   5.274   6.300
 3343SOL    HW210929   5.192   5.196   6.217
 3344SOL     OW10930   6.211   3.107   4.044
 3344SOL    HW110931   6.145   3.048   3.997
 3344SOL    HW210932   6.247   3.060   4.124
 3345SOL     OW10933   0.876   3.758   6.303
 3345SOL    HW110934   0.785   3.732   6.335
 3345SOL    HW210935   0.909   3.690   6.237
 3346SOL     OW10936   1.433   0.959   7.017
 3346SOL    HW110937   1.417   1.055   0.021
 3346SOL    HW210938   1.532   0.942   7.012
 3347SOL     OW10939   1.826   2.571   6.337
 3347SOL    HW110940   1.825   2.553   6.239
 3347SOL    HW210941   1.809   2.668   6.353
 3348SOL     OW10942   4.216   3.665   5.194
 3348SOL    HW110943   4.239   3.762   5.180
 3348SOL    HW210944   4.199   3.622   5.105
 3349SOL     OW10945   2.546   4.789   3.577
 3349SOL    HW110946   2.570   4.726   3.503
 3349SOL    HW210947   2.468   4.845   3.549
 3350SOL     OW10948   0.596   2.926   5.957
 3350SOL    HW110949   0.646   2.931   6.043
 3350SOL    HW210950   0.529   2.852   5.962
 3351SOL     OW10951   4.906   1.363   1.407
 3351SOL    HW110952   4.952   1.275   1.398
 3351SOL    HW210953   4.950   1.416   1.479
 3352SOL     OW10954   5.466   2.283   1.028
 3352SOL    HW110955   5.530   2.358   1.011
 3352SOL    HW210956   5.484   2.242   1.117
 3353SOL     OW10957   2.270   6.499   0.583
 3353SOL    HW110958   2.321   6.414   0.583
 3353SOL    HW210959   2.181   6.484   0.626
 3354SOL     OW10960   4.028   2.797   5.322
 3354SOL    HW110961   4.079   2.716   5.294
 3354SOL    HW210962   4.086   2.878   5.313
 3355SOL     OW10963   2.231   1.278   6.009
 3355SOL    HW110964   2.241   1.287   6.108
 3355SOL    HW210965   2.154   1.218   5.988
 3356SOL     OW10966   0.948   6.446   6.527
 3356SOL    HW110967   0.973   6.356   6.493
 3356SOL    HW210968   0.911   6.501   6.452
 3357SOL     OW10969   3.373   3.005   1.572
 3357SOL    HW110970   3.281   2.973   1.553
 3357SOL    HW210971   3.410   3.052   1.491
 3358SOL     OW10972   5.363   1.102   3.392
 3358SOL    HW110973   5.447   1.055   3.363
 3358SOL    HW210974   5.367   1.198   3.364
 3359SOL     OW10975   0.125   5.782   3.394
 3359SOL    HW110976   0.095   5.709   3.456
 3359SOL    HW210977   0.046   5.819   3.346
 3360SOL     OW10978   0.901   2.242   6.123
 3360SOL    HW110979   1.000   2.251   6.130
 3360SOL    HW210980   0.857   2.296   6.194
 3361SOL     OW10981   0.972   0.097   4.544
 3361SOL    HW110982   0.979   0.168   4.474
 3361SOL    HW210983   0.959   0.008   4.500
 3362SOL     OW10984   3.641   1.514   2.605
 3362SOL    HW110985   3.729   1.560   2.616
 3362SOL    HW210986   3.652   1.416   2.621
 3363SOL     OW10987   6.979   3.011   1.793
 3363SOL    HW110988   0.017   2.940   1.751
 3363SOL    HW210989   6.924   3.056   1.723
 3364SOL     OW10990   1.981   4.336   2.771
 3364SOL    HW110991   2.028   4.418   2.737
 3364SOL    HW210992   2.019   4.255   2.727
 3365SOL     OW10993   0.801   2.686   4.485
 3365SOL    HW110994   0.730   2.752   4.510
 3365SOL    HW210995   0.868   2.731   4.426
 3366SOL     OW10996   6.334   4.774   3.788
 3366SOL    HW110997   6.405   4.814   3.730
 3366SOL    HW210998   6.249   4.768   3.737
 3367SOL     OW10999   3.216   3.230   2.476
 3367SOL    HW111000   3.141   3.183   2.429
 3367SOL    HW211001   3.297   3.228   2.418
 3368SOL     OW11002   0.566   5.545   6.567
 3368SOL    HW111003   0.484   5.596   6.541
 3368SOL    HW211004   0.583   5.473   6.500
 3369SOL     OW11005   4.393   2.159   1.761
 3369SOL    HW111006   4.413   2.199   1.851
 3369SOL    HW211007   4.422   2.063   1.760
 3370SOL     OW11008   6.059   6.566   1.758
 3370SOL    HW111009   6.153   6.559   1.791
 3370SOL    HW211010   6.059   6.564   1.658
 3371SOL     OW11011   2.317   3.668   1.703
 3371SOL    HW111012   2.332   3.583   1.754
 3371SOL    HW211013   2.278   3.647   1.613
 3372SOL     OW11014   0.220   2.219   0.089
 3372SOL    HW111015   0.292   2.288   0.079
 3372SOL    HW211016   0.248   2.135   0.044
 3373SOL     OW11017   7.004   2.099   3.793
 3373SOL    HW111018   0.082   2.081   3.775
 3373SOL    HW211019   6.961   2.136   3.710
 3374SOL     OW11020   1.148   0.636   3.777
 3374SOL    HW111021   1.194   0.618   3.864
 3374SOL    HW211022   1.049   0.629   3.790
 3375SOL     OW11023   6.784   4.357   0.572
 3375SOL    HW111024   6.819   4.267   0.598
 3375SOL    HW211025   6.706   4.380   0.630
 3376SOL     OW11026   3.122   3.256   4.670
 3376SOL    HW111027   3.136   3.161   4.643
 3376SOL    HW211028   3.201   3.287   4.723
 3377SOL     OW11029   6.560   4.899   5.231
 3377SOL    HW111030   6.636   4.955   5.266
 3377SOL    HW211031   6.573   4.804   5.260
 3378SOL     OW11032   0.936   6.933   6.712
 3378SOL    HW111033   0.927   6.877   6.630
 3378SOL    HW211034   0.917   0.010   6.689
 3379SOL     OW11035   0.649   2.655   4.830
 3379SOL    HW111036   0.658   2.634   4.733
 3379SOL    HW211037   0.735   2.692   4.865
 3380SOL     OW11038   4.167   5.476   5.174
 3380SOL    HW111039   4.190   5.411   5.102
 3380SOL    HW211040   4.228   5.555   5.169
 3381SOL     OW11041   6.939   3.074   1.484
 3381SOL    HW111042   6.878   3.102   1.411
 3381SOL    HW211043   6.974   2.982   1.465
 3382SOL     OW11044   0.309   2.944   1.025
 3382SOL    HW111045   0.346   3.005   1.094
 3382SOL    HW211046   0.304   2.851   1.063
 3383SOL     OW11047   3.527   4.984   0.710
 3383SOL    HW111048   3.576   5.061   0.670
 3383SOL    HW211049   3.438   4.973   0.664
 3384SOL     OW11050   2.548   3.960   0.609
 3384SOL    HW111051   2.587   4.052   0.607
 3384SOL    HW211052   2.503   3.940   0.522
 3385SOL     OW11053   6.441   3.422   4.200
 3385SOL    HW111054   6.341   3.429   4.194
 3385SOL    HW211055   6.479   3.419   4.108
 3386SOL     OW11056   6.144   4.583   6.777
 3386SOL    HW111057   6.057   4.623   6.746
 3386SOL    HW211058   6.189   4.537   6.700
 3387SOL     OW11059   4.810   0.381   2.849
 3387SOL    HW111060   4.761   0.322   2.914
 3387SOL    HW211061   4.891   0.333   2.816
 3388SOL     OW11062   5.532   4.226   2.604
 3388SOL    HW111063   5.628   4.216   2.628
 3388SOL    HW211064   5.518   4.199   2.508
 3389SOL     OW11065   6.265   5.786   6.472
 3389SOL    HW111066   6.287   5.793   6.569
 3389SOL    HW211067   6.316   5.711   6.431
 3390SOL     OW11068   4.003   6.697   6.645
 3390SOL    HW111069   3.909   6.670   6.666
 3390SOL    HW211070   4.050   6.724   6.729
 3391SOL     OW11071   5.248   1.965   3.092
 3391SOL    HW111072   5.304   2.047   3.103
 3391SOL    HW211073   5.152   1.988   3.102
 3392SOL     OW11074   3.303   0.231   4.110
 3392SOL    HW111075   3.247   0.259   4.188
 3392SOL    HW211076   3.365   0.306   4.086
 3393SOL     OW11077   5.725   6.435   0.226
 3393SOL    HW111078   5.650   6.501   0.217
 3393SOL    HW211079   5.746   6.396   0.137
 3394SOL     OW11080   4.185   4.416   0.407
 3394SOL    HW111081   4.244   4.337   0.394
 3394SOL    HW211082   4.232   4.498   0.375
 3395SOL     OW11083   4.837   1.809   2.910
 3395SOL    HW111084   4.827   1.797   2.811
 3395SOL    HW211085   4.933   1.830   2.931
 3396SOL     OW11086   5.830   1.816   3.727
 3396SOL    HW111087   5.759   1.780   3.787
 3396SOL    HW211088   5.914   1.829   3.780
 3397SOL     OW11089   3.369   5.476   6.297
 3397SOL    HW111090   3.445   5.500   6.237
 3397SOL    HW211091   3.312   5.407   6.253
 3398SOL     OW11092   0.594   0.201   5.085
 3398SOL    HW111093   0.692   0.182   5.078
 3398SOL    HW211094   0.547   0.122   5.124
 3399SOL     OW11095   6.609   4.700   2.778
 3399SOL    HW111096   6.538   4.632   2.758
 3399SOL    HW211097   6.566   4.782   2.816
 3400SOL     OW11098   6.188   3.508   0.169
 3400SOL    HW111099   6.113   3.488   0.232
 3400SOL    HW211100   6.185   3.444   0.092
 3401SOL     OW11101   6.303   3.914   6.535
 3401SOL    HW111102   6.389   3.908   6.484
 3401SOL    HW211103   6.312   3.981   6.609
 3402SOL     OW11104   6.202   5.439   0.809
 3402SOL    HW111105   6.226   5.533   0.830
 3402SOL    HW211106   6.102   5.428   0.814
 3403SOL     OW11107   4.804   5.579   6.129
 3403SOL    HW111108   4.719   5.541   6.091
 3403SOL    HW211109   4.883   5.536   6.085
 3404SOL     OW11110   4.826   2.970   6.808
 3404SOL    HW111111   4.728   2.988   6.817
 3404SOL    HW211112   4.877   3.026   6.873
 3405SOL     OW11113   5.714   4.442   6.171
 3405SOL    HW111114   5.791   4.473   6.228
 3405SOL    HW211115   5.672   4.362   6.213
 3406SOL     OW11116   1.704   3.530   2.219
 3406SOL    HW111117   1.757   3.599   2.269
 3406SOL    HW211118   1.663   3.466   2.285
 3407SOL     OW11119   2.858   4.496   0.167
 3407SOL    HW111120   2.762   4.470   0.156
 3407SOL    HW211121   2.888   4.475   0.260
 3408SOL     OW11122   5.160   3.120   4.970
 3408SOL    HW111123   5.119   3.053   5.032
 3408SOL    HW211124   5.088   3.175   4.928
 3409SOL     OW11125   3.814   6.006   0.707
 3409SOL    HW111126   3.739   6.066   0.680
 3409SOL    HW211127   3.779   5.915   0.729
 3410SOL     OW11128   5.754   6.256   2.867
 3410SOL    HW111129   5.719   6.342   2.831
 3410SOL    HW211130   5.722   6.243   2.961
 3411SOL     OW11131   0.502   3.046   0.425
 3411SOL    HW111132   0.419   3.084   0.385
 3411SOL    HW211133   0.580   3.063   0.365
 3412SOL     OW11134   5.168   3.773   1.229
 3412SOL    HW111135   5.196   3.729   1.143
 3412SOL    HW211136   5.238   3.756   1.299
 3413SOL     OW11137   6.086   2.089   6.778
 3413SOL    HW111138   5.993   2.064   6.803
 3413SOL    HW211139   6.084   2.147   6.696
 3414SOL     OW11140   3.033   1.710   5.460
 3414SOL    HW111141   3.111   1.754   5.416
 3414SOL    HW211142   3.043   1.716   5.559
 3415SOL     OW11143   2.573   2.514   4.033
 3415SOL    HW111144   2.609   2.427   3.997
 3415SOL    HW211145   2.560   2.578   3.957
 3416SOL     OW11146   5.852   0.382   6.676
 3416SOL    HW111147   5.771   0.436   6.652
 3416SOL    HW211148   5.907   0.431   6.742
 3417SOL     OW11149   0.130   6.764   2.826
 3417SOL    HW111150   0.191   6.754   2.905
 3417SOL    HW211151   0.133   6.858   2.794
 3418SOL     OW11152   3.691   6.054   3.654
 3418SOL    HW111153   3.601   6.032   3.617
 3418SOL    HW211154   3.681   6.083   3.749
 3419SOL     OW11155   3.907   5.298   6.071
 3419SOL    HW111156   3.864   5.222   6.022
 3419SOL    HW211157   3.837   5.351   6.119
 3420SOL     OW11158   5.464   3.039   4.383
 3420SOL    HW111159   5.506   2.994   4.461
 3420SOL    HW211160   5.440   2.971   4.314
 3421SOL     OW11161   5.691   1.778   2.850
 3421SOL    HW111162   5.700   1.874   2.824
 3421SOL    HW211163   5.781   1.735   2.849
 3422SOL     OW11164   2.545   0.672   0.724
 3422SOL    HW111165   2.582   0.666   0.632
 3422SOL    HW211166   2.497   0.586   0.746
 3423SOL     OW11167   0.280   4.129   6.033
 3423SOL    HW111168   0.187   4.146   6.001
 3423SOL    HW211169   0.329   4.216   6.040
 3424SOL     OW11170   3.284   0.609   1.280
 3424SOL    HW111171   3.384   0.604   1.277
 3424SOL    HW211172   3.251   0.658   1.199
 3425SOL     OW11173   4.792   4.647   1.964
 3425SOL    HW111174   4.705   4.611   1.931
 3425SOL    HW211175   4.818   4.600   2.049
 3426SOL     OW11176   5.083   2.912   0.063
 3426SOL    HW111177   5.166   2.859   0.046
 3426SOL    HW211178   5.083   2.944   0.158
 3427SOL     OW11179   0.487   2.377   1.891
 3427SOL    HW111180   0.422   2.341   1.958
 3427SOL    HW211181   0.547   2.444   1.934
 3428SOL     OW11182   4.513   4.527   6.348
 3428SOL    HW111183   4.416   4.554   6.343
 3428SOL    HW211184   4.568   4.595   6.299
 3429SOL     OW11185   0.610   1.403   0.851
 3429SOL    HW111186   0.550   1.333   0.812
 3429SOL    HW211187   0.704   1.387   0.819
 3430SOL     OW11188   2.292   5.495   5.998
 3430SOL    HW111189   2.390   5.488   6.016
 3430SOL    HW211190   2.241   5.451   6.072
 3431SOL     OW11191   1.913   6.821   1.884
 3431SOL    HW111192   1.992   6.759   1.882
 3431SOL    HW211193   1.922   6.884   1.962
 3432SOL     OW11194   2.538   4.980   6.323
 3432SOL    HW111195   2.570   4.894   6.284
 3432SOL    HW211196   2.590   5.000   6.406
 3433SOL     OW11197   1.823   1.381   6.251
 3433SOL    HW111198   1.916   1.359   6.283
 3433SOL    HW211199   1.757   1.324   6.301
 3434SOL     OW11200   3.791   1.792   1.532
 3434SOL    HW111201   3.757   1.885   1.520
 3434SOL    HW211202   3.824   1.757   1.445
 3435SOL     OW11203   2.945   0.921   0.418
 3435SOL    HW111204   2.869   0.953   0.361
 3435SOL    HW211205   2.945   0.821   0.423
 3436SOL     OW11206   3.517   5.509   0.321
 3436SOL    HW111207   3.590   5.449   0.355
 3436SOL    HW211208   3.526   5.599   0.363
 3437SOL     OW11209   2.073   6.845   5.957
 3437SOL    HW111210   2.161   6.891   5.961
 3437SOL    HW211211   2.059   6.791   6.039
 3438SOL     OW11212   0.475   4.032   1.273
 3438SOL    HW111213   0.556   4.002   1.223
 3438SOL    HW211214   0.472   3.987   1.363
 3439SOL     OW11215   3.287   6.409   3.829
 3439SOL    HW111216   3.245   6.499   3.812
 3439SOL    HW211217   3.344   6.384   3.751
 3440SOL     OW11218   4.148   3.391   2.868
 3440SOL    HW111219   4.149   3.348   2.958
 3440SOL    HW211220   4.228   3.450   2.858
 3441SOL     OW11221   0.710   6.073   6.502
 3441SOL    HW111222   0.729   5.975   6.503
 3441SOL    HW211223   0.774   6.120   6.562
 3442SOL     OW11224   2.852   3.484   0.698
 3442SOL    HW111225   2.832   3.582   0.696
 3442SOL    HW211226   2.908   3.464   0.779
 3443SOL     OW11227   3.412   5.949   2.223
 3443SOL    HW111228   3.505   5.966   2.190
 3443SOL    HW211229   3.347   5.960   2.148
 3444SOL     OW11230   5.125   5.277   1.364
 3444SOL    HW111231   5.221   5.281   1.389
 3444SOL    HW211232   5.087   5.188   1.388
 3445SOL     OW11233   6.890   5.129   4.226
 3445SOL    HW111234   6.884   5.149   4.324
 3445SOL    HW211235   6.986   5.130   4.197
 3446SOL     OW11236   5.646   0.602   1.290
 3446SOL    HW111237   5.734   0.584   1.246
 3446SOL    HW211238   5.659   0.610   1.389
 3447SOL     OW11239   5.117   0.481   0.310
 3447SOL    HW111240   5.059   0.561   0.324
 3447SOL    HW211241   5.060   0.400   0.297
 3448SOL     OW11242   2.989   6.440   5.993
 3448SOL    HW111243   2.900   6.482   5.974
 3448SOL    HW211244   3.061   6.492   5.948
 3449SOL     OW11245   6.169   5.113   4.961
 3449SOL    HW111246   6.234   5.133   5.034
 3449SOL    HW211247   6.183   5.018   4.930
 3450SOL     OW11248   1.629   1.071   6.682
 3450SOL    HW111249   1.542   1.121   6.677
 3450SOL    HW211250   1.672   1.088   6.771
 3451SOL     OW11251   1.426   5.853   0.260
 3451SOL    HW111252   1.446   5.756   0.247
 3451SOL    HW211253   1.366   5.864   0.339
 3452SOL     OW11254   5.749   0.579   5.819
 3452SOL    HW111255   5.674   0.573   5.753
 3452SOL    HW211256   5.715   0.616   5.905
 3453SOL     OW11257   5.755   5.711   6.039
 3453SOL    HW111258   5.846   5.694   6.001
 3453SOL    HW211259   5.696   5.633   6.019
 3454SOL     OW11260   1.413   3.832   4.756
 3454SOL    HW111261   1.335   3.768   4.755
 3454SOL    HW211262   1.485   3.796   4.697
 3455SOL     OW11263   2.459   1.423   4.975
 3455SOL    HW111264   2.410   1.348   5.019
 3455SOL    HW211265   2.557   1.409   4.983
 3456SOL     OW11266   4.351   4.586   2.049
 3456SOL    HW111267   4.422   4.517   2.065
 3456SOL    HW211268   4.339   4.600   1.951
 3457SOL     OW11269   4.115   5.089   4.672
 3457SOL    HW111270   4.074   5.114   4.760
 3457SOL    HW211271   4.049   5.035   4.620
 3458SOL     OW11272   4.650   1.906   2.359
 3458SOL    HW111273   4.576   1.928   2.422
 3458SOL    HW211274   4.635   1.815   2.319
 3459SOL     OW11275   5.233   1.773   3.361
 3459SOL    HW111276   5.146   1.812   3.389
 3459SOL    HW211277   5.217   1.691   3.306
 3460SOL     OW11278   3.183   1.658   5.739
 3460SOL    HW111279   3.136   1.728   5.792
 3460SOL    HW211280   3.271   1.693   5.708
 3461SOL     OW11281   5.938   4.379   6.866
 3461SOL    HW111282   5.864   4.444   6.884
 3461SOL    HW211283   6.017   4.402   6.923
 3462SOL     OW11284   0.840   3.824   5.444
 3462SOL    HW111285   0.911   3.786   5.503
 3462SOL    HW211286   0.761   3.762   5.443
 3463SOL     OW11287   0.941   4.282   1.006
 3463SOL    HW111288   1.014   4.291   0.939
 3463SOL    HW211289   0.955   4.350   1.079
 3464SOL     OW11290   0.365   4.389   6.138
 3464SOL    HW111291   0.324   4.440   6.213
 3464SOL    HW211292   0.452   4.350   6.167
 3465SOL     OW11293   2.339   2.164   2.073
 3465SOL    HW111294   2.343   2.079   2.125
 3465SOL    HW211295   2.342   2.143   1.975
 3466SOL     OW11296   0.006   5.626   6.146
 3466SOL    HW111297   0.089   5.572   6.133
 3466SOL    HW211298   6.988   5.610   6.237
 3467SOL     OW11299   1.755   1.949   6.737
 3467SOL    HW111300   1.687   1.893   6.691
 3467SOL    HW211301   1.797   2.011   6.671
 3468SOL     OW11302   3.314   5.435   2.873
 3468SOL    HW111303   3.376   5.401   2.944
 3468SOL    HW211304   3.339   5.395   2.785
 3469SOL     OW11305   6.449   1.796   4.012
 3469SOL    HW111306   6.481   1.775   3.919
 3469SOL    HW211307   6.426   1.894   4.017
 3470SOL     OW11308   6.830   4.917   1.022
 3470SOL    HW111309   6.882   5.001   1.007
 3470SOL    HW211310   6.758   4.934   1.090
 3471SOL     OW11311   4.631   5.128   4.750
 3471SOL    HW111312   4.555   5.176   4.708
 3471SOL    HW211313   4.637   5.152   4.846
 3472SOL     OW11314   2.425   0.617   3.648
 3472SOL    HW111315   2.423   0.697   3.588
 3472SOL    HW211316   2.520   0.592   3.667
 3473SOL     OW11317   5.558   1.336   6.163
 3473SOL    HW111318   5.491   1.384   6.107
 3473SOL    HW211319   5.632   1.398   6.189
 3474SOL     OW11320   2.794   5.083   1.775
 3474SOL    HW111321   2.755   5.175   1.784
 3474SOL    HW211322   2.721   5.017   1.763
 3475SOL     OW11323   1.363   6.544   4.389
 3475SOL    HW111324   1.271   6.542   4.351
 3475SOL    HW211325   1.372   6.473   4.459
 3476SOL     OW11326   3.719   0.718   4.482
 3476SOL    HW111327   3.647   0.698   4.416
 3476SOL    HW211328   3.761   0.633   4.513
 3477SOL     OW11329   2.976   5.735   1.718
 3477SOL    HW111330   2.968   5.682   1.802
 3477SOL    HW211331   2.885   5.751   1.679
 3478SOL     OW11332   2.731   6.235   5.848
 3478SOL    HW111333   2.738   6.240   5.947
 3478SOL    HW211334   2.787   6.307   5.807
 3479SOL     OW11335   0.558   6.972   3.143
 3479SOL    HW111336   0.575   0.051   3.127
 3479SOL    HW211337   0.523   6.960   3.237
 3480SOL     OW11338   6.739   1.262   4.681
 3480SOL    HW111339   6.725   1.284   4.584
 3480SOL    HW211340   6.675   1.315   4.737
 3481SOL     OW11341   4.671   6.723   6.560
 3481SOL    HW111342   4.721   6.639   6.538
 3481SOL    HW211343   4.684   6.790   6.487
 3482SOL     OW11344   5.321   1.426   0.854
 3482SOL    HW111345   5.416   1.428   0.883
 3482SOL    HW211346   5.292   1.519   0.827
 3483SOL     OW11347   3.171   0.451   1.023
 3483SOL    HW111348   3.172   0.395   1.106
 3483SOL    HW211349   3.155   0.393   0.943
 3484SOL     OW11350   2.901   3.302   1.967
 3484SOL    HW111351   2.984   3.266   1.925
 3484SOL    HW211352   2.858   3.368   1.906
 3485SOL     OW11353   1.585   0.788   4.925
 3485SOL    HW111354   1.649   0.806   4.850
 3485SOL    HW211355   1.635   0.754   5.005
 3486SOL     OW11356   3.512   1.546   1.862
 3486SOL    HW111357   3.520   1.586   1.953
 3486SOL    HW211358   3.422   1.502   1.853
 3487SOL     OW11359   5.578   1.728   6.574
 3487SOL    HW111360   5.634   1.799   6.531
 3487SOL    HW211361   5.502   1.770   6.623
 3488SOL     OW11362   5.756   3.111   4.109
 3488SOL    HW111363   5.814   3.148   4.182
 3488SOL    HW211364   5.661   3.133   4.129
 3489SOL     OW11365   3.304   6.852   0.332
 3489SOL    HW111366   3.346   6.785   0.271
 3489SOL    HW211367   3.374   6.918   0.361
 3490SOL     OW11368   4.627   4.098   7.007
 3490SOL    HW111369   4.581   4.124   0.073
 3490SOL    HW211370   4.709   4.045   0.010
 3491SOL     OW11371   6.753   2.930   5.818
 3491SOL    HW111372   6.846   2.953   5.790
 3491SOL    HW211373   6.688   2.985   5.767
 3492SOL     OW11374   0.641   5.772   0.521
 3492SOL    HW111375   0.633   5.697   0.586
 3492SOL    HW211376   0.719   5.829   0.545
 3493SOL     OW11377   6.410   5.066   6.891
 3493SOL    HW111378   6.383   5.162   6.896
 3493SOL    HW211379   6.504   5.056   6.923
 3494SOL     OW11380   4.657   0.019   0.588
 3494SOL    HW111381   4.679   0.064   0.675
 3494SOL    HW211382   4.588   6.966   0.604
 3495SOL     OW11383   4.598   4.627   2.560
 3495SOL    HW111384   4.513   4.611   2.510
 3495SOL    HW211385   4.652   4.697   2.514
 3496SOL     OW11386   1.130   3.359   1.285
 3496SOL    HW111387   1.081   3.332   1.368
 3496SOL    HW211388   1.208   3.297   1.270
 3497SOL     OW11389   3.760   0.622   3.009
 3497SOL    HW111390   3.744   0.682   3.088
 3497SOL    HW211391   3.847   0.645   2.967
 3498SOL     OW11392   3.372   2.146   0.984
 3498SOL    HW111393   3.305   2.219   0.999
 3498SOL    HW211394   3.365   2.114   0.889
 3499SOL     OW11395   5.848   2.940   4.422
 3499SOL    HW111396   5.791   2.869   4.380
 3499SOL    HW211397   5.860   2.920   4.519
 3500SOL     OW11398   6.717   4.392   6.152
 3500SOL    HW111399   6.726   4.478   6.203
 3500SOL    HW211400   6.806   4.369   6.111
 3501SOL     OW11401   0.335   4.991   4.676
 3501SOL    HW111402   0.318   4.894   4.693
 3501SOL    HW211403   0.280   5.021   4.598
 3502SOL     OW11404   0.066   2.510   1.858
 3502SOL    HW111405   0.015   2.596   1.863
 3502SOL    HW211406   0.150   2.517   1.912
 3503SOL     OW11407   5.164   5.685   5.136
 3503SOL    HW111408   5.241   5.624   5.156
 3503SOL    HW211409   5.193   5.780   5.145
 3504SOL     OW11410   2.712   2.747   1.179
 3504SOL    HW111411   2.730   2.841   1.208
 3504SOL    HW211412   2.768   2.685   1.233
 3505SOL     OW11413   5.381   5.510   5.209
 3505SOL    HW111414   5.432   5.502   5.294
 3505SOL    HW211415   5.384   5.423   5.160
 3506SOL     OW11416   4.070   5.489   4.644
 3506SOL    HW111417   4.050   5.581   4.610
 3506SOL    HW211418   3.984   5.440   4.662
 3507SOL     OW11419   1.802   0.764   6.663
 3507SOL    HW111420   1.883   0.764   6.721
 3507SOL    HW211421   1.729   0.714   6.708
 3508SOL     OW11422   4.357   2.116   6.639
 3508SOL    HW111423   4.324   2.086   6.728
 3508SOL    HW211424   4.283   2.114   6.573
 3509SOL     OW11425   5.491   5.562   6.708
 3509SOL    HW111426   5.537   5.602   6.629
 3509SOL    HW211427   5.495   5.626   6.784
 3510SOL     OW11428   1.984   2.753   1.939
 3510SOL    HW111429   2.042   2.823   1.897
 3510SOL    HW211430   2.028   2.719   2.022
 3511SOL     OW11431   1.698   3.723   6.732
 3511SOL    HW111432   1.673   3.754   6.640
 3511SOL    HW211433   1.682   3.798   6.797
 3512SOL     OW11434   0.872   4.657   0.704
 3512SOL    HW111435   0.954   4.705   0.736
 3512SOL    HW211436   0.847   4.587   0.771
 3513SOL     OW11437   6.211   4.300   0.502
 3513SOL    HW111438   6.117   4.328   0.480
 3513SOL    HW211439   6.210   4.240   0.582
 3514SOL     OW11440   0.782   0.605   1.799
 3514SOL    HW111441   0.733   0.527   1.839
 3514SOL    HW211442   0.717   0.663   1.749
 3515SOL     OW11443   3.253   6.040   2.711
 3515SOL    HW111444   3.217   6.005   2.797
 3515SOL    HW211445   3.352   6.021   2.706
 3516SOL     OW11446   3.948   0.983   0.917
 3516SOL    HW111447   4.025   1.026   0.963
 3516SOL    HW211448   3.879   1.053   0.894
 3517SOL     OW11449   0.584   1.319   0.274
 3517SOL    HW111450   0.564   1.378   0.196
 3517SOL    HW211451   0.607   1.227   0.241
 3518SOL     OW11452   4.753   4.221   5.499
 3518SOL    HW111453   4.787   4.204   5.406
 3518SOL    HW211454   4.667   4.173   5.512
 3519SOL     OW11455   1.280   0.481   6.293
 3519SOL    HW111456   1.318   0.550   6.356
 3519SOL    HW211457   1.292   0.390   6.333
 3520SOL     OW11458   3.434   4.523   1.384
 3520SOL    HW111459   3.423   4.531   1.285
 3520SOL    HW211460   3.524   4.485   1.404
 3521SOL     OW11461   5.804   2.905   1.255
 3521SOL    HW111462   5.825   2.949   1.342
 3521SOL    HW211463   5.760   2.817   1.271
 3522SOL     OW11464   3.228   5.348   2.117
 3522SOL    HW111465   3.227   5.405   2.035
 3522SOL    HW211466   3.310   5.290   2.116
 3523SOL     OW11467   3.146   4.612   5.339
 3523SOL    HW111468   3.067   4.568   5.298
 3523SOL    HW211469   3.229   4.562   5.314
 3524SOL     OW11470   2.923   0.731   1.250
 3524SOL    HW111471   2.857   0.668   1.290
 3524SOL    HW211472   2.980   0.770   1.322
 3525SOL     OW11473   0.698   3.347   2.313
 3525SOL    HW111474   0.722   3.351   2.216
 3525SOL    HW211475   0.779   3.368   2.368
 3526SOL     OW11476   1.478   0.504   4.178
 3526SOL    HW111477   1.430   0.533   4.096
 3526SOL    HW211478   1.564   0.555   4.186
 3527SOL     OW11479   5.086   2.753   5.720
 3527SOL    HW111480   5.124   2.661   5.705
 3527SOL    HW211481   5.153   2.809   5.768
 3528SOL     OW11482   0.952   6.657   3.782
 3528SOL    HW111483   0.892   6.736   3.793
 3528SOL    HW211484   0.967   6.640   3.684
 3529SOL     OW11485   3.565   6.743   5.530
 3529SOL    HW111486   3.567   6.809   5.605
 3529SOL    HW211487   3.580   6.792   5.443
 3530SOL     OW11488   2.210   5.775   2.771
 3530SOL    HW111489   2.176   5.869   2.771
 3530SOL    HW211490   2.138   5.713   2.801
 3531SOL     OW11491   5.716   3.531   0.181
 3531SOL    HW111492   5.666   3.613   0.153
 3531SOL    HW211493   5.685   3.452   0.127
 3532SOL     OW11494   3.045   0.422   0.033
 3532SOL    HW111495   2.973   0.377   6.998
 3532SOL    HW211496   3.005   0.498   0.084
 3533SOL     OW11497   1.167   2.001   3.703
 3533SOL    HW111498   1.218   2.019   3.786
 3533SOL    HW211499   1.209   1.925   3.653
 3534SOL     OW11500   5.576   1.543   5.412
 3534SOL    HW111501   5.512   1.523   5.486
 3534SOL    HW211502   5.581   1.466   5.350
 3535SOL     OW11503   6.812   5.887   0.538
 3535SOL    HW111504   6.815   5.972   0.485
 3535SOL    HW211505   6.718   5.852   0.539
 3536SOL     OW11506   1.706   3.670   3.442
 3536SOL    HW111507   1.627   3.641   3.496
 3536SOL    HW211508   1.684   3.755   3.394
 3537SOL     OW11509   2.287   5.003   0.657
 3537SOL    HW111510   2.275   5.068   0.582
 3537SOL    HW211511   2.220   5.022   0.729
 3538SOL     OW11512   3.170   0.962   4.073
 3538SOL    HW111513   3.174   1.058   4.101
 3538SOL    HW211514   3.221   0.906   4.138
 3539SOL     OW11515   6.052   3.320   5.495
 3539SOL    HW111516   6.054   3.420   5.487
 3539SOL    HW211517   6.106   3.279   5.422
 3540SOL     OW11518   2.235   2.980   6.425
 3540SOL    HW111519   2.305   2.923   6.467
 3540SOL    HW211520   2.184   2.927   6.358
 3541SOL     OW11521   2.574   2.757   0.533
 3541SOL    HW111522   2.582   2.761   0.632
 3541SOL    HW211523   2.557   2.849   0.497
 3542SOL     OW11524   5.426   2.161   0.083
 3542SOL    HW111525   5.370   2.191   0.006
 3542SOL    HW211526   5.392   2.202   0.167
 3543SOL     OW11527   1.409   3.652   3.231
 3543SOL    HW111528   1.355   3.709   3.294
 3543SOL    HW211529   1.360   3.643   3.145
 3544SOL     OW11530   2.969   4.234   0.101
 3544SOL    HW111531   2.919   4.320   0.108
 3544SOL    HW211532   3.015   4.214   0.188
 3545SOL     OW11533   3.901   4.953   0.346
 3545SOL    HW111534   3.907   4.890   0.423
 3545SOL    HW211535   3.956   5.034   0.365
 3546SOL     OW11536   6.203   4.606   3.348
 3546SOL    HW111537   6.158   4.648   3.270
 3546SOL    HW211538   6.300   4.632   3.349
 3547SOL     OW11539   6.725   3.216   4.448
 3547SOL    HW111540   6.627   3.225   4.430
 3547SOL    HW211541   6.739   3.173   4.537
 3548SOL     OW11542   5.188   1.131   5.570
 3548SOL    HW111543   5.185   1.230   5.582
 3548SOL    HW211544   5.268   1.107   5.514
 3549SOL     OW11545   2.086   4.906   6.466
 3549SOL    HW111546   2.120   4.875   6.555
 3549SOL    HW211547   2.116   4.843   6.395
 3550SOL     OW11548   5.702   2.432   5.010
 3550SOL    HW111549   5.605   2.431   5.035
 3550SOL    HW211550   5.710   2.418   4.911
 3551SOL     OW11551   3.292   1.909   5.050
 3551SOL    HW111552   3.207   1.879   5.006
 3551SOL    HW211553   3.272   1.978   5.119
 3552SOL     OW11554   6.303   5.416   2.179
 3552SOL    HW111555   6.311   5.317   2.182
 3552SOL    HW211556   6.230   5.446   2.240
 3553SOL     OW11557   3.264   5.716   6.337
 3553SOL    HW111558   3.276   5.617   6.324
 3553SOL    HW211559   3.202   5.732   6.413
 3554SOL     OW11560   3.912   4.201   0.885
 3554SOL    HW111561   3.849   4.218   0.809
 3554SOL    HW211562   3.971   4.124   0.863
 3555SOL     OW11563   2.392   2.172   4.418
 3555SOL    HW111564   2.365   2.114   4.342
 3555SOL    HW211565   2.430   2.116   4.492
 3556SOL     OW11566   3.968   1.298   4.472
 3556SOL    HW111567   3.894   1.362   4.493
 3556SOL    HW211568   4.043   1.348   4.427
 3557SOL     OW11569   0.331   0.098   2.673
 3557SOL    HW111570   0.418   0.078   2.629
 3557SOL    HW211571   0.321   0.196   2.685
 3558SOL     OW11572   2.536   5.506   0.770
 3558SOL    HW111573   2.460   5.566   0.743
 3558SOL    HW211574   2.582   5.545   0.850
 3559SOL     OW11575   2.649   0.301   5.147
 3559SOL    HW111576   2.578   0.349   5.198
 3559SOL    HW211577   2.672   0.215   5.193
 3560SOL     OW11578   1.776   4.813   4.089
 3560SOL    HW111579   1.840   4.750   4.132
 3560SOL    HW211580   1.683   4.776   4.097
 3561SOL     OW11581   5.650   4.511   5.645
 3561SOL    HW111582   5.627   4.422   5.607
 3561SOL    HW211583   5.664   4.503   5.744
 3562SOL     OW11584   3.518   1.797   4.063
 3562SOL    HW111585   3.474   1.729   4.122
 3562SOL    HW211586   3.475   1.886   4.078
 3563SOL     OW11587   5.836   2.249   6.573
 3563SOL    HW111588   5.757   2.248   6.512
 3563SOL    HW211589   5.864   2.343   6.590
 3564SOL     OW11590   0.691   4.818   2.898
 3564SOL    HW111591   0.710   4.877   2.820
 3564SOL    HW211592   0.599   4.779   2.888
 3565SOL     OW11593   3.810   4.886   2.592
 3565SOL    HW111594   3.863   4.807   2.620
 3565SOL    HW211595   3.765   4.866   2.504
 3566SOL     OW11596   6.834   1.056   5.590
 3566SOL    HW111597   6.786   1.136   5.626
 3566SOL    HW211598   6.842   1.063   5.491
 3567SOL     OW11599   0.091   2.833   6.366
 3567SOL    HW111600   0.143   2.899   6.420
 3567SOL    HW211601   0.104   2.853   6.269
 3568SOL     OW11602   6.632   3.868   5.428
 3568SOL    HW111603   6.602   3.960   5.453
 3568SOL    HW211604   6.633   3.810   5.510
 3569SOL     OW11605   2.733   1.980   5.178
 3569SOL    HW111606   2.744   1.984   5.078
 3569SOL    HW211607   2.820   1.955   5.220
 3570SOL     OW11608   4.816   0.254   6.189
 3570SOL    HW111609   4.775   0.177   6.239
 3570SOL    HW211610   4.768   0.338   6.212
 3571SOL     OW11611   0.435   5.681   6.910
 3571SOL    HW111612   0.451   5.582   6.908
 3571SOL    HW211613   0.464   5.721   6.823
 3572SOL     OW11614   5.533   3.801   3.834
 3572SOL    HW111615   5.578   3.890   3.829
 3572SOL    HW211616   5.602   3.728   3.835
 3573SOL     OW11617   0.380   4.568   4.121
 3573SOL    HW111618   0.406   4.505   4.048
 3573SOL    HW211619   0.425   4.542   4.206
 3574SOL     OW11620   0.507   4.677   6.965
 3574SOL    HW111621   0.522   4.693   0.044
 3574SOL    HW211622   0.576   4.728   6.912
 3575SOL     OW11623   5.550   5.107   3.498
 3575SOL    HW111624   5.637   5.058   3.488
 3575SOL    HW211625   5.475   5.047   3.468
 3576SOL     OW11626   2.137   1.550   5.971
 3576SOL    HW111627   2.147   1.451   5.973
 3576SOL    HW211628   2.140   1.582   5.877
 3577SOL     OW11629   1.411   2.702   6.705
 3577SOL    HW111630   1.437   2.791   6.743
 3577SOL    HW211631   1.491   2.643   6.701
 3578SOL     OW11632   3.786   3.284   7.008
 3578SOL    HW111633   3.698   3.312   0.028
 3578SOL    HW211634   3.780   3.190   6.975
 3579SOL     OW11635   0.088   3.685   4.354
 3579SOL    HW111636   0.187   3.691   4.344
 3579SOL    HW211637   0.064   3.672   4.450
 3580SOL     OW11638   5.834   1.462   1.424
 3580SOL    HW111639   5.785   1.380   1.455
 3580SOL    HW211640   5.840   1.527   1.499
 3581SOL     OW11641   6.219   0.584   4.122
 3581SOL    HW111642   6.177   0.571   4.033
 3581SOL    HW211643   6.152   0.623   4.185
 3582SOL     OW11644   0.621   2.295   6.111
 3582SOL    HW111645   0.630   2.346   6.025
 3582SOL    HW211646   0.650   2.200   6.098
 3583SOL     OW11647   0.742   4.152   6.882
 3583SOL    HW111648   0.720   4.248   6.867
 3583SOL    HW211649   0.714   4.126   6.974
 3584SOL     OW11650   6.063   6.001   6.389
 3584SOL    HW111651   6.122   6.056   6.448
 3584SOL    HW211652   6.052   5.910   6.428
 3585SOL     OW11653   3.578   5.492   5.121
 3585SOL    HW111654   3.593   5.591   5.124
 3585SOL    HW211655   3.530   5.468   5.037
 3586SOL     OW11656   6.697   2.126   5.344
 3586SOL    HW111657   6.609   2.151   5.305
 3586SOL    HW211658   6.686   2.043   5.399
 3587SOL     OW11659   2.690   5.196   0.195
 3587SOL    HW111660   2.771   5.191   0.254
 3587SOL    HW211661   2.702   5.135   0.116
 3588SOL     OW11662   1.052   3.028   5.487
 3588SOL    HW111663   1.091   2.936   5.482
 3588SOL    HW211664   1.118   3.090   5.530
 3589SOL     OW11665   3.974   1.552   4.018
 3589SOL    HW111666   4.013   1.618   4.081
 3589SOL    HW211667   4.000   1.459   4.046
 3590SOL     OW11668   6.995   4.189   6.327
 3590SOL    HW111669   0.070   4.194   6.362
 3590SOL    HW211670   6.989   4.118   6.257
 3591SOL     OW11671   4.989   3.312   6.507
 3591SOL    HW111672   4.948   3.390   6.554
 3591SOL    HW211673   4.950   3.227   6.542
 3592SOL     OW11674   5.680   3.926   3.134
 3592SOL    HW111675   5.733   3.960   3.057
 3592SOL    HW211676   5.697   3.982   3.214
 3593SOL     OW11677   2.098   5.946   4.667
 3593SOL    HW111678   2.005   5.923   4.637
 3593SOL    HW211679   2.093   5.995   4.755
 3594SOL     OW11680   3.775   0.669   2.541
 3594SOL    HW111681   3.809   0.754   2.583
 3594SOL    HW211682   3.684   0.649   2.576
 3595SOL     OW11683   1.686   6.208   6.539
 3595SOL    HW111684   1.656   6.208   6.635
 3595SOL    HW211685   1.612   6.172   6.482
 3596SOL     OW11686   6.768   2.167   3.147
 3596SOL    HW111687   6.826   2.091   3.177
 3596SOL    HW211688   6.722   2.206   3.227
 3597SOL     OW11689   2.761   6.891   5.027
 3597SOL    HW111690   2.679   6.871   4.973
 3597SOL    HW211691   2.770   6.823   5.100
 3598SOL     OW11692   1.311   0.466   5.660
 3598SOL    HW111693   1.244   0.483   5.732
 3598SOL    HW211694   1.290   0.380   5.614
 3599SOL     OW11695   0.758   2.255   5.415
 3599SOL    HW111696   0.704   2.182   5.373
 3599SOL    HW211697   0.834   2.214   5.467
 3600SOL     OW11698   0.397   3.303   1.052
 3600SOL    HW111699   0.421   3.239   1.125
 3600SOL    HW211700   0.382   3.252   0.968
 3601SOL     OW11701   6.678   4.115   0.063
 3601SOL    HW111702   6.614   4.041   0.083
 3601SOL    HW211703   6.695   4.118   6.982
 3602SOL     OW11704   1.380   1.490   1.093
 3602SOL    HW111705   1.427   1.442   1.019
 3602SOL    HW211706   1.418   1.460   1.181
 3603SOL     OW11707   3.197   6.675   3.841
 3603SOL    HW111708   3.231   6.768   3.858
 3603SOL    HW211709   3.213   6.618   3.921
 3604SOL     OW11710   6.396   4.744   4.027
 3604SOL    HW111711   6.352   4.813   4.085
 3604SOL    HW211712   6.374   4.762   3.932
 3605SOL     OW11713   5.912   4.741   5.953
 3605SOL    HW111714   6.007   4.711   5.949
 3605SOL    HW211715   5.858   4.674   6.003
 3606SOL     OW11716   6.448   5.141   5.627
 3606SOL    HW111717   6.500   5.186   5.555
 3606SOL    HW211718   6.375   5.085   5.587
 3607SOL     OW11719   5.396   6.421   0.874
 3607SOL    HW111720   5.471   6.487   0.864
 3607SOL    HW211721   5.423   6.348   0.936
 3608SOL     OW11722   6.947   1.947   1.855
 3608SOL    HW111723   6.984   1.956   1.763
 3608SOL    HW211724   6.892   1.863   1.861
 3609SOL     OW11725   0.242   0.286   4.073
 3609SOL    HW111726   0.191   0.342   4.008
 3609SOL    HW211727   0.201   0.296   4.164
 3610SOL     OW11728   0.440   0.489   5.836
 3610SOL    HW111729   0.418   0.407   5.890
 3610SOL    HW211730   0.433   0.467   5.739
 3611SOL     OW11731   3.760   5.371   5.628
 3611SOL    HW111732   3.707   5.383   5.544
 3611SOL    HW211733   3.715   5.306   5.688
 3612SOL     OW11734   6.150   0.380   5.905
 3612SOL    HW111735   6.208   0.456   5.934
 3612SOL    HW211736   6.122   0.328   5.986
 3613SOL     OW11737   5.443   5.049   1.469
 3613SOL    HW111738   5.528   5.028   1.518
 3613SOL    HW211739   5.404   5.134   1.504
 3614SOL     OW11740   3.368   3.494   2.946
 3614SOL    HW111741   3.364   3.594   2.947
 3614SOL    HW211742   3.276   3.457   2.937
 3615SOL     OW11743   6.021   6.000   6.108
 3615SOL    HW111744   5.922   5.993   6.090
 3615SOL    HW211745   6.035   6.017   6.206
 3616SOL     OW11746   6.980   1.558   6.525
 3616SOL    HW111747   6.989   1.610   6.440
 3616SOL    HW211748   6.943   1.618   6.596
 3617SOL     OW11749   5.463   1.308   6.810
 3617SOL    HW111750   5.389   1.374   6.805
 3617SOL    HW211751   5.437   1.233   6.870
 3618SOL     OW11752   1.889   2.040   5.444
 3618SOL    HW111753   1.819   2.045   5.515
 3618SOL    HW211754   1.948   2.121   5.451
 3619SOL     OW11755   5.930   2.672   3.772
 3619SOL    HW111756   5.930   2.707   3.678
 3619SOL    HW211757   5.873   2.590   3.777
 3620SOL     OW11758   5.958   5.626   5.834
 3620SOL    HW111759   6.054   5.644   5.811
 3620SOL    HW211760   5.940   5.528   5.830
 3621SOL     OW11761   3.072   1.872   5.871
 3621SOL    HW111762   2.982   1.866   5.829
 3621SOL    HW211763   3.082   1.960   5.916
 3622SOL     OW11764   2.500   2.204   3.394
 3622SOL    HW111765   2.421   2.215   3.334
 3622SOL    HW211766   2.472   2.216   3.489
 3623SOL     OW11767   5.532   6.177   4.032
 3623SOL    HW111768   5.578   6.160   4.120
 3623SOL    HW211769   5.575   6.255   3.987
 3624SOL     OW11770   2.092   0.542   2.194
 3624SOL    HW111771   2.014   0.566   2.253
 3624SOL    HW211772   2.171   0.598   2.220
 3625SOL     OW11773   6.141   3.009   6.996
 3625SOL    HW111774   6.229   2.989   6.954
 3625SOL    HW211775   6.124   2.945   0.052
 3626SOL     OW11776   1.767   3.686   5.342
 3626SOL    HW111777   1.838   3.709   5.275
 3626SOL    HW211778   1.810   3.667   5.430
 3627SOL     OW11779   3.871   2.979   3.343
 3627SOL    HW111780   3.913   3.039   3.411
 3627SOL    HW211781   3.923   2.984   3.258
 3628SOL     OW11782   2.134   6.844   1.444
 3628SOL    HW111783   2.077   6.765   1.421
 3628SOL    HW211784   2.094   6.927   1.406
 3629SOL     OW11785   6.464   2.208   3.874
 3629SOL    HW111786   6.434   2.262   3.795
 3629SOL    HW211787   6.388   2.151   3.906
 3630SOL     OW11788   5.346   2.674   3.296
 3630SOL    HW111789   5.442   2.701   3.308
 3630SOL    HW211790   5.296   2.748   3.252
 3631SOL     OW11791   1.916   6.774   3.982
 3631SOL    HW111792   1.831   6.812   3.944
 3631SOL    HW211793   1.985   6.846   3.987
 3632SOL     OW11794   5.292   0.377   0.496
 3632SOL    HW111795   5.277   0.283   0.526
 3632SOL    HW211796   5.261   0.387   0.402
 3633SOL     OW11797   3.255   1.530   5.970
 3633SOL    HW111798   3.204   1.529   5.885
 3633SOL    HW211799   3.333   1.467   5.964
 3634SOL     OW11800   0.414   5.428   5.568
 3634SOL    HW111801   0.383   5.520   5.542
 3634SOL    HW211802   0.433   5.375   5.485
 3635SOL     OW11803   2.445   0.385   6.321
 3635SOL    HW111804   2.457   0.390   6.421
 3635SOL    HW211805   2.355   0.420   6.297
 3636SOL     OW11806   0.756   5.810   6.498
 3636SOL    HW111807   0.812   5.740   6.543
 3636SOL    HW211808   0.695   5.767   6.432
 3637SOL     OW11809   6.369   2.189   1.215
 3637SOL    HW111810   6.387   2.096   1.184
 3637SOL    HW211811   6.449   2.224   1.263
 3638SOL     OW11812   6.923   4.432   4.234
 3638SOL    HW111813   6.914   4.528   4.208
 3638SOL    HW211814   7.003   4.392   4.189
 3639SOL     OW11815   4.041   3.959   0.835
 3639SOL    HW111816   4.114   4.001   0.889
 3639SOL    HW211817   3.994   3.890   0.890
 3640SOL     OW11818   3.573   0.090   6.723
 3640SOL    HW111819   3.567   0.043   6.811
 3640SOL    HW211820   3.669   0.100   6.697
 3641SOL     OW11821   4.806   2.889   3.909
 3641SOL    HW111822   4.883   2.953   3.910
 3641SOL    HW211823   4.773   2.878   3.815
 3642SOL     OW11824   5.000   0.989   0.336
 3642SOL    HW111825   5.048   1.029   0.414
 3642SOL    HW211826   5.040   1.025   0.251
 3643SOL     OW11827   3.087   5.593   4.616
 3643SOL    HW111828   3.008   5.636   4.659
 3643SOL    HW211829   3.087   5.495   4.635
 3644SOL     OW11830   6.831   1.223   1.636
 3644SOL    HW111831   6.904   1.156   1.642
 3644SOL    HW211832   6.842   1.277   1.552
 3645SOL     OW11833   6.641   1.475   3.737
 3645SOL    HW111834   6.628   1.435   3.827
 3645SOL    HW211835   6.596   1.565   3.734
 3646SOL     OW11836   6.617   4.016   6.526
 3646SOL    HW111837   6.714   4.035   6.538
 3646SOL    HW211838   6.589   4.044   6.434
 3647SOL     OW11839   2.357   3.281   0.170
 3647SOL    HW111840   2.334   3.250   0.262
 3647SOL    HW211841   2.296   3.356   0.143
 3648SOL     OW11842   2.828   4.975   3.017
 3648SOL    HW111843   2.772   5.026   2.951
 3648SOL    HW211844   2.921   4.964   2.981
 3649SOL     OW11845   4.953   3.081   1.609
 3649SOL    HW111846   4.961   3.030   1.695
 3649SOL    HW211847   4.865   3.128   1.607
 3650SOL     OW11848   0.174   4.945   0.423
 3650SOL    HW111849   0.265   4.903   0.420
 3650SOL    HW211850   0.155   4.989   0.335
 3651SOL     OW11851   0.169   6.458   3.969
 3651SOL    HW111852   0.125   6.435   3.882
 3651SOL    HW211853   0.268   6.465   3.955
 3652SOL     OW11854   6.171   6.543   3.214
 3652SOL    HW111855   6.236   6.529   3.289
 3652SOL    HW211856   6.215   6.592   3.139
 3653SOL     OW11857   6.935   0.878   3.638
 3653SOL    HW111858   6.987   0.959   3.611
 3653SOL    HW211859   6.881   0.899   3.719
 3654SOL     OW11860   2.374   5.852   0.502
 3654SOL    HW111861   2.291   5.903   0.525
 3654SOL    HW211862   2.412   5.812   0.586
 3655SOL     OW11863   1.764   0.026   3.334
 3655SOL    HW111864   1.683   7.003   3.376
 3655SOL    HW211865   1.788   0.109   3.385
 3656SOL     OW11866   0.897   3.437   2.454
 3656SOL    HW111867   0.881   3.432   2.553
 3656SOL    HW211868   0.927   3.530   2.430
 3657SOL     OW11869   5.032   5.130   6.158
 3657SOL    HW111870   5.046   5.051   6.097
 3657SOL    HW211871   4.945   5.173   6.137
 3658SOL     OW11872   1.928   6.262   3.963
 3658SOL    HW111873   1.936   6.198   4.039
 3658SOL    HW211874   1.942   6.214   3.877
 3659SOL     OW11875   2.615   3.324   5.804
 3659SOL    HW111876   2.583   3.412   5.768
 3659SOL    HW211877   2.664   3.339   5.890
 3660SOL     OW11878   4.510   0.197   2.813
 3660SOL    HW111879   4.542   0.194   2.908
 3660SOL    HW211880   4.414   0.225   2.812
 3661SOL     OW11881   4.713   1.560   5.621
 3661SOL    HW111882   4.685   1.646   5.664
 3661SOL    HW211883   4.746   1.498   5.691
 3662SOL     OW11884   4.380   0.768   3.670
 3662SOL    HW111885   4.301   0.826   3.687
 3662SOL    HW211886   4.419   0.737   3.757
 3663SOL     OW11887   2.089   1.859   0.457
 3663SOL    HW111888   2.176   1.896   0.425
 3663SOL    HW211889   2.076   1.768   0.418
 3664SOL     OW11890   4.757   2.121   1.810
 3664SOL    HW111891   4.817   2.200   1.821
 3664SOL    HW211892   4.739   2.080   1.900
 3665SOL     OW11893   1.326   6.333   5.554
 3665SOL    HW111894   1.371   6.244   5.561
 3665SOL    HW211895   1.319   6.374   5.645
 3666SOL     OW11896   1.847   3.904   3.066
 3666SOL    HW111897   1.801   3.991   3.046
 3666SOL    HW211898   1.794   3.853   3.133
 3667SOL     OW11899   6.896   0.497   0.881
 3667SOL    HW111900   6.961   0.457   0.816
 3667SOL    HW211901   6.837   0.563   0.833
 3668SOL     OW11902   1.639   1.097   2.271
 3668SOL    HW111903   1.689   1.015   2.243
 3668SOL    HW211904   1.612   1.149   2.190
 3669SOL     OW11905   6.018   1.477   3.475
 3669SOL    HW111906   5.949   1.501   3.543
 3669SOL    HW211907   6.065   1.559   3.444
 3670SOL     OW11908   2.012   4.812   0.195
 3670SOL    HW111909   2.106   4.803   0.229
 3670SOL    HW211910   2.012   4.877   0.118
 3671SOL     OW11911   6.210   0.329   3.947
 3671SOL    HW111912   6.115   0.297   3.952
 3671SOL    HW211913   6.221   0.388   3.867
 3672SOL     OW11914   5.518   2.459   1.697
 3672SOL    HW111915   5.523   2.548   1.653
 3672SOL    HW211916   5.451   2.402   1.649
 3673SOL     OW11917   3.817   6.982   6.576
 3673SOL    HW111918   3.754   6.913   6.611
 3673SOL    HW211919   3.869   6.944   6.500
 3674SOL     OW11920   0.343   0.100   5.236
 3674SOL    HW111921   0.285   0.078   5.313
 3674SOL    HW211922   0.405   0.024   5.217
 3675SOL     OW11923   1.632   2.961   4.939
 3675SOL    HW111924   1.582   2.920   5.015
 3675SOL    HW211925   1.670   3.049   4.968
 3676SOL     OW11926   4.994   4.600   4.776
 3676SOL    HW111927   4.937   4.542   4.835
 3676SOL    HW211928   4.987   4.695   4.806
 3677SOL     OW11929   2.037   6.565   3.002
 3677SOL    HW111930   2.091   6.491   2.960
 3677SOL    HW211931   2.093   6.646   3.012
 3678SOL     OW11932   0.694   3.658   4.423
 3678SOL    HW111933   0.646   3.735   4.463
 3678SOL    HW211934   0.683   3.577   4.481
 3679SOL     OW11935   1.655   0.464   3.056
 3679SOL    HW111936   1.740   0.494   3.015
 3679SOL    HW211937   1.642   0.367   3.039
 3680SOL     OW11938   5.821   2.277   3.010
 3680SOL    HW111939   5.820   2.366   2.963
 3680SOL    HW211940   5.814   2.292   3.108
 3681SOL     OW11941   0.642   0.672   5.234
 3681SOL    HW111942   0.703   0.727   5.177
 3681SOL    HW211943   0.687   0.585   5.255
 3682SOL     OW11944   5.204   2.338   6.733
 3682SOL    HW111945   5.215   2.261   6.795
 3682SOL    HW211946   5.129   2.318   6.669
 3683SOL     OW11947   6.872   6.593   3.350
 3683SOL    HW111948   6.878   6.644   3.264
 3683SOL    HW211949   6.794   6.531   3.347
 3684SOL     OW11950   1.537   4.436   0.135
 3684SOL    HW111951   1.462   4.479   0.083
 3684SOL    HW211952   1.557   4.491   0.216
 3685SOL     OW11953   6.493   6.621   6.119
 3685SOL    HW111954   6.550   6.703   6.110
 3685SOL    HW211955   6.543   6.553   6.172
 3686SOL     OW11956   6.433   6.410   3.032
 3686SOL    HW111957   6.424   6.507   3.010
 3686SOL    HW211958   6.352   6.380   3.082
 3687SOL     OW11959   3.580   5.868   5.488
 3687SOL    HW111960   3.678   5.876   5.509
 3687SOL    HW211961   3.528   5.862   5.573
 3688SOL     OW11962   6.912   3.062   6.409
 3688SOL    HW111963   6.961   2.989   6.361
 3688SOL    HW211964   6.814   3.043   6.408
 3689SOL     OW11965   2.055   0.912   6.897
 3689SOL    HW111966   2.072   0.868   6.985
 3689SOL    HW211967   2.046   0.843   6.826
 3690SOL     OW11968   4.449   6.560   6.926
 3690SOL    HW111969   4.509   6.498   6.875
 3690SOL    HW211970   4.465   6.548   0.006
 3691SOL     OW11971   3.074   2.491   0.093
 3691SOL    HW111972   3.166   2.497   0.053
 3691SOL    HW211973   3.081   2.475   0.191
 3692SOL     OW11974   0.749   6.032   5.206
 3692SOL    HW111975   0.740   6.029   5.107
 3692SOL    HW211976   0.661   6.011   5.249
 3693SOL     OW11977   2.194   3.071   2.975
 3693SOL    HW111978   2.125   3.143   2.982
 3693SOL    HW211979   2.205   3.027   3.065
 3694SOL     OW11980   1.569   5.294   2.748
 3694SOL    HW111981   1.547   5.203   2.783
 3694SOL    HW211982   1.485   5.349   2.742
 3695SOL     OW11983   6.363   2.761   2.273
 3695SOL    HW111984   6.425   2.833   2.305
 3695SOL    HW211985   6.409   2.708   2.201
 3696SOL     OW11986   2.952   5.761   4.844
 3696SOL    HW111987   2.884   5.703   4.889
 3696SOL    HW211988   2.977   5.836   4.904
 3697SOL     OW11989   0.332   6.180   3.543
 3697SOL    HW111990   0.344   6.158   3.640
 3697SOL    HW211991   0.276   6.262   3.534
 3698SOL     OW11992   2.438   6.982   5.118
 3698SOL    HW111993   2.520   7.007   5.169
 3698SOL    HW211994   2.464   6.928   5.037
 3699SOL     OW11995   0.339   3.301   3.547
 3699SOL    HW111996   0.245   3.312   3.514
 3699SOL    HW211997   0.401   3.288   3.470
 3700SOL     OW11998   7.005   0.392   4.434
 3700SOL    HW111999   0.058   0.448   4.475
 3700SOL    HW212000   6.956   0.343   4.506
 3701SOL     OW12001   0.846   0.684   3.746
 3701SOL    HW112002   0.801   0.605   3.788
 3701SOL    HW212003   0.885   0.657   3.658
 3702SOL     OW12004   5.690   6.370   2.527
 3702SOL    HW112005   5.666   6.360   2.623
 3702SOL    HW212006   5.628   6.436   2.484
 3703SOL     OW12007   4.157   2.095   6.462
 3703SOL    HW112008   4.149   2.015   6.522
 3703SOL    HW212009   4.088   2.089   6.389
 3704SOL     OW12010   3.575   1.320   0.899
 3704SOL    HW112011   3.675   1.315   0.910
 3704SOL    HW212012   3.554   1.353   0.806
 3705SOL     OW12013   5.166   5.712   3.708
 3705SOL    HW112014   5.144   5.666   3.794
 3705SOL    HW212015   5.178   5.809   3.725
 3706SOL     OW12016   1.546   3.572   5.251
 3706SOL    HW112017   1.465   3.623   5.279
 3706SOL    HW212018   1.628   3.618   5.285
 3707SOL     OW12019   5.951   3.919   5.544
 3707SOL    HW112020   5.929   3.997   5.602
 3707SOL    HW212021   5.871   3.860   5.536
 3708SOL     OW12022   6.672   0.914   6.567
 3708SOL    HW112023   6.723   0.986   6.522
 3708SOL    HW212024   6.707   0.901   6.660
 3709SOL     OW12025   3.675   0.593   0.870
 3709SOL    HW112026   3.608   0.616   0.940
 3709SOL    HW212027   3.694   0.673   0.813
 3710SOL     OW12028   0.075   5.770   0.361
 3710SOL    HW112029   0.118   5.860   0.372
 3710SOL    HW212030   0.081   5.720   0.447
 3711SOL     OW12031   6.920   6.469   2.282
 3711SOL    HW112032   6.970   6.497   2.200
 3711SOL    HW212033   6.977   6.407   2.336
 3712SOL     OW12034   0.062   6.638   6.678
 3712SOL    HW112035   7.000   6.684   6.639
 3712SOL    HW212036   0.039   6.601   6.768
 3713SOL     OW12037   1.863   5.987   4.401
 3713SOL    HW112038   1.889   6.042   4.480
 3713SOL    HW212039   1.817   6.045   4.334
 3714SOL     OW12040   4.720   4.994   5.139
 3714SOL    HW112041   4.815   4.975   5.164
 3714SOL    HW212042   4.718   5.067   5.071
 3715SOL     OW12043   6.094   3.828   3.004
 3715SOL    HW112044   6.188   3.794   3.011
 3715SOL    HW212045   6.033   3.770   3.058
 3716SOL     OW12046   5.976   6.571   4.953
 3716SOL    HW112047   5.904   6.640   4.944
 3716SOL    HW212048   6.048   6.588   4.886
 3717SOL     OW12049   5.410   5.466   5.980
 3717SOL    HW112050   5.390   5.542   5.918
 3717SOL    HW212051   5.354   5.476   6.063
 3718SOL     OW12052   2.208   0.533   6.904
 3718SOL    HW112053   2.146   0.521   6.982
 3718SOL    HW212054   2.232   0.443   6.867
 3719SOL     OW12055   5.367   4.567   0.788
 3719SOL    HW112056   5.446   4.507   0.800
 3719SOL    HW212057   5.337   4.564   0.692
 3720SOL     OW12058   6.597   1.914   5.452
 3720SOL    HW112059   6.525   1.876   5.395
 3720SOL    HW212060   6.661   1.842   5.479
 3721SOL     OW12061   5.751   4.695   1.098
 3721SOL    HW112062   5.752   4.595   1.097
 3721SOL    HW212063   5.673   4.728   1.045
 3722SOL     OW12064   6.285   6.764   1.554
 3722SOL    HW112065   6.206   6.821   1.576
 3722SOL    HW212066   6.322   6.724   1.638
 3723SOL     OW12067   6.265   6.232   1.862
 3723SOL    HW112068   6.350   6.283   1.848
 3723SOL    HW212069   6.233   6.246   1.956
 3724SOL     OW12070   1.666   5.158   6.429
 3724SOL    HW112071   1.719   5.076   6.411
 3724SOL    HW212072   1.627   5.192   6.344
 3725SOL     OW12073   5.765   5.427   0.578
 3725SOL    HW112074   5.744   5.342   0.529
 3725SOL    HW212075   5.680   5.476   0.598
 3726SOL     OW12076   6.580   5.782   0.498
 3726SOL    HW112077   6.599   5.753   0.405
 3726SOL    HW212078   6.483   5.804   0.507
 3727SOL     OW12079   6.577   1.869   5.900
 3727SOL    HW112080   6.572   1.969   5.890
 3727SOL    HW212081   6.671   1.839   5.881
 3728SOL     OW12082   1.173   4.261   0.179
 3728SOL    HW112083   1.203   4.190   0.116
 3728SOL    HW212084   1.092   4.306   0.143
 3729SOL     OW12085   0.941   2.091   3.552
 3729SOL    HW112086   1.026   2.072   3.600
 3729SOL    HW212087   0.898   2.005   3.524
 3730SOL     OW12088   2.469   5.329   6.503
 3730SOL    HW112089   2.477   5.245   6.448
 3730SOL    HW212090   2.486   5.408   6.445
 3731SOL     OW12091   4.978   0.426   1.081
 3731SOL    HW112092   5.037   0.380   1.014
 3731SOL    HW212093   4.986   0.525   1.069
 3732SOL     OW12094   1.755   2.106   6.298
 3732SOL    HW112095   1.817   2.171   6.255
 3732SOL    HW212096   1.756   2.120   6.397
 3733SOL     OW12097   1.564   3.721   1.611
 3733SOL    HW112098   1.572   3.784   1.533
 3733SOL    HW212099   1.578   3.627   1.580
 3734SOL     OW12100   4.707   1.168   1.934
 3734SOL    HW112101   4.616   1.203   1.957
 3734SOL    HW212102   4.731   1.093   1.995
 3735SOL     OW12103   2.015   0.588   3.517
 3735SOL    HW112104   1.949   0.547   3.454
 3735SOL    HW212105   2.078   0.517   3.549
 3736SOL     OW12106   6.447   2.627   0.653
 3736SOL    HW112107   6.402   2.716   0.652
 3736SOL    HW212108   6.399   2.565   0.592
 3737SOL     OW12109   4.741   0.647   3.531
 3737SOL    HW112110   4.643   0.633   3.515
 3737SOL    HW212111   4.759   0.745   3.542
 3738SOL     OW12112   6.878   5.521   2.193
 3738SOL    HW112113   6.937   5.552   2.118
 3738SOL    HW212114   6.933   5.474   2.262
 3739SOL     OW12115   2.746   4.774   1.449
 3739SOL    HW112116   2.816   4.822   1.395
 3739SOL    HW212117   2.788   4.736   1.531
 3740SOL     OW12118   5.621   6.890   0.464
 3740SOL    HW112119   5.567   6.966   0.429
 3740SOL    HW212120   5.684   6.923   0.533
 3741SOL     OW12121   4.796   3.332   1.513
 3741SOL    HW112122   4.785   3.398   1.439
 3741SOL    HW212123   4.719   3.341   1.577
 3742SOL     OW12124   2.555   1.820   6.219
 3742SOL    HW112125   2.586   1.786   6.308
 3742SOL    HW212126   2.546   1.920   6.223
 3743SOL     OW12127   5.392   3.776   1.011
 3743SOL    HW112128   5.480   3.821   1.030
 3743SOL    HW212129   5.409   3.682   0.984
 3744SOL     OW12130   0.643   6.274   2.685
 3744SOL    HW112131   0.610   6.180   2.688
 3744SOL    HW212132   0.726   6.278   2.628
 3745SOL     OW12133   3.861   5.170   2.168
 3745SOL    HW112134   3.869   5.076   2.135
 3745SOL    HW212135   3.822   5.228   2.096
 3746SOL     OW12136   5.134   1.658   2.605
 3746SOL    HW112137   5.164   1.634   2.697
 3746SOL    HW212138   5.038   1.630   2.593
 3747SOL     OW12139   2.779   0.173   5.445
 3747SOL    HW112140   2.682   0.149   5.447
 3747SOL    HW212141   2.791   0.269   5.467
 3748SOL     OW12142   5.407   0.405   1.748
 3748SOL    HW112143   5.373   0.339   1.815
 3748SOL    HW212144   5.442   0.486   1.795
 3749SOL     OW12145   1.707   6.652   4.138
 3749SOL    HW112146   1.619   6.696   4.120
 3749SOL    HW212147   1.781   6.713   4.111
 3750SOL     OW12148   1.168   3.870   0.576
 3750SOL    HW112149   1.186   3.918   0.490
 3750SOL    HW212150   1.255   3.839   0.616
 3751SOL     OW12151   6.703   3.608   2.198
 3751SOL    HW112152   6.689   3.535   2.130
 3751SOL    HW212153   6.652   3.689   2.170
 3752SOL     OW12154   5.298   0.483   6.839
 3752SOL    HW112155   5.216   0.475   6.784
 3752SOL    HW212156   5.367   0.536   6.789
 3753SOL     OW12157   6.259   0.787   5.725
 3753SOL    HW112158   6.334   0.728   5.756
 3753SOL    HW212159   6.268   0.877   5.767
 3754SOL     OW12160   2.246   0.473   1.440
 3754SOL    HW112161   2.317   0.410   1.409
 3754SOL    HW212162   2.167   0.422   1.473
 3755SOL     OW12163   4.466   5.424   5.137
 3755SOL    HW112164   4.377   5.383   5.159
 3755SOL    HW212165   4.452   5.501   5.074
 3756SOL     OW12166   2.653   5.347   6.728
 3756SOL    HW112167   2.603   5.354   6.642
 3756SOL    HW212168   2.637   5.429   6.783
 3757SOL     OW12169   6.075   5.079   2.051
 3757SOL    HW112170   6.081   5.164   1.998
 3757SOL    HW212171   6.084   5.001   1.989
 3758SOL     OW12172   2.051   1.167   4.298
 3758SOL    HW112173   1.957   1.195   4.319
 3758SOL    HW212174   2.103   1.160   4.383
 3759SOL     OW12175   3.943   7.017   5.537
 3759SOL    HW112176   4.029   0.018   5.489
 3759SOL    HW212177   3.874   0.066   5.510
 3760SOL     OW12178   0.721   1.739   4.034
 3760SOL    HW112179   0.751   1.643   4.034
 3760SOL    HW212180   0.800   1.798   4.049
 3761SOL     OW12181   6.594   0.939   5.389
 3761SOL    HW112182   6.584   1.021   5.445
 3761SOL    HW212183   6.508   0.919   5.342
 3762SOL     OW12184   1.767   4.215   1.224
 3762SOL    HW112185   1.759   4.152   1.302
 3762SOL    HW212186   1.682   4.215   1.172
 3763SOL     OW12187   6.655   3.754   0.274
 3763SOL    HW112188   6.692   3.778   0.184
 3763SOL    HW212189   6.596   3.674   0.265
 3764SOL     OW12190   1.573   7.004   2.500
 3764SOL    HW112191   1.593   6.969   2.409
 3764SOL    HW212192   1.613   6.942   2.568
 3765SOL     OW12193   5.838   1.439   1.142
 3765SOL    HW112194   5.835   1.444   1.242
 3765SOL    HW212195   5.822   1.530   1.104
 3766SOL     OW12196   2.206   1.994   4.216
 3766SOL    HW112197   2.163   1.946   4.292
 3766SOL    HW212198   2.171   2.087   4.212
 3767SOL     OW12199   2.858   4.288   6.379
 3767SOL    HW112200   2.918   4.208   6.387
 3767SOL    HW212201   2.877   4.351   6.455
 3768SOL     OW12202   0.437   6.994   4.843
 3768SOL    HW112203   0.515   6.936   4.865
 3768SOL    HW212204   0.468   0.070   4.833
 3769SOL     OW12205   6.278   5.268   5.346
 3769SOL    HW112206   6.265   5.259   5.445
 3769SOL    HW212207   6.239   5.355   5.315
 3770SOL     OW12208   1.254   0.757   6.897
 3770SOL    HW112209   1.340   0.799   6.868
 3770SOL    HW212210   1.243   0.769   6.996
 3771SOL     OW12211   5.619   4.055   6.582
 3771SOL    HW112212   5.522   4.055   6.557
 3771SOL    HW212213   5.638   3.981   6.645
 3772SOL     OW12214   0.728   0.374   0.170
 3772SOL    HW112215   0.800   0.426   0.214
 3772SOL    HW212216   0.756   0.278   0.163
 3773SOL     OW12217   6.512   3.055   5.254
 3773SOL    HW112218   6.481   3.023   5.164
 3773SOL    HW212219   6.576   2.989   5.293
 3774SOL     OW12220   5.547   5.602   1.736
 3774SOL    HW112221   5.647   5.598   1.746
 3774SOL    HW212222   5.504   5.560   1.816
 3775SOL     OW12223   4.118   5.364   3.368
 3775SOL    HW112224   4.178   5.370   3.288
 3775SOL    HW212225   4.028   5.331   3.340
 3776SOL     OW12226   3.909   2.257   6.471
 3776SOL    HW112227   3.960   2.301   6.397
 3776SOL    HW212228   3.821   2.303   6.482
 3777SOL     OW12229   2.461   5.246   3.960
 3777SOL    HW112230   2.484   5.170   4.021
 3777SOL    HW212231   2.433   5.325   4.015
 3778SOL     OW12232   2.334   5.853   3.503
 3778SOL    HW112233   2.390   5.814   3.430
 3778SOL    HW212234   2.238   5.853   3.474
 3779SOL     OW12235   0.566   5.186   0.782
 3779SOL    HW112236   0.507   5.259   0.748
 3779SOL    HW212237   0.611   5.215   0.867
 3780SOL     OW12238   6.619   3.816   4.493
 3780SOL    HW112239   6.591   3.733   4.444
 3780SOL    HW212240   6.568   3.895   4.456
 3781SOL     OW12241   0.456   0.139   4.012
 3781SOL    HW112242   0.376   0.185   4.051
 3781SOL    HW212243   0.428   0.081   3.937
 3782SOL     OW12244   3.479   6.910   2.922
 3782SOL    HW112245   3.514   7.003   2.911
 3782SOL    HW212246   3.418   6.888   2.846
 3783SOL     OW12247   6.220   5.455   3.921
 3783SOL    HW112248   6.225   5.539   3.976
 3783SOL    HW212249   6.127   5.442   3.888
 3784SOL     OW12250   5.282   2.996   2.671
 3784SOL    HW112251   5.248   3.086   2.700
 3784SOL    HW212252   5.355   2.967   2.733
 3785SOL     OW12253   1.434   3.168   4.690
 3785SOL    HW112254   1.529   3.154   4.720
 3785SOL    HW212255   1.402   3.258   4.720
 3786SOL     OW12256   2.263   4.136   3.230
 3786SOL    HW112257   2.188   4.101   3.175
 3786SOL    HW212258   2.297   4.221   3.190
 3787SOL     OW12259   5.550   0.678   2.526
 3787SOL    HW112260   5.629   0.619   2.506
 3787SOL    HW212261   5.551   0.757   2.464
 3788SOL     OW12262   6.337   4.142   4.856
 3788SOL    HW112263   6.247   4.175   4.887
 3788SOL    HW212264   6.393   4.220   4.830
 3789SOL     OW12265   0.356   3.563   3.660
 3789SOL    HW112266   0.260   3.587   3.651
 3789SOL    HW212267   0.371   3.470   3.628
 3790SOL     OW12268   0.810   4.577   6.121
 3790SOL    HW112269   0.819   4.501   6.056
 3790SOL    HW212270   0.899   4.594   6.163
 3791SOL     OW12271   5.042   2.048   6.632
 3791SOL    HW112272   4.985   2.127   6.655
 3791SOL    HW212273   5.015   1.970   6.688
 3792SOL     OW12274   1.696   1.765   4.225
 3792SOL    HW112275   1.642   1.824   4.284
 3792SOL    HW212276   1.693   1.799   4.131
 3793SOL     OW12277   4.776   6.512   1.707
 3793SOL    HW112278   4.855   6.545   1.656
 3793SOL    HW212279   4.720   6.590   1.736
 3794SOL     OW12280   2.870   3.201   1.531
 3794SOL    HW112281   2.770   3.191   1.531
 3794SOL    HW212282   2.906   3.179   1.441
 3795SOL     OW12283   4.393   5.733   1.356
 3795SOL    HW112284   4.441   5.650   1.385
 3795SOL    HW212285   4.353   5.778   1.435
 3796SOL     OW12286   4.321   1.936   1.944
 3796SOL    HW112287   4.243   1.976   1.994
 3796SOL    HW212288   4.286   1.878   1.871
 3797SOL     OW12289   0.680   3.664   3.481
 3797SOL    HW112290   0.776   3.636   3.467
 3797SOL    HW212291   0.625   3.634   3.403
 3798SOL     OW12292   2.850   6.516   2.618
 3798SOL    HW112293   2.824   6.422   2.592
 3798SOL    HW212294   2.770   6.575   2.612
 3799SOL     OW12295   6.996   2.958   3.627
 3799SOL    HW112296   0.064   2.987   3.587
 3799SOL    HW212297   7.002   2.862   3.654
 3800SOL     OW12298   5.368   1.916   3.560
 3800SOL    HW112299   5.325   1.866   3.485
 3800SOL    HW212300   5.383   1.853   3.637
 3801SOL     OW12301   5.880   6.820   2.256
 3801SOL    HW112302   5.822   6.741   2.235
 3801SOL    HW212303   5.844   6.901   2.210
 3802SOL     OW12304   0.748   1.536   2.008
 3802SOL    HW112305   0.784   1.443   1.993
 3802SOL    HW212306   0.824   1.599   2.020
 3803SOL     OW12307   3.880   3.511   3.122
 3803SOL    HW112308   3.868   3.610   3.111
 3803SOL    HW212309   3.814   3.476   3.187
 3804SOL     OW12310   4.176   1.610   3.837
 3804SOL    HW112311   4.183   1.613   3.737
 3804SOL    HW212312   4.084   1.583   3.864
 3805SOL     OW12313   1.722   2.578   1.698
 3805SOL    HW112314   1.806   2.585   1.753
 3805SOL    HW212315   1.713   2.485   1.663
 3806SOL     OW12316   3.714   3.386   5.337
 3806SOL    HW112317   3.718   3.339   5.426
 3806SOL    HW212318   3.674   3.325   5.269
 3807SOL     OW12319   2.317   5.192   3.224
 3807SOL    HW112320   2.369   5.277   3.229
 3807SOL    HW212321   2.257   5.184   3.304
 3808SOL     OW12322   4.080   0.928   0.095
 3808SOL    HW112323   4.161   0.869   0.089
 3808SOL    HW212324   4.012   0.898   0.028
 3809SOL     OW12325   5.414   2.816   1.299
 3809SOL    HW112326   5.353   2.894   1.315
 3809SOL    HW212327   5.420   2.798   1.201
 3810SOL     OW12328   6.186   2.668   3.536
 3810SOL    HW112329   6.090   2.683   3.513
 3810SOL    HW212330   6.197   2.661   3.635
 3811SOL     OW12331   0.272   6.427   4.867
 3811SOL    HW112332   0.308   6.479   4.789
 3811SOL    HW212333   0.294   6.330   4.855
 3812SOL     OW12334   3.505   4.434   5.531
 3812SOL    HW112335   3.480   4.522   5.571
 3812SOL    HW212336   3.448   4.362   5.571
 3813SOL     OW12337   5.947   3.489   0.320
 3813SOL    HW112338   5.871   3.535   0.274
 3813SOL    HW212339   5.912   3.413   0.374
 3814SOL     OW12340   6.652   0.051   4.821
 3814SOL    HW112341   6.576   0.009   4.771
 3814SOL    HW212342   6.672   7.014   4.902
 3815SOL     OW12343   3.958   2.808   0.718
 3815SOL    HW112344   3.967   2.715   0.753
 3815SOL    HW212345   3.871   2.847   0.748
 3816SOL     OW12346   1.131   4.929   6.262
 3816SOL    HW112347   1.099   5.012   6.308
 3816SOL    HW212348   1.231   4.926   6.264
 3817SOL     OW12349   4.896   3.700   2.336
 3817SOL    HW112350   4.870   3.796   2.332
 3817SOL    HW212351   4.946   3.682   2.421
 3818SOL     OW12352   6.376   1.060   0.269
 3818SOL    HW112353   6.326   1.123   0.210
 3818SOL    HW212354   6.471   1.089   0.277
 3819SOL     OW12355   6.128   4.686   2.685
 3819SOL    HW112356   6.211   4.670   2.631
 3819SOL    HW212357   6.078   4.599   2.696
 3820SOL     OW12358   5.544   0.304   4.126
 3820SOL    HW112359   5.481   0.379   4.106
 3820SOL    HW212360   5.638   0.335   4.110
 3821SOL     OW12361   1.242   0.790   1.644
 3821SOL    HW112362   1.292   0.706   1.664
 3821SOL    HW212363   1.162   0.796   1.704
 3822SOL     OW12364   1.939   6.579   0.297
 3822SOL    HW112365   2.032   6.616   0.292
 3822SOL    HW212366   1.926   6.534   0.385
 3823SOL     OW12367   3.654   3.504   6.366
 3823SOL    HW112368   3.687   3.491   6.460
 3823SOL    HW212369   3.635   3.601   6.351
 3824SOL     OW12370   0.668   2.670   0.749
 3824SOL    HW112371   0.606   2.748   0.763
 3824SOL    HW212372   0.619   2.597   0.702
 3825SOL     OW12373   0.630   4.834   6.778
 3825SOL    HW112374   0.720   4.792   6.775
 3825SOL    HW212375   0.576   4.803   6.699
 3826SOL     OW12376   0.364   3.560   1.136
 3826SOL    HW112377   0.379   3.467   1.104
 3826SOL    HW212378   0.452   3.602   1.159
 3827SOL     OW12379   1.165   1.015   1.296
 3827SOL    HW112380   1.116   0.938   1.254
 3827SOL    HW212381   1.229   1.053   1.230
 3828SOL     OW12382   3.478   3.585   3.542
 3828SOL    HW112383   3.535   3.642   3.482
 3828SOL    HW212384   3.516   3.493   3.546
 3829SOL     OW12385   0.695   4.772   1.896
 3829SOL    HW112386   0.620   4.837   1.907
 3829SOL    HW212387   0.713   4.758   1.799
 3830SOL     OW12388   0.738   1.432   5.620
 3830SOL    HW112389   0.717   1.421   5.523
 3830SOL    HW212390   0.759   1.342   5.659
 3831SOL     OW12391   4.578   2.289   2.286
 3831SOL    HW112392   4.572   2.385   2.259
 3831SOL    HW212393   4.583   2.232   2.203
 3832SOL     OW12394   6.790   0.416   2.766
 3832SOL    HW112395   6.841   0.347   2.817
 3832SOL    HW212396   6.818   0.507   2.795
 3833SOL     OW12397   0.320   5.652   6.479
 3833SOL    HW112398   0.244   5.711   6.506
 3833SOL    HW212399   0.288   5.558   6.471
 3834SOL     OW12400   3.650   4.220   0.773
 3834SOL    HW112401   3.646   4.121   0.769
 3834SOL    HW212402   3.557   4.258   0.774
 3835SOL     OW12403   4.112   6.280   4.917
 3835SOL    HW112404   4.150   6.200   4.962
 3835SOL    HW212405   4.156   6.293   4.828
 3836SOL     OW12406   6.894   5.110   5.909
 3836SOL    HW112407   6.836   5.135   5.831
 3836SOL    HW212408   6.878   5.173   5.984
 3837SOL     OW12409   4.475   4.289   5.728
 3837SOL    HW112410   4.394   4.232   5.748
 3837SOL    HW212411   4.487   4.356   5.801
 3838SOL     OW12412   0.941   2.675   3.993
 3838SOL    HW112413   0.883   2.649   3.916
 3838SOL    HW212414   1.011   2.740   3.963
 3839SOL     OW12415   5.647   1.445   2.696
 3839SOL    HW112416   5.566   1.490   2.658
 3839SOL    HW212417   5.653   1.466   2.794
 3840SOL     OW12418   3.104   0.945   6.213
 3840SOL    HW112419   3.164   0.911   6.285
 3840SOL    HW212420   3.009   0.920   6.233
 3841SOL     OW12421   0.253   3.069   4.354
 3841SOL    HW112422   0.210   3.034   4.271
 3841SOL    HW212423   0.352   3.074   4.341
 3842SOL     OW12424   1.583   2.578   2.909
 3842SOL    HW112425   1.524   2.657   2.897
 3842SOL    HW212426   1.678   2.604   2.892
 3843SOL     OW12427   5.742   3.882   2.553
 3843SOL    HW112428   5.652   3.902   2.516
 3843SOL    HW212429   5.796   3.832   2.484
 3844SOL     OW12430   1.098   3.126   5.201
 3844SOL    HW112431   1.169   3.118   5.131
 3844SOL    HW212432   1.122   3.067   5.279
 3845SOL     OW12433   3.245   4.172   5.852
 3845SOL    HW112434   3.248   4.199   5.948
 3845SOL    HW212435   3.236   4.254   5.795
 3846SOL     OW12436   0.815   4.627   3.703
 3846SOL    HW112437   0.793   4.537   3.740
 3846SOL    HW212438   0.855   4.684   3.774
 3847SOL     OW12439   5.613   2.921   4.660
 3847SOL    HW112440   5.687   2.903   4.724
 3847SOL    HW212441   5.569   3.007   4.683
 3848SOL     OW12442   4.637   4.758   2.997
 3848SOL    HW112443   4.660   4.845   2.955
 3848SOL    HW212444   4.689   4.747   3.082
 3849SOL     OW12445   0.758   1.672   6.136
 3849SOL    HW112446   0.814   1.741   6.182
 3849SOL    HW212447   0.816   1.613   6.080
 3850SOL     OW12448   3.094   3.273   1.626
 3850SOL    HW112449   2.998   3.255   1.604
 3850SOL    HW212450   3.124   3.208   1.696
 3851SOL     OW12451   0.742   3.941   3.288
 3851SOL    HW112452   0.695   3.879   3.225
 3851SOL    HW212453   0.840   3.945   3.264
 3852SOL     OW12454   4.103   6.698   4.000
 3852SOL    HW112455   4.115   6.613   3.948
 3852SOL    HW212456   4.112   6.776   3.938
 3853SOL     OW12457   0.746   4.028   3.859
 3853SOL    HW112458   0.715   3.941   3.897
 3853SOL    HW212459   0.758   4.019   3.760
 3854SOL     OW12460   1.421   2.269   2.966
 3854SOL    HW112461   1.392   2.307   3.053
 3854SOL    HW212462   1.520   2.254   2.967
 3855SOL     OW12463   4.896   6.431   6.353
 3855SOL    HW112464   4.885   6.353   6.292
 3855SOL    HW212465   4.882   6.516   6.301
 3856SOL     OW12466   6.566   0.439   5.998
 3856SOL    HW112467   6.567   0.389   6.084
 3856SOL    HW212468   6.589   0.376   5.923
 3857SOL     OW12469   0.836   6.231   6.313
 3857SOL    HW112470   0.775   6.177   6.371
 3857SOL    HW212471   0.926   6.235   6.355
 3858SOL     OW12472   2.351   0.919   5.676
 3858SOL    HW112473   2.268   0.877   5.639
 3858SOL    HW212474   2.327   0.999   5.731
 3859SOL     OW12475   5.582   1.268   1.365
 3859SOL    HW112476   5.584   1.317   1.278
 3859SOL    HW212477   5.505   1.300   1.420
 3860SOL     OW12478   1.879   1.666   3.778
 3860SOL    HW112479   1.946   1.740   3.784
 3860SOL    HW212480   1.907   1.591   3.839
 3861SOL     OW12481   4.365   5.542   3.757
 3861SOL    HW112482   4.293   5.608   3.739
 3861SOL    HW212483   4.398   5.503   3.671
 3862SOL     OW12484   0.349   0.622   4.859
 3862SOL    HW112485   0.402   0.698   4.821
 3862SOL    HW212486   0.403   0.575   4.929
 3863SOL     OW12487   5.890   2.341   0.057
 3863SOL    HW112488   5.843   2.255   0.035
 3863SOL    HW212489   5.830   2.418   0.033
 3864SOL     OW12490   2.016   1.087   5.950
 3864SOL    HW112491   1.934   1.042   5.987
 3864SOL    HW212492   2.003   1.103   5.852
 3865SOL     OW12493   4.491   0.711   0.785
 3865SOL    HW112494   4.515   0.723   0.881
 3865SOL    HW212495   4.397   0.676   0.779
 3866SOL     OW12496   4.413   7.012   0.191
 3866SOL    HW112497   4.416   6.912   0.199
 3866SOL    HW212498   4.369   0.018   0.105
 3867SOL     OW12499   0.418   5.735   4.515
 3867SOL    HW112500   0.506   5.725   4.561
 3867SOL    HW212501   0.369   5.813   4.554
 3868SOL     OW12502   2.850   6.809   0.731
 3868SOL    HW112503   2.770   6.752   0.715
 3868SOL    HW212504   2.925   6.753   0.766
 3869SOL     OW12505   6.272   3.500   4.595
 3869SOL    HW112506   6.246   3.567   4.525
 3869SOL    HW212507   6.368   3.511   4.617
 3870SOL     OW12508   6.160   6.734   6.831
 3870SOL    HW112509   6.103   6.721   6.750
 3870SOL    HW212510   6.251   6.695   6.814
 3871SOL     OW12511   3.754   1.602   3.132
 3871SOL    HW112512   3.668   1.552   3.132
 3871SOL    HW212513   3.821   1.553   3.188
 3872SOL     OW12514   3.804   3.030   3.791
 3872SOL    HW112515   3.802   3.107   3.855
 3872SOL    HW212516   3.766   2.949   3.835
 3873SOL     OW12517   6.424   3.289   1.258
 3873SOL    HW112518   6.434   3.207   1.203
 3873SOL    HW212519   6.488   3.359   1.225
 3874SOL     OW12520   4.876   5.796   6.718
 3874SOL    HW112521   4.898   5.793   6.816
 3874SOL    HW212522   4.780   5.822   6.706
 3875SOL     OW12523   2.281   2.939   2.485
 3875SOL    HW112524   2.212   2.982   2.427
 3875SOL    HW212525   2.318   2.858   2.438
 3876SOL     OW12526   4.037   6.083   1.307
 3876SOL    HW112527   4.100   6.006   1.298
 3876SOL    HW212528   4.038   6.136   1.223
 3877SOL     OW12529   5.597   2.469   0.645
 3877SOL    HW112530   5.572   2.554   0.692
 3877SOL    HW212531   5.661   2.490   0.570
 3878SOL     OW12532   3.369   0.003   4.608
 3878SOL    HW112533   3.360   0.055   4.523
 3878SOL    HW212534   3.302   6.947   4.609
 3879SOL     OW12535   5.920   4.839   0.748
 3879SOL    HW112536   5.861   4.901   0.800
 3879SOL    HW212537   5.897   4.845   0.651
 3880SOL     OW12538   6.080   5.094   4.300
 3880SOL    HW112539   6.084   5.190   4.270
 3880SOL    HW212540   6.042   5.089   4.392
 3881SOL     OW12541   1.466   3.167   2.041
 3881SOL    HW112542   1.401   3.231   2.081
 3881SOL    HW212543   1.473   3.184   1.943
 3882SOL     OW12544   1.491   0.880   5.704
 3882SOL    HW112545   1.399   0.869   5.741
 3882SOL    HW212546   1.498   0.970   5.660
 3883SOL     OW12547   4.618   1.147   3.137
 3883SOL    HW112548   4.680   1.068   3.145
 3883SOL    HW212549   4.580   1.168   3.227
 3884SOL     OW12550   0.671   5.727   2.604
 3884SOL    HW112551   0.725   5.696   2.526
 3884SOL    HW212552   0.728   5.784   2.664
 3885SOL     OW12553   5.979   6.594   2.839
 3885SOL    HW112554   6.028   6.660   2.781
 3885SOL    HW212555   6.015   6.502   2.822
 3886SOL     OW12556   5.606   5.241   4.907
 3886SOL    HW112557   5.561   5.198   4.829
 3886SOL    HW212558   5.599   5.340   4.900
 3887SOL     OW12559   0.714   0.611   7.012
 3887SOL    HW112560   0.786   0.680   7.000
 3887SOL    HW212561   0.743   0.543   0.061
 3888SOL     OW12562   6.570   0.708   5.113
 3888SOL    HW112563   6.613   0.786   5.067
 3888SOL    HW212564   6.483   0.738   5.153
 3889SOL     OW12565   0.154   3.831   0.498
 3889SOL    HW112566   0.075   3.879   0.461
 3889SOL    HW212567   0.237   3.863   0.453
 3890SOL     OW12568   5.849   5.969   3.410
 3890SOL    HW112569   5.896   5.930   3.331
 3890SOL    HW212570   5.849   5.903   3.485
 3891SOL     OW12571   6.066   4.999   4.574
 3891SOL    HW112572   6.037   4.906   4.552
 3891SOL    HW212573   6.143   4.995   4.639
 3892SOL     OW12574   6.916   2.310   1.741
 3892SOL    HW112575   7.005   2.304   1.786
 3892SOL    HW212576   6.912   2.245   1.666
 3893SOL     OW12577   4.620   4.716   0.405
 3893SOL    HW112578   4.584   4.730   0.313
 3893SOL    HW212579   4.656   4.623   0.413
 3894SOL     OW12580   3.787   1.666   0.706
 3894SOL    HW112581   3.794   1.720   0.622
 3894SOL    HW212582   3.808   1.570   0.685
 3895SOL     OW12583   1.249   0.765   5.332
 3895SOL    HW112584   1.184   0.813   5.392
 3895SOL    HW212585   1.324   0.728   5.387
 3896SOL     OW12586   6.601   0.703   6.056
 3896SOL    HW112587   6.586   0.605   6.047
 3896SOL    HW212588   6.610   0.726   6.153
 3897SOL     OW12589   3.111   5.419   2.606
 3897SOL    HW112590   3.182   5.351   2.622
 3897SOL    HW212591   3.043   5.416   2.680
 3898SOL     OW12592   2.840   3.806   5.198
 3898SOL    HW112593   2.839   3.858   5.112
 3898SOL    HW212594   2.749   3.808   5.239
 3899SOL     OW12595   5.689   0.270   5.003
 3899SOL    HW112596   5.703   0.355   4.952
 3899SOL    HW212597   5.594   0.264   5.031
 3900SOL     OW12598   4.900   3.659   4.036
 3900SOL    HW112599   4.951   3.693   3.958
 3900SOL    HW212600   4.940   3.573   4.068
 3901SOL     OW12601   2.700   0.424   6.028
 3901SOL    HW112602   2.739   0.370   5.954
 3901SOL    HW212603   2.696   0.370   6.112
 3902SOL     OW12604   5.222   3.846   1.913
 3902SOL    HW112605   5.287   3.807   1.847
 3902SOL    HW212606   5.272   3.892   1.986
 3903SOL     OW12607   3.737   6.097   6.823
 3903SOL    HW112608   3.683   6.034   6.768
 3903SOL    HW212609   3.833   6.089   6.797
 3904SOL     OW12610   2.281   1.040   4.903
 3904SOL    HW112611   2.302   1.111   4.970
 3904SOL    HW212612   2.186   1.010   4.915
 3905SOL     OW12613   6.906   6.934   6.280
 3905SOL    HW112614   6.917   6.854   6.222
 3905SOL    HW212615   6.836   6.916   6.349
 3906SOL     OW12616   4.003   5.181   5.742
 3906SOL    HW112617   4.014   5.145   5.649
 3906SOL    HW212618   4.057   5.265   5.752
 3907SOL     OW12619   5.356   0.457   5.092
 3907SOL    HW112620   5.263   0.428   5.117
 3907SOL    HW212621   5.422   0.407   5.149
 3908SOL     OW12622   1.103   1.199   0.554
 3908SOL    HW112623   1.162   1.260   0.502
 3908SOL    HW212624   1.084   1.238   0.644
 3909SOL     OW12625   0.069   5.238   5.380
 3909SOL    HW112626   0.057   5.139   5.384
 3909SOL    HW212627   0.101   5.264   5.288
 3910SOL     OW12628   3.485   3.806   2.017
 3910SOL    HW112629   3.395   3.764   2.023
 3910SOL    HW212630   3.555   3.736   2.031
 3911SOL     OW12631   4.422   0.794   0.151
 3911SOL    HW112632   4.505   0.753   0.189
 3911SOL    HW212633   4.438   0.891   0.134
 3912SOL     OW12634   3.884   7.001   6.045
 3912SOL    HW112635   3.885   6.982   5.947
 3912SOL    HW212636   3.824   6.935   6.091
 3913SOL     OW12637   2.376   6.694   5.763
 3913SOL    HW112638   2.445   6.629   5.732
 3913SOL    HW212639   2.288   6.647   5.776
 3914SOL     OW12640   4.490   1.117   0.752
 3914SOL    HW112641   4.491   1.157   0.843
 3914SOL    HW212642   4.562   1.048   0.744
 3915SOL     OW12643   3.413   5.729   2.384
 3915SOL    HW112644   3.406   5.819   2.340
 3915SOL    HW212645   3.360   5.729   2.468
 3916SOL     OW12646   1.477   5.638   3.799
 3916SOL    HW112647   1.452   5.585   3.880
 3916SOL    HW212648   1.574   5.625   3.779
 3917SOL     OW12649   1.260   4.988   0.218
 3917SOL    HW112650   1.330   4.917   0.226
 3917SOL    HW212651   1.186   4.970   0.283
 3918SOL     OW12652   4.827   0.248   2.344
 3918SOL    HW112653   4.742   0.289   2.377
 3918SOL    HW212654   4.904   0.280   2.399
 3919SOL     OW12655   2.565   5.753   6.518
 3919SOL    HW112656   2.498   5.714   6.455
 3919SOL    HW212657   2.655   5.755   6.475
 3920SOL     OW12658   2.540   2.894   0.070
 3920SOL    HW112659   2.534   2.991   0.044
 3920SOL    HW212660   2.532   2.838   7.006
 3921SOL     OW12661   6.766   3.172   1.274
 3921SOL    HW112662   6.801   3.195   1.183
 3921SOL    HW212663   6.726   3.254   1.315
 3922SOL     OW12664   6.064   4.240   1.171
 3922SOL    HW112665   6.163   4.251   1.162
 3922SOL    HW212666   6.031   4.292   1.250
 3923SOL     OW12667   6.711   1.677   6.911
 3923SOL    HW112668   6.758   1.662   6.998
 3923SOL    HW212669   6.624   1.629   6.911
 3924SOL     OW12670   0.399   5.086   2.859
 3924SOL    HW112671   0.434   5.141   2.934
 3924SOL    HW212672   0.440   4.995   2.862
 3925SOL     OW12673   4.037   4.648   1.077
 3925SOL    HW112674   3.973   4.659   1.153
 3925SOL    HW212675   3.991   4.673   0.992
 3926SOL     OW12676   6.698   5.412   2.909
 3926SOL    HW112677   6.789   5.393   2.944
 3926SOL    HW212678   6.668   5.502   2.940
 3927SOL     OW12679   6.743   3.719   3.560
 3927SOL    HW112680   6.698   3.674   3.637
 3927SOL    HW212681   6.711   3.814   3.554
 3928SOL     OW12682   2.804   5.358   5.646
 3928SOL    HW112683   2.706   5.376   5.648
 3928SOL    HW212684   2.854   5.444   5.634
 3929SOL     OW12685   0.735   1.865   5.673
 3929SOL    HW112686   0.677   1.939   5.706
 3929SOL    HW212687   0.803   1.842   5.742
 3930SOL     OW12688   2.397   1.437   4.101
 3930SOL    HW112689   2.415   1.515   4.042
 3930SOL    HW212690   2.476   1.420   4.160
 3931SOL     OW12691   1.582   2.069   2.791
 3931SOL    HW112692   1.499   2.025   2.827
 3931SOL    HW212693   1.628   2.118   2.865
 3932SOL     OW12694   1.877   4.022   2.589
 3932SOL    HW112695   1.969   4.000   2.622
 3932SOL    HW212696   1.810   3.996   2.657
 3933SOL     OW12697   2.284   6.938   0.051
 3933SOL    HW112698   2.202   6.957   0.105
 3933SOL    HW212699   2.365   6.947   0.108
 3934SOL     OW12700   6.849   0.823   1.112
 3934SOL    HW112701   6.943   0.791   1.114
 3934SOL    HW212702   6.846   0.918   1.080
 3935SOL     OW12703   1.890   0.053   6.962
 3935SOL    HW112704   1.808   0.090   6.920
 3935SOL    HW212705   1.951   0.128   6.989
 3936SOL     OW12706   7.001   5.294   5.620
 3936SOL    HW112707   0.034   5.278   5.536
 3936SOL    HW212708   0.029   5.363   5.675
 3937SOL     OW12709   0.111   0.247   2.160
 3937SOL    HW112710   0.176   0.239   2.236
 3937SOL    HW212711   0.162   0.261   2.075
 3938SOL     OW12712   6.925   1.667   3.819
 3938SOL    HW112713   6.833   1.635   3.798
 3938SOL    HW212714   6.919   1.754   3.869
 3939SOL     OW12715   3.072   1.834   1.731
 3939SOL    HW112716   3.166   1.801   1.726
 3939SOL    HW212717   3.072   1.933   1.743
 3940SOL     OW12718   4.426   5.536   2.144
 3940SOL    HW112719   4.331   5.541   2.177
 3940SOL    HW212720   4.477   5.614   2.181
 3941SOL     OW12721   5.117   1.228   6.161
 3941SOL    HW112722   5.178   1.250   6.237
 3941SOL    HW212723   5.094   1.131   6.163
 3942SOL     OW12724   0.100   0.095   6.236
 3942SOL    HW112725   0.193   0.098   6.273
 3942SOL    HW212726   0.057   0.008   6.260
 3943SOL     OW12727   1.354   3.881   3.046
 3943SOL    HW112728   1.377   3.974   3.074
 3943SOL    HW212729   1.352   3.821   3.125
 3944SOL     OW12730   5.691   3.598   5.792
 3944SOL    HW112731   5.660   3.614   5.886
 3944SOL    HW212732   5.624   3.542   5.744
 3945SOL     OW12733   0.619   2.537   2.073
 3945SOL    HW112734   0.639   2.622   2.025
 3945SOL    HW212735   0.695   2.514   2.134
 3946SOL     OW12736   5.862   5.351   5.824
 3946SOL    HW112737   5.766   5.341   5.801
 3946SOL    HW212738   5.872   5.365   5.922
 3947SOL     OW12739   6.340   5.001   1.624
 3947SOL    HW112740   6.285   4.985   1.705
 3947SOL    HW212741   6.286   5.050   1.556
 3948SOL     OW12742   0.727   5.413   1.619
 3948SOL    HW112743   0.737   5.324   1.576
 3948SOL    HW212744   0.749   5.485   1.553
 3949SOL     OW12745   5.739   0.554   2.984
 3949SOL    HW112746   5.834   0.546   3.015
 3949SOL    HW212747   5.737   0.607   2.899
 3950SOL     OW12748   2.974   4.202   1.722
 3950SOL    HW112749   3.053   4.234   1.669
 3950SOL    HW212750   2.935   4.278   1.774
 3951SOL     OW12751   0.041   0.150   0.887
 3951SOL    HW112752   6.967   0.161   0.923
 3951SOL    HW212753   0.107   0.154   0.962
 3952SOL     OW12754   6.750   3.974   3.358
 3952SOL    HW112755   6.772   3.985   3.455
 3952SOL    HW212756   6.672   4.031   3.334
 3953SOL     OW12757   3.764   4.463   0.684
 3953SOL    HW112758   3.693   4.393   0.685
 3953SOL    HW212759   3.730   4.546   0.729
 3954SOL     OW12760   5.782   5.686   4.969
 3954SOL    HW112761   5.803   5.686   5.067
 3954SOL    HW212762   5.705   5.626   4.951
 3955SOL     OW12763   3.431   5.905   5.921
 3955SOL    HW112764   3.503   5.910   5.852
 3955SOL    HW212765   3.402   5.810   5.933
 3956SOL     OW12766   0.258   1.110   2.707
 3956SOL    HW112767   0.287   1.176   2.777
 3956SOL    HW212768   0.337   1.061   2.672
 3957SOL     OW12769   5.086   6.688   3.550
 3957SOL    HW112770   5.033   6.772   3.564
 3957SOL    HW212771   5.094   6.640   3.637
 3958SOL     OW12772   5.396   0.803   5.974
 3958SOL    HW112773   5.412   0.790   5.877
 3958SOL    HW212774   5.355   0.720   6.013
 3959SOL     OW12775   4.045   6.540   1.484
 3959SOL    HW112776   3.977   6.507   1.419
 3959SOL    HW212777   4.002   6.601   1.550
 3960SOL     OW12778   4.271   1.284   6.803
 3960SOL    HW112779   4.206   1.208   6.798
 3960SOL    HW212780   4.283   1.311   6.898
 3961SOL     OW12781   5.727   2.712   1.683
 3961SOL    HW112782   5.653   2.728   1.748
 3961SOL    HW212783   5.690   2.709   1.590
 3962SOL     OW12784   1.740   4.736   0.122
 3962SOL    HW112785   1.700   4.825   0.098
 3962SOL    HW212786   1.840   4.744   0.123
 3963SOL     OW12787   5.105   4.181   4.528
 3963SOL    HW112788   5.075   4.274   4.509
 3963SOL    HW212789   5.034   4.116   4.499
 3964SOL     OW12790   4.474   4.803   3.758
 3964SOL    HW112791   4.495   4.705   3.754
 3964SOL    HW212792   4.548   4.850   3.806
 3965SOL     OW12793   4.318   3.166   6.032
 3965SOL    HW112794   4.295   3.122   5.945
 3965SOL    HW212795   4.411   3.141   6.059
 3966SOL     OW12796   5.620   5.760   0.393
 3966SOL    HW112797   5.613   5.848   0.346
 3966SOL    HW212798   5.667   5.773   0.480
 3967SOL     OW12799   1.461   4.285   2.383
 3967SOL    HW112800   1.521   4.250   2.311
 3967SOL    HW212801   1.507   4.276   2.472
 3968SOL     OW12802   5.861   6.839   1.130
 3968SOL    HW112803   5.909   6.774   1.189
 3968SOL    HW212804   5.833   6.794   1.045
 3969SOL     OW12805   1.937   3.702   2.903
 3969SOL    HW112806   1.922   3.788   2.951
 3969SOL    HW212807   1.849   3.663   2.876
 3970SOL     OW12808   5.962   5.861   4.018
 3970SOL    HW112809   5.993   5.809   3.939
 3970SOL    HW212810   5.947   5.956   3.991
 3971SOL     OW12811   2.644   5.486   2.029
 3971SOL    HW112812   2.589   5.404   2.048
 3971SOL    HW212813   2.631   5.552   2.103
 3972SOL     OW12814   1.063   5.478   0.846
 3972SOL    HW112815   1.149   5.440   0.811
 3972SOL    HW212816   1.010   5.518   0.771
 3973SOL     OW12817   0.858   4.256   6.030
 3973SOL    HW112818   0.842   4.252   5.932
 3973SOL    HW212819   0.933   4.194   6.055
 3974SOL     OW12820   1.069   0.479   4.670
 3974SOL    HW112821   1.052   0.560   4.727
 3974SOL    HW212822   1.098   0.403   4.729
 3975SOL     OW12823   5.067   6.986   5.979
 3975SOL    HW112824   4.993   6.946   5.925
 3975SOL    HW212825   5.110   6.915   6.035
 3976SOL     OW12826   1.526   5.398   1.959
 3976SOL    HW112827   1.593   5.361   2.023
 3976SOL    HW212828   1.485   5.323   1.907
 3977SOL     OW12829   2.762   4.449   5.803
 3977SOL    HW112830   2.812   4.367   5.832
 3977SOL    HW212831   2.827   4.517   5.769
 3978SOL     OW12832   5.503   6.808   4.742
 3978SOL    HW112833   5.562   6.855   4.676
 3978SOL    HW212834   5.441   6.748   4.692
 3979SOL     OW12835   2.924   5.962   1.440
 3979SOL    HW112836   2.997   5.947   1.506
 3979SOL    HW212837   2.845   5.904   1.464
 3980SOL     OW12838   0.141   5.976   6.589
 3980SOL    HW112839   0.129   5.998   6.493
 3980SOL    HW212840   0.090   5.893   6.611
 3981SOL     OW12841   2.201   1.563   0.397
 3981SOL    HW112842   2.287   1.523   0.363
 3981SOL    HW212843   2.152   1.605   0.321
 3982SOL     OW12844   2.136   0.198   4.107
 3982SOL    HW112845   2.126   0.105   4.071
 3982SOL    HW212846   2.220   0.239   4.070
 3983SOL     OW12847   5.022   5.148   4.448
 3983SOL    HW112848   5.105   5.107   4.411
 3983SOL    HW212849   4.994   5.099   4.530
 3984SOL     OW12850   0.248   0.645   2.093
 3984SOL    HW112851   0.217   0.740   2.082
 3984SOL    HW212852   0.232   0.616   2.188
 3985SOL     OW12853   3.562   4.621   6.375
 3985SOL    HW112854   3.563   4.710   6.328
 3985SOL    HW212855   3.514   4.631   6.463
 3986SOL     OW12856   6.498   2.139   2.721
 3986SOL    HW112857   6.539   2.230   2.732
 3986SOL    HW212858   6.404   2.149   2.689
 3987SOL     OW12859   3.014   5.128   4.162
 3987SOL    HW112860   2.990   5.030   4.163
 3987SOL    HW212861   3.113   5.138   4.150
 3988SOL     OW12862   4.119   3.650   6.819
 3988SOL    HW112863   4.048   3.713   6.850
 3988SOL    HW212864   4.121   3.649   6.719
 3989SOL     OW12865   6.777   2.142   6.823
 3989SOL    HW112866   6.748   2.065   6.879
 3989SOL    HW212867   6.698   2.202   6.807
 3990SOL     OW12868   5.393   2.393   2.840
 3990SOL    HW112869   5.444   2.314   2.874
 3990SOL    HW212870   5.399   2.468   2.906
 3991SOL     OW12871   5.874   1.251   1.967
 3991SOL    HW112872   5.917   1.174   2.013
 3991SOL    HW212873   5.783   1.225   1.935
 3992SOL     OW12874   3.315   2.145   6.814
 3992SOL    HW112875   3.347   2.108   6.902
 3992SOL    HW212876   3.216   2.136   6.808
 3993SOL     OW12877   0.679   2.244   3.241
 3993SOL    HW112878   0.661   2.264   3.338
 3993SOL    HW212879   0.704   2.147   3.231
 3994SOL     OW12880   0.398   1.388   6.480
 3994SOL    HW112881   0.460   1.467   6.473
 3994SOL    HW212882   0.452   1.305   6.495
 3995SOL     OW12883   1.709   4.092   4.493
 3995SOL    HW112884   1.782   4.160   4.503
 3995SOL    HW212885   1.718   4.047   4.405
 3996SOL     OW12886   1.150   1.286   4.447
 3996SOL    HW112887   1.104   1.203   4.477
 3996SOL    HW212888   1.241   1.264   4.413
 3997SOL     OW12889   5.345   1.504   3.615
 3997SOL    HW112890   5.254   1.544   3.629
 3997SOL    HW212891   5.412   1.576   3.603
 3998SOL     OW12892   3.956   1.304   2.813
 3998SOL    HW112893   3.937   1.373   2.744
 3998SOL    HW212894   3.883   1.235   2.812
 3999SOL     OW12895   5.701   3.288   3.743
 3999SOL    HW112896   5.781   3.239   3.775
 3999SOL    HW212897   5.638   3.225   3.699
 4000SOL     OW12898   2.961   5.488   3.261
 4000SOL    HW112899   2.902   5.529   3.191
 4000SOL    HW212900   3.009   5.560   3.311
 4001SOL     OW12901   2.916   1.992   4.013
 4001SOL    HW112902   2.967   2.046   4.081
 4001SOL    HW212903   2.970   1.985   3.929
 4002SOL     OW12904   3.069   2.517   0.719
 4002SOL    HW112905   3.148   2.562   0.760
 4002SOL    HW212906   3.098   2.436   0.670
 4003SOL     OW12907   2.862   6.059   5.020
 4003SOL    HW112908   2.849   6.151   4.983
 4003SOL    HW212909   2.940   6.057   5.081
 4004SOL     OW12910   5.628   2.291   3.505
 4004SOL    HW112911   5.547   2.232   3.505
 4004SOL    HW212912   5.699   2.249   3.562
 4005SOL     OW12913   5.406   5.702   0.813
 4005SOL    HW112914   5.429   5.798   0.799
 4005SOL    HW212915   5.451   5.668   0.895
 4006SOL     OW12916   3.690   5.510   3.137
 4006SOL    HW112917   3.762   5.565   3.094
 4006SOL    HW212918   3.722   5.477   3.226
 4007SOL     OW12919   1.231   2.672   1.740
 4007SOL    HW112920   1.275   2.584   1.723
 4007SOL    HW212921   1.136   2.657   1.768
 4008SOL     OW12922   3.607   2.115   3.725
 4008SOL    HW112923   3.530   2.179   3.728
 4008SOL    HW212924   3.650   2.110   3.815
 4009SOL     OW12925   5.558   3.215   0.696
 4009SOL    HW112926   5.517   3.189   0.783
 4009SOL    HW212927   5.649   3.173   0.688
 4010SOL     OW12928   2.618   2.848   1.715
 4010SOL    HW112929   2.585   2.770   1.662
 4010SOL    HW212930   2.540   2.909   1.735
 4011SOL     OW12931   0.347   1.074   2.000
 4011SOL    HW112932   0.367   1.129   2.081
 4011SOL    HW212933   0.312   1.133   1.927
 4012SOL     OW12934   3.960   5.539   1.656
 4012SOL    HW112935   3.964   5.639   1.648
 4012SOL    HW212936   3.876   5.505   1.615
 4013SOL     OW12937   3.081   6.617   7.007
 4013SOL    HW112938   3.141   6.537   7.009
 4013SOL    HW212939   2.996   6.594   6.960
 4014SOL     OW12940   3.683   6.105   3.275
 4014SOL    HW112941   3.676   6.010   3.307
 4014SOL    HW212942   3.773   6.119   3.233
 4015SOL     OW12943   4.765   5.189   6.113
 4015SOL    HW112944   4.742   5.276   6.157
 4015SOL    HW212945   4.739   5.114   6.173
 4016SOL     OW12946   1.997   6.114   6.820
 4016SOL    HW112947   1.964   6.021   6.835
 4016SOL    HW212948   2.084   6.111   6.770
 4017SOL     OW12949   0.414   6.407   1.157
 4017SOL    HW112950   0.357   6.324   1.152
 4017SOL    HW212951   0.402   6.449   1.247
 4018SOL     OW12952   5.087   6.359   3.254
 4018SOL    HW112953   5.022   6.336   3.182
 4018SOL    HW212954   5.052   6.437   3.306
 4019SOL     OW12955   5.875   3.952   2.907
 4019SOL    HW112956   5.854   3.868   2.857
 4019SOL    HW212957   5.972   3.953   2.931
 4020SOL     OW12958   5.598   2.360   6.165
 4020SOL    HW112959   5.559   2.451   6.155
 4020SOL    HW212960   5.649   2.336   6.082
 4021SOL     OW12961   3.710   3.423   5.941
 4021SOL    HW112962   3.754   3.494   5.885
 4021SOL    HW212963   3.775   3.390   6.010
 4022SOL     OW12964   4.174   0.160   0.389
 4022SOL    HW112965   4.272   0.170   0.370
 4022SOL    HW212966   4.123   0.225   0.333
 4023SOL     OW12967   6.325   1.869   5.368
 4023SOL    HW112968   6.228   1.888   5.351
 4023SOL    HW212969   6.335   1.774   5.397
 4024SOL     OW12970   3.669   6.062   3.914
 4024SOL    HW112971   3.632   6.155   3.913
 4024SOL    HW212972   3.687   6.035   4.009
 4025SOL     OW12973   0.945   6.187   4.357
 4025SOL    HW112974   0.887   6.107   4.348
 4025SOL    HW212975   1.021   6.181   4.292
 4026SOL     OW12976   6.536   6.035   4.448
 4026SOL    HW112977   6.512   5.978   4.369
 4026SOL    HW212978   6.573   5.978   4.521
 4027SOL     OW12979   3.678   4.134   2.051
 4027SOL    HW112980   3.685   4.233   2.060
 4027SOL    HW212981   3.582   4.106   2.058
 4028SOL     OW12982   1.268   2.228   3.966
 4028SOL    HW112983   1.187   2.277   3.934
 4028SOL    HW212984   1.350   2.267   3.924
 4029SOL     OW12985   1.609   4.154   6.599
 4029SOL    HW112986   1.692   4.206   6.580
 4029SOL    HW212987   1.621   4.060   6.568
 4030SOL     OW12988   1.413   1.863   6.026
 4030SOL    HW112989   1.444   1.902   6.113
 4030SOL    HW212990   1.341   1.796   6.043
 4031SOL     OW12991   4.740   6.198   3.156
 4031SOL    HW112992   4.824   6.252   3.150
 4031SOL    HW212993   4.760   6.103   3.132
 4032SOL     OW12994   5.563   0.348   3.019
 4032SOL    HW112995   5.506   0.342   2.937
 4032SOL    HW212996   5.637   0.413   3.002
 4033SOL     OW12997   3.031   3.143   2.907
 4033SOL    HW112998   3.037   3.048   2.878
 4033SOL    HW212999   3.013   3.201   2.828
 4034SOL     OW13000   5.541   1.799   5.285
 4034SOL    HW113001   5.577   1.725   5.343
 4034SOL    HW213002   5.570   1.784   5.191
 4035SOL     OW13003   6.302   3.518   1.216
 4035SOL    HW113004   6.337   3.424   1.225
 4035SOL    HW213005   6.361   3.580   1.267
 4036SOL     OW13006   5.665   6.478   3.177
 4036SOL    HW113007   5.595   6.547   3.194
 4036SOL    HW213008   5.755   6.521   3.180
 4037SOL     OW13009   1.767   2.289   0.903
 4037SOL    HW113010   1.765   2.321   0.998
 4037SOL    HW213011   1.748   2.367   0.843
 4038SOL     OW13012   5.099   4.912   1.977
 4038SOL    HW113013   5.108   4.815   1.996
 4038SOL    HW213014   5.087   4.926   1.879
 4039SOL     OW13015   5.204   5.230   1.034
 4039SOL    HW113016   5.155   5.277   1.107
 4039SOL    HW213017   5.287   5.281   1.011
 4040SOL     OW13018   2.808   6.410   0.312
 4040SOL    HW113019   2.865   6.489   0.333
 4040SOL    HW213020   2.732   6.405   0.378
 4041SOL     OW13021   1.716   5.529   1.728
 4041SOL    HW113022   1.729   5.533   1.827
 4041SOL    HW213023   1.752   5.612   1.686
 4042SOL     OW13024   6.254   4.096   3.077
 4042SOL    HW113025   6.186   4.052   3.018
 4042SOL    HW213026   6.300   4.026   3.133
 4043SOL     OW13027   5.232   2.587   4.103
 4043SOL    HW113028   5.226   2.594   4.003
 4043SOL    HW213029   5.144   2.558   4.139
 4044SOL     OW13030   4.948   0.931   4.687
 4044SOL    HW113031   5.013   0.879   4.631
 4044SOL    HW213032   4.985   0.942   4.779
 4045SOL     OW13033   2.617   4.356   6.567
 4045SOL    HW113034   2.536   4.400   6.528
 4045SOL    HW213035   2.619   4.259   6.539
 4046SOL     OW13036   0.621   2.200   3.514
 4046SOL    HW113037   0.641   2.181   3.610
 4046SOL    HW213038   0.531   2.244   3.506
 4047SOL     OW13039   2.840   2.565   0.855
 4047SOL    HW113040   2.927   2.576   0.808
 4047SOL    HW213041   2.794   2.654   0.862
 4048SOL     OW13042   5.782   0.943   1.659
 4048SOL    HW113043   5.775   1.016   1.727
 4048SOL    HW213044   5.790   0.984   1.568
 4049SOL     OW13045   6.222   6.537   6.517
 4049SOL    HW113046   6.242   6.630   6.487
 4049SOL    HW213047   6.300   6.501   6.569
 4050SOL     OW13048   1.629   6.782   0.379
 4050SOL    HW113049   1.618   6.728   0.295
 4050SOL    HW213050   1.724   6.811   0.387
 4051SOL     OW13051   3.533   3.202   6.664
 4051SOL    HW113052   3.495   3.247   6.745
 4051SOL    HW213053   3.495   3.244   6.582
 4052SOL     OW13054   1.226   0.179   1.219
 4052SOL    HW113055   1.157   0.244   1.250
 4052SOL    HW213056   1.238   0.108   1.289
 4053SOL     OW13057   3.294   5.214   4.089
 4053SOL    HW113058   3.391   5.211   4.115
 4053SOL    HW213059   3.286   5.201   3.990
 4054SOL     OW13060   2.187   2.958   1.073
 4054SOL    HW113061   2.235   3.010   1.003
 4054SOL    HW213062   2.251   2.898   1.121
 4055SOL     OW13063   2.939   3.168   5.489
 4055SOL    HW113064   2.932   3.173   5.588
 4055SOL    HW213065   2.862   3.217   5.447
 4056SOL     OW13066   4.190   2.851   6.560
 4056SOL    HW113067   4.199   2.797   6.644
 4056SOL    HW213068   4.213   2.795   6.481
 4057SOL     OW13069   5.105   3.051   0.301
 4057SOL    HW113070   5.050   3.102   0.368
 4057SOL    HW213071   5.164   3.115   0.252
 4058SOL     OW13072   1.260   1.505   3.996
 4058SOL    HW113073   1.253   1.502   4.096
 4058SOL    HW213074   1.193   1.442   3.956
 4059SOL     OW13075   2.055   2.067   2.911
 4059SOL    HW113076   2.014   2.028   2.993
 4059SOL    HW213077   2.137   2.016   2.887
 4060SOL     OW13078   3.722   4.917   5.253
 4060SOL    HW113079   3.814   4.956   5.257
 4060SOL    HW213080   3.689   4.916   5.159
 4061SOL     OW13081   3.333   4.597   1.662
 4061SOL    HW113082   3.395   4.611   1.739
 4061SOL    HW213083   3.386   4.563   1.583
 4062SOL     OW13084   4.151   1.753   2.918
 4062SOL    HW113085   4.201   1.670   2.893
 4062SOL    HW213086   4.204   1.805   2.985
 4063SOL     OW13087   4.289   6.521   5.228
 4063SOL    HW113088   4.295   6.612   5.186
 4063SOL    HW213089   4.195   6.504   5.257
 4064SOL     OW13090   2.270   6.836   2.597
 4064SOL    HW113091   2.191   6.883   2.638
 4064SOL    HW213092   2.284   6.871   2.504
 4065SOL     OW13093   1.237   6.809   0.443
 4065SOL    HW113094   1.303   6.843   0.375
 4065SOL    HW213095   1.234   6.710   0.440
 4066SOL     OW13096   5.573   4.721   2.548
 4066SOL    HW113097   5.624   4.730   2.463
 4066SOL    HW213098   5.555   4.624   2.566
 4067SOL     OW13099   6.024   2.566   2.250
 4067SOL    HW113100   6.069   2.481   2.278
 4067SOL    HW213101   6.066   2.643   2.299
 4068SOL     OW13102   4.513   0.484   4.612
 4068SOL    HW113103   4.545   0.431   4.534
 4068SOL    HW213104   4.552   0.447   4.696
 4069SOL     OW13105   4.718   3.351   6.742
 4069SOL    HW113106   4.736   3.446   6.716
 4069SOL    HW213107   4.620   3.336   6.750
 4070SOL     OW13108   1.785   3.462   2.871
 4070SOL    HW113109   1.752   3.482   2.964
 4070SOL    HW213110   1.846   3.382   2.875
 4071SOL     OW13111   1.553   1.074   5.293
 4071SOL    HW113112   1.472   1.041   5.244
 4071SOL    HW213113   1.625   1.095   5.227
 4072SOL     OW13114   1.785   6.827   4.552
 4072SOL    HW113115   1.755   6.797   4.462
 4072SOL    HW213116   1.878   6.864   4.546
 4073SOL     OW13117   2.553   5.523   6.059
 4073SOL    HW113118   2.611   5.603   6.071
 4073SOL    HW213119   2.610   5.443   6.037
 4074SOL     OW13120   1.203   2.959   1.849
 4074SOL    HW113121   1.217   2.936   1.753
 4074SOL    HW213122   1.288   2.941   1.900
 4075SOL     OW13123   4.977   2.494   2.723
 4075SOL    HW113124   5.013   2.538   2.640
 4075SOL    HW213125   5.030   2.411   2.741
 4076SOL     OW13126   2.380   3.812   5.681
 4076SOL    HW113127   2.285   3.844   5.681
 4076SOL    HW213128   2.422   3.832   5.593
 4077SOL     OW13129   2.548   6.162   1.402
 4077SOL    HW113130   2.627   6.174   1.461
 4077SOL    HW213131   2.550   6.070   1.362
 4078SOL     OW13132   6.101   5.329   1.954
 4078SOL    HW113133   6.189   5.377   1.963
 4078SOL    HW213134   6.088   5.303   1.858
 4079SOL     OW13135   1.393   0.493   2.957
 4079SOL    HW113136   1.383   0.558   2.882
 4079SOL    HW213137   1.484   0.503   2.997
 4080SOL     OW13138   2.513   3.296   6.797
 4080SOL    HW113139   2.560   3.341   6.721
 4080SOL    HW213140   2.441   3.237   6.762
 4081SOL     OW13141   1.668   1.045   4.631
 4081SOL    HW113142   1.750   1.080   4.584
 4081SOL    HW213143   1.599   1.021   4.563
 4082SOL     OW13144   1.593   1.893   6.962
 4082SOL    HW113145   1.644   1.916   0.027
 4082SOL    HW213146   1.649   1.912   6.882
 4083SOL     OW13147   5.657   4.035   3.778
 4083SOL    HW113148   5.618   4.122   3.806
 4083SOL    HW213149   5.657   4.028   3.678
 4084SOL     OW13150   5.011   3.143   2.943
 4084SOL    HW113151   4.960   3.191   3.014
 4084SOL    HW213152   5.099   3.113   2.980
 4085SOL     OW13153   2.716   5.178   1.397
 4085SOL    HW113154   2.792   5.196   1.460
 4085SOL    HW213155   2.739   5.100   1.339
 4086SOL     OW13156   0.069   4.875   0.692
 4086SOL    HW113157   0.143   4.874   0.759
 4086SOL    HW213158   0.108   4.884   0.600
 4087SOL     OW13159   2.501   1.417   2.917
 4087SOL    HW113160   2.405   1.444   2.910
 4087SOL    HW213161   2.559   1.493   2.888
 4088SOL     OW13162   6.272   1.094   5.290
 4088SOL    HW113163   6.346   1.058   5.233
 4088SOL    HW213164   6.194   1.119   5.232
 4089SOL     OW13165   0.191   5.567   4.556
 4089SOL    HW113166   0.268   5.620   4.522
 4089SOL    HW213167   0.110   5.583   4.499
 4090SOL     OW13168   1.649   6.044   5.124
 4090SOL    HW113169   1.567   6.018   5.073
 4090SOL    HW213170   1.644   6.005   5.216
 4091SOL     OW13171   0.932   5.287   0.142
 4091SOL    HW113172   0.895   5.194   0.150
 4091SOL    HW213173   0.968   5.316   0.231
 4092SOL     OW13174   5.148   3.348   3.810
 4092SOL    HW113175   5.240   3.386   3.822
 4092SOL    HW213176   5.088   3.419   3.773
 4093SOL     OW13177   5.673   6.134   1.756
 4093SOL    HW113178   5.671   6.036   1.741
 4093SOL    HW213179   5.624   6.156   1.841
 4094SOL     OW13180   1.346   4.641   0.010
 4094SOL    HW113181   1.382   4.678   0.095
 4094SOL    HW213182   1.248   4.660   0.005
 4095SOL     OW13183   0.769   3.294   0.508
 4095SOL    HW113184   0.827   3.368   0.474
 4095SOL    HW213185   0.722   3.325   0.591
 4096SOL     OW13186   2.101   0.720   6.347
 4096SOL    HW113187   2.117   0.816   6.327
 4096SOL    HW213188   2.166   0.664   6.296
 4097SOL     OW13189   5.892   4.143   5.716
 4097SOL    HW113190   5.960   4.161   5.787
 4097SOL    HW213191   5.912   4.200   5.636
 4098SOL     OW13192   2.084   2.724   1.428
 4098SOL    HW113193   2.018   2.651   1.439
 4098SOL    HW213194   2.108   2.732   1.331
 4099SOL     OW13195   3.570   5.143   0.325
 4099SOL    HW113196   3.504   5.188   0.265
 4099SOL    HW213197   3.555   5.044   0.322
 4100SOL     OW13198   1.129   0.849   4.075
 4100SOL    HW113199   1.225   0.840   4.101
 4100SOL    HW213200   1.123   0.888   3.982
 4101SOL     OW13201   6.974   0.940   6.482
 4101SOL    HW113202   6.962   0.944   6.383
 4101SOL    HW213203   7.008   1.028   6.515
 4102SOL     OW13204   2.048   0.881   0.814
 4102SOL    HW113205   2.106   0.880   0.896
 4102SOL    HW213206   1.967   0.825   0.829
 4103SOL     OW13207   0.175   7.013   1.909
 4103SOL    HW113208   0.083   0.025   1.935
 4103SOL    HW213209   0.206   6.944   1.975
 4104SOL     OW13210   0.064   5.076   3.331
 4104SOL    HW113211   0.132   5.147   3.313
 4104SOL    HW213212   0.097   4.988   3.295
 4105SOL     OW13213   4.699   1.416   2.178
 4105SOL    HW113214   4.798   1.409   2.188
 4105SOL    HW213215   4.673   1.512   2.161
 4106SOL     OW13216   0.231   1.846   3.843
 4106SOL    HW113217   0.238   1.937   3.800
 4106SOL    HW213218   0.209   1.857   3.940
 4107SOL     OW13219   0.217   6.130   6.797
 4107SOL    HW113220   0.191   6.062   6.728
 4107SOL    HW213221   0.152   6.207   6.792
 4108SOL     OW13222   0.686   5.477   4.571
 4108SOL    HW113223   0.624   5.399   4.564
 4108SOL    HW213224   0.689   5.509   4.666
 4109SOL     OW13225   5.401   6.094   3.518
 4109SOL    HW113226   5.416   6.179   3.569
 4109SOL    HW213227   5.334   6.111   3.446
 4110SOL     OW13228   4.015   3.021   6.205
 4110SOL    HW113229   3.941   2.999   6.268
 4110SOL    HW213230   4.025   3.121   6.199
 4111SOL     OW13231   5.867   5.405   6.096
 4111SOL    HW113232   5.782   5.365   6.132
 4111SOL    HW213233   5.925   5.434   6.171
 4112SOL     OW13234   5.106   6.973   4.913
 4112SOL    HW113235   5.165   0.012   4.856
 4112SOL    HW213236   5.090   6.886   4.868
 4113SOL     OW13237   4.693   5.244   4.118
 4113SOL    HW113238   4.625   5.243   4.192
 4113SOL    HW213239   4.783   5.266   4.156
 4114SOL     OW13240   6.384   1.495   2.978
 4114SOL    HW113241   6.399   1.397   2.964
 4114SOL    HW213242   6.360   1.538   2.891
 4115SOL     OW13243   2.463   4.416   3.363
 4115SOL    HW113244   2.452   4.361   3.445
 4115SOL    HW213245   2.551   4.464   3.367
 4116SOL     OW13246   4.699   2.807   3.681
 4116SOL    HW113247   4.653   2.718   3.674
 4116SOL    HW213248   4.658   2.871   3.616
 4117SOL     OW13249   1.359   2.015   2.927
 4117SOL    HW113250   1.348   2.112   2.946
 4117SOL    HW213251   1.335   1.962   3.009
 4118SOL     OW13252   6.247   6.772   5.674
 4118SOL    HW113253   6.301   6.730   5.747
 4118SOL    HW213254   6.287   6.749   5.585
 4119SOL     OW13255   2.968   0.852   3.537
 4119SOL    HW113256   2.994   0.941   3.498
 4119SOL    HW213257   2.872   0.855   3.564
 4120SOL     OW13258   4.093   1.198   6.257
 4120SOL    HW113259   4.179   1.178   6.211
 4120SOL    HW213260   4.026   1.128   6.236
 4121SOL     OW13261   6.860   6.703   2.437
 4121SOL    HW113262   6.900   6.788   2.401
 4121SOL    HW213263   6.902   6.625   2.391
 4122SOL     OW13264   1.214   6.757   4.885
 4122SOL    HW113265   1.232   6.838   4.940
 4122SOL    HW213266   1.251   6.771   4.793
 4123SOL     OW13267   4.249   5.058   4.097
 4123SOL    HW113268   4.314   5.022   4.164
 4123SOL    HW213269   4.156   5.035   4.125
 4124SOL     OW13270   6.898   6.567   0.975
 4124SOL    HW113271   6.955   6.533   1.050
 4124SOL    HW213272   6.955   6.619   0.911
 4125SOL     OW13273   4.575   2.621   2.702
 4125SOL    HW113274   4.634   2.573   2.637
 4125SOL    HW213275   4.494   2.656   2.656
 4126SOL     OW13276   1.885   2.992   2.242
 4126SOL    HW113277   1.808   3.026   2.296
 4126SOL    HW213278   1.897   2.894   2.257
 4127SOL     OW13279   5.102   2.446   5.023
 4127SOL    HW113280   5.137   2.463   4.931
 4127SOL    HW213281   5.081   2.348   5.032
 4128SOL     OW13282   1.117   3.250   1.541
 4128SOL    HW113283   1.152   3.278   1.630
 4128SOL    HW213284   1.121   3.150   1.533
 4129SOL     OW13285   3.504   0.937   0.129
 4129SOL    HW113286   3.447   0.876   0.073
 4129SOL    HW213287   3.454   1.021   0.147
 4130SOL     OW13288   6.130   2.119   0.295
 4130SOL    HW113289   6.177   2.117   0.383
 4130SOL    HW213290   6.040   2.162   0.306
 4131SOL     OW13291   6.702   0.857   2.966
 4131SOL    HW113292   6.748   0.938   3.001
 4131SOL    HW213293   6.643   0.819   3.038
 4132SOL     OW13294   5.633   4.066   4.476
 4132SOL    HW113295   5.676   4.082   4.565
 4132SOL    HW213296   5.559   4.131   4.462
 4133SOL     OW13297   4.356   6.257   1.654
 4133SOL    HW113298   4.287   6.231   1.587
 4133SOL    HW213299   4.329   6.342   1.699
 4134SOL     OW13300   2.358   3.181   0.988
 4134SOL    HW113301   2.396   3.219   0.904
 4134SOL    HW213302   2.423   3.119   1.031
 4135SOL     OW13303   0.375   2.204   2.694
 4135SOL    HW113304   0.408   2.141   2.623
 4135SOL    HW213305   0.276   2.196   2.703
 4136SOL     OW13306   1.315   3.684   1.898
 4136SOL    HW113307   1.320   3.687   1.798
 4136SOL    HW213308   1.397   3.727   1.937
 4137SOL     OW13309   1.123   3.155   7.012
 4137SOL    HW113310   1.052   3.087   6.995
 4137SOL    HW213311   1.180   3.165   6.930
 4138SOL     OW13312   3.883   5.150   1.558
 4138SOL    HW113313   3.918   5.112   1.643
 4138SOL    HW213314   3.789   5.182   1.572
 4139SOL     OW13315   1.252   1.741   3.589
 4139SOL    HW113316   1.304   1.712   3.669
 4139SOL    HW213317   1.241   1.663   3.527
 4140SOL     OW13318   3.206   2.155   3.937
 4140SOL    HW113319   3.188   2.195   3.848
 4140SOL    HW213320   3.158   2.207   4.008
 4141SOL     OW13321   5.459   0.070   0.361
 4141SOL    HW113322   5.372   0.087   0.407
 4141SOL    HW213323   5.495   0.156   0.325
 4142SOL     OW13324   6.771   3.975   1.649
 4142SOL    HW113325   6.789   4.060   1.698
 4142SOL    HW213326   6.849   3.913   1.660
 4143SOL     OW13327   5.466   3.090   0.414
 4143SOL    HW113328   5.505   3.171   0.457
 4143SOL    HW213329   5.448   3.021   0.484
 4144SOL     OW13330   4.808   1.403   0.117
 4144SOL    HW113331   4.819   1.310   0.081
 4144SOL    HW213332   4.871   1.417   0.193
 4145SOL     OW13333   0.990   6.149   0.751
 4145SOL    HW113334   1.004   6.243   0.782
 4145SOL    HW213335   0.935   6.099   0.817
 4146SOL     OW13336   6.650   0.911   3.477
 4146SOL    HW113337   6.620   0.820   3.446
 4146SOL    HW213338   6.744   0.906   3.509
 4147SOL     OW13339   4.936   4.484   5.912
 4147SOL    HW113340   4.857   4.435   5.949
 4147SOL    HW213341   4.944   4.465   5.814
 4148SOL     OW13342   2.786   0.738   5.526
 4148SOL    HW113343   2.712   0.789   5.482
 4148SOL    HW213344   2.859   0.801   5.553
 4149SOL     OW13345   0.545   3.685   1.779
 4149SOL    HW113346   0.616   3.641   1.834
 4149SOL    HW213347   0.457   3.675   1.823
 4150SOL     OW13348   6.837   1.846   5.273
 4150SOL    HW113349   6.803   1.803   5.357
 4150SOL    HW213350   6.872   1.775   5.212
 4151SOL     OW13351   1.659   6.912   6.056
 4151SOL    HW113352   1.728   6.878   6.120
 4151SOL    HW213353   1.704   6.968   5.986
 4152SOL     OW13354   3.946   5.516   2.121
 4152SOL    HW113355   3.966   5.444   2.187
 4152SOL    HW213356   3.989   5.601   2.150
 4153SOL     OW13357   6.697   5.236   1.490
 4153SOL    HW113358   6.714   5.299   1.565
 4153SOL    HW213359   6.638   5.279   1.422
 4154SOL     OW13360   0.332   5.828   3.850
 4154SOL    HW113361   0.290   5.743   3.883
 4154SOL    HW213362   0.396   5.807   3.777
 4155SOL     OW13363   0.448   1.847   1.099
 4155SOL    HW113364   0.472   1.758   1.061
 4155SOL    HW213365   0.411   1.835   1.191
 4156SOL     OW13366   6.598   5.442   5.251
 4156SOL    HW113367   6.517   5.481   5.295
 4156SOL    HW213368   6.669   5.512   5.244
 4157SOL     OW13369   5.584   6.030   3.289
 4157SOL    HW113370   5.671   6.021   3.337
 4157SOL    HW213371   5.509   6.009   3.352
 4158SOL     OW13372   1.964   2.715   2.287
 4158SOL    HW113373   1.947   2.618   2.304
 4158SOL    HW213374   2.056   2.727   2.250
 4159SOL     OW13375   2.674   2.350   3.639
 4159SOL    HW113376   2.681   2.448   3.657
 4159SOL    HW213377   2.753   2.303   3.679
 4160SOL     OW13378   5.794   0.003   6.843
 4160SOL    HW113379   5.874   6.990   6.894
 4160SOL    HW213380   5.792   6.978   6.753
 4161SOL     OW13381   1.695   1.945   1.850
 4161SOL    HW113382   1.611   1.904   1.885
 4161SOL    HW213383   1.736   2.004   1.921
 4162SOL     OW13384   6.079   5.727   1.191
 4162SOL    HW113385   6.162   5.751   1.241
 4162SOL    HW213386   6.025   5.810   1.175
 4163SOL     OW13387   5.657   1.535   2.976
 4163SOL    HW113388   5.672   1.627   2.940
 4163SOL    HW213389   5.692   1.530   3.070
 4164SOL     OW13390   0.692   0.001   5.432
 4164SOL    HW113391   0.640   0.061   5.493
 4164SOL    HW213392   0.789   0.022   5.438
 4165SOL     OW13393   4.600   0.004   5.804
 4165SOL    HW113394   4.591   0.047   5.894
 4165SOL    HW213395   4.666   0.056   5.749
 4166SOL     OW13396   5.299   1.442   1.337
 4166SOL    HW113397   5.385   1.482   1.305
 4166SOL    HW213398   5.261   1.382   1.267
 4167SOL     OW13399   3.320   4.838   6.163
 4167SOL    HW113400   3.288   4.879   6.248
 4167SOL    HW213401   3.252   4.771   6.131
 4168SOL     OW13402   0.265   4.241   1.011
 4168SOL    HW113403   0.198   4.203   0.948
 4168SOL    HW213404   0.274   4.182   1.091
 4169SOL     OW13405   6.178   3.865   4.978
 4169SOL    HW113406   6.262   3.919   4.987
 4169SOL    HW213407   6.124   3.874   5.061
 4170SOL     OW13408   5.050   2.898   5.072
 4170SOL    HW113409   5.050   2.857   4.981
 4170SOL    HW213410   5.128   2.863   5.124
 4171SOL     OW13411   0.651   5.399   1.170
 4171SOL    HW113412   0.681   5.467   1.103
 4171SOL    HW213413   0.555   5.415   1.192
 4172SOL     OW13414   2.239   2.463   0.595
 4172SOL    HW113415   2.269   2.455   0.690
 4172SOL    HW213416   2.264   2.380   0.544
 4173SOL     OW13417   5.349   3.222   5.243
 4173SOL    HW113418   5.437   3.183   5.218
 4173SOL    HW213419   5.296   3.240   5.160
 4174SOL     OW13420   4.966   1.371   2.232
 4174SOL    HW113421   4.946   1.331   2.321
 4174SOL    HW213422   5.061   1.351   2.207
 4175SOL     OW13423   1.479   4.804   4.745
 4175SOL    HW113424   1.532   4.880   4.782
 4175SOL    HW213425   1.542   4.735   4.709
 4176SOL     OW13426   4.090   6.808   1.207
 4176SOL    HW113427   4.162   6.768   1.263
 4176SOL    HW213428   4.008   6.820   1.262
 4177SOL     OW13429   5.446   4.696   5.027
 4177SOL    HW113430   5.434   4.767   4.957
 4177SOL    HW213431   5.543   4.675   5.037
 4178SOL     OW13432   4.152   0.432   3.694
 4178SOL    HW113433   4.158   0.505   3.762
 4178SOL    HW213434   4.070   0.446   3.638
 4179SOL     OW13435   5.198   4.228   3.192
 4179SOL    HW113436   5.242   4.202   3.277
 4179SOL    HW213437   5.154   4.148   3.151
 4180SOL     OW13438   4.581   2.803   0.953
 4180SOL    HW113439   4.604   2.710   0.924
 4180SOL    HW213440   4.632   2.826   1.036
 4181SOL     OW13441   4.372   0.723   6.903
 4181SOL    HW113442   4.430   0.783   6.848
 4181SOL    HW213443   4.387   0.742   7.000
 4182SOL     OW13444   0.584   5.250   3.049
 4182SOL    HW113445   0.665   5.193   3.034
 4182SOL    HW213446   0.560   5.249   3.146
 4183SOL     OW13447   3.092   1.097   0.606
 4183SOL    HW113448   3.065   1.033   0.534
 4183SOL    HW213449   3.099   1.189   0.568
 4184SOL     OW13450   3.860   6.768   2.105
 4184SOL    HW113451   3.843   6.680   2.060
 4184SOL    HW213452   3.959   6.778   2.120
 4185SOL     OW13453   0.802   4.353   3.420
 4185SOL    HW113454   0.813   4.451   3.401
 4185SOL    HW213455   0.709   4.336   3.452
 4186SOL     OW13456   2.247   5.314   6.662
 4186SOL    HW113457   2.214   5.396   6.708
 4186SOL    HW213458   2.316   5.340   6.595
 4187SOL     OW13459   2.608   2.965   5.868
 4187SOL    HW113460   2.602   3.013   5.956
 4187SOL    HW213461   2.593   3.031   5.794
 4188SOL     OW13462   4.953   0.655   5.260
 4188SOL    HW113463   4.878   0.601   5.221
 4188SOL    HW213464   4.988   0.609   5.342
 4189SOL     OW13465   3.585   4.927   4.383
 4189SOL    HW113466   3.494   4.902   4.350
 4189SOL    HW213467   3.654   4.899   4.316
 4190SOL     OW13468   1.100   0.572   1.211
 4190SOL    HW113469   1.054   0.483   1.210
 4190SOL    HW213470   1.177   0.571   1.147
 4191SOL     OW13471   5.265   4.460   4.980
 4191SOL    HW113472   5.293   4.556   4.975
 4191SOL    HW213473   5.345   4.403   5.001
 4192SOL     OW13474   0.847   1.727   2.776
 4192SOL    HW113475   0.801   1.638   2.779
 4192SOL    HW213476   0.791   1.791   2.722
 4193SOL     OW13477   5.635   0.256   0.905
 4193SOL    HW113478   5.588   0.310   0.975
 4193SOL    HW213479   5.697   0.191   0.949
 4194SOL     OW13480   4.579   0.307   4.411
 4194SOL    HW113481   4.648   0.372   4.379
 4194SOL    HW213482   4.583   0.224   4.356
 4195SOL     OW13483   4.264   5.226   1.603
 4195SOL    HW113484   4.181   5.187   1.642
 4195SOL    HW213485   4.279   5.317   1.642
 4196SOL     OW13486   6.743   2.615   2.847
 4196SOL    HW113487   6.650   2.584   2.829
 4196SOL    HW213488   6.756   2.626   2.946
 4197SOL     OW13489   4.795   5.317   5.401
 4197SOL    HW113490   4.861   5.277   5.464
 4197SOL    HW213491   4.713   5.259   5.396
 4198SOL     OW13492   6.473   2.074   0.854
 4198SOL    HW113493   6.442   2.042   0.944
 4198SOL    HW213494   6.505   2.168   0.862
 4199SOL     OW13495   1.116   2.497   5.605
 4199SOL    HW113496   1.048   2.476   5.674
 4199SOL    HW213497   1.197   2.440   5.619
 4200SOL     OW13498   2.594   0.125   6.509
 4200SOL    HW113499   2.584   0.027   6.494
 4200SOL    HW213500   2.548   0.151   6.593
 4201SOL     OW13501   5.992   0.019   3.696
 4201SOL    HW113502   6.038   6.955   3.662
 4201SOL    HW213503   5.956   0.001   3.788
 4202SOL     OW13504   2.797   5.723   6.353
 4202SOL    HW113505   2.834   5.631   6.347
 4202SOL    HW213506   2.852   5.778   6.416
 4203SOL     OW13507   4.667   4.134   0.484
 4203SOL    HW113508   4.592   4.141   0.418
 4203SOL    HW213509   4.653   4.055   0.543
 4204SOL     OW13510   4.148   3.612   4.010
 4204SOL    HW113511   4.241   3.646   3.993
 4204SOL    HW213512   4.099   3.604   3.923
 4205SOL     OW13513   4.286   6.239   4.699
 4205SOL    HW113514   4.253   6.182   4.623
 4205SOL    HW213515   4.333   6.181   4.766
 4206SOL     OW13516   6.350   1.443   5.014
 4206SOL    HW113517   6.286   1.374   4.980
 4206SOL    HW213518   6.357   1.436   5.114
 4207SOL     OW13519   1.978   2.331   2.108
 4207SOL    HW113520   1.982   2.297   2.014
 4207SOL    HW213521   2.069   2.331   2.148
 4208SOL     OW13522   6.880   3.670   5.417
 4208SOL    HW113523   6.824   3.752   5.416
 4208SOL    HW213524   6.884   3.630   5.326
 4209SOL     OW13525   6.820   5.999   3.762
 4209SOL    HW113526   6.824   5.912   3.712
 4209SOL    HW213527   6.890   5.999   3.833
 4210SOL     OW13528   3.590   3.543   2.418
 4210SOL    HW113529   3.539   3.525   2.334
 4210SOL    HW213530   3.542   3.501   2.495
 4211SOL     OW13531   3.694   0.826   5.946
 4211SOL    HW113532   3.603   0.787   5.956
 4211SOL    HW213533   3.761   0.752   5.939
 4212SOL     OW13534   6.252   2.451   2.581
 4212SOL    HW113535   6.174   2.430   2.521
 4212SOL    HW213536   6.337   2.441   2.529
 4213SOL     OW13537   2.633   0.935   2.524
 4213SOL    HW113538   2.717   0.989   2.525
 4213SOL    HW213539   2.562   0.986   2.476
 4214SOL     OW13540   0.374   5.780   5.561
 4214SOL    HW113541   0.413   5.808   5.649
 4214SOL    HW213542   0.282   5.820   5.552
 4215SOL     OW13543   4.223   6.563   5.655
 4215SOL    HW113544   4.153   6.500   5.689
 4215SOL    HW213545   4.283   6.516   5.591
 4216SOL     OW13546   2.005   0.901   3.198
 4216SOL    HW113547   1.908   0.896   3.173
 4216SOL    HW213548   2.022   0.845   3.279
 4217SOL     OW13549   1.241   0.916   2.963
 4217SOL    HW113550   1.257   0.974   3.043
 4217SOL    HW213551   1.144   0.922   2.937
 4218SOL     OW13552   3.453   1.102   1.445
 4218SOL    HW113553   3.359   1.105   1.411
 4218SOL    HW213554   3.501   1.186   1.420
 4219SOL     OW13555   4.476   5.559   4.504
 4219SOL    HW113556   4.481   5.509   4.417
 4219SOL    HW213557   4.400   5.624   4.500
 4220SOL     OW13558   6.437   3.165   3.040
 4220SOL    HW113559   6.531   3.170   3.008
 4220SOL    HW213560   6.426   3.226   3.119
 4221SOL     OW13561   5.982   5.134   6.075
 4221SOL    HW113562   5.932   5.084   6.003
 4221SOL    HW213563   5.963   5.231   6.067
 4222SOL     OW13564   6.947   1.671   2.028
 4222SOL    HW113565   6.944   1.759   2.076
 4222SOL    HW213566   0.019   1.630   2.041
 4223SOL     OW13567   3.141   3.871   0.881
 4223SOL    HW113568   3.042   3.861   0.887
 4223SOL    HW213569   3.174   3.835   0.794
 4224SOL     OW13570   5.637   5.339   3.988
 4224SOL    HW113571   5.557   5.400   3.987
 4224SOL    HW213572   5.640   5.287   3.902
 4225SOL     OW13573   2.283   2.922   5.366
 4225SOL    HW113574   2.355   2.947   5.301
 4225SOL    HW213575   2.322   2.906   5.456
 4226SOL     OW13576   0.892   6.755   2.930
 4226SOL    HW113577   0.900   6.688   2.856
 4226SOL    HW213578   0.812   6.732   2.986
 4227SOL     OW13579   3.437   5.527   1.714
 4227SOL    HW113580   3.382   5.572   1.785
 4227SOL    HW213581   3.412   5.430   1.710
 4228SOL     OW13582   0.643   5.607   5.568
 4228SOL    HW113583   0.565   5.645   5.519
 4228SOL    HW213584   0.611   5.545   5.640
 4229SOL     OW13585   4.507   5.932   5.816
 4229SOL    HW113586   4.438   5.987   5.863
 4229SOL    HW213587   4.594   5.937   5.865
 4230SOL     OW13588   1.337   5.485   2.944
 4230SOL    HW113589   1.421   5.435   2.965
 4230SOL    HW213590   1.336   5.511   2.848
 4231SOL     OW13591   5.076   6.581   6.036
 4231SOL    HW113592   5.138   6.645   6.081
 4231SOL    HW213593   4.984   6.593   6.072
 4232SOL     OW13594   0.824   4.856   3.125
 4232SOL    HW113595   0.816   4.763   3.159
 4232SOL    HW213596   0.787   4.862   3.033
 4233SOL     OW13597   6.153   0.571   5.558
 4233SOL    HW113598   6.186   0.651   5.607
 4233SOL    HW213599   6.073   0.533   5.605
 4234SOL     OW13600   2.296   5.478   5.049
 4234SOL    HW113601   2.341   5.431   4.972
 4234SOL    HW213602   2.366   5.517   5.109
 4235SOL     OW13603   5.288   3.922   6.176
 4235SOL    HW113604   5.236   3.971   6.246
 4235SOL    HW213605   5.375   3.891   6.215
 4236SOL     OW13606   6.455   3.965   1.992
 4236SOL    HW113607   6.527   4.033   2.008
 4236SOL    HW213608   6.477   3.881   2.041
 4237SOL     OW13609   6.035   5.247   3.457
 4237SOL    HW113610   6.105   5.300   3.503
 4237SOL    HW213611   5.950   5.250   3.510
 4238SOL     OW13612   2.000   6.348   2.540
 4238SOL    HW113613   1.921   6.373   2.595
 4238SOL    HW213614   1.982   6.369   2.444
 4239SOL     OW13615   5.051   1.288   2.878
 4239SOL    HW113616   5.046   1.191   2.853
 4239SOL    HW213617   4.972   1.313   2.933
 4240SOL     OW13618   1.957   6.026   0.413
 4240SOL    HW113619   2.000   6.115   0.429
 4240SOL    HW213620   1.921   6.022   0.320
 4241SOL     OW13621   5.814   0.665   0.768
 4241SOL    HW113622   5.896   0.692   0.820
 4241SOL    HW213623   5.810   0.566   0.763
 4242SOL     OW13624   3.055   2.145   4.188
 4242SOL    HW113625   3.107   2.106   4.265
 4242SOL    HW213626   2.974   2.191   4.223
 4243SOL     OW13627   6.497   2.795   2.550
 4243SOL    HW113628   6.557   2.783   2.471
 4243SOL    HW213629   6.442   2.877   2.537
 4244SOL     OW13630   4.454   4.461   1.281
 4244SOL    HW113631   4.553   4.461   1.296
 4244SOL    HW213632   4.408   4.485   1.367
 4245SOL     OW13633   6.682   1.376   6.375
 4245SOL    HW113634   6.706   1.337   6.464
 4245SOL    HW213635   6.589   1.414   6.379
 4246SOL     OW13636   0.351   3.805   3.257
 4246SOL    HW113637   0.315   3.879   3.200
 4246SOL    HW213638   0.393   3.843   3.339
 4247SOL     OW13639   2.701   6.390   3.394
 4247SOL    HW113640   2.654   6.366   3.309
 4247SOL    HW213641   2.634   6.401   3.467
 4248SOL     OW13642   3.668   1.392   3.482
 4248SOL    HW113643   3.707   1.303   3.504
 4248SOL    HW213644   3.735   1.464   3.499
 4249SOL     OW13645   6.198   2.876   4.562
 4249SOL    HW113646   6.222   2.854   4.467
 4249SOL    HW213647   6.104   2.909   4.565
 4250SOL     OW13648   6.667   4.031   2.883
 4250SOL    HW113649   6.734   4.048   2.811
 4250SOL    HW213650   6.585   3.989   2.843
 4251SOL     OW13651   5.696   4.559   0.762
 4251SOL    HW113652   5.725   4.478   0.814
 4251SOL    HW213653   5.776   4.606   0.726
 4252SOL     OW13654   5.654   6.240   5.440
 4252SOL    HW113655   5.557   6.266   5.442
 4252SOL    HW213656   5.683   6.224   5.346
 4253SOL     OW13657   3.597   6.167   0.677
 4253SOL    HW113658   3.642   6.254   0.699
 4253SOL    HW213659   3.539   6.178   0.597
 4254SOL     OW13660   0.743   2.743   2.455
 4254SOL    HW113661   0.806   2.795   2.513
 4254SOL    HW213662   0.759   2.646   2.468
 4255SOL     OW13663   6.014   3.920   3.387
 4255SOL    HW113664   6.069   3.932   3.469
 4255SOL    HW213665   6.021   3.826   3.355
 4256SOL     OW13666   2.134   6.884   0.364
 4256SOL    HW113667   2.142   6.786   0.345
 4256SOL    HW213668   2.083   6.928   0.290
 4257SOL     OW13669   3.077   0.605   4.182
 4257SOL    HW113670   3.019   0.683   4.161
 4257SOL    HW213671   3.047   0.563   4.268
 4258SOL     OW13672   5.020   6.061   0.939
 4258SOL    HW113673   4.993   5.970   0.969
 4258SOL    HW213674   4.942   6.123   0.946
 4259SOL     OW13675   2.940   0.647   0.408
 4259SOL    HW113676   2.883   0.583   0.460
 4259SOL    HW213677   3.035   0.618   0.412
 4260SOL     OW13678   5.229   6.778   6.743
 4260SOL    HW113679   5.159   6.840   6.709
 4260SOL    HW213680   5.248   6.709   6.673
 4261SOL     OW13681   1.875   0.082   1.532
 4261SOL    HW113682   1.797   0.122   1.484
 4261SOL    HW213683   1.843   0.008   1.591
 4262SOL     OW13684   0.619   4.816   5.342
 4262SOL    HW113685   0.572   4.811   5.430
 4262SOL    HW213686   0.715   4.838   5.357
 4263SOL     OW13687   2.716   6.676   3.312
 4263SOL    HW113688   2.700   6.581   3.285
 4263SOL    HW213689   2.723   6.681   3.411
 4264SOL     OW13690   0.448   2.827   2.851
 4264SOL    HW113691   0.351   2.837   2.828
 4264SOL    HW213692   0.469   2.730   2.862
 4265SOL     OW13693   5.709   1.142   0.826
 4265SOL    HW113694   5.688   1.135   0.728
 4265SOL    HW213695   5.713   1.050   0.866
 4266SOL     OW13696   1.853   5.221   0.473
 4266SOL    HW113697   1.881   5.134   0.515
 4266SOL    HW213698   1.835   5.288   0.544
 4267SOL     OW13699   2.146   3.604   4.544
 4267SOL    HW113700   2.131   3.544   4.466
 4267SOL    HW213701   2.158   3.698   4.513
 4268SOL     OW13702   1.293   5.971   6.379
 4268SOL    HW113703   1.316   5.886   6.330
 4268SOL    HW213704   1.204   5.961   6.423
 4269SOL     OW13705   2.282   1.319   1.878
 4269SOL    HW113706   2.285   1.331   1.778
 4269SOL    HW213707   2.265   1.408   1.921
 4270SOL     OW13708   3.954   3.731   3.387
 4270SOL    HW113709   4.017   3.665   3.428
 4270SOL    HW213710   3.973   3.739   3.289
 4271SOL     OW13711   0.093   1.105   6.857
 4271SOL    HW113712   0.048   1.132   6.772
 4271SOL    HW213713   0.032   1.046   6.910
 4272SOL     OW13714   6.201   2.764   5.042
 4272SOL    HW113715   6.196   2.744   4.944
 4272SOL    HW213716   6.133   2.709   5.091
 4273SOL     OW13717   4.221   6.250   5.201
 4273SOL    HW113718   4.253   6.187   5.129
 4273SOL    HW213719   4.272   6.335   5.195
 4274SOL     OW13720   1.486   6.724   1.842
 4274SOL    HW113721   1.485   6.802   1.779
 4274SOL    HW213722   1.514   6.755   1.932
 4275SOL     OW13723   6.557   0.835   4.338
 4275SOL    HW113724   6.583   0.795   4.426
 4275SOL    HW213725   6.590   0.776   4.264
 4276SOL     OW13726   2.057   4.959   3.453
 4276SOL    HW113727   2.108   5.041   3.480
 4276SOL    HW213728   1.965   4.986   3.422
 4277SOL     OW13729   6.284   4.910   4.208
 4277SOL    HW113730   6.228   4.986   4.239
 4277SOL    HW213731   6.252   4.825   4.250
 4278SOL     OW13732   0.491   0.557   4.464
 4278SOL    HW113733   0.496   0.512   4.376
 4278SOL    HW213734   0.493   0.656   4.451
 4279SOL     OW13735   3.676   0.275   4.868
 4279SOL    HW113736   3.662   0.207   4.796
 4279SOL    HW213737   3.601   0.341   4.866
 4280SOL     OW13738   5.085   0.078   6.309
 4280SOL    HW113739   5.102   7.004   6.342
 4280SOL    HW213740   5.094   0.080   6.210
 4281SOL     OW13741   0.644   5.289   3.794
 4281SOL    HW113742   0.667   5.201   3.753
 4281SOL    HW213743   0.725   5.348   3.795
 4282SOL     OW13744   3.103   3.798   6.919
 4282SOL    HW113745   3.193   3.760   6.901
 4282SOL    HW213746   3.068   3.762   7.005
 4283SOL     OW13747   1.817   0.780   3.412
 4283SOL    HW113748   1.768   0.695   3.391
 4283SOL    HW213749   1.896   0.759   3.469
 4284SOL     OW13750   4.314   4.971   1.370
 4284SOL    HW113751   4.303   4.945   1.274
 4284SOL    HW213752   4.325   5.070   1.377
 4285SOL     OW13753   0.451   0.773   6.316
 4285SOL    HW113754   0.393   0.770   6.397
 4285SOL    HW213755   0.405   0.727   6.240
 4286SOL     OW13756   4.915   5.817   6.036
 4286SOL    HW113757   4.859   5.751   6.086
 4286SOL    HW213758   4.917   5.793   5.939
 4287SOL     OW13759   5.695   1.846   6.914
 4287SOL    HW113760   5.730   1.923   6.859
 4287SOL    HW213761   5.769   1.811   6.971
 4288SOL     OW13762   0.981   6.156   3.657
 4288SOL    HW113763   0.901   6.215   3.672
 4288SOL    HW213764   0.993   6.096   3.735
 4289SOL     OW13765   6.746   3.157   0.800
 4289SOL    HW113766   6.833   3.108   0.811
 4289SOL    HW213767   6.749   3.213   0.717
 4290SOL     OW13768   1.978   0.138   2.803
 4290SOL    HW113769   1.999   0.045   2.834
 4290SOL    HW213770   2.061   0.180   2.766
 4291SOL     OW13771   4.007   3.751   1.298
 4291SOL    HW113772   4.021   3.706   1.386
 4291SOL    HW213773   4.090   3.800   1.271
 4292SOL     OW13774   6.435   4.530   6.326
 4292SOL    HW113775   6.367   4.482   6.381
 4292SOL    HW213776   6.520   4.539   6.378
 4293SOL     OW13777   1.706   3.199   0.691
 4293SOL    HW113778   1.680   3.120   0.635
 4293SOL    HW213779   1.625   3.254   0.711
 4294SOL     OW13780   2.665   2.938   6.545
 4294SOL    HW113781   2.705   3.028   6.533
 4294SOL    HW213782   2.738   2.870   6.553
 4295SOL     OW13783   4.091   5.624   4.097
 4295SOL    HW113784   4.121   5.595   4.188
 4295SOL    HW213785   4.071   5.543   4.041
 4296SOL     OW13786   4.403   0.821   0.468
 4296SOL    HW113787   4.400   0.833   0.567
 4296SOL    HW213788   4.446   0.901   0.426
 4297SOL     OW13789   5.414   0.864   6.749
 4297SOL    HW113790   5.435   0.833   6.656
 4297SOL    HW213791   5.498   0.892   6.795
 4298SOL     OW13792   3.498   5.578   0.056
 4298SOL    HW113793   3.502   5.522   0.138
 4298SOL    HW213794   3.514   5.674   0.080
 4299SOL     OW13795   1.199   2.591   0.162
 4299SOL    HW113796   1.200   2.641   0.075
 4299SOL    HW213797   1.150   2.645   0.231
 4300SOL     OW13798   3.839   0.251   0.101
 4300SOL    HW113799   3.904   0.304   0.156
 4300SOL    HW213800   3.766   0.311   0.070
 4301SOL     OW13801   3.979   1.819   0.922
 4301SOL    HW113802   3.908   1.835   0.990
 4301SOL    HW213803   3.952   1.745   0.861
 4302SOL     OW13804   1.429   6.742   5.689
 4302SOL    HW113805   1.429   6.723   5.788
 4302SOL    HW213806   1.496   6.683   5.645
 4303SOL     OW13807   6.216   4.601   4.255
 4303SOL    HW113808   6.243   4.578   4.162
 4303SOL    HW213809   6.294   4.592   4.316
 4304SOL     OW13810   3.249   4.102   2.796
 4304SOL    HW113811   3.303   4.178   2.759
 4304SOL    HW213812   3.254   4.104   2.896
 4305SOL     OW13813   6.591   0.744   4.634
 4305SOL    HW113814   6.637   0.672   4.687
 4305SOL    HW213815   6.641   0.830   4.644
 4306SOL     OW13816   6.660   3.472   6.895
 4306SOL    HW113817   6.698   3.422   6.817
 4306SOL    HW213818   6.560   3.475   6.886
 4307SOL     OW13819   4.160   3.565   6.169
 4307SOL    HW113820   4.157   3.473   6.208
 4307SOL    HW213821   4.076   3.614   6.194
 4308SOL     OW13822   5.994   5.350   6.612
 4308SOL    HW113823   5.968   5.259   6.646
 4308SOL    HW213824   5.930   5.418   6.649
 4309SOL     OW13825   1.162   1.370   0.326
 4309SOL    HW113826   1.260   1.361   0.308
 4309SOL    HW213827   1.112   1.303   0.272
 4310SOL     OW13828   1.728   3.074   3.007
 4310SOL    HW113829   1.803   3.012   2.986
 4310SOL    HW213830   1.745   3.118   3.095
 4311SOL     OW13831   1.767   5.906   3.374
 4311SOL    HW113832   1.669   5.908   3.396
 4311SOL    HW213833   1.808   5.995   3.395
 4312SOL     OW13834   1.405   5.197   1.055
 4312SOL    HW113835   1.392   5.251   1.138
 4312SOL    HW213836   1.408   5.100   1.078
 4313SOL     OW13837   4.688   1.855   1.308
 4313SOL    HW113838   4.783   1.842   1.280
 4313SOL    HW213839   4.667   1.953   1.308
 4314SOL     OW13840   5.517   1.389   4.194
 4314SOL    HW113841   5.487   1.361   4.103
 4314SOL    HW213842   5.603   1.344   4.217
 4315SOL     OW13843   2.750   0.175   2.100
 4315SOL    HW113844   2.715   0.221   2.018
 4315SOL    HW213845   2.688   0.192   2.177
 4316SOL     OW13846   5.413   6.885   1.538
 4316SOL    HW113847   5.480   6.959   1.533
 4316SOL    HW213848   5.321   6.923   1.532
 4317SOL     OW13849   4.509   1.325   5.012
 4317SOL    HW113850   4.485   1.228   5.004
 4317SOL    HW213851   4.425   1.379   5.024
 4318SOL     OW13852   0.717   3.481   4.639
 4318SOL    HW113853   0.803   3.515   4.676
 4318SOL    HW213854   0.652   3.464   4.713
 4319SOL     OW13855   2.142   2.705   0.463
 4319SOL    HW113856   2.174   2.800   0.462
 4319SOL    HW213857   2.205   2.650   0.519
 4320SOL     OW13858   5.791   6.429   1.947
 4320SOL    HW113859   5.862   6.435   1.876
 4320SOL    HW213860   5.730   6.508   1.940
 4321SOL     OW13861   6.904   6.515   5.126
 4321SOL    HW113862   6.922   6.470   5.039
 4321SOL    HW213863   6.959   6.598   5.133
 4322SOL     OW13864   6.373   2.073   6.726
 4322SOL    HW113865   6.427   2.119   6.796
 4322SOL    HW213866   6.275   2.084   6.747
 4323SOL     OW13867   5.068   4.094   0.963
 4323SOL    HW113868   5.002   4.032   0.920
 4323SOL    HW213869   5.055   4.092   1.062
 4324SOL     OW13870   5.182   3.949   6.460
 4324SOL    HW113871   5.244   3.907   6.527
 4324SOL    HW213872   5.089   3.919   6.477
 4325SOL     OW13873   2.686   1.225   1.480
 4325SOL    HW113874   2.751   1.157   1.446
 4325SOL    HW213875   2.736   1.299   1.525
 4326SOL     OW13876   5.382   4.322   5.300
 4326SOL    HW113877   5.311   4.279   5.355
 4326SOL    HW213878   5.398   4.267   5.218
 4327SOL     OW13879   5.991   5.596   2.041
 4327SOL    HW113880   6.076   5.575   1.993
 4327SOL    HW213881   5.988   5.544   2.127
 4328SOL     OW13882   4.339   3.274   5.563
 4328SOL    HW113883   4.252   3.263   5.514
 4328SOL    HW213884   4.407   3.312   5.502
 4329SOL     OW13885   3.955   1.640   5.762
 4329SOL    HW113886   4.032   1.681   5.811
 4329SOL    HW213887   3.991   1.580   5.689
 4330SOL     OW13888   2.952   0.408   5.204
 4330SOL    HW113889   2.865   0.440   5.166
 4330SOL    HW213890   2.959   0.309   5.191
 4331SOL     OW13891   5.394   2.859   0.553
 4331SOL    HW113892   5.370   2.816   0.466
 4331SOL    HW213893   5.314   2.905   0.590
 4332SOL     OW13894   4.864   4.859   2.146
 4332SOL    HW113895   4.837   4.788   2.081
 4332SOL    HW213896   4.907   4.935   2.098
 4333SOL     OW13897   3.736   0.781   5.355
 4333SOL    HW113898   3.737   0.816   5.449
 4333SOL    HW213899   3.730   0.857   5.291
 4334SOL     OW13900   1.900   2.326   2.543
 4334SOL    HW113901   1.981   2.273   2.517
 4334SOL    HW213902   1.892   2.328   2.642
 4335SOL     OW13903   3.475   3.751   2.901
 4335SOL    HW113904   3.466   3.798   2.813
 4335SOL    HW213905   3.558   3.695   2.900
 4336SOL     OW13906   1.706   6.316   0.176
 4336SOL    HW113907   1.643   6.291   0.249
 4336SOL    HW213908   1.773   6.242   0.162
 4337SOL     OW13909   0.390   4.771   0.663
 4337SOL    HW113910   0.349   4.680   0.668
 4337SOL    HW213911   0.485   4.763   0.631
 4338SOL     OW13912   5.200   5.740   4.617
 4338SOL    HW113913   5.274   5.755   4.683
 4338SOL    HW213914   5.112   5.743   4.665
 4339SOL     OW13915   5.473   2.936   5.332
 4339SOL    HW113916   5.433   3.013   5.383
 4339SOL    HW213917   5.566   2.920   5.364
 4340SOL     OW13918   6.599   3.766   1.654
 4340SOL    HW113919   6.672   3.834   1.648
 4340SOL    HW213920   6.511   3.813   1.665
 4341SOL     OW13921   0.030   5.681   1.962
 4341SOL    HW113922   0.041   5.746   2.037
 4341SOL    HW213923   7.013   5.728   1.882
 4342SOL     OW13924   5.911   3.678   4.447
 4342SOL    HW113925   5.970   3.660   4.368
 4342SOL    HW213926   5.821   3.707   4.415
 4343SOL     OW13927   2.379   6.118   5.797
 4343SOL    HW113928   2.371   6.206   5.843
 4343SOL    HW213929   2.298   6.103   5.740
 4344SOL     OW13930   1.431   5.053   3.102
 4344SOL    HW113931   1.346   5.104   3.109
 4344SOL    HW213932   1.416   4.972   3.044
 4345SOL     OW13933   2.602   3.142   5.394
 4345SOL    HW113934   2.568   3.086   5.318
 4345SOL    HW213935   2.532   3.209   5.419
 4346SOL     OW13936   1.806   3.280   2.090
 4346SOL    HW113937   1.816   3.375   2.120
 4346SOL    HW213938   1.718   3.268   2.044
 4347SOL     OW13939   6.408   0.028   3.079
 4347SOL    HW113940   6.477   7.012   3.015
 4347SOL    HW213941   6.367   6.970   3.129
 4348SOL     OW13942   0.224   4.156   2.670
 4348SOL    HW113943   0.188   4.250   2.675
 4348SOL    HW213944   0.237   4.120   2.762
 4349SOL     OW13945   0.089   1.788   2.595
 4349SOL    HW113946   0.081   1.713   2.661
 4349SOL    HW213947   0.003   1.838   2.591
 4350SOL     OW13948   5.326   2.159   3.997
 4350SOL    HW113949   5.276   2.115   3.922
 4350SOL    HW213950   5.320   2.102   4.079
 4351SOL     OW13951   2.290   6.266   1.213
 4351SOL    HW113952   2.307   6.192   1.279
 4351SOL    HW213953   2.208   6.316   1.240
 4352SOL     OW13954   1.044   3.034   2.380
 4352SOL    HW113955   1.134   3.001   2.353
 4352SOL    HW213956   0.988   2.957   2.411
 4353SOL     OW13957   3.198   3.265   6.988
 4353SOL    HW113958   3.274   3.284   6.927
 4353SOL    HW213959   3.177   3.167   6.988
 4354SOL     OW13960   2.690   0.111   5.787
 4354SOL    HW113961   2.739   0.193   5.818
 4354SOL    HW213962   2.651   0.064   5.866
 4355SOL     OW13963   3.135   0.554   2.533
 4355SOL    HW113964   3.142   0.458   2.562
 4355SOL    HW213965   3.043   0.570   2.497
 4356SOL     OW13966   4.952   4.357   0.850
 4356SOL    HW113967   4.996   4.447   0.844
 4356SOL    HW213968   5.021   4.288   0.873
 4357SOL     OW13969   6.307   0.632   0.050
 4357SOL    HW113970   6.286   0.551   0.105
 4357SOL    HW213971   6.380   0.611   7.004
 4358SOL     OW13972   0.659   6.464   0.071
 4358SOL    HW113973   0.614   6.474   0.160
 4358SOL    HW213974   0.603   6.406   0.012
 4359SOL     OW13975   2.581   2.217   6.209
 4359SOL    HW113976   2.646   2.279   6.252
 4359SOL    HW213977   2.559   2.249   6.117
 4360SOL     OW13978   1.337   2.287   4.313
 4360SOL    HW113979   1.314   2.306   4.217
 4360SOL    HW213980   1.397   2.358   4.348
 4361SOL     OW13981   2.601   3.289   1.235
 4361SOL    HW113982   2.698   3.308   1.251
 4361SOL    HW213983   2.582   3.294   1.136
 4362SOL     OW13984   6.314   5.089   2.865
 4362SOL    HW113985   6.411   5.112   2.856
 4362SOL    HW213986   6.285   5.036   2.786
 4363SOL     OW13987   4.872   2.738   0.053
 4363SOL    HW113988   4.809   2.786   0.114
 4363SOL    HW213989   4.955   2.793   0.040
 4364SOL     OW13990   3.286   3.675   5.011
 4364SOL    HW113991   3.204   3.626   5.041
 4364SOL    HW213992   3.260   3.760   4.966
 4365SOL     OW13993   2.283   2.163   1.724
 4365SOL    HW113994   2.381   2.180   1.735
 4365SOL    HW213995   2.268   2.110   1.640
 4366SOL     OW13996   6.286   6.387   0.111
 4366SOL    HW113997   6.240   6.474   0.098
 4366SOL    HW213998   6.253   6.344   0.196
 4367SOL     OW13999   2.512   4.570   4.898
 4367SOL    HW114000   2.595   4.614   4.863
 4367SOL    HW214001   2.523   4.553   4.997
 4368SOL     OW14002   4.089   4.403   0.812
 4368SOL    HW114003   4.063   4.499   0.828
 4368SOL    HW214004   4.028   4.343   0.865
 4369SOL     OW14005   3.885   5.254   3.309
 4369SOL    HW114006   3.826   5.174   3.300
 4369SOL    HW214007   3.834   5.328   3.353
 4370SOL     OW14008   5.056   5.554   2.716
 4370SOL    HW114009   5.154   5.574   2.709
 4370SOL    HW214010   5.042   5.455   2.711
 4371SOL     OW14011   1.079   1.885   1.544
 4371SOL    HW114012   1.000   1.836   1.579
 4371SOL    HW214013   1.051   1.977   1.515
 4372SOL     OW14014   3.556   1.177   2.886
 4372SOL    HW114015   3.608   1.250   2.842
 4372SOL    HW214016   3.465   1.172   2.844
 4373SOL     OW14017   6.850   2.157   6.560
 4373SOL    HW114018   6.832   2.146   6.657
 4373SOL    HW214019   6.802   2.237   6.525
 4374SOL     OW14020   1.283   1.960   2.369
 4374SOL    HW114021   1.370   1.911   2.363
 4374SOL    HW214022   1.233   1.929   2.450
 4375SOL     OW14023   3.496   0.491   3.116
 4375SOL    HW114024   3.521   0.410   3.168
 4375SOL    HW214025   3.575   0.524   3.065
 4376SOL     OW14026   6.655   6.937   1.911
 4376SOL    HW114027   6.670   6.838   1.916
 4376SOL    HW214028   6.681   6.980   1.997
 4377SOL     OW14029   5.292   4.045   0.630
 4377SOL    HW114030   5.303   4.030   0.729
 4377SOL    HW214031   5.235   4.126   0.615
 4378SOL     OW14032   2.075   1.727   2.826
 4378SOL    HW114033   2.127   1.744   2.743
 4378SOL    HW214034   2.100   1.794   2.896
 4379SOL     OW14035   2.067   1.309   2.746
 4379SOL    HW114036   2.109   1.345   2.663
 4379SOL    HW214037   2.031   1.217   2.729
 4380SOL     OW14038   1.292   6.920   2.552
 4380SOL    HW114039   1.382   6.958   2.531
 4380SOL    HW214040   1.229   6.938   2.477
 4381SOL     OW14041   0.445   5.294   5.119
 4381SOL    HW114042   0.472   5.205   5.156
 4381SOL    HW214043   0.506   5.365   5.155
 4382SOL     OW14044   0.661   3.582   5.340
 4382SOL    HW114045   0.589   3.578   5.271
 4382SOL    HW214046   0.625   3.623   5.424
 4383SOL     OW14047   0.747   3.173   6.829
 4383SOL    HW114048   0.794   3.262   6.828
 4383SOL    HW214049   0.683   3.171   6.905
 4384SOL     OW14050   5.895   0.705   4.718
 4384SOL    HW114051   5.932   0.789   4.759
 4384SOL    HW214052   5.864   0.725   4.625
 4385SOL     OW14053   5.426   2.505   5.108
 4385SOL    HW114054   5.421   2.580   5.042
 4385SOL    HW214055   5.342   2.502   5.162
 4386SOL     OW14056   1.876   3.768   5.899
 4386SOL    HW114057   1.955   3.788   5.957
 4386SOL    HW214058   1.802   3.732   5.956
 4387SOL     OW14059   6.975   2.529   1.551
 4387SOL    HW114060   6.962   2.444   1.603
 4387SOL    HW214061   6.933   2.605   1.600
 4388SOL     OW14062   4.353   2.567   5.743
 4388SOL    HW114063   4.389   2.655   5.712
 4388SOL    HW214064   4.361   2.562   5.843
 4389SOL     OW14065   6.074   3.166   1.476
 4389SOL    HW114066   6.083   3.124   1.385
 4389SOL    HW214067   5.979   3.159   1.507
 4390SOL     OW14068   3.754   6.897   1.715
 4390SOL    HW114069   3.797   6.956   1.783
 4390SOL    HW214070   3.755   6.943   1.626
 4391SOL     OW14071   2.201   5.742   7.015
 4391SOL    HW114072   2.154   5.655   7.010
 4391SOL    HW214073   2.270   5.747   6.943
 4392SOL     OW14074   0.149   2.816   5.569
 4392SOL    HW114075   0.217   2.747   5.596
 4392SOL    HW214076   0.172   2.852   5.479
 4393SOL     OW14077   6.198   0.887   1.980
 4393SOL    HW114078   6.295   0.866   1.991
 4393SOL    HW214079   6.147   0.850   2.058
 4394SOL     OW14080   6.540   5.292   2.336
 4394SOL    HW114081   6.584   5.382   2.333
 4394SOL    HW214082   6.448   5.301   2.376
 4395SOL     OW14083   2.130   0.279   1.789
 4395SOL    HW114084   2.116   0.372   1.823
 4395SOL    HW214085   2.089   0.271   1.698
 4396SOL     OW14086   1.784   1.261   4.366
 4396SOL    HW114087   1.814   1.356   4.377
 4396SOL    HW214088   1.783   1.216   4.455
 4397SOL     OW14089   2.091   2.253   4.148
 4397SOL    HW114090   2.103   2.334   4.091
 4397SOL    HW214091   1.996   2.224   4.145
 4398SOL     OW14092   1.029   3.705   5.631
 4398SOL    HW114093   1.000   3.764   5.706
 4398SOL    HW214094   1.126   3.682   5.642
 4399SOL     OW14095   3.604   6.503   2.784
 4399SOL    HW114096   3.574   6.497   2.689
 4399SOL    HW214097   3.698   6.539   2.786
 4400SOL     OW14098   2.012   6.391   5.397
 4400SOL    HW114099   2.002   6.431   5.306
 4400SOL    HW214100   2.086   6.323   5.396
 4401SOL     OW14101   2.721   6.934   5.608
 4401SOL    HW114102   2.732   6.862   5.675
 4401SOL    HW214103   2.691   7.018   5.654
 4402SOL     OW14104   1.517   0.580   2.491
 4402SOL    HW114105   1.443   0.514   2.507
 4402SOL    HW214106   1.490   0.670   2.526
 4403SOL     OW14107   0.857   0.537   0.562
 4403SOL    HW114108   0.864   0.631   0.595
 4403SOL    HW214109   0.948   0.497   0.555
 4404SOL     OW14110   1.834   6.405   6.071
 4404SOL    HW114111   1.851   6.317   6.116
 4404SOL    HW214112   1.910   6.427   6.010
 4405SOL     OW14113   1.862   4.383   1.796
 4405SOL    HW114114   1.933   4.320   1.826
 4405SOL    HW214115   1.880   4.413   1.702
 4406SOL     OW14116   0.513   2.869   0.861
 4406SOL    HW114117   0.448   2.879   0.937
 4406SOL    HW214118   0.585   2.938   0.871
 4407SOL     OW14119   6.560   5.695   0.999
 4407SOL    HW114120   6.511   5.617   1.039
 4407SOL    HW214121   6.646   5.709   1.048
 4408SOL     OW14122   2.438   0.042   0.657
 4408SOL    HW114123   2.380   0.066   0.579
 4408SOL    HW214124   2.524   0.094   0.651
 4409SOL     OW14125   4.467   0.925   2.146
 4409SOL    HW114126   4.508   1.009   2.182
 4409SOL    HW214127   4.368   0.929   2.159
 4410SOL     OW14128   0.646   4.402   0.159
 4410SOL    HW114129   0.573   4.339   0.133
 4410SOL    HW214130   0.674   4.385   0.253
 4411SOL     OW14131   3.881   4.174   5.095
 4411SOL    HW114132   3.815   4.199   5.025
 4411SOL    HW214133   3.935   4.253   5.121
 4412SOL     OW14134   4.858   6.026   3.990
 4412SOL    HW114135   4.793   6.030   4.066
 4412SOL    HW214136   4.891   5.933   3.980
 4413SOL     OW14137   5.642   4.763   4.203
 4413SOL    HW114138   5.718   4.714   4.159
 4413SOL    HW214139   5.556   4.717   4.182
 4414SOL     OW14140   3.664   5.873   1.168
 4414SOL    HW114141   3.757   5.867   1.206
 4414SOL    HW214142   3.662   5.945   1.098
 4415SOL     OW14143   4.705   2.528   0.223
 4415SOL    HW114144   4.704   2.461   0.149
 4415SOL    HW214145   4.798   2.566   0.232
 4416SOL     OW14146   4.231   1.965   3.625
 4416SOL    HW114147   4.281   1.879   3.621
 4416SOL    HW214148   4.135   1.949   3.603
 4417SOL     OW14149   5.740   3.677   4.072
 4417SOL    HW114150   5.707   3.666   4.166
 4417SOL    HW214151   5.777   3.769   4.061
 4418SOL     OW14152   6.408   2.186   2.321
 4418SOL    HW114153   6.333   2.120   2.324
 4418SOL    HW214154   6.400   2.241   2.238
 4419SOL     OW14155   5.908   0.205   5.500
 4419SOL    HW114156   5.931   0.271   5.571
 4419SOL    HW214157   5.964   0.223   5.418
 4420SOL     OW14158   4.029   1.229   2.014
 4420SOL    HW114159   3.970   1.192   2.086
 4420SOL    HW214160   3.974   1.249   1.933
 4421SOL     OW14161   1.686   1.570   5.087
 4421SOL    HW114162   1.636   1.627   5.152
 4421SOL    HW214163   1.645   1.479   5.085
 4422SOL     OW14164   1.270   4.285   6.874
 4422SOL    HW114165   1.296   4.239   6.789
 4422SOL    HW214166   1.282   4.222   6.951
 4423SOL     OW14167   0.089   3.477   5.522
 4423SOL    HW114168   0.081   3.486   5.622
 4423SOL    HW214169   0.160   3.538   5.488
 4424SOL     OW14170   5.382   0.937   4.079
 4424SOL    HW114171   5.440   0.999   4.131
 4424SOL    HW214172   5.419   0.845   4.083
 4425SOL     OW14173   3.244   4.868   0.590
 4425SOL    HW114174   3.166   4.866   0.652
 4425SOL    HW214175   3.257   4.961   0.556
 4426SOL     OW14176   0.996   1.044   4.208
 4426SOL    HW114177   0.919   1.038   4.144
 4426SOL    HW214178   1.073   0.990   4.173
 4427SOL     OW14179   5.929   6.342   2.618
 4427SOL    HW114180   5.996   6.361   2.546
 4427SOL    HW214181   5.840   6.376   2.589
 4428SOL     OW14182   4.177   0.972   3.666
 4428SOL    HW114183   4.219   1.056   3.634
 4428SOL    HW214184   4.109   0.994   3.736
 4429SOL     OW14185   3.419   0.222   2.336
 4429SOL    HW114186   3.355   0.216   2.259
 4429SOL    HW214187   3.428   0.317   2.365
 4430SOL     OW14188   4.974   4.611   5.130
 4430SOL    HW114189   4.933   4.574   5.046
 4430SOL    HW214190   5.049   4.553   5.159
 4431SOL     OW14191   2.511   0.939   3.060
 4431SOL    HW114192   2.465   0.938   3.149
 4431SOL    HW214193   2.556   1.028   3.047
 4432SOL     OW14194   3.124   3.179   5.892
 4432SOL    HW114195   3.041   3.226   5.863
 4432SOL    HW214196   3.138   3.193   5.990
 4433SOL     OW14197   6.092   2.236   3.886
 4433SOL    HW114198   5.995   2.239   3.908
 4433SOL    HW214199   6.105   2.252   3.788
 4434SOL     OW14200   5.967   1.712   2.904
 4434SOL    HW114201   6.003   1.716   2.811
 4434SOL    HW214202   6.028   1.656   2.961
 4435SOL     OW14203   4.394   3.748   1.074
 4435SOL    HW114204   4.488   3.764   1.044
 4435SOL    HW214205   4.394   3.712   1.167
 4436SOL     OW14206   4.677   0.933   1.533
 4436SOL    HW114207   4.754   0.878   1.565
 4436SOL    HW214208   4.593   0.901   1.577
 4437SOL     OW14209   1.248   2.970   2.799
 4437SOL    HW114210   1.216   3.043   2.739
 4437SOL    HW214211   1.305   2.906   2.747
 4438SOL     OW14212   4.752   6.771   6.826
 4438SOL    HW114213   4.714   6.788   6.735
 4438SOL    HW214214   4.705   6.828   6.894
 4439SOL     OW14215   0.099   4.195   1.581
 4439SOL    HW114216   0.169   4.126   1.562
 4439SOL    HW214217   0.097   4.261   1.507
 4440SOL     OW14218   3.120   5.277   1.192
 4440SOL    HW114219   3.171   5.263   1.277
 4440SOL    HW214220   3.176   5.329   1.128
 4441SOL     OW14221   0.563   1.588   1.751
 4441SOL    HW114222   0.554   1.622   1.845
 4441SOL    HW214223   0.644   1.529   1.745
 4442SOL     OW14224   1.744   4.943   4.501
 4442SOL    HW114225   1.680   4.882   4.454
 4442SOL    HW214226   1.694   4.998   4.568
 4443SOL     OW14227   1.599   3.633   5.679
 4443SOL    HW114228   1.552   3.711   5.638
 4443SOL    HW214229   1.681   3.613   5.625
 4444SOL     OW14230   3.530   3.501   6.692
 4444SOL    HW114231   3.523   3.493   6.592
 4444SOL    HW214232   3.501   3.592   6.720
 4445SOL     OW14233   1.238   6.526   0.454
 4445SOL    HW114234   1.229   6.472   0.370
 4445SOL    HW214235   1.232   6.465   0.533
 4446SOL     OW14236   5.204   2.250   0.918
 4446SOL    HW114237   5.165   2.158   0.909
 4446SOL    HW214238   5.302   2.243   0.937
 4447SOL     OW14239   5.656   4.001   5.701
 4447SOL    HW114240   5.578   4.047   5.659
 4447SOL    HW214241   5.722   4.070   5.732
 4448SOL     OW14242   2.414   5.391   1.662
 4448SOL    HW114243   2.341   5.450   1.696
 4448SOL    HW214244   2.375   5.304   1.631
 4449SOL     OW14245   5.206   0.781   6.327
 4449SOL    HW114246   5.303   0.762   6.340
 4449SOL    HW214247   5.155   0.751   6.408
 4450SOL     OW14248   3.540   2.295   5.900
 4450SOL    HW114249   3.622   2.296   5.843
 4450SOL    HW214250   3.565   2.321   5.994
 4451SOL     OW14251   5.446   4.597   4.118
 4451SOL    HW114252   5.389   4.515   4.129
 4451SOL    HW214253   5.406   4.655   4.047
 4452SOL     OW14254   5.784   5.718   4.469
 4452SOL    HW114255   5.790   5.625   4.432
 4452SOL    HW214256   5.788   5.783   4.393
 4453SOL     OW14257   1.875   2.357   1.577
 4453SOL    HW114258   1.928   2.365   1.661
 4453SOL    HW214259   1.819   2.274   1.580
 4454SOL     OW14260   1.299   1.547   7.007
 4454SOL    HW114261   1.218   1.564   0.045
 4454SOL    HW214262   1.295   1.603   6.925
 4455SOL     OW14263   5.414   5.255   5.545
 4455SOL    HW114264   5.354   5.335   5.545
 4455SOL    HW214265   5.374   5.184   5.487
 4456SOL     OW14266   2.366   6.630   3.248
 4456SOL    HW114267   2.437   6.561   3.262
 4456SOL    HW214268   2.408   6.716   3.219
 4457SOL     OW14269   3.877   1.726   2.927
 4457SOL    HW114270   3.836   1.675   3.002
 4457SOL    HW214271   3.977   1.727   2.939
 4458SOL     OW14272   2.111   3.258   0.713
 4458SOL    HW114273   2.195   3.293   0.669
 4458SOL    HW214274   2.032   3.281   0.657
 4459SOL     OW14275   4.230   2.070   4.682
 4459SOL    HW114276   4.259   2.156   4.723
 4459SOL    HW214277   4.131   2.070   4.669
 4460SOL     OW14278   1.225   3.400   0.120
 4460SOL    HW114279   1.189   3.316   0.079
 4460SOL    HW214280   1.246   3.385   0.216
 4461SOL     OW14281   1.814   0.745   0.916
 4461SOL    HW114282   1.834   0.648   0.904
 4461SOL    HW214283   1.750   0.756   0.993
 4462SOL     OW14284   6.663   4.787   2.184
 4462SOL    HW114285   6.572   4.829   2.181
 4462SOL    HW214286   6.707   4.798   2.095
 4463SOL     OW14287   4.877   0.975   0.876
 4463SOL    HW114288   4.897   0.903   0.942
 4463SOL    HW214289   4.802   0.947   0.817
 4464SOL     OW14290   0.327   5.665   0.383
 4464SOL    HW114291   0.380   5.742   0.419
 4464SOL    HW214292   0.236   5.696   0.356
 4465SOL     OW14293   3.898   5.446   1.075
 4465SOL    HW114294   3.894   5.442   1.174
 4465SOL    HW214295   3.942   5.364   1.039
 4466SOL     OW14296   1.109   2.147   3.266
 4466SOL    HW114297   1.021   2.099   3.265
 4466SOL    HW214298   1.161   2.122   3.184
 4467SOL     OW14299   1.865   5.293   3.344
 4467SOL    HW114300   1.850   5.196   3.361
 4467SOL    HW214301   1.791   5.346   3.384
 4468SOL     OW14302   1.461   3.948   0.667
 4468SOL    HW114303   1.506   3.946   0.756
 4468SOL    HW214304   1.486   4.033   0.620
 4469SOL     OW14305   3.730   1.075   1.206
 4469SOL    HW114306   3.737   0.983   1.166
 4469SOL    HW214307   3.743   1.069   1.305
 4470SOL     OW14308   0.587   1.903   2.222
 4470SOL    HW114309   0.611   1.998   2.245
 4470SOL    HW214310   0.490   1.888   2.245
 4471SOL     OW14311   0.741   2.483   6.391
 4471SOL    HW114312   0.831   2.525   6.401
 4471SOL    HW214313   0.670   2.549   6.414
 4472SOL     OW14314   0.362   2.679   1.569
 4472SOL    HW114315   0.364   2.601   1.631
 4472SOL    HW214316   0.449   2.683   1.519
 4473SOL     OW14317   5.820   3.199   4.356
 4473SOL    HW114318   5.826   3.103   4.383
 4473SOL    HW214319   5.725   3.230   4.361
 4474SOL     OW14320   3.008   0.060   2.048
 4474SOL    HW114321   2.925   0.114   2.037
 4474SOL    HW214322   3.016   0.031   2.144
 4475SOL     OW14323   1.304   4.053   1.871
 4475SOL    HW114324   1.305   4.082   1.967
 4475SOL    HW214325   1.215   4.014   1.849
 4476SOL     OW14326   6.295   1.299   3.361
 4476SOL    HW114327   6.289   1.301   3.461
 4476SOL    HW214328   6.207   1.323   3.321
 4477SOL     OW14329   1.668   0.620   5.397
 4477SOL    HW114330   1.679   0.526   5.366
 4477SOL    HW214331   1.574   0.635   5.426
 4478SOL     OW14332   2.963   0.111   2.495
 4478SOL    HW114333   2.957   0.095   2.593
 4478SOL    HW214334   3.029   0.184   2.477
 4479SOL     OW14335   0.172   2.173   1.487
 4479SOL    HW114336   0.243   2.242   1.504
 4479SOL    HW214337   0.189   2.093   1.544
 4480SOL     OW14338   0.199   4.131   5.116
 4480SOL    HW114339   0.195   4.170   5.024
 4480SOL    HW214340   0.174   4.034   5.112
 4481SOL     OW14341   2.685   5.287   4.964
 4481SOL    HW114342   2.618   5.218   4.991
 4481SOL    HW214343   2.700   5.282   4.866
 4482SOL     OW14344   2.098   2.971   5.183
 4482SOL    HW114345   2.181   2.953   5.236
 4482SOL    HW214346   2.117   2.951   5.086
 4483SOL     OW14347   6.891   2.330   2.179
 4483SOL    HW114348   6.904   2.284   2.091
 4483SOL    HW214349   6.975   2.377   2.205
 4484SOL     OW14350   3.208   2.395   6.465
 4484SOL    HW114351   3.208   2.406   6.365
 4484SOL    HW214352   3.261   2.314   6.489
 4485SOL     OW14353   5.912   2.598   4.367
 4485SOL    HW114354   5.925   2.530   4.295
 4485SOL    HW214355   5.993   2.656   4.373
 4486SOL     OW14356   6.195   5.542   4.909
 4486SOL    HW114357   6.191   5.442   4.901
 4486SOL    HW214358   6.260   5.567   4.981
 4487SOL     OW14359   2.950   2.442   6.519
 4487SOL    HW114360   2.936   2.440   6.618
 4487SOL    HW214361   3.037   2.398   6.497
 4488SOL     OW14362   1.282   3.587   5.595
 4488SOL    HW114363   1.380   3.589   5.615
 4488SOL    HW214364   1.238   3.515   5.650
 4489SOL     OW14365   5.320   5.405   4.804
 4489SOL    HW114366   5.287   5.371   4.716
 4489SOL    HW214367   5.242   5.428   4.863
 4490SOL     OW14368   5.036   2.200   1.410
 4490SOL    HW114369   5.000   2.132   1.474
 4490SOL    HW214370   5.011   2.292   1.441
 4491SOL     OW14371   0.093   3.311   3.923
 4491SOL    HW114372   0.130   3.377   3.988
 4491SOL    HW214373   0.165   3.248   3.895
 4492SOL     OW14374   6.088   4.221   2.314
 4492SOL    HW114375   6.004   4.266   2.283
 4492SOL    HW214376   6.167   4.277   2.289
 4493SOL     OW14377   5.163   5.957   4.863
 4493SOL    HW114378   5.131   5.991   4.775
 4493SOL    HW214379   5.097   5.979   4.934
 4494SOL     OW14380   0.056   0.712   6.234
 4494SOL    HW114381   0.002   0.654   6.295
 4494SOL    HW214382   0.007   0.797   6.216
 4495SOL     OW14383   4.613   0.499   3.994
 4495SOL    HW114384   4.546   0.571   3.974
 4495SOL    HW214385   4.615   0.434   3.919
 4496SOL     OW14386   5.784   6.120   0.780
 4496SOL    HW114387   5.807   6.056   0.707
 4496SOL    HW214388   5.837   6.204   0.770
 4497SOL     OW14389   4.120   1.888   6.655
 4497SOL    HW114390   4.203   1.890   6.711
 4497SOL    HW214391   4.083   1.795   6.653
 4498SOL     OW14392   0.180   4.139   6.764
 4498SOL    HW114393   0.171   4.181   6.673
 4498SOL    HW214394   0.277   4.121   6.782
 4499SOL     OW14395   6.120   3.459   3.914
 4499SOL    HW114396   6.033   3.435   3.958
 4499SOL    HW214397   6.156   3.379   3.867
 4500SOL     OW14398   3.537   3.630   5.448
 4500SOL    HW114399   3.621   3.575   5.445
 4500SOL    HW214400   3.557   3.724   5.422
 4501SOL     OW14401   6.887   3.382   3.004
 4501SOL    HW114402   6.821   3.456   2.993
 4501SOL    HW214403   6.966   3.399   2.945
 4502SOL     OW14404   0.560   3.136   0.022
 4502SOL    HW114405   0.472   3.101   0.054
 4502SOL    HW214406   0.624   3.140   0.098
 4503SOL     OW14407   3.738   6.892   1.250
 4503SOL    HW114408   3.716   6.797   1.230
 4503SOL    HW214409   3.681   6.952   1.194
 4504SOL     OW14410   1.143   1.488   4.654
 4504SOL    HW114411   1.155   1.436   4.569
 4504SOL    HW214412   1.223   1.475   4.712
 4505SOL     OW14413   6.359   4.785   1.964
 4505SOL    HW114414   6.325   4.725   1.892
 4505SOL    HW214415   6.435   4.840   1.928
 4506SOL     OW14416   4.947   2.766   3.395
 4506SOL    HW114417   5.000   2.792   3.314
 4506SOL    HW214418   4.849   2.780   3.376
 4507SOL     OW14419   6.895   3.734   3.348
 4507SOL    HW114420   6.851   3.714   3.435
 4507SOL    HW214421   6.866   3.825   3.316
 4508SOL     OW14422   1.401   4.912   6.353
 4508SOL    HW114423   1.408   4.819   6.389
 4508SOL    HW214424   1.378   4.974   6.427
 4509SOL     OW14425   5.031   2.365   3.083
 4509SOL    HW114426   4.932   2.383   3.076
 4509SOL    HW214427   5.053   2.283   3.031
 4510SOL     OW14428   4.399   2.016   4.203
 4510SOL    HW114429   4.314   2.023   4.150
 4510SOL    HW214430   4.470   2.069   4.157
 4511SOL     OW14431   6.131   3.268   6.432
 4511SOL    HW114432   6.140   3.305   6.525
 4511SOL    HW214433   6.035   3.273   6.403
 4512SOL     OW14434   3.095   0.492   6.021
 4512SOL    HW114435   3.055   0.411   6.064
 4512SOL    HW214436   3.108   0.564   6.090
 4513SOL     OW14437   1.028   4.867   5.955
 4513SOL    HW114438   0.930   4.875   5.976
 4513SOL    HW214439   1.081   4.903   6.032
 4514SOL     OW14440   3.160   2.394   5.925
 4514SOL    HW114441   3.074   2.424   5.884
 4514SOL    HW214442   3.237   2.424   5.869
 4515SOL     OW14443   5.816   1.995   5.269
 4515SOL    HW114444   5.747   1.941   5.317
 4515SOL    HW214445   5.858   2.061   5.332
 4516SOL     OW14446   2.522   7.017   0.198
 4516SOL    HW114447   2.599   0.030   0.253
 4516SOL    HW214448   2.535   6.920   0.175
 4517SOL     OW14449   4.860   6.487   6.736
 4517SOL    HW114450   4.765   6.457   6.730
 4517SOL    HW214451   4.865   6.586   6.724
 4518SOL     OW14452   0.293   6.615   2.303
 4518SOL    HW114453   0.247   6.611   2.392
 4518SOL    HW214454   0.282   6.527   2.256
 4519SOL     OW14455   5.443   6.757   1.001
 4519SOL    HW114456   5.518   6.782   0.940
 4519SOL    HW214457   5.473   6.684   1.062
 4520SOL     OW14458   4.009   6.076   6.290
 4520SOL    HW114459   3.934   6.098   6.351
 4520SOL    HW214460   4.047   5.987   6.315
 4521SOL     OW14461   5.750   1.990   5.637
 4521SOL    HW114462   5.799   2.056   5.580
 4521SOL    HW214463   5.814   1.950   5.703
 4522SOL     OW14464   5.770   5.199   3.324
 4522SOL    HW114465   5.755   5.195   3.423
 4522SOL    HW214466   5.843   5.136   3.299
 4523SOL     OW14467   1.393   4.244   0.327
 4523SOL    HW114468   1.470   4.289   0.282
 4523SOL    HW214469   1.307   4.275   0.287
 4524SOL     OW14470   6.041   3.499   2.198
 4524SOL    HW114471   5.993   3.461   2.276
 4524SOL    HW214472   6.106   3.432   2.162
 4525SOL     OW14473   4.185   2.031   5.248
 4525SOL    HW114474   4.181   2.109   5.311
 4525SOL    HW214475   4.100   2.026   5.196
 4526SOL     OW14476   6.870   0.367   6.861
 4526SOL    HW114477   6.852   0.455   6.906
 4526SOL    HW214478   6.925   0.384   6.778
 4527SOL     OW14479   6.768   6.999   2.730
 4527SOL    HW114480   6.794   6.903   2.719
 4527SOL    HW214481   6.745   0.019   2.641
 4528SOL     OW14482   4.540   0.322   6.296
 4528SOL    HW114483   4.443   0.333   6.274
 4528SOL    HW214484   4.549   0.279   6.386
 4529SOL     OW14485   1.979   0.684   5.122
 4529SOL    HW114486   1.936   0.599   5.093
 4529SOL    HW214487   2.076   0.683   5.098
 4530SOL     OW14488   2.547   5.476   3.485
 4530SOL    HW114489   2.518   5.388   3.522
 4530SOL    HW214490   2.501   5.492   3.398
 4531SOL     OW14491   0.527   3.188   5.974
 4531SOL    HW114492   0.532   3.091   5.950
 4531SOL    HW214493   0.551   3.243   5.894
 4532SOL     OW14494   6.662   1.372   2.461
 4532SOL    HW114495   6.729   1.303   2.434
 4532SOL    HW214496   6.705   1.462   2.463
 4533SOL     OW14497   2.183   1.014   3.011
 4533SOL    HW114498   2.218   1.064   3.090
 4533SOL    HW214499   2.114   0.948   3.041
 4534SOL     OW14500   5.389   4.062   5.640
 4534SOL    HW114501   5.346   3.984   5.594
 4534SOL    HW214502   5.373   4.055   5.739
 4535SOL     OW14503   3.928   0.834   2.144
 4535SOL    HW114504   3.836   0.797   2.156
 4535SOL    HW214505   3.968   0.798   2.060
 4536SOL     OW14506   3.498   1.887   4.855
 4536SOL    HW114507   3.483   1.789   4.845
 4536SOL    HW214508   3.478   1.915   4.949
 4537SOL     OW14509   4.234   3.318   1.203
 4537SOL    HW114510   4.162   3.381   1.231
 4537SOL    HW214511   4.290   3.295   1.283
 4538SOL     OW14512   2.515   0.527   2.195
 4538SOL    HW114513   2.581   0.582   2.145
 4538SOL    HW214514   2.468   0.465   2.132
 4539SOL     OW14515   3.230   5.692   4.925
 4539SOL    HW114516   3.258   5.777   4.971
 4539SOL    HW214517   3.174   5.715   4.846
 4540SOL     OW14518   2.536   1.552   0.461
 4540SOL    HW114519   2.485   1.511   0.536
 4540SOL    HW214520   2.491   1.532   0.374
 4541SOL     OW14521   5.224   1.357   6.435
 4541SOL    HW114522   5.161   1.283   6.456
 4541SOL    HW214523   5.308   1.319   6.396
 4542SOL     OW14524   0.134   2.825   1.698
 4542SOL    HW114525   0.098   2.740   1.657
 4542SOL    HW214526   0.233   2.829   1.683
 4543SOL     OW14527   5.112   1.999   0.842
 4543SOL    HW114528   5.083   1.945   0.762
 4543SOL    HW214529   5.045   1.991   0.915
 4544SOL     OW14530   3.326   5.467   6.833
 4544SOL    HW114531   3.379   5.522   6.898
 4544SOL    HW214532   3.369   5.473   6.742
 4545SOL     OW14533   5.977   2.928   4.979
 4545SOL    HW114534   6.034   2.855   5.017
 4545SOL    HW214535   5.882   2.913   5.008
 4546SOL     OW14536   2.419   0.050   4.305
 4546SOL    HW114537   2.516   0.026   4.300
 4546SOL    HW214538   2.409   0.135   4.358
 4547SOL     OW14539   6.264   1.471   0.518
 4547SOL    HW114540   6.265   1.463   0.418
 4547SOL    HW214541   6.187   1.418   0.554
 4548SOL     OW14542   2.184   2.357   3.762
 4548SOL    HW114543   2.175   2.418   3.684
 4548SOL    HW214544   2.139   2.397   3.842
 4549SOL     OW14545   5.501   4.118   2.340
 4549SOL    HW114546   5.563   4.150   2.269
 4549SOL    HW214547   5.516   4.020   2.356
 4550SOL     OW14548   1.059   4.487   3.175
 4550SOL    HW114549   0.967   4.527   3.169
 4550SOL    HW214550   1.097   4.478   3.083
 4551SOL     OW14551   0.574   3.475   4.879
 4551SOL    HW114552   0.607   3.409   4.947
 4551SOL    HW214553   0.519   3.545   4.925
 4552SOL     OW14554   5.733   2.041   1.016
 4552SOL    HW114555   5.640   2.057   1.050
 4552SOL    HW214556   5.736   1.955   0.966
 4553SOL     OW14557   4.974   3.530   0.337
 4553SOL    HW114558   5.031   3.479   0.273
 4553SOL    HW214559   4.885   3.485   0.347
 4554SOL     OW14560   6.794   0.215   1.864
 4554SOL    HW114561   6.729   0.229   1.789
 4554SOL    HW214562   6.845   0.299   1.880
 4555SOL     OW14563   1.528   1.420   5.891
 4555SOL    HW114564   1.499   1.329   5.920
 4555SOL    HW214565   1.583   1.463   5.962
 4556SOL     OW14566   5.810   3.722   4.696
 4556SOL    HW114567   5.856   3.734   4.608
 4556SOL    HW214568   5.787   3.625   4.708
 4557SOL     OW14569   4.932   5.298   4.245
 4557SOL    HW114570   4.961   5.238   4.320
 4557SOL    HW214571   5.013   5.337   4.201
 4558SOL     OW14572   0.106   4.004   4.860
 4558SOL    HW114573   0.039   3.930   4.862
 4558SOL    HW214574   0.163   3.995   4.778
 4559SOL     OW14575   0.038   3.458   2.761
 4559SOL    HW114576   0.040   3.358   2.765
 4559SOL    HW214577   0.077   3.488   2.674
 4560SOL     OW14578   5.927   3.379   1.330
 4560SOL    HW114579   5.944   3.416   1.421
 4560SOL    HW214580   5.996   3.310   1.308
 4561SOL     OW14581   3.492   2.072   3.269
 4561SOL    HW114582   3.448   2.091   3.182
 4561SOL    HW214583   3.591   2.087   3.260
 4562SOL     OW14584   1.515   6.920   0.596
 4562SOL    HW114585   1.438   6.961   0.548
 4562SOL    HW214586   1.576   6.876   0.530
 4563SOL     OW14587   0.242   3.091   1.411
 4563SOL    HW114588   0.177   3.160   1.442
 4563SOL    HW214589   0.199   3.001   1.415
 4564SOL     OW14590   6.708   5.949   1.923
 4564SOL    HW114591   6.739   5.965   2.017
 4564SOL    HW214592   6.633   5.883   1.923
 4565SOL     OW14593   1.432   0.537   4.440
 4565SOL    HW114594   1.513   0.492   4.476
 4565SOL    HW214595   1.416   0.509   4.346
 4566SOL     OW14596   6.912   3.639   1.285
 4566SOL    HW114597   7.008   3.611   1.286
 4566SOL    HW214598   6.867   3.602   1.203
 4567SOL     OW14599   6.940   1.370   6.253
 4567SOL    HW114600   7.002   1.402   6.324
 4567SOL    HW214601   6.846   1.381   6.284
 4568SOL     OW14602   2.102   3.871   6.018
 4568SOL    HW114603   2.188   3.828   6.045
 4568SOL    HW214604   2.063   3.920   6.095
 4569SOL     OW14605   2.158   0.082   3.145
 4569SOL    HW114606   2.085   0.014   3.143
 4569SOL    HW214607   2.229   0.057   3.080
 4570SOL     OW14608   6.121   6.346   2.823
 4570SOL    HW114609   6.201   6.378   2.772
 4570SOL    HW214610   6.048   6.323   2.759
 4571SOL     OW14611   4.912   3.112   6.285
 4571SOL    HW114612   4.931   3.114   6.383
 4571SOL    HW214613   4.845   3.040   6.266
 4572SOL     OW14614   2.122   1.000   6.379
 4572SOL    HW114615   2.217   1.013   6.351
 4572SOL    HW214616   2.117   0.992   6.479
 4573SOL     OW14617   6.784   6.882   0.291
 4573SOL    HW114618   6.828   6.883   0.381
 4573SOL    HW214619   6.837   6.939   0.228
 4574SOL     OW14620   5.811   4.017   0.410
 4574SOL    HW114621   5.814   4.082   0.486
 4574SOL    HW214622   5.894   3.962   0.410
 4575SOL     OW14623   5.169   0.691   5.080
 4575SOL    HW114624   5.083   0.672   5.126
 4575SOL    HW214625   5.213   0.605   5.054
 4576SOL     OW14626   3.579   5.379   5.403
 4576SOL    HW114627   3.576   5.435   5.319
 4576SOL    HW214628   3.490   5.381   5.447
 4577SOL     OW14629   1.001   2.794   4.239
 4577SOL    HW114630   1.010   2.724   4.169
 4577SOL    HW214631   1.076   2.787   4.304
 4578SOL     OW14632   1.118   2.062   5.159
 4578SOL    HW114633   1.020   2.051   5.143
 4578SOL    HW214634   1.163   2.084   5.072
 4579SOL     OW14635   4.538   0.803   2.857
 4579SOL    HW114636   4.535   0.899   2.829
 4579SOL    HW214637   4.447   0.774   2.887
 4580SOL     OW14638   5.575   3.407   0.420
 4580SOL    HW114639   5.649   3.352   0.460
 4580SOL    HW214640   5.613   3.473   0.357
 4581SOL     OW14641   2.282   6.051   2.986
 4581SOL    HW114642   2.272   6.106   3.068
 4581SOL    HW214643   2.337   5.970   3.007
 4582SOL     OW14644   4.833   0.856   4.070
 4582SOL    HW114645   4.786   0.930   4.118
 4582SOL    HW214646   4.929   0.852   4.100
 4583SOL     OW14647   3.393   1.776   6.931
 4583SOL    HW114648   3.369   1.738   6.842
 4583SOL    HW214649   3.450   1.710   6.981
 4584SOL     OW14650   1.860   5.141   5.332
 4584SOL    HW114651   1.774   5.160   5.380
 4584SOL    HW214652   1.937   5.167   5.390
 4585SOL     OW14653   2.008   4.955   3.148
 4585SOL    HW114654   2.082   4.949   3.215
 4585SOL    HW214655   1.952   4.872   3.154
 4586SOL     OW14656   4.020   3.961   0.557
 4586SOL    HW114657   4.031   3.956   0.656
 4586SOL    HW214658   3.929   3.998   0.536
 4587SOL     OW14659   3.339   3.743   3.173
 4587SOL    HW114660   3.349   3.643   3.172
 4587SOL    HW214661   3.250   3.768   3.137
 4588SOL     OW14662   3.208   2.882   5.943
 4588SOL    HW114663   3.152   2.951   5.897
 4588SOL    HW214664   3.153   2.801   5.961
 4589SOL     OW14665   5.921   0.993   2.108
 4589SOL    HW114666   5.872   0.934   2.043
 4589SOL    HW214667   5.945   0.940   2.189
 4590SOL     OW14668   4.416   5.235   1.370
 4590SOL    HW114669   4.340   5.240   1.305
 4590SOL    HW214670   4.381   5.227   1.463
 4591SOL     OW14671   1.518   6.939   5.134
 4591SOL    HW114672   1.584   7.002   5.094
 4591SOL    HW214673   1.567   6.867   5.183
 4592SOL     OW14674   2.956   1.472   3.008
 4592SOL    HW114675   2.952   1.480   2.908
 4592SOL    HW214676   2.931   1.559   3.050
 4593SOL     OW14677   5.766   6.558   2.233
 4593SOL    HW114678   5.801   6.560   2.139
 4593SOL    HW214679   5.696   6.486   2.241
 4594SOL     OW14680   2.985   0.397   3.224
 4594SOL    HW114681   3.059   0.331   3.226
 4594SOL    HW214682   3.010   0.478   3.277
 4595SOL     OW14683   4.672   2.662   5.927
 4595SOL    HW114684   4.688   2.708   5.840
 4595SOL    HW214685   4.622   2.723   5.989
 4596SOL     OW14686   6.525   0.425   2.827
 4596SOL    HW114687   6.602   0.387   2.776
 4596SOL    HW214688   6.526   0.525   2.818
 4597SOL     OW14689   2.971   5.356   6.768
 4597SOL    HW114690   2.942   5.449   6.788
 4597SOL    HW214691   2.895   5.293   6.784
 4598SOL     OW14692   1.297   5.673   1.252
 4598SOL    HW114693   1.220   5.723   1.292
 4598SOL    HW214694   1.263   5.604   1.189
 4599SOL     OW14695   0.856   5.295   0.886
 4599SOL    HW114696   0.871   5.196   0.896
 4599SOL    HW214697   0.944   5.341   0.874
 4600SOL     OW14698   0.459   6.280   5.679
 4600SOL    HW114699   0.515   6.200   5.657
 4600SOL    HW214700   0.467   6.300   5.777
 4601SOL     OW14701   1.281   1.643   5.082
 4601SOL    HW114702   1.262   1.685   5.171
 4601SOL    HW214703   1.268   1.544   5.089
 4602SOL     OW14704   3.149   6.267   0.535
 4602SOL    HW114705   3.238   6.279   0.490
 4602SOL    HW214706   3.098   6.194   0.489
 4603SOL     OW14707   3.670   5.714   0.643
 4603SOL    HW114708   3.584   5.717   0.694
 4603SOL    HW214709   3.655   5.746   0.550
 4604SOL     OW14710   4.520   6.748   0.248
 4604SOL    HW114711   4.511   6.671   0.185
 4604SOL    HW214712   4.603   6.799   0.227
 4605SOL     OW14713   1.502   6.468   1.878
 4605SOL    HW114714   1.543   6.461   1.968
 4605SOL    HW214715   1.517   6.561   1.842
 4606SOL     OW14716   0.446   6.761   2.675
 4606SOL    HW114717   0.487   6.678   2.636
 4606SOL    HW214718   0.411   6.742   2.766
 4607SOL     OW14719   2.103   3.391   3.129
 4607SOL    HW114720   2.084   3.489   3.139
 4607SOL    HW214721   2.202   3.376   3.138
 4608SOL     OW14722   0.024   5.010   3.694
 4608SOL    HW114723   6.973   5.057   3.639
 4608SOL    HW214724   6.997   4.958   3.767
 4609SOL     OW14725   4.822   4.872   6.502
 4609SOL    HW114726   4.856   4.964   6.485
 4609SOL    HW214727   4.753   4.876   6.574
 4610SOL     OW14728   4.558   1.520   0.297
 4610SOL    HW114729   4.484   1.531   0.364
 4610SOL    HW214730   4.526   1.548   0.207
 4611SOL     OW14731   0.950   6.779   6.009
 4611SOL    HW114732   1.042   6.757   6.041
 4611SOL    HW214733   0.908   6.698   5.969
 4612SOL     OW14734   2.285   6.820   0.656
 4612SOL    HW114735   2.243   6.790   0.571
 4612SOL    HW214736   2.285   6.920   0.660
 4613SOL     OW14737   1.675   5.771   2.220
 4613SOL    HW114738   1.591   5.824   2.229
 4613SOL    HW214739   1.748   5.830   2.184
 4614SOL     OW14740   5.686   3.355   3.413
 4614SOL    HW114741   5.771   3.325   3.458
 4614SOL    HW214742   5.700   3.444   3.371
 4615SOL     OW14743   0.635   1.757   0.517
 4615SOL    HW114744   0.572   1.693   0.560
 4615SOL    HW214745   0.636   1.740   0.418
 4616SOL     OW14746   5.778   1.512   4.496
 4616SOL    HW114747   5.683   1.520   4.466
 4616SOL    HW214748   5.784   1.532   4.594
 4617SOL     OW14749   1.338   1.770   2.812
 4617SOL    HW114750   1.331   1.864   2.845
 4617SOL    HW214751   1.418   1.762   2.752
 4618SOL     OW14752   2.184   3.485   5.309
 4618SOL    HW114753   2.160   3.529   5.223
 4618SOL    HW214754   2.176   3.385   5.300
 4619SOL     OW14755   2.953   6.034   3.601
 4619SOL    HW114756   3.027   6.067   3.541
 4619SOL    HW214757   2.943   6.096   3.678
 4620SOL     OW14758   0.937   5.047   0.928
 4620SOL    HW114759   1.021   5.039   0.982
 4620SOL    HW214760   0.897   4.956   0.915
 4621SOL     OW14761   4.866   0.991   2.061
 4621SOL    HW114762   4.928   0.952   2.129
 4621SOL    HW214763   4.802   0.921   2.031
 4622SOL     OW14764   3.857   4.788   0.537
 4622SOL    HW114765   3.810   4.766   0.622
 4622SOL    HW214766   3.895   4.704   0.497
 4623SOL     OW14767   4.878   5.680   1.656
 4623SOL    HW114768   4.827   5.596   1.635
 4623SOL    HW214769   4.926   5.711   1.574
 4624SOL     OW14770   3.459   0.392   2.716
 4624SOL    HW114771   3.494   0.312   2.765
 4624SOL    HW214772   3.453   0.469   2.779
 4625SOL     OW14773   1.785   5.166   1.925
 4625SOL    HW114774   1.849   5.092   1.941
 4625SOL    HW214775   1.736   5.187   2.010
 4626SOL     OW14776   4.746   4.090   1.715
 4626SOL    HW114777   4.691   4.143   1.779
 4626SOL    HW214778   4.827   4.055   1.762
 4627SOL     OW14779   1.681   4.945   5.140
 4627SOL    HW114780   1.686   4.893   5.055
 4627SOL    HW214781   1.748   5.019   5.138
 4628SOL     OW14782   4.613   4.380   4.887
 4628SOL    HW114783   4.535   4.436   4.916
 4628SOL    HW214784   4.587   4.284   4.888
 4629SOL     OW14785   2.529   5.386   5.590
 4629SOL    HW114786   2.511   5.343   5.502
 4629SOL    HW214787   2.507   5.484   5.584
 4630SOL     OW14788   2.299   5.560   2.276
 4630SOL    HW114789   2.336   5.574   2.368
 4630SOL    HW214790   2.306   5.645   2.225
 4631SOL     OW14791   1.371   6.268   3.027
 4631SOL    HW114792   1.469   6.290   3.016
 4631SOL    HW214793   1.361   6.169   3.037
 4632SOL     OW14794   2.365   4.284   2.348
 4632SOL    HW114795   2.426   4.364   2.343
 4632SOL    HW214796   2.337   4.259   2.255
 4633SOL     OW14797   5.849   0.786   4.420
 4633SOL    HW114798   5.930   0.728   4.410
 4633SOL    HW214799   5.770   0.741   4.378
 4634SOL     OW14800   2.586   3.918   5.313
 4634SOL    HW114801   2.553   3.830   5.347
 4634SOL    HW214802   2.511   3.967   5.269
 4635SOL     OW14803   4.402   4.356   1.643
 4635SOL    HW114804   4.444   4.289   1.704
 4635SOL    HW214805   4.392   4.317   1.552
 4636SOL     OW14806   2.375   4.392   0.694
 4636SOL    HW114807   2.354   4.367   0.789
 4636SOL    HW214808   2.464   4.437   0.690
 4637SOL     OW14809   0.807   6.828   1.122
 4637SOL    HW114810   0.849   6.873   1.201
 4637SOL    HW214811   0.826   6.730   1.125
 4638SOL     OW14812   3.885   5.770   6.907
 4638SOL    HW114813   3.812   5.706   6.880
 4638SOL    HW214814   3.961   5.719   6.948
 4639SOL     OW14815   3.220   2.730   6.277
 4639SOL    HW114816   3.134   2.690   6.310
 4639SOL    HW214817   3.204   2.825   6.249
 4640SOL     OW14818   5.299   3.787   4.628
 4640SOL    HW114819   5.232   3.808   4.557
 4640SOL    HW214820   5.379   3.743   4.586
 4641SOL     OW14821   2.287   0.523   4.190
 4641SOL    HW114822   2.287   0.591   4.116
 4641SOL    HW214823   2.375   0.526   4.238
 4642SOL     OW14824   1.450   6.618   2.638
 4642SOL    HW114825   1.422   6.710   2.664
 4642SOL    HW214826   1.432   6.554   2.713
 4643SOL     OW14827   6.588   1.460   0.190
 4643SOL    HW114828   6.515   1.502   0.138
 4643SOL    HW214829   6.676   1.480   0.146
 4644SOL     OW14830   0.424   0.428   5.498
 4644SOL    HW114831   0.334   0.384   5.500
 4644SOL    HW214832   0.468   0.408   5.411
 4645SOL     OW14833   1.440   0.666   4.680
 4645SOL    HW114834   1.407   0.624   4.764
 4645SOL    HW214835   1.420   0.605   4.602
 4646SOL     OW14836   2.716   5.651   3.629
 4646SOL    HW114837   2.661   5.719   3.582
 4646SOL    HW214838   2.680   5.560   3.610
 4647SOL     OW14839   1.772   0.573   2.601
 4647SOL    HW114840   1.775   0.475   2.620
 4647SOL    HW214841   1.679   0.599   2.574
 4648SOL     OW14842   3.851   1.155   3.234
 4648SOL    HW114843   3.886   1.248   3.242
 4648SOL    HW214844   3.761   1.149   3.278
 4649SOL     OW14845   6.460   0.827   0.994
 4649SOL    HW114846   6.437   0.918   1.028
 4649SOL    HW214847   6.440   0.759   1.065
 4650SOL     OW14848   4.704   5.446   2.139
 4650SOL    HW114849   4.611   5.429   2.172
 4650SOL    HW214850   4.708   5.536   2.097
 4651SOL     OW14851   6.859   3.317   6.284
 4651SOL    HW114852   6.916   3.240   6.312
 4651SOL    HW214853   6.773   3.283   6.247
 4652SOL     OW14854   6.724   6.048   4.825
 4652SOL    HW114855   6.675   6.021   4.908
 4652SOL    HW214856   6.814   6.084   4.849
 4653SOL     OW14857   5.271   6.065   1.199
 4653SOL    HW114858   5.343   6.055   1.266
 4653SOL    HW214859   5.200   5.996   1.214
 4654SOL     OW14860   0.786   5.937   5.952
 4654SOL    HW114861   0.812   5.847   5.986
 4654SOL    HW214862   0.821   5.949   5.859
 4655SOL     OW14863   6.025   3.559   1.131
 4655SOL    HW114864   5.969   3.480   1.156
 4655SOL    HW214865   6.119   3.546   1.165
 4656SOL     OW14866   1.243   1.216   1.684
 4656SOL    HW114867   1.267   1.136   1.628
 4656SOL    HW214868   1.298   1.217   1.767
 4657SOL     OW14869   4.672   5.839   1.784
 4657SOL    HW114870   4.752   5.792   1.747
 4657SOL    HW214871   4.663   5.928   1.739
 4658SOL     OW14872   2.792   0.992   4.551
 4658SOL    HW114873   2.783   1.062   4.481
 4658SOL    HW214874   2.864   0.927   4.525
 4659SOL     OW14875   2.640   4.097   6.511
 4659SOL    HW114876   2.675   4.088   6.418
 4659SOL    HW214877   2.715   4.083   6.576
 4660SOL     OW14878   1.108   6.071   4.584
 4660SOL    HW114879   1.201   6.043   4.558
 4660SOL    HW214880   1.073   6.135   4.516
 4661SOL     OW14881   3.087   4.686   6.079
 4661SOL    HW114882   3.137   4.631   6.011
 4661SOL    HW214883   2.998   4.712   6.042
 4662SOL     OW14884   2.799   0.418   5.565
 4662SOL    HW114885   2.751   0.489   5.514
 4662SOL    HW214886   2.897   0.425   5.550
 4663SOL     OW14887   0.506   0.766   1.158
 4663SOL    HW114888   0.438   0.751   1.086
 4663SOL    HW214889   0.487   0.705   1.235
 4664SOL     OW14890   0.898   0.548   0.285
 4664SOL    HW114891   0.861   0.560   0.377
 4664SOL    HW214892   0.991   0.586   0.281
 4665SOL     OW14893   2.708   6.736   6.296
 4665SOL    HW114894   2.792   6.695   6.263
 4665SOL    HW214895   2.631   6.702   6.242
 4666SOL     OW14896   2.068   2.490   0.299
 4666SOL    HW114897   1.985   2.464   0.347
 4666SOL    HW214898   2.102   2.577   0.336
 4667SOL     OW14899   6.416   4.028   1.503
 4667SOL    HW114900   6.397   3.989   1.593
 4667SOL    HW214901   6.491   4.094   1.510
 4668SOL     OW14902   4.638   1.911   4.533
 4668SOL    HW114903   4.596   1.846   4.595
 4668SOL    HW214904   4.577   1.990   4.520
 4669SOL     OW14905   5.251   6.233   6.341
 4669SOL    HW114906   5.200   6.148   6.360
 4669SOL    HW214907   5.227   6.302   6.409
 4670SOL     OW14908   1.195   2.617   6.569
 4670SOL    HW114909   1.158   2.605   6.661
 4670SOL    HW214910   1.284   2.663   6.575
 4671SOL     OW14911   0.209   3.344   6.628
 4671SOL    HW114912   0.199   3.391   6.540
 4671SOL    HW214913   0.145   3.382   6.694
 4672SOL     OW14914   3.070   4.549   6.421
 4672SOL    HW114915   3.085   4.526   6.325
 4672SOL    HW214916   2.983   4.512   6.452
 4673SOL     OW14917   4.816   0.180   1.095
 4673SOL    HW114918   4.865   0.267   1.090
 4673SOL    HW214919   4.746   0.177   1.023
 4674SOL     OW14920   5.282   1.555   0.134
 4674SOL    HW114921   5.326   1.476   0.177
 4674SOL    HW214922   5.337   1.584   0.055
 4675SOL     OW14923   3.704   0.417   0.527
 4675SOL    HW114924   3.690   0.364   0.610
 4675SOL    HW214925   3.621   0.416   0.472
 4676SOL     OW14926   0.272   6.298   4.296
 4676SOL    HW114927   0.236   6.208   4.271
 4676SOL    HW214928   0.255   6.314   4.394
 4677SOL     OW14929   3.026   0.845   0.742
 4677SOL    HW114930   2.995   0.915   0.677
 4677SOL    HW214931   3.021   0.882   0.835
 4678SOL     OW14932   1.765   4.295   2.454
 4678SOL    HW114933   1.716   4.377   2.425
 4678SOL    HW214934   1.765   4.228   2.379
 4679SOL     OW14935   3.521   0.959   6.764
 4679SOL    HW114936   3.516   0.977   6.666
 4679SOL    HW214937   3.614   0.975   6.796
 4680SOL     OW14938   1.811   0.500   1.868
 4680SOL    HW114939   1.850   0.590   1.845
 4680SOL    HW214940   1.793   0.495   1.966
 4681SOL     OW14941   6.003   5.377   5.585
 4681SOL    HW114942   6.095   5.415   5.599
 4681SOL    HW214943   5.956   5.370   5.672
 4682SOL     OW14944   4.354   4.164   6.767
 4682SOL    HW114945   4.453   4.145   6.763
 4682SOL    HW214946   4.326   4.175   6.862
 4683SOL     OW14947   4.694   4.912   2.536
 4683SOL    HW114948   4.623   4.975   2.505
 4683SOL    HW214949   4.761   4.898   2.463
 4684SOL     OW14950   0.078   1.586   4.228
 4684SOL    HW114951   0.046   1.493   4.248
 4684SOL    HW214952   0.013   1.632   4.169
 4685SOL     OW14953   0.618   6.541   5.095
 4685SOL    HW114954   0.643   6.485   5.174
 4685SOL    HW214955   0.553   6.611   5.123
 4686SOL     OW14956   5.462   5.529   0.344
 4686SOL    HW114957   5.488   5.443   0.300
 4686SOL    HW214958   5.541   5.590   0.346
 4687SOL     OW14959   0.004   4.959   5.396
 4687SOL    HW114960   0.073   4.913   5.341
 4687SOL    HW214961   0.043   4.984   5.485
 4688SOL     OW14962   6.870   3.661   5.869
 4688SOL    HW114963   6.954   3.705   5.901
 4688SOL    HW214964   6.792   3.700   5.918
 4689SOL     OW14965   6.073   0.544   6.891
 4689SOL    HW114966   6.121   0.609   6.950
 4689SOL    HW214967   6.011   0.489   6.945
 4690SOL     OW14968   1.034   1.179   0.198
 4690SOL    HW114969   1.067   1.207   0.108
 4690SOL    HW214970   0.966   1.107   0.188
 4691SOL     OW14971   3.102   4.814   1.930
 4691SOL    HW114972   3.016   4.770   1.953
 4691SOL    HW214973   3.174   4.783   1.992
 4692SOL     OW14974   6.613   5.705   2.580
 4692SOL    HW114975   6.572   5.779   2.527
 4692SOL    HW214976   6.569   5.700   2.669
 4693SOL     OW14977   0.561   0.743   3.998
 4693SOL    HW114978   0.655   0.711   4.013
 4693SOL    HW214979   0.517   0.686   3.928
 4694SOL     OW14980   3.124   0.033   0.329
 4694SOL    HW114981   3.190   6.976   0.325
 4694SOL    HW214982   3.031   7.015   0.331
 4695SOL     OW14983   2.644   3.445   1.681
 4695SOL    HW114984   2.555   3.453   1.725
 4695SOL    HW214985   2.664   3.349   1.664
 4696SOL     OW14986   0.553   4.499   5.517
 4696SOL    HW114987   0.570   4.492   5.616
 4696SOL    HW214988   0.629   4.457   5.467
 4697SOL     OW14989   1.681   3.068   1.194
 4697SOL    HW114990   1.730   3.074   1.106
 4697SOL    HW214991   1.601   3.009   1.183
 4698SOL     OW14992   3.869   5.737   3.124
 4698SOL    HW114993   3.857   5.835   3.136
 4698SOL    HW214994   3.935   5.704   3.191
 4699SOL     OW14995   1.125   6.486   2.232
 4699SOL    HW114996   1.040   6.452   2.271
 4699SOL    HW214997   1.177   6.410   2.192
 4700SOL     OW14998   6.194   1.414   2.351
 4700SOL    HW114999   6.210   1.380   2.259
 4700SOL    HW215000   6.282   1.437   2.394
 4701SOL     OW15001   1.516   2.115   0.864
 4701SOL    HW115002   1.524   2.066   0.951
 4701SOL    HW215003   1.600   2.166   0.847
 4702SOL     OW15004   5.743   4.935   6.171
 4702SOL    HW115005   5.663   4.984   6.136
 4702SOL    HW215006   5.822   4.996   6.169
 4703SOL     OW15007   1.344   2.434   1.655
 4703SOL    HW115008   1.349   2.458   1.558
 4703SOL    HW215009   1.434   2.400   1.685
 4704SOL     OW15010   1.109   6.715   0.007
 4704SOL    HW115011   1.143   6.727   6.932
 4704SOL    HW215012   1.105   6.618   0.029
 4705SOL     OW15013   3.509   3.476   2.699
 4705SOL    HW115014   3.607   3.490   2.714
 4705SOL    HW215015   3.460   3.486   2.786
 4706SOL     OW15016   3.785   6.157   6.090
 4706SOL    HW115017   3.698   6.204   6.075
 4706SOL    HW215018   3.818   6.177   6.182
 4707SOL     OW15019   2.309   5.654   0.734
 4707SOL    HW115020   2.228   5.698   0.773
 4707SOL    HW215021   2.296   5.640   0.636
 4708SOL     OW15022   1.570   2.470   6.792
 4708SOL    HW115023   1.520   2.428   6.716
 4708SOL    HW215024   1.515   2.465   6.875
 4709SOL     OW15025   3.906   5.483   5.259
 4709SOL    HW115026   4.003   5.489   5.233
 4709SOL    HW215027   3.867   5.574   5.265
 4710SOL     OW15028   3.513   1.095   5.584
 4710SOL    HW115029   3.457   1.060   5.509
 4710SOL    HW215030   3.593   1.037   5.595
 4711SOL     OW15031   5.268   0.673   2.137
 4711SOL    HW115032   5.364   0.683   2.110
 4711SOL    HW215033   5.225   0.604   2.079
 4712SOL     OW15034   2.912   4.671   0.605
 4712SOL    HW115035   2.898   4.682   0.507
 4712SOL    HW215036   2.947   4.578   0.622
 4713SOL     OW15037   2.799   4.164   1.282
 4713SOL    HW115038   2.744   4.095   1.235
 4713SOL    HW215039   2.759   4.183   1.372
 4714SOL     OW15040   1.894   2.101   0.157
 4714SOL    HW115041   1.900   2.126   0.061
 4714SOL    HW215042   1.968   2.145   0.208
 4715SOL     OW15043   6.600   3.495   1.617
 4715SOL    HW115044   6.558   3.582   1.641
 4715SOL    HW215045   6.534   3.421   1.633
 4716SOL     OW15046   3.977   5.909   6.692
 4716SOL    HW115047   3.949   5.867   6.778
 4716SOL    HW215048   4.006   5.838   6.628
 4717SOL     OW15049   0.101   6.511   3.457
 4717SOL    HW115050   0.017   6.550   3.418
 4717SOL    HW215051   0.114   6.418   3.422
 4718SOL     OW15052   5.789   2.067   6.781
 4718SOL    HW115053   5.729   2.125   6.836
 4718SOL    HW215054   5.798   2.105   6.690
 4719SOL     OW15055   5.188   3.424   2.521
 4719SOL    HW115056   5.215   3.358   2.591
 4719SOL    HW215057   5.205   3.385   2.430
 4720SOL     OW15058   2.126   6.113   5.673
 4720SOL    HW115059   2.122   6.055   5.755
 4720SOL    HW215060   2.077   6.198   5.689
 4721SOL     OW15061   6.881   2.421   1.277
 4721SOL    HW115062   6.944   2.390   1.206
 4721SOL    HW215063   6.933   2.463   1.351
 4722SOL     OW15064   1.067   5.695   6.850
 4722SOL    HW115065   1.018   5.664   6.932
 4722SOL    HW215066   1.064   5.795   6.846
 4723SOL     OW15067   2.271   4.996   6.225
 4723SOL    HW115068   2.285   4.921   6.162
 4723SOL    HW215069   2.352   5.008   6.282
 4724SOL     OW15070   5.247   5.752   3.091
 4724SOL    HW115071   5.268   5.723   2.998
 4724SOL    HW215072   5.274   5.680   3.155
 4725SOL     OW15073   6.298   6.715   2.675
 4725SOL    HW115074   6.310   6.616   2.673
 4725SOL    HW215075   6.361   6.758   2.610
 4726SOL     OW15076   1.681   3.082   6.587
 4726SOL    HW115077   1.779   3.091   6.566
 4726SOL    HW215078   1.632   3.051   6.506
 4727SOL     OW15079   0.275   6.684   6.964
 4727SOL    HW115080   0.310   6.625   6.891
 4727SOL    HW215081   0.334   6.676   0.026
 4728SOL     OW15082   5.085   0.723   0.752
 4728SOL    HW115083   4.991   0.710   0.723
 4728SOL    HW215084   5.147   0.699   0.676
 4729SOL     OW15085   1.996   1.798   1.976
 4729SOL    HW115086   1.974   1.743   2.057
 4729SOL    HW215087   1.925   1.786   1.908
 4730SOL     OW15088   2.289   5.718   5.443
 4730SOL    HW115089   2.287   5.817   5.450
 4730SOL    HW215090   2.279   5.677   5.534
 4731SOL     OW15091   4.345   6.985   6.313
 4731SOL    HW115092   4.275   7.017   6.249
 4731SOL    HW215093   4.365   6.889   6.295
 4732SOL     OW15094   0.030   3.794   5.677
 4732SOL    HW115095   0.041   3.820   5.581
 4732SOL    HW215096   0.036   3.694   5.685
 4733SOL     OW15097   1.291   4.117   3.137
 4733SOL    HW115098   1.373   4.172   3.151
 4733SOL    HW215099   1.210   4.169   3.165
 4734SOL     OW15100   4.914   3.055   6.563
 4734SOL    HW115101   4.873   3.013   6.644
 4734SOL    HW215102   4.945   2.984   6.500
 4735SOL     OW15103   0.793   5.937   4.360
 4735SOL    HW115104   0.777   5.927   4.262
 4735SOL    HW215105   0.883   5.898   4.383
 4736SOL     OW15106   0.386   1.695   6.414
 4736SOL    HW115107   0.462   1.655   6.362
 4736SOL    HW215108   0.300   1.659   6.379
 4737SOL     OW15109   1.085   5.230   2.235
 4737SOL    HW115110   1.129   5.150   2.277
 4737SOL    HW215111   0.991   5.236   2.267
 4738SOL     OW15112   6.994   5.864   2.937
 4738SOL    HW115113   0.061   5.862   2.988
 4738SOL    HW215114   6.946   5.949   2.957
 4739SOL     OW15115   4.348   6.894   3.355
 4739SOL    HW115116   4.361   6.906   3.257
 4739SOL    HW215117   4.352   6.796   3.378
 4740SOL     OW15118   0.183   1.621   0.834
 4740SOL    HW115119   0.264   1.676   0.851
 4740SOL    HW215120   0.139   1.652   0.750
 4741SOL     OW15121   3.385   2.713   1.498
 4741SOL    HW115122   3.377   2.799   1.550
 4741SOL    HW215123   3.373   2.733   1.400
 4742SOL     OW15124   2.156   6.463   5.154
 4742SOL    HW115125   2.188   6.475   5.248
 4742SOL    HW215126   2.140   6.552   5.112
 4743SOL     OW15127   2.128   3.926   2.690
 4743SOL    HW115128   2.123   3.828   2.674
 4743SOL    HW215129   2.178   3.970   2.615
 4744SOL     OW15130   1.731   5.161   1.003
 4744SOL    HW115131   1.695   5.227   0.936
 4744SOL    HW215132   1.829   5.177   1.015
 4745SOL     OW15133   2.902   4.112   6.643
 4745SOL    HW115134   2.989   4.147   6.607
 4745SOL    HW215135   2.899   4.128   6.742
 4746SOL     OW15136   4.475   6.596   3.956
 4746SOL    HW115137   4.444   6.529   4.024
 4746SOL    HW215138   4.440   6.687   3.982
 4747SOL     OW15139   0.682   3.899   0.749
 4747SOL    HW115140   0.758   3.870   0.692
 4747SOL    HW215141   0.683   3.999   0.758
 4748SOL     OW15142   2.002   6.037   1.564
 4748SOL    HW115143   1.935   5.992   1.624
 4748SOL    HW215144   1.955   6.105   1.508
 4749SOL     OW15145   1.729   6.812   6.630
 4749SOL    HW115146   1.815   6.825   6.581
 4749SOL    HW215147   1.677   6.898   6.629
 4750SOL     OW15148   6.995   3.434   5.251
 4750SOL    HW115149   0.001   3.338   5.267
 4750SOL    HW215150   7.004   3.485   5.337
 4751SOL     OW15151   4.653   2.694   2.974
 4751SOL    HW115152   4.753   2.694   2.970
 4751SOL    HW215153   4.615   2.682   2.882
 4752SOL     OW15154   4.224   0.673   0.285
 4752SOL    HW115155   4.306   0.729   0.269
 4752SOL    HW215156   4.187   0.694   0.375
 4753SOL     OW15157   0.724   0.081   4.017
 4753SOL    HW115158   0.796   0.138   3.979
 4753SOL    HW215159   0.635   0.122   3.997
 4754SOL     OW15160   5.149   3.890   5.101
 4754SOL    HW115161   5.174   3.809   5.155
 4754SOL    HW215162   5.065   3.930   5.138
 4755SOL     OW15163   3.002   0.991   0.966
 4755SOL    HW115164   2.909   0.970   0.996
 4755SOL    HW215165   3.029   1.080   1.004
 4756SOL     OW15166   6.014   3.588   5.442
 4756SOL    HW115167   6.023   3.649   5.521
 4756SOL    HW215168   6.036   3.639   5.359
 4757SOL     OW15169   2.034   2.015   1.518
 4757SOL    HW115170   2.056   2.048   1.426
 4757SOL    HW215171   2.050   1.917   1.524
 4758SOL     OW15172   1.604   6.358   2.970
 4758SOL    HW115173   1.679   6.296   2.948
 4758SOL    HW215174   1.607   6.380   3.068
 4759SOL     OW15175   0.879   4.792   6.441
 4759SOL    HW115176   0.962   4.764   6.391
 4759SOL    HW215177   0.877   4.891   6.449
 4760SOL     OW15178   2.110   1.269   0.685
 4760SOL    HW115179   2.201   1.233   0.708
 4760SOL    HW215180   2.095   1.355   0.735
 4761SOL     OW15181   1.460   0.694   0.690
 4761SOL    HW115182   1.464   0.753   0.771
 4761SOL    HW215183   1.411   0.610   0.711
 4762SOL     OW15184   1.414   5.906   2.279
 4762SOL    HW115185   1.325   5.926   2.237
 4762SOL    HW215186   1.450   5.989   2.322
 4763SOL     OW15187   5.047   0.333   2.709
 4763SOL    HW115188   5.114   0.381   2.766
 4763SOL    HW215189   5.017   0.392   2.635
 4764SOL     OW15190   4.542   3.361   5.393
 4764SOL    HW115191   4.613   3.405   5.338
 4764SOL    HW215192   4.453   3.374   5.349
 4765SOL     OW15193   3.739   0.944   5.589
 4765SOL    HW115194   3.791   1.016   5.543
 4765SOL    HW215195   3.748   0.955   5.688
 4766SOL     OW15196   6.224   6.018   4.169
 4766SOL    HW115197   6.171   6.008   4.086
 4766SOL    HW215198   6.166   6.000   4.249
 4767SOL     OW15199   3.339   4.913   5.051
 4767SOL    HW115200   3.239   4.914   5.054
 4767SOL    HW215201   3.373   4.854   5.124
 4768SOL     OW15202   3.418   2.748   5.603
 4768SOL    HW115203   3.394   2.681   5.672
 4768SOL    HW215204   3.340   2.808   5.586
 4769SOL     OW15205   4.264   6.039   0.676
 4769SOL    HW115206   4.359   6.061   0.698
 4769SOL    HW215207   4.249   5.941   0.686
 4770SOL     OW15208   0.630   1.916   4.671
 4770SOL    HW115209   0.602   1.900   4.576
 4770SOL    HW215210   0.570   1.865   4.733
 4771SOL     OW15211   2.702   6.531   6.508
 4771SOL    HW115212   2.661   6.596   6.572
 4771SOL    HW215213   2.760   6.580   6.443
 4772SOL     OW15214   3.219   4.700   1.003
 4772SOL    HW115215   3.126   4.730   0.982
 4772SOL    HW215216   3.269   4.686   0.917
 4773SOL     OW15217   0.472   5.701   5.314
 4773SOL    HW115218   0.419   5.732   5.393
 4773SOL    HW215219   0.490   5.778   5.253
 4774SOL     OW15220   1.612   4.401   0.896
 4774SOL    HW115221   1.557   4.475   0.858
 4774SOL    HW215222   1.570   4.368   0.981
 4775SOL     OW15223   4.927   0.038   3.940
 4775SOL    HW115224   4.906   0.112   4.005
 4775SOL    HW215225   4.900   6.969   3.979
 4776SOL     OW15226   0.809   1.025   5.409
 4776SOL    HW115227   0.712   1.049   5.408
 4776SOL    HW215228   0.863   1.101   5.373
 4777SOL     OW15229   2.098   5.770   0.908
 4777SOL    HW115230   2.146   5.692   0.950
 4777SOL    HW215231   2.053   5.823   0.980
 4778SOL     OW15232   6.985   2.697   4.633
 4778SOL    HW115233   6.978   2.703   4.533
 4778SOL    HW215234   6.898   2.723   4.674
 4779SOL     OW15235   5.580   6.974   3.666
 4779SOL    HW115236   5.530   0.020   3.609
 4779SOL    HW215237   5.677   6.998   3.667
 4780SOL     OW15238   5.630   2.453   6.765
 4780SOL    HW115239   5.691   2.489   6.695
 4780SOL    HW215240   5.654   2.493   6.854
 4781SOL     OW15241   2.910   5.615   1.968
 4781SOL    HW115242   2.991   5.558   1.955
 4781SOL    HW215243   2.830   5.557   1.982
 4782SOL     OW15244   6.009   5.788   6.703
 4782SOL    HW115245   5.995   5.751   6.610
 4782SOL    HW215246   5.944   5.745   6.765
 4783SOL     OW15247   5.902   3.467   6.810
 4783SOL    HW115248   5.889   3.395   6.878
 4783SOL    HW215249   5.869   3.554   6.847
 4784SOL     OW15250   6.204   1.893   6.130
 4784SOL    HW115251   6.182   1.840   6.048
 4784SOL    HW215252   6.294   1.865   6.165
 4785SOL     OW15253   0.266   6.602   3.125
 4785SOL    HW115254   0.306   6.650   3.047
 4785SOL    HW215255   0.319   6.622   3.207
 4786SOL     OW15256   2.545   6.430   6.866
 4786SOL    HW115257   2.526   6.449   6.962
 4786SOL    HW215258   2.580   6.337   6.856
 4787SOL     OW15259   3.864   1.945   3.335
 4787SOL    HW115260   3.823   2.014   3.395
 4787SOL    HW215261   3.881   1.985   3.245
 4788SOL     OW15262   6.882   5.625   0.534
 4788SOL    HW115263   6.872   5.576   0.448
 4788SOL    HW215264   6.866   5.723   0.519
 4789SOL     OW15265   4.944   2.046   1.598
 4789SOL    HW115266   5.008   1.976   1.628
 4789SOL    HW215267   4.861   2.042   1.653
 4790SOL     OW15268   5.905   1.932   5.881
 4790SOL    HW115269   5.829   1.898   5.938
 4790SOL    HW215270   5.981   1.867   5.886
 4791SOL     OW15271   0.066   3.116   2.017
 4791SOL    HW115272   0.028   3.067   1.939
 4791SOL    HW215273   0.041   3.067   2.101
 4792SOL     OW15274   2.066   4.445   4.695
 4792SOL    HW115275   2.158   4.415   4.719
 4792SOL    HW215276   2.004   4.366   4.695
 4793SOL     OW15277   1.782   3.876   5.000
 4793SOL    HW115278   1.722   3.799   4.980
 4793SOL    HW215279   1.854   3.846   5.063
 4794SOL     OW15280   4.390   6.925   4.549
 4794SOL    HW115281   4.309   6.870   4.527
 4794SOL    HW215282   4.436   6.887   4.629
 4795SOL     OW15283   6.456   1.555   4.144
 4795SOL    HW115284   6.496   1.551   4.235
 4795SOL    HW215285   6.446   1.651   4.116
 4796SOL     OW15286   4.166   0.225   6.378
 4796SOL    HW115287   4.075   0.265   6.370
 4796SOL    HW215288   4.180   0.157   6.307
 4797SOL     OW15289   0.562   5.828   4.908
 4797SOL    HW115290   0.544   5.827   4.810
 4797SOL    HW215291   0.609   5.912   4.933
 4798SOL     OW15292   6.279   4.645   5.388
 4798SOL    HW115293   6.213   4.626   5.315
 4798SOL    HW215294   6.372   4.630   5.353
 4799SOL     OW15295   4.325   1.514   0.830
 4799SOL    HW115296   4.319   1.599   0.883
 4799SOL    HW215297   4.419   1.499   0.800
 4800SOL     OW15298   1.620   3.958   6.857
 4800SOL    HW115299   1.607   4.051   6.889
 4800SOL    HW215300   1.532   3.920   6.828
 4801SOL     OW15301   3.688   2.420   6.609
 4801SOL    HW115302   3.693   2.484   6.685
 4801SOL    HW215303   3.664   2.470   6.525
 4802SOL     OW15304   7.016   6.699   2.120
 4802SOL    HW115305   6.975   6.747   2.042
 4802SOL    HW215306   0.095   6.685   2.103
 4803SOL     OW15307   6.875   4.436   1.007
 4803SOL    HW115308   6.846   4.518   1.054
 4803SOL    HW215309   6.967   4.410   1.038
 4804SOL     OW15310   6.712   0.043   1.211
 4804SOL    HW115311   6.671   7.000   1.144
 4804SOL    HW215312   6.811   0.043   1.199
 4805SOL     OW15313   6.414   1.225   2.141
 4805SOL    HW115314   6.416   1.213   2.240
 4805SOL    HW215315   6.328   1.190   2.105
 4806SOL     OW15316   1.146   3.489   2.811
 4806SOL    HW115317   1.069   3.428   2.792
 4806SOL    HW215318   1.221   3.468   2.747
 4807SOL     OW15319   1.276   4.050   6.349
 4807SOL    HW115320   1.220   4.054   6.431
 4807SOL    HW215321   1.324   4.137   6.337
 4808SOL     OW15322   4.450   5.435   0.640
 4808SOL    HW115323   4.539   5.472   0.667
 4808SOL    HW215324   4.451   5.336   0.650
 4809SOL     OW15325   4.054   4.714   1.490
 4809SOL    HW115326   4.114   4.640   1.460
 4809SOL    HW215327   4.050   4.715   1.590
 4810SOL     OW15328   1.462   4.628   3.210
 4810SOL    HW115329   1.487   4.595   3.301
 4810SOL    HW215330   1.381   4.686   3.217
 4811SOL     OW15331   3.688   3.747   3.411
 4811SOL    HW115332   3.786   3.736   3.399
 4811SOL    HW215333   3.649   3.789   3.329
 4812SOL     OW15334   0.378   0.278   2.285
 4812SOL    HW115335   0.441   0.352   2.263
 4812SOL    HW215336   0.419   0.191   2.257
 4813SOL     OW15337   6.127   1.418   6.211
 4813SOL    HW115338   6.112   1.460   6.301
 4813SOL    HW215339   6.118   1.487   6.140
 4814SOL     OW15340   0.015   3.331   1.852
 4814SOL    HW115341   0.032   3.259   1.920
 4814SOL    HW215342   6.958   3.304   1.793
 4815SOL     OW15343   5.428   4.574   2.890
 4815SOL    HW115344   5.502   4.638   2.912
 4815SOL    HW215345   5.343   4.624   2.878
 4816SOL     OW15346   2.063   5.289   1.634
 4816SOL    HW115347   2.103   5.368   1.681
 4816SOL    HW215348   1.963   5.297   1.634
 4817SOL     OW15349   2.995   1.138   1.529
 4817SOL    HW115350   3.026   1.043   1.538
 4817SOL    HW215351   2.966   1.171   1.619
 4818SOL     OW15352   0.818   1.471   4.051
 4818SOL    HW115353   0.803   1.399   3.983
 4818SOL    HW215354   0.852   1.431   4.136
 4819SOL     OW15355   2.988   2.168   1.306
 4819SOL    HW115356   2.941   2.096   1.254
 4819SOL    HW215357   2.927   2.203   1.377
 4820SOL     OW15358   6.417   2.309   0.514
 4820SOL    HW115359   6.396   2.365   0.435
 4820SOL    HW215360   6.512   2.278   0.509
 4821SOL     OW15361   6.844   6.710   1.250
 4821SOL    HW115362   6.860   6.708   1.151
 4821SOL    HW215363   6.839   6.806   1.280
 4822SOL     OW15364   1.746   2.892   3.689
 4822SOL    HW115365   1.703   2.912   3.777
 4822SOL    HW215366   1.676   2.858   3.625
 4823SOL     OW15367   0.150   1.335   3.620
 4823SOL    HW115368   0.242   1.295   3.620
 4823SOL    HW215369   0.153   1.424   3.666
 4824SOL     OW15370   5.672   1.788   3.397
 4824SOL    HW115371   5.728   1.871   3.394
 4824SOL    HW215372   5.607   1.788   3.321
 4825SOL     OW15373   2.316   2.868   4.250
 4825SOL    HW115374   2.410   2.837   4.236
 4825SOL    HW215375   2.286   2.922   4.172
 4826SOL     OW15376   0.710   0.744   6.764
 4826SOL    HW115377   0.718   0.685   6.844
 4826SOL    HW215378   0.738   0.694   6.682
 4827SOL     OW15379   5.958   0.753   1.703
 4827SOL    HW115380   6.051   0.789   1.698
 4827SOL    HW215381   5.893   0.821   1.668
 4828SOL     OW15382   5.765   3.064   0.815
 4828SOL    HW115383   5.813   3.090   0.899
 4828SOL    HW215384   5.709   2.983   0.833
 4829SOL     OW15385   3.567   6.319   6.729
 4829SOL    HW115386   3.608   6.242   6.778
 4829SOL    HW215387   3.638   6.368   6.678
 4830SOL     OW15388   5.163   5.957   4.128
 4830SOL    HW115389   5.165   5.927   4.223
 4830SOL    HW215390   5.100   5.900   4.076
 4831SOL     OW15391   6.854   5.460   5.938
 4831SOL    HW115392   6.784   5.390   5.947
 4831SOL    HW215393   6.838   5.533   6.004
 4832SOL     OW15394   2.679   2.470   5.708
 4832SOL    HW115395   2.714   2.558   5.742
 4832SOL    HW215396   2.586   2.482   5.675
 4833SOL     OW15397   5.460   1.103   3.070
 4833SOL    HW115398   5.541   1.056   3.103
 4833SOL    HW215399   5.474   1.134   2.976
 4834SOL     OW15400   3.671   0.294   0.779
 4834SOL    HW115401   3.686   0.389   0.808
 4834SOL    HW215402   3.624   0.244   0.852
 4835SOL     OW15403   0.991   1.426   6.397
 4835SOL    HW115404   1.013   1.388   6.307
 4835SOL    HW215405   0.892   1.440   6.403
 4836SOL     OW15406   5.036   3.191   3.387
 4836SOL    HW115407   5.119   3.203   3.333
 4836SOL    HW215408   5.049   3.116   3.451
 4837SOL     OW15409   4.532   3.364   1.590
 4837SOL    HW115410   4.487   3.438   1.641
 4837SOL    HW215411   4.523   3.279   1.643
 4838SOL     OW15412   2.383   5.312   2.184
 4838SOL    HW115413   2.319   5.268   2.121
 4838SOL    HW215414   2.359   5.409   2.195
 4839SOL     OW15415   1.689   3.919   5.736
 4839SOL    HW115416   1.645   3.862   5.666
 4839SOL    HW215417   1.765   3.869   5.777
 4840SOL     OW15418   0.801   6.721   5.437
 4840SOL    HW115419   0.808   6.812   5.396
 4840SOL    HW215420   0.709   6.707   5.473
 4841SOL     OW15421   2.777   6.158   1.585
 4841SOL    HW115422   2.815   6.198   1.669
 4841SOL    HW215423   2.843   6.094   1.546
 4842SOL     OW15424   3.376   4.883   1.790
 4842SOL    HW115425   3.373   4.957   1.858
 4842SOL    HW215426   3.443   4.815   1.819
 4843SOL     OW15427   5.704   3.772   0.597
 4843SOL    HW115428   5.785   3.782   0.539
 4843SOL    HW215429   5.622   3.779   0.540
 4844SOL     OW15430   6.615   3.456   5.775
 4844SOL    HW115431   6.529   3.408   5.791
 4844SOL    HW215432   6.623   3.480   5.678
 4845SOL     OW15433   6.789   5.812   4.367
 4845SOL    HW115434   6.775   5.863   4.282
 4845SOL    HW215435   6.745   5.860   4.443
 4846SOL     OW15436   6.397   3.278   3.276
 4846SOL    HW115437   6.338   3.223   3.337
 4846SOL    HW215438   6.380   3.375   3.293
 4847SOL     OW15439   3.675   1.563   5.790
 4847SOL    HW115440   3.662   1.482   5.732
 4847SOL    HW215441   3.773   1.583   5.796
 4848SOL     OW15442   1.405   0.671   3.640
 4848SOL    HW115443   1.418   0.750   3.580
 4848SOL    HW215444   1.318   0.680   3.688
 4849SOL     OW15445   0.945   6.766   6.492
 4849SOL    HW115446   0.936   6.718   6.405
 4849SOL    HW215447   0.866   6.743   6.550
 4850SOL     OW15448   3.823   1.356   2.421
 4850SOL    HW115449   3.891   1.326   2.354
 4850SOL    HW215450   3.791   1.448   2.398
 4851SOL     OW15451   3.370   5.778   4.638
 4851SOL    HW115452   3.321   5.750   4.556
 4851SOL    HW215453   3.462   5.741   4.637
 4852SOL     OW15454   0.696   0.555   5.618
 4852SOL    HW115455   0.627   0.522   5.553
 4852SOL    HW215456   0.730   0.643   5.588
 4853SOL     OW15457   3.102   1.245   2.792
 4853SOL    HW115458   3.190   1.205   2.767
 4853SOL    HW215459   3.080   1.223   2.887
 4854SOL     OW15460   4.992   6.967   2.434
 4854SOL    HW115461   5.015   0.005   2.354
 4854SOL    HW215462   4.897   6.938   2.428
 4855SOL     OW15463   5.509   2.760   2.225
 4855SOL    HW115464   5.608   2.746   2.220
 4855SOL    HW215465   5.490   2.840   2.282
 4856SOL     OW15466   2.209   4.112   2.498
 4856SOL    HW115467   2.285   4.167   2.463
 4856SOL    HW215468   2.209   4.023   2.453
 4857SOL     OW15469   2.263   2.955   5.694
 4857SOL    HW115470   2.263   2.857   5.673
 4857SOL    HW215471   2.327   3.002   5.634
 4858SOL     OW15472   1.410   1.503   4.753
 4858SOL    HW115473   1.407   1.589   4.804
 4858SOL    HW215474   1.504   1.482   4.728
 4859SOL     OW15475   1.330   0.801   4.415
 4859SOL    HW115476   1.392   0.728   4.446
 4859SOL    HW215477   1.237   0.777   4.440
 4860SOL     OW15478   3.872   4.930   2.053
 4860SOL    HW115479   3.790   4.876   2.038
 4860SOL    HW215480   3.953   4.871   2.042
 4861SOL     OW15481   5.147   5.013   0.306
 4861SOL    HW115482   5.063   4.995   0.255
 4861SOL    HW215483   5.212   4.938   0.289
 4862SOL     OW15484   3.011   4.809   4.814
 4862SOL    HW115485   2.986   4.743   4.884
 4862SOL    HW215486   3.017   4.900   4.855
 4863SOL     OW15487   6.185   4.267   1.692
 4863SOL    HW115488   6.139   4.314   1.616
 4863SOL    HW215489   6.283   4.263   1.673
 4864SOL     OW15490   3.992   1.288   3.698
 4864SOL    HW115491   3.920   1.228   3.663
 4864SOL    HW215492   4.000   1.276   3.797
 4865SOL     OW15493   2.194   0.411   5.659
 4865SOL    HW115494   2.188   0.491   5.599
 4865SOL    HW215495   2.245   0.435   5.741
 4866SOL     OW15496   0.202   2.465   0.553
 4866SOL    HW115497   0.260   2.415   0.618
 4866SOL    HW215498   0.191   2.410   0.470
 4867SOL     OW15499   3.803   4.947   3.260
 4867SOL    HW115500   3.818   4.880   3.188
 4867SOL    HW215501   3.845   4.916   3.345
 4868SOL     OW15502   0.173   4.990   2.781
 4868SOL    HW115503   0.236   5.048   2.833
 4868SOL    HW215504   0.089   5.042   2.762
 4869SOL     OW15505   1.027   1.731   2.394
 4869SOL    HW115506   1.057   1.797   2.463
 4869SOL    HW215507   0.927   1.721   2.399
 4870SOL     OW15508   0.307   6.274   1.868
 4870SOL    HW115509   0.358   6.336   1.926
 4870SOL    HW215510   0.354   6.185   1.866
 4871SOL     OW15511   1.640   0.703   3.780
 4871SOL    HW115512   1.675   0.776   3.721
 4871SOL    HW215513   1.547   0.678   3.752
 4872SOL     OW15514   6.351   0.258   3.597
 4872SOL    HW115515   6.330   0.219   3.507
 4872SOL    HW215516   6.265   0.278   3.645
 4873SOL     OW15517   6.442   5.285   3.906
 4873SOL    HW115518   6.366   5.349   3.901
 4873SOL    HW215519   6.422   5.214   3.974
 4874SOL     OW15520   5.918   3.857   1.965
 4874SOL    HW115521   5.998   3.802   1.986
 4874SOL    HW215522   5.888   3.905   2.048
 4875SOL     OW15523   5.981   1.596   0.786
 4875SOL    HW115524   6.030   1.521   0.830
 4875SOL    HW215525   5.885   1.571   0.773
 4876SOL     OW15526   6.072   2.179   2.887
 4876SOL    HW115527   6.089   2.276   2.867
 4876SOL    HW215528   5.981   2.168   2.926
 4877SOL     OW15529   1.585   2.039   5.878
 4877SOL    HW115530   1.503   2.012   5.928
 4877SOL    HW215531   1.657   1.972   5.892
 4878SOL     OW15532   6.278   1.240   1.789
 4878SOL    HW115533   6.259   1.229   1.887
 4878SOL    HW215534   6.328   1.325   1.774
 4879SOL     OW15535   4.457   1.927   2.549
 4879SOL    HW115536   4.381   1.881   2.504
 4879SOL    HW215537   4.459   1.901   2.645
 4880SOL     OW15538   5.560   3.739   0.171
 4880SOL    HW115539   5.483   3.691   0.213
 4880SOL    HW215540   5.587   3.816   0.228
 4881SOL     OW15541   1.475   1.332   0.026
 4881SOL    HW115542   1.407   1.398   7.012
 4881SOL    HW215543   1.430   1.265   0.087
 4882SOL     OW15544   4.708   0.800   4.757
 4882SOL    HW115545   4.647   0.820   4.680
 4882SOL    HW215546   4.791   0.856   4.748
 4883SOL     OW15547   5.004   4.680   1.603
 4883SOL    HW115548   5.006   4.690   1.503
 4883SOL    HW215549   5.013   4.770   1.645
 4884SOL     OW15550   3.103   6.094   1.848
 4884SOL    HW115551   3.007   6.124   1.850
 4884SOL    HW215552   3.123   6.052   1.760
 4885SOL     OW15553   2.256   5.196   1.369
 4885SOL    HW115554   2.163   5.163   1.389
 4885SOL    HW215555   2.321   5.150   1.430
 4886SOL     OW15556   1.902   5.841   1.859
 4886SOL    HW115557   1.846   5.883   1.788
 4886SOL    HW215558   1.851   5.767   1.903
 4887SOL     OW15559   6.995   6.982   1.269
 4887SOL    HW115560   0.063   6.987   1.218
 4887SOL    HW215561   7.003   0.017   1.353
 4888SOL     OW15562   2.947   0.778   4.448
 4888SOL    HW115563   2.974   0.683   4.465
 4888SOL    HW215564   2.857   0.780   4.403
 4889SOL     OW15565   6.816   1.177   5.037
 4889SOL    HW115566   6.794   1.080   5.028
 4889SOL    HW215567   6.768   1.214   5.117
 4890SOL     OW15568   6.803   1.208   6.052
 4890SOL    HW115569   6.821   1.238   6.146
 4890SOL    HW215570   6.843   1.274   5.988
 4891SOL     OW15571   1.784   4.423   0.394
 4891SOL    HW115572   1.789   4.343   0.455
 4891SOL    HW215573   1.876   4.462   0.384
 4892SOL     OW15574   3.615   5.512   2.385
 4892SOL    HW115575   3.708   5.492   2.415
 4892SOL    HW215576   3.604   5.611   2.376
 4893SOL     OW15577   6.478   2.589   1.782
 4893SOL    HW115578   6.386   2.599   1.745
 4893SOL    HW215579   6.533   2.669   1.758
 4894SOL     OW15580   3.628   0.883   2.639
 4894SOL    HW115581   3.558   0.925   2.581
 4894SOL    HW215582   3.586   0.811   2.695
 4895SOL     OW15583   0.769   4.960   4.527
 4895SOL    HW115584   0.839   4.891   4.508
 4895SOL    HW215585   0.691   4.917   4.573
 4896SOL     OW15586   2.347   3.998   1.669
 4896SOL    HW115587   2.333   3.978   1.766
 4896SOL    HW215588   2.259   3.994   1.621
 4897SOL     OW15589   1.597   5.388   5.939
 4897SOL    HW115590   1.670   5.345   5.992
 4897SOL    HW215591   1.635   5.459   5.881
 4898SOL     OW15592   4.276   1.079   4.936
 4898SOL    HW115593   4.365   1.039   4.914
 4898SOL    HW215594   4.253   1.059   5.031
 4899SOL     OW15595   5.900   5.256   2.701
 4899SOL    HW115596   5.802   5.269   2.716
 4899SOL    HW215597   5.945   5.239   2.788
 4900SOL     OW15598   3.079   6.058   5.187
 4900SOL    HW115599   3.083   6.061   5.287
 4900SOL    HW215600   3.158   6.008   5.152
 4901SOL     OW15601   2.698   1.655   5.479
 4901SOL    HW115602   2.625   1.588   5.490
 4901SOL    HW215603   2.781   1.610   5.446
 4902SOL     OW15604   1.544   1.747   5.251
 4902SOL    HW115605   1.507   1.794   5.171
 4902SOL    HW215606   1.527   1.803   5.332
 4903SOL     OW15607   3.798   5.489   0.413
 4903SOL    HW115608   3.834   5.527   0.498
 4903SOL    HW215609   3.807   5.556   0.340
 4904SOL     OW15610   2.072   0.412   5.284
 4904SOL    HW115611   2.085   0.339   5.350
 4904SOL    HW215612   1.981   0.406   5.244
 4905SOL     OW15613   3.342   0.608   3.310
 4905SOL    HW115614   3.261   0.570   3.355
 4905SOL    HW215615   3.376   0.543   3.242
 4906SOL     OW15616   5.222   1.640   6.428
 4906SOL    HW115617   5.206   1.660   6.524
 4906SOL    HW215618   5.238   1.542   6.417
 4907SOL     OW15619   4.474   6.606   2.352
 4907SOL    HW115620   4.382   6.567   2.356
 4907SOL    HW215621   4.484   6.676   2.424
 4908SOL     OW15622   5.616   6.374   6.725
 4908SOL    HW115623   5.650   6.452   6.673
 4908SOL    HW215624   5.671   6.293   6.703
 4909SOL     OW15625   0.326   6.135   3.809
 4909SOL    HW115626   0.342   6.037   3.822
 4909SOL    HW215627   0.339   6.183   3.895
 4910SOL     OW15628   5.263   1.222   4.258
 4910SOL    HW115629   5.218   1.168   4.186
 4910SOL    HW215630   5.242   1.319   4.244
 4911SOL     OW15631   1.554   4.235   3.141
 4911SOL    HW115632   1.600   4.310   3.187
 4911SOL    HW215633   1.573   4.240   3.042
 4912SOL     OW15634   5.777   1.054   6.338
 4912SOL    HW115635   5.868   1.089   6.312
 4912SOL    HW215636   5.751   1.093   6.426
 4913SOL     OW15637   3.858   3.208   5.037
 4913SOL    HW115638   3.947   3.195   5.079
 4913SOL    HW215639   3.786   3.175   5.099
 4914SOL     OW15640   4.240   6.867   4.891
 4914SOL    HW115641   4.327   6.856   4.844
 4914SOL    HW215642   4.180   6.928   4.838
 4915SOL     OW15643   3.065   5.588   6.120
 4915SOL    HW115644   3.163   5.600   6.131
 4915SOL    HW215645   3.034   5.636   6.038
 4916SOL     OW15646   0.941   0.681   4.209
 4916SOL    HW115647   0.998   0.746   4.158
 4916SOL    HW215648   0.976   0.588   4.196
 4917SOL     OW15649   2.375   5.414   1.310
 4917SOL    HW115650   2.474   5.421   1.316
 4917SOL    HW215651   2.345   5.324   1.340
 4918SOL     OW15652   5.230   6.657   1.997
 4918SOL    HW115653   5.211   6.562   2.025
 4918SOL    HW215654   5.264   6.657   1.903
 4919SOL     OW15655   3.448   2.831   0.356
 4919SOL    HW115656   3.546   2.853   0.362
 4919SOL    HW215657   3.430   2.748   0.407
 4920SOL     OW15658   5.272   0.387   4.680
 4920SOL    HW115659   5.217   0.346   4.607
 4920SOL    HW215660   5.285   0.321   4.753
 4921SOL     OW15661   0.894   5.704   0.072
 4921SOL    HW115662   0.827   5.775   0.052
 4921SOL    HW215663   0.960   5.738   0.139
 4922SOL     OW15664   2.900   2.215   4.677
 4922SOL    HW115665   2.861   2.290   4.730
 4922SOL    HW215666   2.983   2.181   4.723
 4923SOL     OW15667   3.525   1.149   2.231
 4923SOL    HW115668   3.459   1.123   2.161
 4923SOL    HW215669   3.491   1.229   2.282
 4924SOL     OW15670   3.422   1.379   4.921
 4924SOL    HW115671   3.398   1.462   4.870
 4924SOL    HW215672   3.342   1.346   4.970
 4925SOL     OW15673   6.209   0.131   2.529
 4925SOL    HW115674   6.221   0.126   2.628
 4925SOL    HW215675   6.114   0.107   2.506
 4926SOL     OW15676   5.011   1.564   1.086
 4926SOL    HW115677   5.082   1.613   1.138
 4926SOL    HW215678   5.008   1.598   0.993
 4927SOL     OW15679   3.261   3.678   4.672
 4927SOL    HW115680   3.241   3.733   4.753
 4927SOL    HW215681   3.329   3.609   4.694
 4928SOL     OW15682   1.433   0.541   7.004
 4928SOL    HW115683   1.526   0.576   6.993
 4928SOL    HW215684   1.368   0.611   6.974
 4929SOL     OW15685   6.401   6.761   4.527
 4929SOL    HW115686   6.467   6.687   4.524
 4929SOL    HW215687   6.314   6.730   4.489
 4930SOL     OW15688   5.710   0.914   3.094
 4930SOL    HW115689   5.784   0.890   3.032
 4930SOL    HW215690   5.737   0.895   3.188
 4931SOL     OW15691   6.673   6.511   1.287
 4931SOL    HW115692   6.721   6.596   1.264
 4931SOL    HW215693   6.579   6.516   1.253
 4932SOL     OW15694   3.722   3.352   2.165
 4932SOL    HW115695   3.803   3.306   2.202
 4932SOL    HW215696   3.658   3.283   2.130
 4933SOL     OW15697   2.277   6.917   2.003
 4933SOL    HW115698   2.372   6.898   1.979
 4933SOL    HW215699   2.269   7.012   2.034
 4934SOL     OW15700   3.174   5.348   3.158
 4934SOL    HW115701   3.132   5.429   3.198
 4934SOL    HW215702   3.105   5.298   3.106
 4935SOL     OW15703   1.508   1.957   6.268
 4935SOL    HW115704   1.500   1.880   6.331
 4935SOL    HW215705   1.601   1.994   6.271
 4936SOL     OW15706   3.246   5.296   1.428
 4936SOL    HW115707   3.233   5.390   1.459
 4936SOL    HW215708   3.343   5.280   1.409
 4937SOL     OW15709   5.833   3.147   5.909
 4937SOL    HW115710   5.854   3.170   5.814
 4937SOL    HW215711   5.843   3.228   5.966
 4938SOL     OW15712   1.921   5.440   5.849
 4938SOL    HW115713   1.905   5.359   5.793
 4938SOL    HW215714   1.849   5.507   5.832
 4939SOL     OW15715   5.875   2.174   4.805
 4939SOL    HW115716   5.946   2.117   4.764
 4939SOL    HW215717   5.857   2.143   4.898
 4940SOL     OW15718   0.677   1.278   4.798
 4940SOL    HW115719   0.742   1.331   4.745
 4940SOL    HW215720   0.599   1.253   4.740
 4941SOL     OW15721   4.613   1.763   5.761
 4941SOL    HW115722   4.636   1.856   5.789
 4941SOL    HW215723   4.514   1.756   5.749
 4942SOL     OW15724   5.254   2.853   5.937
 4942SOL    HW115725   5.297   2.763   5.929
 4942SOL    HW215726   5.245   2.877   6.034
 4943SOL     OW15727   4.424   3.175   0.018
 4943SOL    HW115728   4.340   3.157   6.986
 4943SOL    HW215729   4.401   3.199   0.113
 4944SOL     OW15730   2.180   4.531   2.130
 4944SOL    HW115731   2.224   4.445   2.103
 4944SOL    HW215732   2.081   4.519   2.129
 4945SOL     OW15733   1.091   1.421   3.728
 4945SOL    HW115734   1.186   1.402   3.749
 4945SOL    HW215735   1.049   1.341   3.685
 4946SOL     OW15736   0.464   3.096   1.231
 4946SOL    HW115737   0.401   3.093   1.309
 4946SOL    HW215738   0.540   3.034   1.249
 4947SOL     OW15739   1.782   1.177   1.455
 4947SOL    HW115740   1.830   1.103   1.408
 4947SOL    HW215741   1.822   1.264   1.428
 4948SOL     OW15742   1.736   1.054   2.757
 4948SOL    HW115743   1.789   1.064   2.840
 4948SOL    HW215744   1.797   1.056   2.677
 4949SOL     OW15745   4.029   6.689   5.933
 4949SOL    HW115746   4.108   6.691   5.995
 4949SOL    HW215747   3.947   6.666   5.984
 4950SOL     OW15748   2.983   5.543   4.359
 4950SOL    HW115749   3.033   5.565   4.443
 4950SOL    HW215750   3.021   5.596   4.283
 4951SOL     OW15751   5.333   1.707   4.451
 4951SOL    HW115752   5.272   1.695   4.529
 4951SOL    HW215753   5.282   1.693   4.366
 4952SOL     OW15754   0.060   0.431   5.137
 4952SOL    HW115755   0.138   0.377   5.106
 4952SOL    HW215756   0.050   0.420   5.236
 4953SOL     OW15757   2.009   6.891   2.163
 4953SOL    HW115758   1.988   6.796   2.189
 4953SOL    HW215759   2.094   6.893   2.111
 4954SOL     OW15760   4.663   3.662   6.974
 4954SOL    HW115761   4.604   3.734   7.012
 4954SOL    HW215762   4.629   3.573   7.003
 4955SOL     OW15763   2.037   6.621   6.754
 4955SOL    HW115764   2.056   6.707   6.801
 4955SOL    HW215765   1.938   6.608   6.748
 4956SOL     OW15766   2.672   0.133   4.831
 4956SOL    HW115767   2.615   0.053   4.852
 4956SOL    HW215768   2.614   0.206   4.794
 4957SOL     OW15769   0.264   1.467   3.069
 4957SOL    HW115770   0.219   1.554   3.087
 4957SOL    HW215771   0.313   1.437   3.150
 4958SOL     OW15772   0.018   6.104   5.394
 4958SOL    HW115773   6.949   6.105   5.442
 4958SOL    HW215774   0.085   6.053   5.448
 4959SOL     OW15775   6.723   1.436   6.755
 4959SOL    HW115776   6.696   1.530   6.775
 4959SOL    HW215777   6.798   1.410   6.816
 4960SOL     OW15778   3.409   5.966   3.956
 4960SOL    HW115779   3.393   5.877   3.912
 4960SOL    HW215780   3.508   5.983   3.960
 4961SOL     OW15781   5.210   1.612   5.879
 4961SOL    HW115782   5.230   1.658   5.792
 4961SOL    HW215783   5.122   1.644   5.913
 4962SOL     OW15784   6.203   2.401   0.707
 4962SOL    HW115785   6.199   2.368   0.801
 4962SOL    HW215786   6.275   2.352   0.658
 4963SOL     OW15787   6.535   6.070   0.190
 4963SOL    HW115788   6.626   6.043   0.161
 4963SOL    HW215789   6.540   6.152   0.247
 4964SOL     OW15790   3.657   6.889   3.523
 4964SOL    HW115791   3.603   6.883   3.607
 4964SOL    HW215792   3.746   6.846   3.538
 4965SOL     OW15793   0.075   0.316   3.706
 4965SOL    HW115794   0.050   0.311   3.609
 4965SOL    HW215795   0.098   0.225   3.739
 4966SOL     OW15796   1.714   0.338   5.225
 4966SOL    HW115797   1.643   0.330   5.295
 4966SOL    HW215798   1.780   0.264   5.238
 4967SOL     OW15799   4.080   3.325   5.436
 4967SOL    HW115800   4.061   3.352   5.531
 4967SOL    HW215801   3.996   3.289   5.394
 4968SOL     OW15802   5.765   2.953   3.201
 4968SOL    HW115803   5.713   3.036   3.178
 4968SOL    HW215804   5.842   2.977   3.261
 4969SOL     OW15805   2.115   1.157   2.019
 4969SOL    HW115806   2.176   1.231   1.988
 4969SOL    HW215807   2.065   1.188   2.100
 4970SOL     OW15808   1.768   2.379   4.534
 4970SOL    HW115809   1.795   2.296   4.584
 4970SOL    HW215810   1.736   2.448   4.599
 4971SOL     OW15811   6.094   6.078   3.621
 4971SOL    HW115812   6.090   6.122   3.531
 4971SOL    HW215813   6.189   6.076   3.653
 4972SOL     OW15814   1.347   3.118   0.573
 4972SOL    HW115815   1.342   3.066   0.658
 4972SOL    HW215816   1.429   3.091   0.522
 4973SOL     OW15817   6.929   0.025   2.004
 4973SOL    HW115818   6.898   0.015   2.099
 4973SOL    HW215819   6.867   0.087   1.956
 4974SOL     OW15820   6.312   4.547   0.828
 4974SOL    HW115821   6.245   4.602   0.779
 4974SOL    HW215822   6.274   4.457   0.847
 4975SOL     OW15823   5.359   5.439   6.308
 4975SOL    HW115824   5.360   5.536   6.281
 4975SOL    HW215825   5.373   5.433   6.407
 4976SOL     OW15826   3.101   0.174   4.893
 4976SOL    HW115827   3.050   0.143   4.813
 4976SOL    HW215828   3.044   0.165   4.975
 4977SOL     OW15829   4.806   4.350   0.595
 4977SOL    HW115830   4.765   4.267   0.558
 4977SOL    HW215831   4.828   4.337   0.692
 4978SOL     OW15832   6.735   3.460   5.495
 4978SOL    HW115833   6.794   3.531   5.458
 4978SOL    HW215834   6.787   3.375   5.504
 4979SOL     OW15835   0.049   1.275   5.140
 4979SOL    HW115836   0.071   1.212   5.214
 4979SOL    HW215837   6.985   1.244   5.092
 4980SOL     OW15838   4.543   0.440   3.265
 4980SOL    HW115839   4.487   0.484   3.335
 4980SOL    HW215840   4.560   0.504   3.190
 4981SOL     OW15841   4.537   5.792   6.159
 4981SOL    HW115842   4.555   5.885   6.128
 4981SOL    HW215843   4.542   5.729   6.081
 4982SOL     OW15844   1.902   2.187   6.917
 4982SOL    HW115845   1.885   2.270   6.864
 4982SOL    HW215846   1.863   2.108   6.868
 4983SOL     OW15847   5.089   2.928   4.189
 4983SOL    HW115848   5.132   2.912   4.278
 4983SOL    HW215849   5.076   2.841   4.142
 4984SOL     OW15850   5.449   3.880   4.366
 4984SOL    HW115851   5.392   3.919   4.295
 4984SOL    HW215852   5.497   3.954   4.415
 4985SOL     OW15853   6.443   6.103   3.456
 4985SOL    HW115854   6.377   6.162   3.410
 4985SOL    HW215855   6.459   6.021   3.400
 4986SOL     OW15856   6.870   4.022   3.102
 4986SOL    HW115857   6.810   4.010   3.023
 4986SOL    HW215858   6.814   4.031   3.185
 4987SOL     OW15859   0.720   2.420   1.520
 4987SOL    HW115860   0.670   2.372   1.448
 4987SOL    HW215861   0.801   2.368   1.545
 4988SOL     OW15862   6.496   1.890   3.410
 4988SOL    HW115863   6.492   1.873   3.312
 4988SOL    HW215864   6.462   1.982   3.429
 4989SOL     OW15865   5.298   1.011   1.010
 4989SOL    HW115866   5.284   1.075   0.934
 4989SOL    HW215867   5.210   0.994   1.055
 4990SOL     OW15868   1.705   1.539   6.080
 4990SOL    HW115869   1.762   1.488   6.144
 4990SOL    HW215870   1.759   1.562   5.999
 4991SOL     OW15871   0.768   3.640   4.138
 4991SOL    HW115872   0.753   3.672   4.232
 4991SOL    HW215873   0.743   3.713   4.074
 4992SOL     OW15874   5.119   1.112   4.036
 4992SOL    HW115875   5.190   1.060   3.989
 4992SOL    HW215876   5.078   1.056   4.108
 4993SOL     OW15877   3.466   5.602   4.119
 4993SOL    HW115878   3.402   5.535   4.156
 4993SOL    HW215879   3.436   5.630   4.028
 4994SOL     OW15880   1.451   0.314   2.075
 4994SOL    HW115881   1.425   0.295   2.170
 4994SOL    HW215882   1.549   0.297   2.063
 4995SOL     OW15883   6.629   2.434   5.978
 4995SOL    HW115884   6.549   2.493   5.979
 4995SOL    HW215885   6.625   2.371   6.056
 4996SOL     OW15886   1.338   1.193   2.727
 4996SOL    HW115887   1.430   1.231   2.720
 4996SOL    HW215888   1.272   1.268   2.735
 4997SOL     OW15889   5.994   2.049   2.663
 4997SOL    HW115890   6.045   2.096   2.735
 4997SOL    HW215891   6.058   2.019   2.592
 4998SOL     OW15892   2.129   3.922   4.844
 4998SOL    HW115893   2.206   3.927   4.907
 4998SOL    HW215894   2.043   3.932   4.895
 4999SOL     OW15895   5.710   5.346   0.964
 4999SOL    HW115896   5.633   5.324   0.904
 4999SOL    HW215897   5.781   5.392   0.910
 5000SOL     OW15898   1.329   0.250   4.183
 5000SOL    HW115899   1.275   0.251   4.268
 5000SOL    HW215900   1.374   0.338   4.172
 5001SOL     OW15901   1.314   3.924   6.082
 5001SOL    HW115902   1.308   4.024   6.073
 5001SOL    HW215903   1.298   3.898   6.177
 5002SOL     OW15904   1.316   3.288   2.983
 5002SOL    HW115905   1.305   3.382   3.015
 5002SOL    HW215906   1.406   3.278   2.941
 5003SOL     OW15907   1.663   6.335   3.247
 5003SOL    HW115908   1.642   6.422   3.292
 5003SOL    HW215909   1.759   6.333   3.221
 5004SOL     OW15910   2.903   5.033   5.294
 5004SOL    HW115911   2.836   5.046   5.220
 5004SOL    HW215912   2.959   4.953   5.275
 5005SOL     OW15913   3.300   2.649   0.738
 5005SOL    HW115914   3.292   2.748   0.731
 5005SOL    HW215915   3.350   2.613   0.659
 5006SOL     OW15916   5.347   6.410   6.764
 5006SOL    HW115917   5.443   6.382   6.763
 5006SOL    HW215918   5.330   6.473   6.688
 5007SOL     OW15919   2.084   0.174   6.739
 5007SOL    HW115920   2.044   0.190   6.829
 5007SOL    HW215921   2.011   0.151   6.674
 5008SOL     OW15922   6.625   0.655   3.795
 5008SOL    HW115923   6.671   0.566   3.785
 5008SOL    HW215924   6.692   0.724   3.822
 5009SOL     OW15925   2.140   6.664   1.903
 5009SOL    HW115926   2.210   6.733   1.884
 5009SOL    HW215927   2.145   6.591   1.835
 5010SOL     OW15928   3.277   2.906   3.477
 5010SOL    HW115929   3.248   2.998   3.450
 5010SOL    HW215930   3.199   2.844   3.469
 5011SOL     OW15931   1.982   3.668   2.003
 5011SOL    HW115932   1.896   3.618   1.992
 5011SOL    HW215933   2.059   3.605   1.992
 5012SOL     OW15934   4.909   3.281   6.051
 5012SOL    HW115935   4.909   3.209   5.981
 5012SOL    HW215936   4.907   3.240   6.142
 5013SOL     OW15937   5.499   1.604   6.929
 5013SOL    HW115938   5.466   1.567   6.842
 5013SOL    HW215939   5.554   1.685   6.912
 5014SOL     OW15940   5.475   4.713   0.256
 5014SOL    HW115941   5.438   4.709   0.349
 5014SOL    HW215942   5.404   4.746   0.193
 5015SOL     OW15943   4.591   2.191   3.977
 5015SOL    HW115944   4.516   2.246   4.013
 5015SOL    HW215945   4.641   2.244   3.909
 5016SOL     OW15946   2.784   1.712   1.785
 5016SOL    HW115947   2.868   1.766   1.781
 5016SOL    HW215948   2.750   1.697   1.692
 5017SOL     OW15949   2.286   1.968   0.298
 5017SOL    HW115950   2.370   1.946   0.248
 5017SOL    HW215951   2.248   2.054   0.262
 5018SOL     OW15952   0.973   4.692   1.309
 5018SOL    HW115953   0.973   4.788   1.282
 5018SOL    HW215954   0.973   4.686   1.409
 5019SOL     OW15955   2.392   4.305   0.187
 5019SOL    HW115956   2.304   4.292   0.143
 5019SOL    HW215957   2.379   4.323   0.284
 5020SOL     OW15958   4.485   6.220   5.660
 5020SOL    HW115959   4.421   6.280   5.611
 5020SOL    HW215960   4.456   6.125   5.650
 5021SOL     OW15961   1.650   2.908   5.442
 5021SOL    HW115962   1.612   2.818   5.423
 5021SOL    HW215963   1.589   2.978   5.406
 5022SOL     OW15964   1.927   0.468   0.855
 5022SOL    HW115965   1.840   0.434   0.820
 5022SOL    HW215966   1.968   0.399   0.915
 5023SOL     OW15967   6.572   3.051   1.436
 5023SOL    HW115968   6.646   3.069   1.370
 5023SOL    HW215969   6.489   3.026   1.386
 5024SOL     OW15970   6.823   4.126   2.701
 5024SOL    HW115971   6.837   4.225   2.692
 5024SOL    HW215972   6.899   4.077   2.658
 5025SOL     OW15973   4.041   1.685   1.831
 5025SOL    HW115974   3.942   1.699   1.823
 5025SOL    HW215975   4.088   1.739   1.761
 5026SOL     OW15976   5.686   5.695   6.588
 5026SOL    HW115977   5.646   5.784   6.609
 5026SOL    HW215978   5.683   5.679   6.489
 5027SOL     OW15979   0.441   0.182   1.925
 5027SOL    HW115980   0.487   0.132   1.998
 5027SOL    HW215981   0.380   0.121   1.875
 5028SOL     OW15982   0.078   0.006   2.710
 5028SOL    HW115983   0.174   0.027   2.692
 5028SOL    HW215984   0.020   0.050   2.642
 5029SOL     OW15985   6.387   3.111   3.809
 5029SOL    HW115986   6.459   3.042   3.815
 5029SOL    HW215987   6.332   3.109   3.893
 5030SOL     OW15988   6.538   0.463   6.936
 5030SOL    HW115989   6.607   0.534   6.921
 5030SOL    HW215990   6.552   0.388   6.871
 5031SOL     OW15991   5.647   1.441   5.088
 5031SOL    HW115992   5.597   1.515   5.043
 5031SOL    HW215993   5.587   1.396   5.154
 5032SOL     OW15994   0.901   3.976   1.379
 5032SOL    HW115995   0.901   3.920   1.296
 5032SOL    HW215996   0.854   4.063   1.360
 5033SOL     OW15997   1.664   4.836   6.637
 5033SOL    HW115998   1.611   4.822   6.553
 5033SOL    HW215999   1.607   4.816   6.717
 5034SOL     OW16000   6.696   3.059   2.591
 5034SOL    HW116001   6.658   3.147   2.621
 5034SOL    HW216002   6.762   3.026   2.659
 5035SOL     OW16003   5.963   4.441   0.501
 5035SOL    HW116004   6.003   4.494   0.576
 5035SOL    HW216005   5.898   4.498   0.451
 5036SOL     OW16006   0.480   5.158   6.660
 5036SOL    HW116007   0.398   5.185   6.711
 5036SOL    HW216008   0.560   5.163   6.720
 5037SOL     OW16009   4.573   2.546   2.224
 5037SOL    HW116010   4.521   2.534   2.139
 5037SOL    HW216011   4.637   2.622   2.213
 5038SOL     OW16012   1.919   5.179   5.760
 5038SOL    HW116013   1.867   5.151   5.679
 5038SOL    HW216014   1.993   5.115   5.777
 5039SOL     OW16015   1.973   3.777   5.147
 5039SOL    HW116016   2.044   3.828   5.196
 5039SOL    HW216017   2.014   3.698   5.101
 5040SOL     OW16018   2.231   4.179   6.304
 5040SOL    HW116019   2.287   4.234   6.366
 5040SOL    HW216020   2.237   4.083   6.331
 5041SOL     OW16021   0.967   3.836   1.171
 5041SOL    HW116022   1.008   3.747   1.191
 5041SOL    HW216023   1.022   3.883   1.102
 5042SOL     OW16024   0.102   3.060   6.887
 5042SOL    HW116025   0.063   3.014   6.967
 5042SOL    HW216026   0.035   3.057   6.812
 5043SOL     OW16027   3.271   0.829   5.452
 5043SOL    HW116028   3.355   0.873   5.419
 5043SOL    HW216029   3.196   0.895   5.453
 5044SOL     OW16030   6.026   6.964   3.167
 5044SOL    HW116031   5.957   6.912   3.217
 5044SOL    HW216032   6.064   6.907   3.094
 5045SOL     OW16033   5.442   3.087   0.147
 5045SOL    HW116034   5.495   3.007   0.119
 5045SOL    HW216035   5.429   3.085   0.246
 5046SOL     OW16036   4.168   3.428   4.729
 5046SOL    HW116037   4.246   3.388   4.778
 5046SOL    HW216038   4.147   3.518   4.769
 5047SOL     OW16039   7.006   2.238   2.442
 5047SOL    HW116040   0.078   2.196   2.428
 5047SOL    HW216041   6.954   2.234   2.358
 5048SOL     OW16042   6.608   2.305   1.300
 5048SOL    HW116043   6.675   2.360   1.249
 5048SOL    HW216044   6.577   2.357   1.380
 5049SOL     OW16045   0.010   1.116   3.606
 5049SOL    HW116046   0.070   1.196   3.606
 5049SOL    HW216047   6.962   1.124   3.681
 5050SOL     OW16048   0.505   1.634   2.047
 5050SOL    HW116049   0.532   1.727   2.072
 5050SOL    HW216050   0.580   1.571   2.068
 5051SOL     OW16051   4.228   3.502   0.589
 5051SOL    HW116052   4.234   3.404   0.608
 5051SOL    HW216053   4.261   3.553   0.669
 5052SOL     OW16054   2.635   5.136   5.995
 5052SOL    HW116055   2.544   5.177   5.985
 5052SOL    HW216056   2.699   5.182   5.935
 5053SOL     OW16057   1.903   4.129   3.408
 5053SOL    HW116058   1.959   4.070   3.466
 5053SOL    HW216059   1.949   4.217   3.395
 5054SOL     OW16060   3.852   5.522   4.970
 5054SOL    HW116061   3.833   5.442   4.914
 5054SOL    HW216062   3.890   5.493   5.059
 5055SOL     OW16063   0.078   1.466   4.778
 5055SOL    HW116064   0.029   1.379   4.772
 5055SOL    HW216065   0.151   1.458   4.847
 5056SOL     OW16066   6.256   4.092   6.738
 5056SOL    HW116067   6.244   4.042   6.824
 5056SOL    HW216068   6.179   4.153   6.723
 5057SOL     OW16069   1.079   5.415   3.732
 5057SOL    HW116070   1.153   5.375   3.786
 5057SOL    HW216071   1.118   5.476   3.662
 5058SOL     OW16072   2.662   3.466   6.628
 5058SOL    HW116073   2.648   3.517   6.543
 5058SOL    HW216074   2.732   3.512   6.683
 5059SOL     OW16075   5.485   3.163   4.689
 5059SOL    HW116076   5.504   3.208   4.776
 5059SOL    HW216077   5.490   3.229   4.615
 5060SOL     OW16078   0.129   2.567   5.377
 5060SOL    HW116079   0.153   2.589   5.283
 5060SOL    HW216080   0.043   2.613   5.401
 5061SOL     OW16081   3.015   3.356   3.501
 5061SOL    HW116082   3.048   3.262   3.496
 5061SOL    HW216083   3.024   3.399   3.411
 5062SOL     OW16084   5.717   1.125   2.374
 5062SOL    HW116085   5.756   1.148   2.285
 5062SOL    HW216086   5.770   1.169   2.446
 5063SOL     OW16087   1.196   6.021   1.896
 5063SOL    HW116088   1.118   6.079   1.919
 5063SOL    HW216089   1.186   5.988   1.802
 5064SOL     OW16090   4.912   5.335   1.172
 5064SOL    HW116091   4.986   5.313   1.235
 5064SOL    HW216092   4.862   5.415   1.206
 5065SOL     OW16093   1.487   0.964   2.779
 5065SOL    HW116094   1.421   1.038   2.791
 5065SOL    HW216095   1.578   1.001   2.764
 5066SOL     OW16096   2.613   4.424   1.714
 5066SOL    HW116097   2.606   4.371   1.630
 5066SOL    HW216098   2.709   4.440   1.736
 5067SOL     OW16099   4.578   1.440   2.805
 5067SOL    HW116100   4.599   1.502   2.881
 5067SOL    HW216101   4.556   1.349   2.840
 5068SOL     OW16102   3.164   5.361   0.021
 5068SOL    HW116103   3.215   5.393   6.959
 5068SOL    HW216104   3.115   5.277   7.017
 5069SOL     OW16105   2.351   3.250   6.099
 5069SOL    HW116106   2.310   3.335   6.066
 5069SOL    HW216107   2.382   3.262   6.193
 5070SOL     OW16108   5.768   4.103   4.715
 5070SOL    HW116109   5.737   4.195   4.740
 5070SOL    HW216110   5.842   4.075   4.776
 5071SOL     OW16111   4.186   2.185   3.372
 5071SOL    HW116112   4.232   2.271   3.353
 5071SOL    HW216113   4.121   2.198   3.448
 5072SOL     OW16114   1.716   1.480   1.391
 5072SOL    HW116115   1.807   1.439   1.381
 5072SOL    HW216116   1.702   1.507   1.486
 5073SOL     OW16117   1.429   5.312   1.520
 5073SOL    HW116118   1.442   5.396   1.572
 5073SOL    HW216119   1.482   5.238   1.562
 5074SOL     OW16120   4.212   2.335   1.546
 5074SOL    HW116121   4.273   2.330   1.624
 5074SOL    HW216122   4.239   2.268   1.477
 5075SOL     OW16123   1.070   2.235   6.880
 5075SOL    HW116124   1.116   2.319   6.910
 5075SOL    HW216125   1.083   2.164   6.949
 5076SOL     OW16126   5.638   6.912   0.067
 5076SOL    HW116127   5.570   6.879   0.002
 5076SOL    HW216128   5.689   6.988   0.026
 5077SOL     OW16129   0.261   3.928   6.243
 5077SOL    HW116130   0.254   3.970   6.152
 5077SOL    HW216131   0.175   3.882   6.264
 5078SOL     OW16132   0.374   0.774   4.183
 5078SOL    HW116133   0.462   0.758   4.139
 5078SOL    HW216134   0.315   0.827   4.122
 5079SOL     OW16135   2.413   2.701   5.792
 5079SOL    HW116136   2.434   2.738   5.883
 5079SOL    HW216137   2.365   2.614   5.801
 5080SOL     OW16138   5.720   5.710   5.261
 5080SOL    HW116139   5.776   5.791   5.282
 5080SOL    HW216140   5.624   5.729   5.282
 5081SOL     OW16141   2.939   4.641   5.675
 5081SOL    HW116142   2.914   4.731   5.709
 5081SOL    HW216143   2.906   4.630   5.581
 5082SOL     OW16144   5.218   6.538   0.445
 5082SOL    HW116145   5.292   6.601   0.424
 5082SOL    HW216146   5.256   6.450   0.473
 5083SOL     OW16147   3.494   0.512   1.617
 5083SOL    HW116148   3.399   0.529   1.592
 5083SOL    HW216149   3.497   0.458   1.702
 5084SOL     OW16150   0.438   4.999   4.283
 5084SOL    HW116151   0.416   4.958   4.195
 5084SOL    HW216152   0.525   5.048   4.276
 5085SOL     OW16153   0.818   3.193   5.639
 5085SOL    HW116154   0.836   3.274   5.582
 5085SOL    HW216155   0.900   3.136   5.642
 5086SOL     OW16156   1.119   3.912   2.291
 5086SOL    HW116157   1.125   3.939   2.387
 5086SOL    HW216158   1.081   3.988   2.237
 5087SOL     OW16159   6.589   5.455   1.744
 5087SOL    HW116160   6.548   5.538   1.706
 5087SOL    HW216161   6.526   5.415   1.810
 5088SOL     OW16162   4.898   6.944   3.564
 5088SOL    HW116163   4.839   6.995   3.627
 5088SOL    HW216164   4.960   7.008   3.517
 5089SOL     OW16165   6.004   4.727   4.511
 5089SOL    HW116166   6.034   4.652   4.570
 5089SOL    HW216167   6.040   4.714   4.419
 5090SOL     OW16168   2.175   1.473   2.559
 5090SOL    HW116169   2.242   1.537   2.596
 5090SOL    HW216170   2.223   1.393   2.522
 5091SOL     OW16171   6.515   0.397   1.258
 5091SOL    HW116172   6.458   0.387   1.339
 5091SOL    HW216173   6.500   0.319   1.197
 5092SOL     OW16174   3.602   2.925   3.269
 5092SOL    HW116175   3.695   2.961   3.272
 5092SOL    HW216176   3.570   2.907   3.361
 5093SOL     OW16177   3.462   1.355   0.652
 5093SOL    HW116178   3.449   1.274   0.596
 5093SOL    HW216179   3.480   1.434   0.594
 5094SOL     OW16180   1.846   5.851   6.492
 5094SOL    HW116181   1.801   5.845   6.581
 5094SOL    HW216182   1.785   5.897   6.427
 5095SOL     OW16183   0.365   2.264   3.557
 5095SOL    HW116184   0.348   2.361   3.540
 5095SOL    HW216185   0.295   2.210   3.511
 5096SOL     OW16186   4.636   4.994   6.323
 5096SOL    HW116187   4.579   5.041   6.390
 5096SOL    HW216188   4.713   4.950   6.369
 5097SOL     OW16189   7.007   6.691   6.954
 5097SOL    HW116190   6.971   6.781   6.979
 5097SOL    HW216191   0.089   6.695   6.953
 5098SOL     OW16192   3.549   1.360   1.429
 5098SOL    HW116193   3.604   1.302   1.489
 5098SOL    HW216194   3.454   1.359   1.458
 5099SOL     OW16195   0.252   6.349   2.204
 5099SOL    HW116196   0.174   6.302   2.164
 5099SOL    HW216197   0.332   6.336   2.145
 5100SOL     OW16198   3.502   5.376   4.385
 5100SOL    HW116199   3.526   5.347   4.292
 5100SOL    HW216200   3.478   5.295   4.439
 5101SOL     OW16201   4.357   0.037   5.680
 5101SOL    HW116202   4.310   6.979   5.634
 5101SOL    HW216203   4.450   0.010   5.702
 5102SOL     OW16204   5.444   6.760   4.199
 5102SOL    HW116205   5.353   6.718   4.205
 5102SOL    HW216206   5.434   6.860   4.196
 5103SOL     OW16207   1.242   1.798   4.336
 5103SOL    HW116208   1.238   1.702   4.310
 5103SOL    HW216209   1.156   1.843   4.309
 5104SOL     OW16210   2.846   6.490   1.888
 5104SOL    HW116211   2.762   6.520   1.934
 5104SOL    HW216212   2.900   6.569   1.861
 5105SOL     OW16213   3.266   2.809   6.668
 5105SOL    HW116214   3.235   2.854   6.585
 5105SOL    HW216215   3.324   2.871   6.721
 5106SOL     OW16216   4.261   1.179   1.592
 5106SOL    HW116217   4.272   1.185   1.691
 5106SOL    HW216218   4.323   1.243   1.547
 5107SOL     OW16219   4.812   2.465   1.559
 5107SOL    HW116220   4.787   2.517   1.477
 5107SOL    HW216221   4.732   2.415   1.592
 5108SOL     OW16222   4.107   3.641   4.941
 5108SOL    HW116223   4.070   3.732   4.927
 5108SOL    HW216224   4.035   3.579   4.972
 5109SOL     OW16225   1.273   2.166   0.322
 5109SOL    HW116226   1.173   2.173   0.330
 5109SOL    HW216227   1.308   2.109   0.396
 5110SOL     OW16228   0.863   0.912   6.320
 5110SOL    HW116229   0.800   0.837   6.336
 5110SOL    HW216230   0.811   0.998   6.312
 5111SOL     OW16231   1.495   0.040   4.192
 5111SOL    HW116232   1.419   0.104   4.201
 5111SOL    HW216233   1.562   0.077   4.127
 5112SOL     OW16234   0.673   0.317   2.644
 5112SOL    HW116235   0.612   0.386   2.606
 5112SOL    HW216236   0.686   0.243   2.577
 5113SOL     OW16237   1.387   5.912   1.512
 5113SOL    HW116238   1.339   5.825   1.504
 5113SOL    HW216239   1.321   5.986   1.525
 5114SOL     OW16240   3.661   6.706   6.968
 5114SOL    HW116241   3.703   6.623   6.932
 5114SOL    HW216242   3.717   6.743   0.024
 5115SOL     OW16243   1.377   4.827   2.939
 5115SOL    HW116244   1.352   4.754   3.003
 5115SOL    HW216245   1.438   4.790   2.869
 5116SOL     OW16246   1.022   6.579   1.073
 5116SOL    HW116247   1.099   6.643   1.073
 5116SOL    HW216248   0.995   6.558   0.979
 5117SOL     OW16249   0.593   3.764   3.907
 5117SOL    HW116250   0.552   3.771   3.816
 5117SOL    HW216251   0.574   3.674   3.946
 5118SOL     OW16252   5.278   0.745   6.990
 5118SOL    HW116253   5.287   0.800   6.907
 5118SOL    HW216254   5.368   0.721   0.006
 5119SOL     OW16255   4.702   0.915   2.440
 5119SOL    HW116256   4.719   1.014   2.436
 5119SOL    HW216257   4.730   0.880   2.529
 5120SOL     OW16258   4.336   6.770   5.125
 5120SOL    HW116259   4.412   6.828   5.153
 5120SOL    HW216260   4.298   6.805   5.039
 5121SOL     OW16261   3.518   2.933   6.773
 5121SOL    HW116262   3.505   2.965   6.867
 5121SOL    HW216263   3.531   3.012   6.713
 5122SOL     OW16264   3.245   6.084   3.141
 5122SOL    HW116265   3.314   6.018   3.112
 5122SOL    HW216266   3.284   6.144   3.211
 5123SOL     OW16267   5.604   1.996   4.327
 5123SOL    HW116268   5.644   2.035   4.410
 5123SOL    HW216269   5.509   2.025   4.319
 5124SOL     OW16270   2.047   5.860   4.242
 5124SOL    HW116271   1.999   5.915   4.310
 5124SOL    HW216272   2.019   5.764   4.250
 5125SOL     OW16273   6.448   2.596   3.110
 5125SOL    HW116274   6.526   2.545   3.073
 5125SOL    HW216275   6.416   2.661   3.041
 5126SOL     OW16276   0.029   5.884   0.126
 5126SOL    HW116277   0.022   5.830   0.210
 5126SOL    HW216278   6.996   5.840   0.053
 5127SOL     OW16279   6.999   3.961   6.825
 5127SOL    HW116280   6.950   3.922   6.746
 5127SOL    HW216281   0.038   4.036   6.794
 5128SOL     OW16282   0.385   6.765   0.223
 5128SOL    HW116283   0.472   6.812   0.206
 5128SOL    HW216284   0.402   6.675   0.263
 5129SOL     OW16285   6.187   6.899   2.951
 5129SOL    HW116286   6.186   6.832   2.877
 5129SOL    HW216287   6.161   6.989   2.915
 5130SOL     OW16288   0.058   5.539   2.592
 5130SOL    HW116289   0.079   5.557   2.688
 5130SOL    HW216290   7.014   5.610   2.559
 5131SOL     OW16291   2.019   3.846   4.413
 5131SOL    HW116292   2.071   3.844   4.328
 5131SOL    HW216293   1.921   3.835   4.393
 5132SOL     OW16294   4.060   2.481   5.989
 5132SOL    HW116295   4.150   2.505   6.027
 5132SOL    HW216296   3.998   2.558   6.000
 5133SOL     OW16297   1.601   4.968   0.107
 5133SOL    HW116298   1.582   4.984   0.204
 5133SOL    HW216299   1.520   4.990   0.053
 5134SOL     OW16300   6.715   2.890   2.193
 5134SOL    HW116301   6.691   2.822   2.263
 5134SOL    HW216302   6.738   2.976   2.237
 5135SOL     OW16303   6.182   2.438   5.356
 5135SOL    HW116304   6.114   2.381   5.311
 5135SOL    HW216305   6.138   2.495   5.425
 5136SOL     OW16306   4.766   0.459   6.550
 5136SOL    HW116307   4.751   0.360   6.556
 5136SOL    HW216308   4.840   0.477   6.485
 5137SOL     OW16309   5.834   3.276   6.428
 5137SOL    HW116310   5.780   3.334   6.489
 5137SOL    HW216311   5.802   3.182   6.435
 5138SOL     OW16312   2.726   2.478   5.977
 5138SOL    HW116313   2.718   2.448   5.882
 5138SOL    HW216314   2.806   2.435   6.019
 5139SOL     OW16315   1.556   6.927   2.937
 5139SOL    HW116316   1.617   6.921   2.857
 5139SOL    HW216317   1.462   6.910   2.908
 5140SOL     OW16318   3.657   1.824   0.149
 5140SOL    HW116319   3.565   1.786   0.137
 5140SOL    HW216320   3.652   1.923   0.150
 5141SOL     OW16321   6.460   3.904   0.599
 5141SOL    HW116322   6.547   3.905   0.549
 5141SOL    HW216323   6.473   3.859   0.687
 5142SOL     OW16324   5.938   0.853   4.046
 5142SOL    HW116325   5.956   0.851   4.144
 5142SOL    HW216326   5.975   0.938   4.007
 5143SOL     OW16327   0.211   4.363   3.748
 5143SOL    HW116328   0.194   4.386   3.652
 5143SOL    HW216329   0.124   4.346   3.794
 5144SOL     OW16330   1.068   4.678   6.220
 5144SOL    HW116331   1.150   4.630   6.190
 5144SOL    HW216332   1.089   4.775   6.231
 5145SOL     OW16333   2.060   4.477   5.672
 5145SOL    HW116334   2.110   4.528   5.602
 5145SOL    HW216335   2.088   4.381   5.669
 5146SOL     OW16336   4.001   4.121   5.336
 5146SOL    HW116337   3.932   4.165   5.278
 5146SOL    HW216338   3.986   4.022   5.337
 5147SOL     OW16339   0.123   4.418   2.566
 5147SOL    HW116340   0.157   4.506   2.599
 5147SOL    HW216341   0.178   4.388   2.488
 5148SOL     OW16342   0.875   6.589   1.413
 5148SOL    HW116343   0.974   6.601   1.421
 5148SOL    HW216344   0.833   6.604   1.503
 5149SOL     OW16345   6.473   5.898   4.242
 5149SOL    HW116346   6.425   5.817   4.276
 5149SOL    HW216347   6.408   5.958   4.196
 5150SOL     OW16348   2.449   4.789   2.639
 5150SOL    HW116349   2.484   4.872   2.683
 5150SOL    HW216350   2.353   4.777   2.663
 5151SOL     OW16351   4.704   1.746   0.599
 5151SOL    HW116352   4.710   1.833   0.648
 5151SOL    HW216353   4.644   1.757   0.520
 5152SOL     OW16354   2.177   4.188   6.957
 5152SOL    HW116355   2.239   4.156   6.886
 5152SOL    HW216356   2.120   4.262   6.921
 5153SOL     OW16357   2.549   0.403   6.887
 5153SOL    HW116358   2.460   0.417   6.842
 5153SOL    HW216359   2.538   0.337   6.961
 5154SOL     OW16360   1.757   2.859   6.334
 5154SOL    HW116361   1.854   2.879   6.320
 5154SOL    HW216362   1.703   2.908   6.266
 5155SOL     OW16363   3.574   0.182   2.836
 5155SOL    HW116364   3.621   0.114   2.780
 5155SOL    HW216365   3.633   0.209   2.912
 5156SOL     OW16366   6.956   3.124   6.030
 5156SOL    HW116367   0.037   3.128   6.044
 5156SOL    HW216368   6.931   3.186   5.956
 5157SOL     OW16369   4.253   2.230   3.736
 5157SOL    HW116370   4.181   2.247   3.668
 5157SOL    HW216371   4.282   2.135   3.731
 5158SOL     OW16372   3.891   1.319   1.163
 5158SOL    HW116373   3.839   1.234   1.159
 5158SOL    HW216374   3.946   1.322   1.246
 5159SOL     OW16375   0.288   3.129   4.077
 5159SOL    HW116376   0.314   3.160   3.986
 5159SOL    HW216377   0.314   3.198   4.145
 5160SOL     OW16378   0.473   4.525   3.609
 5160SOL    HW116379   0.514   4.468   3.680
 5160SOL    HW216380   0.427   4.603   3.651
 5161SOL     OW16381   1.422   3.562   4.405
 5161SOL    HW116382   1.468   3.596   4.323
 5161SOL    HW216383   1.486   3.509   4.460
 5162SOL     OW16384   1.286   4.749   3.958
 5162SOL    HW116385   1.314   4.683   3.889
 5162SOL    HW216386   1.364   4.773   4.016
 5163SOL     OW16387   4.306   5.679   1.100
 5163SOL    HW116388   4.234   5.615   1.072
 5163SOL    HW216389   4.304   5.690   1.199
 5164SOL     OW16390   4.540   2.376   6.437
 5164SOL    HW116391   4.532   2.475   6.430
 5164SOL    HW216392   4.450   2.334   6.423
 5165SOL     OW16393   6.008   3.821   5.274
 5165SOL    HW116394   6.009   3.833   5.373
 5165SOL    HW216395   5.931   3.871   5.235
 5166SOL     OW16396   0.412   5.820   2.490
 5166SOL    HW116397   0.476   5.787   2.560
 5166SOL    HW216398   0.394   5.746   2.424
 5167SOL     OW16399   6.333   6.083   5.402
 5167SOL    HW116400   6.241   6.063   5.436
 5167SOL    HW216401   6.366   6.168   5.442
 5168SOL     OW16402   5.227   3.515   3.499
 5168SOL    HW116403   5.146   3.457   3.507
 5168SOL    HW216404   5.297   3.484   3.563
 5169SOL     OW16405   4.278   1.783   5.084
 5169SOL    HW116406   4.366   1.829   5.094
 5169SOL    HW216407   4.205   1.851   5.085
 5170SOL     OW16408   0.518   4.021   5.333
 5170SOL    HW116409   0.560   3.981   5.415
 5170SOL    HW216410   0.422   4.041   5.351
 5171SOL     OW16411   1.756   5.554   3.829
 5171SOL    HW116412   1.727   5.521   3.919
 5171SOL    HW216413   1.838   5.505   3.800
 5172SOL     OW16414   6.675   2.700   2.374
 5172SOL    HW116415   6.739   2.679   2.449
 5172SOL    HW216416   6.661   2.617   2.319
 5173SOL     OW16417   5.652   4.555   5.912
 5173SOL    HW116418   5.666   4.505   5.998
 5173SOL    HW216419   5.639   4.652   5.931
 5174SOL     OW16420   2.457   4.797   4.053
 5174SOL    HW116421   2.417   4.754   4.135
 5174SOL    HW216422   2.410   4.763   3.972
 5175SOL     OW16423   2.315   3.970   0.105
 5175SOL    HW116424   2.370   3.958   0.187
 5175SOL    HW216425   2.267   4.058   0.109
 5176SOL     OW16426   4.625   3.073   6.690
 5176SOL    HW116427   4.543   3.130   6.693
 5176SOL    HW216428   4.705   3.130   6.668
 5177SOL     OW16429   5.376   0.181   6.497
 5177SOL    HW116430   5.404   0.100   6.550
 5177SOL    HW216431   5.421   0.262   6.534
 5178SOL     OW16432   1.686   3.029   1.457
 5178SOL    HW116433   1.703   3.025   1.358
 5178SOL    HW216434   1.656   3.121   1.482
 5179SOL     OW16435   3.965   5.757   4.609
 5179SOL    HW116436   3.920   5.738   4.522
 5179SOL    HW216437   3.958   5.855   4.629
 5180SOL     OW16438   2.801   2.559   6.813
 5180SOL    HW116439   2.845   2.636   6.859
 5180SOL    HW216440   2.708   2.548   6.849
 5181SOL     OW16441   4.642   1.712   2.121
 5181SOL    HW116442   4.736   1.680   2.111
 5181SOL    HW216443   4.639   1.811   2.111
 5182SOL     OW16444   3.970   4.988   1.755
 5182SOL    HW116445   3.904   5.011   1.826
 5182SOL    HW216446   3.992   4.891   1.760
 5183SOL     OW16447   3.806   1.048   2.498
 5183SOL    HW116448   3.755   0.966   2.522
 5183SOL    HW216449   3.881   1.061   2.563
 5184SOL     OW16450   0.405   2.131   4.118
 5184SOL    HW116451   0.383   2.177   4.204
 5184SOL    HW216452   0.483   2.177   4.075
 5185SOL     OW16453   5.300   0.420   2.461
 5185SOL    HW116454   5.285   0.517   2.477
 5185SOL    HW216455   5.384   0.392   2.507
 5186SOL     OW16456   5.740   3.564   1.023
 5186SOL    HW116457   5.730   3.528   1.116
 5186SOL    HW216458   5.651   3.564   0.978
 5187SOL     OW16459   6.820   0.788   3.919
 5187SOL    HW116460   6.789   0.880   3.941
 5187SOL    HW216461   6.904   0.768   3.970
 5188SOL     OW16462   0.876   5.526   0.385
 5188SOL    HW116463   0.922   5.438   0.393
 5188SOL    HW216464   0.822   5.526   0.300
 5189SOL     OW16465   4.960   5.033   0.924
 5189SOL    HW116466   4.954   5.131   0.906
 5189SOL    HW216467   5.052   5.010   0.953
 5190SOL     OW16468   0.275   2.785   4.244
 5190SOL    HW116469   0.295   2.817   4.337
 5190SOL    HW216470   0.357   2.746   4.203
 5191SOL     OW16471   4.642   0.560   2.173
 5191SOL    HW116472   4.547   0.581   2.147
 5191SOL    HW216473   4.654   0.576   2.271
 5192SOL     OW16474   2.686   5.746   3.343
 5192SOL    HW116475   2.716   5.830   3.387
 5192SOL    HW216476   2.709   5.668   3.401
 5193SOL     OW16477   4.987   5.082   3.759
 5193SOL    HW116478   5.032   5.024   3.692
 5193SOL    HW216479   5.038   5.080   3.845
 5194SOL     OW16480   4.088   0.580   0.090
 5194SOL    HW116481   4.152   0.541   0.024
 5194SOL    HW216482   4.134   0.594   0.177
 5195SOL     OW16483   0.093   5.660   4.152
 5195SOL    HW116484   0.155   5.582   4.146
 5195SOL    HW216485   0.110   5.723   4.076
 5196SOL     OW16486   1.502   3.816   1.061
 5196SOL    HW116487   1.539   3.730   1.095
 5196SOL    HW216488   1.556   3.846   0.981
 5197SOL     OW16489   1.627   5.674   5.038
 5197SOL    HW116490   1.628   5.675   5.138
 5197SOL    HW216491   1.558   5.610   5.006
 5198SOL     OW16492   4.130   6.892   3.823
 5198SOL    HW116493   4.187   6.858   3.748
 5198SOL    HW216494   4.112   6.990   3.808
 5199SOL     OW16495   1.252   5.947   0.038
 5199SOL    HW116496   1.324   5.982   6.996
 5199SOL    HW216497   1.292   5.923   0.126
 5200SOL     OW16498   1.185   1.814   5.321
 5200SOL    HW116499   1.172   1.894   5.263
 5200SOL    HW216500   1.141   1.828   5.409
 5201SOL     OW16501   5.373   6.403   4.325
 5201SOL    HW116502   5.299   6.432   4.265
 5201SOL    HW216503   5.388   6.305   4.314
 5202SOL     OW16504   6.147   3.774   5.673
 5202SOL    HW116505   6.073   3.837   5.648
 5202SOL    HW216506   6.107   3.693   5.717
 5203SOL     OW16507   2.559   0.966   0.034
 5203SOL    HW116508   2.527   1.056   0.003
 5203SOL    HW216509   2.512   0.895   7.001
 5204SOL     OW16510   3.952   6.112   0.508
 5204SOL    HW116511   4.040   6.072   0.482
 5204SOL    HW216512   3.909   6.056   0.579
 5205SOL     OW16513   6.954   6.227   0.027
 5205SOL    HW116514   6.896   6.180   6.979
 5205SOL    HW216515   0.028   6.188   0.024
 5206SOL     OW16516   0.334   5.208   6.424
 5206SOL    HW116517   0.353   5.135   6.490
 5206SOL    HW216518   0.403   5.207   6.352
 5207SOL     OW16519   0.920   0.596   3.496
 5207SOL    HW116520   0.938   0.537   3.417
 5207SOL    HW216521   0.946   0.690   3.475
 5208SOL     OW16522   4.207   2.545   0.008
 5208SOL    HW116523   4.305   2.525   0.011
 5208SOL    HW216524   4.157   2.471   0.054
 5209SOL     OW16525   5.181   0.989   1.470
 5209SOL    HW116526   5.272   0.949   1.463
 5209SOL    HW216527   5.188   1.082   1.507
 5210SOL     OW16528   4.854   3.872   0.797
 5210SOL    HW116529   4.780   3.925   0.756
 5210SOL    HW216530   4.899   3.818   0.726
 5211SOL     OW16531   4.900   1.836   5.101
 5211SOL    HW116532   4.922   1.856   5.005
 5211SOL    HW216533   4.805   1.861   5.119
 5212SOL     OW16534   1.885   2.534   1.377
 5212SOL    HW116535   1.881   2.456   1.439
 5212SOL    HW216536   1.817   2.601   1.403
 5213SOL     OW16537   4.343   3.299   0.960
 5213SOL    HW116538   4.442   3.315   0.960
 5213SOL    HW216539   4.307   3.318   1.051
 5214SOL     OW16540   5.754   2.689   5.766
 5214SOL    HW116541   5.694   2.663   5.691
 5214SOL    HW216542   5.743   2.787   5.785
 5215SOL     OW16543   0.172   4.493   4.703
 5215SOL    HW116544   0.126   4.404   4.713
 5215SOL    HW216545   0.134   4.540   4.623
 5216SOL     OW16546   5.140   5.541   0.903
 5216SOL    HW116547   5.095   5.603   0.838
 5216SOL    HW216548   5.157   5.589   0.989
 5217SOL     OW16549   3.838   5.746   4.362
 5217SOL    HW116550   3.839   5.648   4.344
 5217SOL    HW216551   3.849   5.797   4.277
 5218SOL     OW16552   0.798   1.351   1.439
 5218SOL    HW116553   0.723   1.295   1.405
 5218SOL    HW216554   0.885   1.307   1.416
 5219SOL     OW16555   3.674   2.086   4.446
 5219SOL    HW116556   3.589   2.079   4.394
 5219SOL    HW216557   3.657   2.059   4.541
 5220SOL     OW16558   1.575   4.729   2.747
 5220SOL    HW116559   1.668   4.763   2.734
 5220SOL    HW216560   1.577   4.649   2.807
 5221SOL     OW16561   6.126   0.507   2.569
 5221SOL    HW116562   6.221   0.508   2.536
 5221SOL    HW216563   6.125   0.482   2.665
 5222SOL     OW16564   3.972   6.208   2.099
 5222SOL    HW116565   3.882   6.195   2.141
 5222SOL    HW216566   3.972   6.170   2.007
 5223SOL     OW16567   0.231   2.779   0.198
 5223SOL    HW116568   0.239   2.848   0.270
 5223SOL    HW216569   0.269   2.692   0.231
 5224SOL     OW16570   0.119   2.765   3.939
 5224SOL    HW116571   0.098   2.847   3.991
 5224SOL    HW216572   0.168   2.700   3.997
 5225SOL     OW16573   6.570   0.658   3.442
 5225SOL    HW116574   6.502   0.585   3.432
 5225SOL    HW216575   6.661   0.618   3.448
 5226SOL     OW16576   0.442   6.482   3.910
 5226SOL    HW116577   0.451   6.385   3.930
 5226SOL    HW216578   0.523   6.531   3.944
 5227SOL     OW16579   0.007   4.231   5.783
 5227SOL    HW116580   0.102   4.257   5.802
 5227SOL    HW216581   6.985   4.296   5.718
 5228SOL     OW16582   0.824   2.294   0.158
 5228SOL    HW116583   0.779   2.240   0.087
 5228SOL    HW216584   0.892   2.354   0.115
 5229SOL     OW16585   2.996   6.104   0.068
 5229SOL    HW116586   2.913   6.159   0.077
 5229SOL    HW216587   3.002   6.040   0.144
 5230SOL     OW16588   6.392   6.006   2.307
 5230SOL    HW116589   6.439   5.956   2.380
 5230SOL    HW216590   6.354   5.941   2.241
 5231SOL     OW16591   4.689   2.790   3.346
 5231SOL    HW116592   4.673   2.870   3.287
 5231SOL    HW216593   4.671   2.706   3.295
 5232SOL     OW16594   1.026   4.043   6.124
 5232SOL    HW116595   1.117   4.075   6.099
 5232SOL    HW216596   1.033   3.982   6.204
 5233SOL     OW16597   3.433   1.078   2.508
 5233SOL    HW116598   3.482   1.075   2.420
 5233SOL    HW216599   3.339   1.108   2.493
 5234SOL     OW16600   2.372   2.534   6.632
 5234SOL    HW116601   2.354   2.542   6.730
 5234SOL    HW216602   2.358   2.622   6.587
 5235SOL     OW16603   2.080   2.357   0.998
 5235SOL    HW116604   2.024   2.428   1.041
 5235SOL    HW216605   2.033   2.323   0.916
 5236SOL     OW16606   3.457   5.568   2.112
 5236SOL    HW116607   3.460   5.609   2.203
 5236SOL    HW216608   3.539   5.512   2.098
 5237SOL     OW16609   1.365   1.167   4.691
 5237SOL    HW116610   1.302   1.245   4.690
 5237SOL    HW216611   1.393   1.148   4.785
 5238SOL     OW16612   0.707   6.411   0.458
 5238SOL    HW116613   0.766   6.404   0.538
 5238SOL    HW216614   0.708   6.325   0.408
 5239SOL     OW16615   3.551   2.814   0.080
 5239SOL    HW116616   3.510   2.901   0.052
 5239SOL    HW216617   3.521   2.791   0.173
 5240SOL     OW16618   3.288   2.105   5.266
 5240SOL    HW116619   3.262   2.099   5.363
 5240SOL    HW216620   3.271   2.198   5.233
 5241SOL     OW16621   0.628   6.253   3.512
 5241SOL    HW116622   0.670   6.163   3.502
 5241SOL    HW216623   0.529   6.243   3.521
 5242SOL     OW16624   5.511   6.843   2.100
 5242SOL    HW116625   5.536   6.747   2.093
 5242SOL    HW216626   5.414   6.854   2.080
 5243SOL     OW16627   2.204   6.040   1.382
 5243SOL    HW116628   2.119   6.045   1.433
 5243SOL    HW216629   2.276   6.000   1.439
 5244SOL     OW16630   3.705   4.364   6.748
 5244SOL    HW116631   3.759   4.425   6.689
 5244SOL    HW216632   3.627   4.415   6.786
 5245SOL     OW16633   3.534   4.533   0.452
 5245SOL    HW116634   3.634   4.543   0.460
 5245SOL    HW216635   3.513   4.449   0.402
 5246SOL     OW16636   6.440   2.600   2.063
 5246SOL    HW116637   6.460   2.606   1.965
 5246SOL    HW216638   6.408   2.508   2.085
 5247SOL     OW16639   2.814   6.995   6.275
 5247SOL    HW116640   2.900   6.947   6.288
 5247SOL    HW216641   2.739   6.929   6.277
 5248SOL     OW16642   6.992   2.475   3.053
 5248SOL    HW116643   6.954   2.383   3.039
 5248SOL    HW216644   6.918   2.542   3.051
 5249SOL     OW16645   1.223   5.751   6.173
 5249SOL    HW116646   1.266   5.668   6.210
 5249SOL    HW216647   1.137   5.768   6.222
 5250SOL     OW16648   0.790   6.128   0.332
 5250SOL    HW116649   0.871   6.125   0.275
 5250SOL    HW216650   0.713   6.087   0.283
 5251SOL     OW16651   0.984   3.460   0.726
 5251SOL    HW116652   1.035   3.518   0.663
 5251SOL    HW216653   1.030   3.459   0.815
 5252SOL     OW16654   2.835   6.580   1.333
 5252SOL    HW116655   2.803   6.605   1.424
 5252SOL    HW216656   2.913   6.637   1.309
 5253SOL     OW16657   7.012   3.756   4.632
 5253SOL    HW116658   0.038   3.722   4.715
 5253SOL    HW216659   6.941   3.821   4.656
 5254SOL     OW16660   5.631   0.710   3.686
 5254SOL    HW116661   5.580   0.649   3.746
 5254SOL    HW216662   5.569   0.748   3.617
 5255SOL     OW16663   5.059   2.150   5.038
 5255SOL    HW116664   4.976   2.191   5.000
 5255SOL    HW216665   5.044   2.128   5.134
 5256SOL     OW16666   4.975   2.206   3.846
 5256SOL    HW116667   4.968   2.128   3.908
 5256SOL    HW216668   5.036   2.182   3.770
 5257SOL     OW16669   4.732   6.792   1.305
 5257SOL    HW116670   4.771   6.784   1.397
 5257SOL    HW216671   4.660   6.861   1.306
 5258SOL     OW16672   5.721   2.968   2.016
 5258SOL    HW116673   5.800   2.914   2.046
 5258SOL    HW216674   5.740   3.065   2.029
 5259SOL     OW16675   4.970   5.967   2.951
 5259SOL    HW116676   4.889   5.914   2.928
 5259SOL    HW216677   5.052   5.912   2.934
 5260SOL     OW16678   4.473   4.311   0.631
 5260SOL    HW116679   4.568   4.309   0.599
 5260SOL    HW216680   4.432   4.400   0.611
 5261SOL     OW16681   6.384   3.679   6.069
 5261SOL    HW116682   6.375   3.778   6.063
 5261SOL    HW216683   6.394   3.653   6.166
 5262SOL     OW16684   2.423   1.492   3.457
 5262SOL    HW116685   2.340   1.540   3.428
 5262SOL    HW216686   2.456   1.434   3.383
 5263SOL     OW16687   1.849   1.449   3.536
 5263SOL    HW116688   1.850   1.500   3.450
 5263SOL    HW216689   1.900   1.500   3.606
 5264SOL     OW16690   6.464   2.179   1.906
 5264SOL    HW116691   6.561   2.157   1.888
 5264SOL    HW216692   6.418   2.196   1.819
 5265SOL     OW16693   5.903   3.439   4.088
 5265SOL    HW116694   5.867   3.532   4.102
 5265SOL    HW216695   5.951   3.409   4.171
 5266SOL     OW16696   3.035   5.555   6.536
 5266SOL    HW116697   2.984   5.511   6.462
 5266SOL    HW216698   3.114   5.499   6.560
 5267SOL     OW16699   4.974   2.683   4.474
 5267SOL    HW116700   4.875   2.674   4.464
 5267SOL    HW216701   5.019   2.600   4.440
 5268SOL     OW16702   5.747   0.777   0.525
 5268SOL    HW116703   5.768   0.739   0.616
 5268SOL    HW216704   5.778   0.713   0.455
 5269SOL     OW16705   0.766   6.448   2.856
 5269SOL    HW116706   0.788   6.515   2.785
 5269SOL    HW216707   0.705   6.378   2.819
 5270SOL     OW16708   5.006   1.185   1.930
 5270SOL    HW116709   4.933   1.122   1.957
 5270SOL    HW216710   4.979   1.279   1.953
 5271SOL     OW16711   6.124   4.148   5.038
 5271SOL    HW116712   6.043   4.161   5.094
 5271SOL    HW216713   6.204   4.139   5.096
 5272SOL     OW16714   3.336   6.360   1.674
 5272SOL    HW116715   3.412   6.298   1.652
 5272SOL    HW216716   3.370   6.436   1.729
 5273SOL     OW16717   0.547   3.012   3.546
 5273SOL    HW116718   0.505   2.995   3.457
 5273SOL    HW216719   0.495   2.965   3.617
 5274SOL     OW16720   6.063   0.120   2.807
 5274SOL    HW116721   5.967   0.124   2.832
 5274SOL    HW216722   6.097   0.212   2.786
 5275SOL     OW16723   3.727   1.711   0.378
 5275SOL    HW116724   3.695   1.756   0.294
 5275SOL    HW216725   3.648   1.686   0.434
 5276SOL     OW16726   1.968   0.149   0.748
 5276SOL    HW116727   2.019   0.077   0.795
 5276SOL    HW216728   1.882   0.165   0.795
 5277SOL     OW16729   2.496   1.472   2.537
 5277SOL    HW116730   2.499   1.437   2.444
 5277SOL    HW216731   2.444   1.410   2.595
 5278SOL     OW16732   5.178   5.977   3.760
 5278SOL    HW116733   5.158   6.018   3.849
 5278SOL    HW216734   5.265   6.012   3.726
 5279SOL     OW16735   2.201   5.190   0.464
 5279SOL    HW116736   2.266   5.197   0.388
 5279SOL    HW216737   2.108   5.193   0.428
 5280SOL     OW16738   2.823   5.826   5.432
 5280SOL    HW116739   2.923   5.824   5.429
 5280SOL    HW216740   2.788   5.859   5.344
 5281SOL     OW16741   6.389   1.905   1.991
 5281SOL    HW116742   6.330   1.867   1.920
 5281SOL    HW216743   6.402   2.003   1.975
 5282SOL     OW16744   4.031   1.720   3.330
 5282SOL    HW116745   4.076   1.703   3.243
 5282SOL    HW216746   3.982   1.807   3.326
 5283SOL     OW16747   4.587   6.240   2.375
 5283SOL    HW116748   4.557   6.269   2.283
 5283SOL    HW216749   4.531   6.286   2.444
 5284SOL     OW16750   4.624   4.366   3.263
 5284SOL    HW116751   4.718   4.395   3.246
 5284SOL    HW216752   4.576   4.356   3.177
 5285SOL     OW16753   2.710   4.709   4.356
 5285SOL    HW116754   2.628   4.658   4.380
 5285SOL    HW216755   2.728   4.700   4.258
 5286SOL     OW16756   2.022   4.413   0.834
 5286SOL    HW116757   2.090   4.472   0.790
 5286SOL    HW216758   1.934   4.461   0.836
 5287SOL     OW16759   3.401   0.486   0.188
 5287SOL    HW116760   3.410   0.542   0.270
 5287SOL    HW216761   3.338   0.529   0.125
 5288SOL     OW16762   2.979   0.412   1.540
 5288SOL    HW116763   2.926   0.423   1.456
 5288SOL    HW216764   3.004   0.316   1.551
 5289SOL     OW16765   1.833   5.048   6.651
 5289SOL    HW116766   1.852   5.108   6.573
 5289SOL    HW216767   1.780   4.969   6.621
 5290SOL     OW16768   2.629   5.717   5.807
 5290SOL    HW116769   2.613   5.816   5.808
 5290SOL    HW216770   2.572   5.674   5.877
 5291SOL     OW16771   2.441   6.057   5.074
 5291SOL    HW116772   2.361   6.112   5.097
 5291SOL    HW216773   2.414   5.961   5.064
 5292SOL     OW16774   5.761   2.581   6.997
 5292SOL    HW116775   5.820   2.631   0.042
 5292SOL    HW216776   5.666   2.587   0.010
 5293SOL     OW16777   0.596   1.045   4.912
 5293SOL    HW116778   0.643   1.123   4.872
 5293SOL    HW216779   0.571   1.065   5.007
 5294SOL     OW16780   5.255   3.476   6.190
 5294SOL    HW116781   5.321   3.406   6.215
 5294SOL    HW216782   5.168   3.459   6.237
 5295SOL     OW16783   6.208   1.172   2.690
 5295SOL    HW116784   6.143   1.242   2.720
 5295SOL    HW216785   6.208   1.167   2.590
 5296SOL     OW16786   1.719   5.691   0.096
 5296SOL    HW116787   1.703   5.789   0.087
 5296SOL    HW216788   1.645   5.641   0.051
 5297SOL     OW16789   1.474   2.336   1.288
 5297SOL    HW116790   1.462   2.257   1.348
 5297SOL    HW216791   1.446   2.419   1.335
 5298SOL     OW16792   6.235   5.802   2.508
 5298SOL    HW116793   6.284   5.724   2.468
 5298SOL    HW216794   6.204   5.778   2.599
 5299SOL     OW16795   3.226   1.871   1.092
 5299SOL    HW116796   3.226   1.931   1.172
 5299SOL    HW216797   3.274   1.786   1.115
 5300SOL     OW16798   0.366   5.322   2.705
 5300SOL    HW116799   0.276   5.352   2.676
 5300SOL    HW216800   0.360   5.229   2.741
 5301SOL     OW16801   4.405   1.082   0.103
 5301SOL    HW116802   4.377   1.176   0.083
 5301SOL    HW216803   4.503   1.080   0.121
 5302SOL     OW16804   6.446   4.414   2.846
 5302SOL    HW116805   6.544   4.398   2.850
 5302SOL    HW216806   6.407   4.408   2.938
 5303SOL     OW16807   6.785   6.613   4.136
 5303SOL    HW116808   6.884   6.600   4.126
 5303SOL    HW216809   6.763   6.710   4.132
 5304SOL     OW16810   5.800   1.832   6.126
 5304SOL    HW116811   5.846   1.791   6.205
 5304SOL    HW216812   5.815   1.931   6.127
 5305SOL     OW16813   1.043   0.440   4.176
 5305SOL    HW116814   1.012   0.376   4.105
 5305SOL    HW216815   1.121   0.400   4.224
 5306SOL     OW16816   2.078   6.730   5.097
 5306SOL    HW116817   2.099   6.723   5.000
 5306SOL    HW216818   2.104   6.821   5.130
 5307SOL     OW16819   4.342   5.974   6.392
 5307SOL    HW116820   4.382   6.038   6.326
 5307SOL    HW216821   4.314   6.024   6.474
 5308SOL     OW16822   0.194   0.862   3.954
 5308SOL    HW116823   0.158   0.820   3.871
 5308SOL    HW216824   0.120   0.874   4.020
 5309SOL     OW16825   3.968   3.795   3.108
 5309SOL    HW116826   3.918   3.875   3.075
 5309SOL    HW216827   4.024   3.758   3.035
 5310SOL     OW16828   4.939   2.950   1.875
 5310SOL    HW116829   4.882   3.005   1.935
 5310SOL    HW216830   4.995   2.887   1.931
 5311SOL     OW16831   0.546   5.846   6.675
 5311SOL    HW116832   0.475   5.835   6.607
 5311SOL    HW216833   0.631   5.805   6.642
 5312SOL     OW16834   0.728   4.566   2.106
 5312SOL    HW116835   0.696   4.596   2.196
 5312SOL    HW216836   0.708   4.637   2.038
 5313SOL     OW16837   0.576   5.437   6.809
 5313SOL    HW116838   0.571   5.464   6.712
 5313SOL    HW216839   0.669   5.454   6.843
 5314SOL     OW16840   4.566   5.093   0.359
 5314SOL    HW116841   4.511   5.012   0.340
 5314SOL    HW216842   4.558   5.117   0.456
 5315SOL     OW16843   4.575   4.429   2.250
 5315SOL    HW116844   4.669   4.464   2.248
 5315SOL    HW216845   4.559   4.371   2.170
 5316SOL     OW16846   0.717   5.104   4.786
 5316SOL    HW116847   0.760   5.094   4.697
 5316SOL    HW216848   0.619   5.084   4.779
 5317SOL     OW16849   5.466   1.655   4.052
 5317SOL    HW116850   5.506   1.573   4.091
 5317SOL    HW216851   5.412   1.702   4.122
 5318SOL     OW16852   6.998   2.110   4.403
 5318SOL    HW116853   0.029   2.023   4.405
 5318SOL    HW216854   6.905   2.094   4.370
 5319SOL     OW16855   5.436   6.584   6.283
 5319SOL    HW116856   5.426   6.512   6.214
 5319SOL    HW216857   5.442   6.673   6.237
 5320SOL     OW16858   6.542   4.731   0.182
 5320SOL    HW116859   6.468   4.666   0.199
 5320SOL    HW216860   6.506   4.824   0.185
 5321SOL     OW16861   0.982   5.216   3.556
 5321SOL    HW116862   1.012   5.295   3.609
 5321SOL    HW216863   1.040   5.206   3.475
 5322SOL     OW16864   3.813   6.489   6.887
 5322SOL    HW116865   3.785   6.400   6.923
 5322SOL    HW216866   3.890   6.524   6.942
 5323SOL     OW16867   4.808   2.913   1.450
 5323SOL    HW116868   4.873   2.960   1.509
 5323SOL    HW216869   4.728   2.972   1.434
 5324SOL     OW16870   3.686   2.390   1.721
 5324SOL    HW116871   3.737   2.335   1.654
 5324SOL    HW216872   3.692   2.347   1.811
 5325SOL     OW16873   5.431   0.305   2.805
 5325SOL    HW116874   5.476   0.310   2.716
 5325SOL    HW216875   5.350   0.364   2.805
 5326SOL     OW16876   6.281   5.147   2.220
 5326SOL    HW116877   6.362   5.094   2.192
 5326SOL    HW216878   6.199   5.103   2.184
 5327SOL     OW16879   0.557   6.524   5.526
 5327SOL    HW116880   0.458   6.507   5.531
 5327SOL    HW216881   0.597   6.469   5.453
 5328SOL     OW16882   3.379   2.445   5.721
 5328SOL    HW116883   3.448   2.381   5.755
 5328SOL    HW216884   3.342   2.411   5.634
 5329SOL     OW16885   6.634   4.283   0.910
 5329SOL    HW116886   6.691   4.329   0.978
 5329SOL    HW216887   6.690   4.252   0.834
 5330SOL     OW16888   3.668   4.107   6.863
 5330SOL    HW116889   3.743   4.104   6.929
 5330SOL    HW216890   3.686   4.177   6.794
 5331SOL     OW16891   4.549   2.508   0.908
 5331SOL    HW116892   4.518   2.422   0.868
 5331SOL    HW216893   4.598   2.561   0.839
 5332SOL     OW16894   6.073   4.781   0.290
 5332SOL    HW116895   6.061   4.880   0.282
 5332SOL    HW216896   5.988   4.735   0.262
 5333SOL     OW16897   1.761   0.914   3.642
 5333SOL    HW116898   1.783   0.889   3.548
 5333SOL    HW216899   1.804   1.002   3.664
 5334SOL     OW16900   4.945   4.744   4.168
 5334SOL    HW116901   4.925   4.831   4.123
 5334SOL    HW216902   4.899   4.670   4.119
 5335SOL     OW16903   6.711   4.112   2.461
 5335SOL    HW116904   6.728   4.014   2.461
 5335SOL    HW216905   6.727   4.148   2.553
 5336SOL     OW16906   2.421   1.683   3.922
 5336SOL    HW116907   2.471   1.700   3.837
 5336SOL    HW216908   2.342   1.744   3.925
 5337SOL     OW16909   6.196   4.705   1.373
 5337SOL    HW116910   6.237   4.796   1.376
 5337SOL    HW216911   6.137   4.692   1.453
 5338SOL     OW16912   5.252   2.770   0.338
 5338SOL    HW116913   5.216   2.861   0.355
 5338SOL    HW216914   5.258   2.754   0.239
 5339SOL     OW16915   5.672   1.748   2.013
 5339SOL    HW116916   5.758   1.698   1.999
 5339SOL    HW216917   5.682   1.810   2.091
 5340SOL     OW16918   5.420   3.747   1.743
 5340SOL    HW116919   5.516   3.773   1.752
 5340SOL    HW216920   5.412   3.648   1.754
 5341SOL     OW16921   4.291   4.732   4.103
 5341SOL    HW116922   4.195   4.748   4.125
 5341SOL    HW216923   4.348   4.800   4.150
 5342SOL     OW16924   4.685   6.520   5.583
 5342SOL    HW116925   4.753   6.452   5.554
 5342SOL    HW216926   4.721   6.572   5.660
 5343SOL     OW16927   3.654   3.534   4.455
 5343SOL    HW116928   3.722   3.524   4.383
 5343SOL    HW216929   3.568   3.568   4.416
 5344SOL     OW16930   0.424   1.766   0.047
 5344SOL    HW116931   0.388   1.804   0.133
 5344SOL    HW216932   0.373   1.683   0.024
 5345SOL     OW16933   4.847   1.096   6.999
 5345SOL    HW116934   4.865   1.147   6.914
 5345SOL    HW216935   4.862   0.999   6.983
 5346SOL     OW16936   2.524   5.041   4.147
 5346SOL    HW116937   2.503   4.964   4.088
 5346SOL    HW216938   2.613   5.027   4.191
 5347SOL     OW16939   0.181   2.758   3.330
 5347SOL    HW116940   0.196   2.774   3.427
 5347SOL    HW216941   0.085   2.734   3.315
 5348SOL     OW16942   0.006   1.724   4.813
 5348SOL    HW116943   7.006   1.740   4.910
 5348SOL    HW216944   0.021   1.626   4.798
 5349SOL     OW16945   1.618   2.824   1.790
 5349SOL    HW116946   1.611   2.825   1.889
 5349SOL    HW216947   1.654   2.735   1.760
 5350SOL     OW16948   1.807   7.017   5.801
 5350SOL    HW116949   1.789   0.071   5.734
 5350SOL    HW216950   1.826   6.931   5.754
 5351SOL     OW16951   0.254   5.102   1.844
 5351SOL    HW116952   0.183   5.059   1.789
 5351SOL    HW216953   0.263   5.054   1.931
 5352SOL     OW16954   2.322   4.346   2.647
 5352SOL    HW116955   2.257   4.358   2.573
 5352SOL    HW216956   2.372   4.261   2.635
 5353SOL     OW16957   3.596   5.257   3.596
 5353SOL    HW116958   3.638   5.210   3.518
 5353SOL    HW216959   3.512   5.210   3.622
 5354SOL     OW16960   3.273   4.044   0.426
 5354SOL    HW116961   3.298   3.952   0.458
 5354SOL    HW216962   3.266   4.044   0.327
 5355SOL     OW16963   4.735   4.771   4.993
 5355SOL    HW116964   4.736   4.854   5.050
 5355SOL    HW216965   4.641   4.741   4.979
 5356SOL     OW16966   6.525   3.569   1.981
 5356SOL    HW116967   6.479   3.646   1.936
 5356SOL    HW216968   6.462   3.491   1.985
 5357SOL     OW16969   4.103   4.791   2.098
 5357SOL    HW116970   4.181   4.837   2.140
 5357SOL    HW216971   4.134   4.710   2.048
 5358SOL     OW16972   4.322   1.773   0.210
 5358SOL    HW116973   4.296   1.768   0.114
 5358SOL    HW216974   4.263   1.712   0.263
 5359SOL     OW16975   2.168   2.208   0.230
 5359SOL    HW116976   2.160   2.217   0.131
 5359SOL    HW216977   2.154   2.297   0.273
 5360SOL     OW16978   5.290   6.011   3.072
 5360SOL    HW116979   5.379   5.998   3.029
 5360SOL    HW216980   5.242   5.924   3.075
 5361SOL     OW16981   3.085   6.618   2.995
 5361SOL    HW116982   3.028   6.548   3.039
 5361SOL    HW216983   3.139   6.577   2.922
 5362SOL     OW16984   5.773   6.856   2.565
 5362SOL    HW116985   5.721   6.855   2.651
 5362SOL    HW216986   5.863   6.815   2.581
 5363SOL     OW16987   5.133   6.774   4.706
 5363SOL    HW116988   5.185   6.847   4.662
 5363SOL    HW216989   5.191   6.692   4.714
 5364SOL     OW16990   5.174   0.926   2.096
 5364SOL    HW116991   5.211   0.833   2.105
 5364SOL    HW216992   5.144   0.942   2.002
 5365SOL     OW16993   2.915   3.582   2.645
 5365SOL    HW116994   2.997   3.625   2.608
 5365SOL    HW216995   2.880   3.514   2.580
 5366SOL     OW16996   6.536   0.474   1.883
 5366SOL    HW116997   6.523   0.406   1.811
 5366SOL    HW216998   6.456   0.474   1.943
 5367SOL     OW16999   6.366   0.208   0.695
 5367SOL    HW117000   6.417   0.164   0.769
 5367SOL    HW217001   6.299   0.271   0.734
 5368SOL     OW17002   6.579   5.751   2.200
 5368SOL    HW117003   6.550   5.725   2.107
 5368SOL    HW217004   6.573   5.671   2.260
 5369SOL     OW17005   2.718   5.817   1.590
 5369SOL    HW117006   2.694   5.722   1.567
 5369SOL    HW217007   2.667   5.845   1.671
 5370SOL     OW17008   4.334   3.459   1.792
 5370SOL    HW117009   4.345   3.559   1.795
 5370SOL    HW217010   4.267   3.435   1.721
 5371SOL     OW17011   6.782   5.077   5.314
 5371SOL    HW117012   6.860   5.017   5.331
 5371SOL    HW217013   6.804   5.139   5.239
 5372SOL     OW17014   1.018   0.497   2.470
 5372SOL    HW117015   1.014   0.416   2.411
 5372SOL    HW217016   1.111   0.508   2.506
 5373SOL     OW17017   3.743   6.399   6.505
 5373SOL    HW117018   3.801   6.478   6.527
 5373SOL    HW217019   3.680   6.424   6.431
 5374SOL     OW17020   2.616   4.755   1.079
 5374SOL    HW117021   2.563   4.735   1.161
 5374SOL    HW217022   2.644   4.851   1.079
 5375SOL     OW17023   1.032   6.527   5.345
 5375SOL    HW117024   1.031   6.469   5.427
 5375SOL    HW217025   0.938   6.546   5.317
 5376SOL     OW17026   1.315   2.029   1.956
 5376SOL    HW117027   1.218   2.035   1.978
 5376SOL    HW217028   1.331   2.064   1.864
 5377SOL     OW17029   2.310   1.000   3.275
 5377SOL    HW117030   2.237   0.932   3.264
 5377SOL    HW217031   2.313   1.032   3.369
 5378SOL     OW17032   6.061   0.176   0.967
 5378SOL    HW117033   6.040   0.264   0.925
 5378SOL    HW217034   6.083   0.189   1.063
 5379SOL     OW17035   1.085   2.867   6.061
 5379SOL    HW117036   1.132   2.793   6.013
 5379SOL    HW217037   1.153   2.935   6.091
 5380SOL     OW17038   3.488   7.017   1.439
 5380SOL    HW117039   3.584   7.018   1.465
 5380SOL    HW217040   3.430   0.001   1.520
 5381SOL     OW17041   5.716   6.071   2.389
 5381SOL    HW117042   5.713   6.169   2.370
 5381SOL    HW217043   5.706   6.055   2.487
 5382SOL     OW17044   3.879   2.143   2.402
 5382SOL    HW117045   3.866   2.239   2.377
 5382SOL    HW217046   3.883   2.088   2.319
 5383SOL     OW17047   1.021   2.966   4.859
 5383SOL    HW117048   1.119   2.957   4.877
 5383SOL    HW217049   0.982   2.875   4.844
 5384SOL     OW17050   4.653   5.234   5.027
 5384SOL    HW117051   4.716   5.304   4.992
 5384SOL    HW217052   4.596   5.274   5.100
 5385SOL     OW17053   6.229   2.468   5.924
 5385SOL    HW117054   6.244   2.377   5.962
 5385SOL    HW217055   6.137   2.499   5.950
 5386SOL     OW17056   5.767   2.871   3.940
 5386SOL    HW117057   5.736   2.788   3.987
 5386SOL    HW217058   5.757   2.949   4.001
 5387SOL     OW17059   2.565   0.210   3.167
 5387SOL    HW117060   2.631   0.269   3.120
 5387SOL    HW217061   2.614   0.138   3.217
 5388SOL     OW17062   1.004   6.408   3.016
 5388SOL    HW117063   0.919   6.454   2.992
 5388SOL    HW217064   1.023   6.336   2.949
 5389SOL     OW17065   4.456   2.499   4.248
 5389SOL    HW117066   4.401   2.454   4.319
 5389SOL    HW217067   4.432   2.462   4.158
 5390SOL     OW17068   5.655   3.699   4.329
 5390SOL    HW117069   5.610   3.633   4.389
 5390SOL    HW217070   5.596   3.779   4.317
 5391SOL     OW17071   2.805   2.577   0.152
 5391SOL    HW117072   2.789   2.676   0.159
 5391SOL    HW217073   2.901   2.561   0.130
 5392SOL     OW17074   4.765   2.834   2.685
 5392SOL    HW117075   4.707   2.752   2.680
 5392SOL    HW217076   4.720   2.903   2.741
 5393SOL     OW17077   4.380   0.217   4.916
 5393SOL    HW117078   4.364   0.198   4.819
 5393SOL    HW217079   4.302   0.267   4.954
 5394SOL     OW17080   0.709   6.129   1.464
 5394SOL    HW117081   0.619   6.168   1.481
 5394SOL    HW217082   0.764   6.192   1.410
 5395SOL     OW17083   4.827   1.269   0.935
 5395SOL    HW117084   4.871   1.215   0.863
 5395SOL    HW217085   4.761   1.332   0.894
 5396SOL     OW17086   5.527   5.619   2.298
 5396SOL    HW117087   5.519   5.716   2.275
 5396SOL    HW217088   5.568   5.610   2.389
 5397SOL     OW17089   6.665   2.076   2.499
 5397SOL    HW117090   6.618   2.102   2.583
 5397SOL    HW217091   6.623   2.123   2.421
 5398SOL     OW17092   4.348   2.338   4.008
 5398SOL    HW117093   4.295   2.355   3.925
 5398SOL    HW217094   4.291   2.289   4.074
 5399SOL     OW17095   1.655   6.556   5.696
 5399SOL    HW117096   1.667   6.467   5.741
 5399SOL    HW217097   1.700   6.554   5.607
 5400SOL     OW17098   3.640   3.352   1.219
 5400SOL    HW117099   3.673   3.332   1.127
 5400SOL    HW217100   3.555   3.404   1.214
 5401SOL     OW17101   4.824   4.937   3.495
 5401SOL    HW117102   4.793   4.867   3.559
 5401SOL    HW217103   4.795   5.027   3.526
 5402SOL     OW17104   3.115   6.353   1.083
 5402SOL    HW117105   3.028   6.353   1.033
 5402SOL    HW217106   3.129   6.443   1.125
 5403SOL     OW17107   5.552   3.043   6.431
 5403SOL    HW117108   5.605   3.037   6.516
 5403SOL    HW217109   5.564   2.959   6.378
 5404SOL     OW17110   0.342   0.750   0.944
 5404SOL    HW117111   0.339   0.829   0.883
 5404SOL    HW217112   0.299   0.672   0.899
 5405SOL     OW17113   5.211   5.043   7.017
 5405SOL    HW117114   5.285   5.090   6.969
 5405SOL    HW217115   5.185   5.096   0.079
 5406SOL     OW17116   2.098   0.554   4.708
 5406SOL    HW117117   2.072   0.467   4.752
 5406SOL    HW217118   2.138   0.615   4.777
 5407SOL     OW17119   2.766   0.854   1.066
 5407SOL    HW117120   2.820   0.809   1.137
 5407SOL    HW217121   2.746   0.789   0.993
 5408SOL     OW17122   3.972   1.805   4.507
 5408SOL    HW117123   4.053   1.779   4.455
 5408SOL    HW217124   3.931   1.888   4.468
 5409SOL     OW17125   6.185   2.300   1.838
 5409SOL    HW117126   6.221   2.226   1.780
 5409SOL    HW217127   6.140   2.368   1.781
 5410SOL     OW17128   7.001   3.029   0.876
 5410SOL    HW117129   0.055   3.085   0.915
 5410SOL    HW217130   6.967   2.965   0.945
 5411SOL     OW17131   5.549   4.140   6.907
 5411SOL    HW117132   5.539   4.201   6.986
 5411SOL    HW217133   5.585   4.052   6.938
 5412SOL     OW17134   2.102   1.255   6.279
 5412SOL    HW117135   2.109   1.156   6.263
 5412SOL    HW217136   2.123   1.275   6.374
 5413SOL     OW17137   6.384   6.992   5.462
 5413SOL    HW117138   6.382   0.024   5.376
 5413SOL    HW217139   6.294   6.999   5.506
 5414SOL     OW17140   0.524   4.827   5.620
 5414SOL    HW117141   0.616   4.800   5.649
 5414SOL    HW217142   0.459   4.755   5.648
 5415SOL     OW17143   3.081   5.528   0.205
 5415SOL    HW117144   2.986   5.553   0.192
 5415SOL    HW217145   3.107   5.456   0.140
 5416SOL     OW17146   2.930   5.091   4.792
 5416SOL    HW117147   2.953   5.122   4.884
 5416SOL    HW217148   2.831   5.077   4.785
 5417SOL     OW17149   4.968   6.284   4.017
 5417SOL    HW117150   4.930   6.191   4.018
 5417SOL    HW217151   5.065   6.280   3.992
 5418SOL     OW17152   5.660   4.383   4.699
 5418SOL    HW117153   5.639   4.474   4.734
 5418SOL    HW217154   5.624   4.374   4.605
 5419SOL     OW17155   4.280   6.717   0.401
 5419SOL    HW117156   4.222   6.797   0.384
 5419SOL    HW217157   4.362   6.723   0.343
 5420SOL     OW17158   1.405   1.601   1.622
 5420SOL    HW117159   1.406   1.506   1.590
 5420SOL    HW217160   1.387   1.661   1.544
 5421SOL     OW17161   3.392   5.362   2.367
 5421SOL    HW117162   3.477   5.412   2.354
 5421SOL    HW217163   3.331   5.379   2.289
 5422SOL     OW17164   2.165   5.694   3.976
 5422SOL    HW117165   2.209   5.716   3.889
 5422SOL    HW217166   2.215   5.736   4.051
 5423SOL     OW17167   6.256   5.571   1.965
 5423SOL    HW117168   6.242   5.669   1.980
 5423SOL    HW217169   6.283   5.528   2.051
 5424SOL     OW17170   5.064   4.278   4.955
 5424SOL    HW117171   5.087   4.186   4.926
 5424SOL    HW217172   5.141   4.339   4.939
 5425SOL     OW17173   6.459   2.991   4.795
 5425SOL    HW117174   6.482   3.088   4.801
 5425SOL    HW217175   6.411   2.974   4.709
 5426SOL     OW17176   5.144   5.352   2.086
 5426SOL    HW117177   5.101   5.409   2.156
 5426SOL    HW217178   5.165   5.262   2.125
 5427SOL     OW17179   4.700   2.609   6.909
 5427SOL    HW117180   4.763   2.593   6.834
 5427SOL    HW217181   4.745   2.663   6.980
 5428SOL     OW17182   5.571   5.987   2.945
 5428SOL    HW117183   5.639   5.915   2.960
 5428SOL    HW217184   5.605   6.073   2.984
 5429SOL     OW17185   3.084   0.248   4.311
 5429SOL    HW117186   3.062   0.178   4.379
 5429SOL    HW217187   3.082   0.338   4.354
 5430SOL     OW17188   2.215   3.474   6.031
 5430SOL    HW117189   2.204   3.462   5.932
 5430SOL    HW217190   2.260   3.562   6.049
 5431SOL     OW17191   3.446   5.067   6.103
 5431SOL    HW117192   3.510   5.055   6.027
 5431SOL    HW217193   3.381   4.990   6.104
 5432SOL     OW17194   5.726   5.822   1.004
 5432SOL    HW117195   5.813   5.803   0.960
 5432SOL    HW217196   5.665   5.868   0.940
 5433SOL     OW17197   1.492   0.141   0.744
 5433SOL    HW117198   1.471   0.070   0.677
 5433SOL    HW217199   1.410   0.164   0.796
 5434SOL     OW17200   4.997   0.993   4.956
 5434SOL    HW117201   4.951   1.081   4.940
 5434SOL    HW217202   4.989   0.969   5.053
 5435SOL     OW17203   6.300   3.868   0.366
 5435SOL    HW117204   6.229   3.937   0.380
 5435SOL    HW217205   6.357   3.862   0.448
 5436SOL     OW17206   0.842   5.913   2.777
 5436SOL    HW117207   0.846   5.985   2.707
 5436SOL    HW217208   0.787   5.945   2.854
 5437SOL     OW17209   3.107   4.892   5.810
 5437SOL    HW117210   3.145   4.800   5.814
 5437SOL    HW217211   3.007   4.888   5.812
 5438SOL     OW17212   5.126   4.337   1.768
 5438SOL    HW117213   5.132   4.305   1.863
 5438SOL    HW217214   5.038   4.381   1.753
 5439SOL     OW17215   0.837   4.100   0.363
 5439SOL    HW117216   0.929   4.139   0.369
 5439SOL    HW217217   0.842   4.002   0.383
 5440SOL     OW17218   5.457   0.001   3.353
 5440SOL    HW117219   5.470   0.099   3.364
 5440SOL    HW217220   5.360   7.001   3.335
 5441SOL     OW17221   4.920   3.377   4.035
 5441SOL    HW117222   4.939   3.324   3.952
 5441SOL    HW217223   4.905   3.314   4.111
 5442SOL     OW17224   5.152   0.790   3.639
 5442SOL    HW117225   5.062   0.748   3.652
 5442SOL    HW217226   5.144   0.865   3.573
 5443SOL     OW17227   4.881   6.758   4.787
 5443SOL    HW117228   4.972   6.777   4.750
 5443SOL    HW217229   4.832   6.844   4.802
 5444SOL     OW17230   0.479   1.753   4.168
 5444SOL    HW117231   0.423   1.812   4.110
 5444SOL    HW217232   0.568   1.738   4.125
 5445SOL     OW17233   5.037   5.169   5.022
 5445SOL    HW117234   5.131   5.134   5.030
 5445SOL    HW217235   5.027   5.250   5.079
 5446SOL     OW17236   6.883   4.727   5.128
 5446SOL    HW117237   6.954   4.701   5.061
 5446SOL    HW217238   6.914   4.703   5.220
 5447SOL     OW17239   2.121   1.719   1.431
 5447SOL    HW117240   2.194   1.766   1.382
 5447SOL    HW217241   2.160   1.660   1.502
 5448SOL     OW17242   4.595   5.853   3.942
 5448SOL    HW117243   4.643   5.912   4.006
 5448SOL    HW217244   4.564   5.770   3.989
 5449SOL     OW17245   3.281   1.384   1.798
 5449SOL    HW117246   3.247   1.296   1.831
 5449SOL    HW217247   3.205   1.449   1.794
 5450SOL     OW17248   3.655   5.936   1.636
 5450SOL    HW117249   3.742   5.966   1.598
 5450SOL    HW217250   3.669   5.900   1.729
 5451SOL     OW17251   1.064   0.196   2.475
 5451SOL    HW117252   1.103   0.138   2.403
 5451SOL    HW217253   0.964   0.188   2.473
 5452SOL     OW17254   1.357   4.954   1.151
 5452SOL    HW117255   1.418   4.885   1.190
 5452SOL    HW217256   1.279   4.968   1.211
 5453SOL     OW17257   5.117   4.080   2.454
 5453SOL    HW117258   5.040   4.073   2.517
 5453SOL    HW217259   5.202   4.084   2.507
 5454SOL     OW17260   5.635   5.623   2.558
 5454SOL    HW117261   5.597   5.675   2.635
 5454SOL    HW217262   5.634   5.525   2.581
 5455SOL     OW17263   0.700   1.507   2.680
 5455SOL    HW117264   0.693   1.420   2.731
 5455SOL    HW217265   0.677   1.491   2.584
 5456SOL     OW17266   5.051   0.605   6.996
 5456SOL    HW117267   5.135   0.659   6.989
 5456SOL    HW217268   5.051   0.534   6.926
 5457SOL     OW17269   6.345   2.205   0.137
 5457SOL    HW117270   6.427   2.224   0.192
 5457SOL    HW217271   6.264   2.206   0.196
 5458SOL     OW17272   6.294   4.754   0.510
 5458SOL    HW117273   6.345   4.670   0.497
 5458SOL    HW217274   6.234   4.769   0.431
 5459SOL     OW17275   1.893   4.965   5.944
 5459SOL    HW117276   1.800   4.955   5.977
 5459SOL    HW217277   1.894   5.026   5.865
 5460SOL     OW17278   2.095   1.511   1.112
 5460SOL    HW117279   2.039   1.593   1.110
 5460SOL    HW217280   2.176   1.527   1.168
 5461SOL     OW17281   1.009   1.498   5.407
 5461SOL    HW117282   1.101   1.458   5.414
 5461SOL    HW217283   1.014   1.596   5.429
 5462SOL     OW17284   5.504   6.010   6.900
 5462SOL    HW117285   5.572   6.043   6.966
 5462SOL    HW217286   5.420   6.063   6.909
 5463SOL     OW17287   6.544   2.030   6.287
 5463SOL    HW117288   6.484   1.955   6.258
 5463SOL    HW217289   6.637   1.995   6.297
 5464SOL     OW17290   6.402   5.590   5.370
 5464SOL    HW117291   6.313   5.611   5.329
 5464SOL    HW217292   6.456   5.674   5.378
 5465SOL     OW17293   6.301   6.851   3.262
 5465SOL    HW117294   6.346   6.912   3.327
 5465SOL    HW217295   6.202   6.862   3.267
 5466SOL     OW17296   5.607   2.655   5.251
 5466SOL    HW117297   5.534   2.605   5.204
 5466SOL    HW217298   5.595   2.647   5.350
 5467SOL     OW17299   5.709   3.552   3.819
 5467SOL    HW117300   5.716   3.452   3.813
 5467SOL    HW217301   5.719   3.580   3.914
 5468SOL     OW17302   6.808   2.680   3.092
 5468SOL    HW117303   6.719   2.691   3.136
 5468SOL    HW217304   6.854   2.769   3.087
 5469SOL     OW17305   1.938   0.110   6.047
 5469SOL    HW117306   1.933   0.024   6.098
 5469SOL    HW217307   1.934   0.090   5.949
 5470SOL     OW17308   4.379   5.307   4.030
 5470SOL    HW117309   4.296   5.344   3.987
 5470SOL    HW217310   4.365   5.211   4.051
 5471SOL     OW17311   5.764   0.686   2.746
 5471SOL    HW117312   5.769   0.773   2.698
 5471SOL    HW217313   5.785   0.612   2.682
 5472SOL     OW17314   2.956   2.460   5.756
 5472SOL    HW117315   3.017   2.511   5.696
 5472SOL    HW217316   2.874   2.432   5.705
 5473SOL     OW17317   1.577   4.612   0.622
 5473SOL    HW117318   1.605   4.613   0.526
 5473SOL    HW217319   1.575   4.706   0.657
 5474SOL     OW17320   1.196   5.920   3.543
 5474SOL    HW117321   1.190   5.886   3.449
 5474SOL    HW217322   1.145   6.006   3.551
 5475SOL     OW17323   1.684   1.695   0.969
 5475SOL    HW117324   1.694   1.652   0.879
 5475SOL    HW217325   1.645   1.786   0.958
 5476SOL     OW17326   2.213   5.127   5.463
 5476SOL    HW117327   2.218   5.048   5.402
 5476SOL    HW217328   2.289   5.189   5.443
 5477SOL     OW17329   1.588   4.199   2.631
 5477SOL    HW117330   1.667   4.208   2.570
 5477SOL    HW217331   1.587   4.108   2.672
 5478SOL     OW17332   4.389   5.526   6.256
 5478SOL    HW117333   4.477   5.545   6.212
 5478SOL    HW217334   4.359   5.433   6.232
 5479SOL     OW17335   4.335   0.892   3.967
 5479SOL    HW117336   4.271   0.940   4.026
 5479SOL    HW217337   4.408   0.954   3.939
 5480SOL     OW17338   6.232   4.816   5.126
 5480SOL    HW117339   6.190   4.886   5.184
 5480SOL    HW217340   6.160   4.764   5.081
 5481SOL     OW17341   4.751   0.512   5.157
 5481SOL    HW117342   4.691   0.568   5.100
 5481SOL    HW217343   4.734   0.415   5.137
 5482SOL     OW17344   3.416   4.078   2.034
 5482SOL    HW117345   3.431   3.979   2.037
 5482SOL    HW217346   3.331   4.099   2.083
 5483SOL     OW17347   6.485   2.646   5.730
 5483SOL    HW117348   6.580   2.623   5.708
 5483SOL    HW217349   6.446   2.699   5.655
 5484SOL     OW17350   5.892   0.127   3.464
 5484SOL    HW117351   5.930   0.080   3.544
 5484SOL    HW217352   5.886   0.064   3.388
 5485SOL     OW17353   2.970   0.055   4.431
 5485SOL    HW117354   2.979   6.976   4.410
 5485SOL    HW217355   2.946   0.066   4.528
 5486SOL     OW17356   2.113   6.969   3.981
 5486SOL    HW117357   2.213   6.964   3.981
 5486SOL    HW217358   2.082   6.999   3.891
 5487SOL     OW17359   5.913   3.860   6.664
 5487SOL    HW117360   6.010   3.836   6.667
 5487SOL    HW217361   5.889   3.914   6.744
 5488SOL     OW17362   4.568   1.504   0.683
 5488SOL    HW117363   4.614   1.590   0.663
 5488SOL    HW217364   4.607   1.431   0.628
 5489SOL     OW17365   1.791   3.945   1.741
 5489SOL    HW117366   1.833   3.985   1.823
 5489SOL    HW217367   1.827   3.853   1.727
 5490SOL     OW17368   3.694   6.681   0.704
 5490SOL    HW117369   3.628   6.751   0.678
 5490SOL    HW217370   3.785   6.723   0.710
 5491SOL     OW17371   1.540   4.465   6.802
 5491SOL    HW117372   1.491   4.492   6.718
 5491SOL    HW217373   1.476   4.465   6.879
 5492SOL     OW17374   0.890   1.495   5.983
 5492SOL    HW117375   0.975   1.490   5.931
 5492SOL    HW217376   0.821   1.437   5.940
 5493SOL     OW17377   3.258   3.287   4.907
 5493SOL    HW117378   3.281   3.190   4.899
 5493SOL    HW217379   3.250   3.311   5.004
 5494SOL     OW17380   6.375   2.489   0.258
 5494SOL    HW117381   6.469   2.484   0.226
 5494SOL    HW217382   6.313   2.472   0.182
 5495SOL     OW17383   3.122   2.948   1.521
 5495SOL    HW117384   3.102   2.909   1.612
 5495SOL    HW217385   3.042   2.939   1.463
 5496SOL     OW17386   2.790   6.625   2.298
 5496SOL    HW117387   2.886   6.610   2.320
 5496SOL    HW217388   2.749   6.539   2.268
 5497SOL     OW17389   0.592   1.932   3.129
 5497SOL    HW117390   0.545   1.960   3.212
 5497SOL    HW217391   0.526   1.889   3.067
 5498SOL     OW17392   5.244   0.694   0.522
 5498SOL    HW117393   5.214   0.611   0.474
 5498SOL    HW217394   5.333   0.723   0.487
 5499SOL     OW17395   0.838   1.038   3.993
 5499SOL    HW117396   0.869   0.994   3.909
 5499SOL    HW217397   0.742   1.014   4.010
 5500SOL     OW17398   1.834   6.037   0.145
 5500SOL    HW117399   1.752   5.987   0.118
 5500SOL    HW217400   1.901   6.034   0.071
 5501SOL     OW17401   3.058   0.108   1.210
 5501SOL    HW117402   3.027   0.169   1.137
 5501SOL    HW217403   2.999   0.119   1.290
 5502SOL     OW17404   6.060   4.286   6.206
 5502SOL    HW117405   6.031   4.358   6.269
 5502SOL    HW217406   5.979   4.241   6.168
 5503SOL     OW17407   0.508   4.443   2.879
 5503SOL    HW117408   0.418   4.402   2.894
 5503SOL    HW217409   0.575   4.400   2.941
 5504SOL     OW17410   3.060   1.346   5.728
 5504SOL    HW117411   3.100   1.267   5.774
 5504SOL    HW217412   3.010   1.402   5.794
 5505SOL     OW17413   2.613   5.633   4.786
 5505SOL    HW117414   2.690   5.618   4.849
 5505SOL    HW217415   2.649   5.652   4.694
 5506SOL     OW17416   6.387   0.243   5.775
 5506SOL    HW117417   6.385   0.148   5.745
 5506SOL    HW217418   6.306   0.263   5.830
 5507SOL     OW17419   2.643   0.147   2.720
 5507SOL    HW117420   2.616   0.129   2.625
 5507SOL    HW217421   2.588   0.221   2.757
 5508SOL     OW17422   2.861   1.178   6.970
 5508SOL    HW117423   2.857   1.237   0.032
 5508SOL    HW217424   2.862   1.235   6.887
 5509SOL     OW17425   1.102   6.464   0.128
 5509SOL    HW117426   1.043   6.495   0.202
 5509SOL    HW217427   1.172   6.402   0.164
 5510SOL     OW17428   5.211   6.019   0.647
 5510SOL    HW117429   5.182   6.100   0.698
 5510SOL    HW217430   5.308   6.002   0.665
 5511SOL     OW17431   2.357   0.324   4.000
 5511SOL    HW117432   2.387   0.324   3.904
 5511SOL    HW217433   2.389   0.407   4.045
 5512SOL     OW17434   6.595   1.848   0.716
 5512SOL    HW117435   6.650   1.787   0.774
 5512SOL    HW217436   6.563   1.925   0.770
 5513SOL     OW17437   4.282   4.074   5.780
 5513SOL    HW117438   4.197   4.113   5.816
 5513SOL    HW217439   4.264   3.983   5.744
 5514SOL     OW17440   5.213   5.648   2.385
 5514SOL    HW117441   5.186   5.628   2.290
 5514SOL    HW217442   5.274   5.576   2.418
 5515SOL     OW17443   0.191   4.078   1.240
 5515SOL    HW117444   0.137   4.002   1.276
 5515SOL    HW217445   0.288   4.062   1.261
 5516SOL     OW17446   0.906   2.665   0.631
 5516SOL    HW117447   0.979   2.711   0.681
 5516SOL    HW217448   0.823   2.663   0.687
 5517SOL     OW17449   2.789   2.286   2.502
 5517SOL    HW117450   2.711   2.341   2.469
 5517SOL    HW217451   2.805   2.305   2.599
 5518SOL     OW17452   6.381   6.159   6.211
 5518SOL    HW117453   6.398   6.147   6.309
 5518SOL    HW217454   6.339   6.248   6.195
 5519SOL     OW17455   5.022   4.046   3.038
 5519SOL    HW117456   5.070   3.961   3.059
 5519SOL    HW217457   4.974   4.037   2.951
 5520SOL     OW17458   0.638   4.989   3.269
 5520SOL    HW117459   0.615   4.926   3.343
 5520SOL    HW217460   0.708   4.949   3.211
 5521SOL     OW17461   3.861   5.531   2.750
 5521SOL    HW117462   3.929   5.570   2.813
 5521SOL    HW217463   3.769   5.555   2.783
 5522SOL     OW17464   1.733   4.197   0.740
 5522SOL    HW117465   1.653   4.184   0.680
 5522SOL    HW217466   1.723   4.283   0.789
 5523SOL     OW17467   2.961   0.055   3.076
 5523SOL    HW117468   2.928   6.981   3.095
 5523SOL    HW217469   2.884   0.119   3.073
 5524SOL     OW17470   6.543   5.296   4.734
 5524SOL    HW117471   6.587   5.236   4.800
 5524SOL    HW217472   6.444   5.282   4.735
 5525SOL     OW17473   6.693   3.944   0.458
 5525SOL    HW117474   6.656   4.034   0.434
 5525SOL    HW217475   6.658   3.875   0.394
 5526SOL     OW17476   6.188   3.586   5.027
 5526SOL    HW117477   6.093   3.565   5.003
 5526SOL    HW217478   6.203   3.685   5.022
 5527SOL     OW17479   0.700   3.950   3.561
 5527SOL    HW117480   0.674   3.853   3.558
 5527SOL    HW217481   0.742   3.976   3.474
 5528SOL     OW17482   0.578   2.150   6.362
 5528SOL    HW117483   0.599   2.195   6.450
 5528SOL    HW217484   0.643   2.181   6.293
 5529SOL     OW17485   2.290   0.032   4.603
 5529SOL    HW117486   2.341   0.052   4.520
 5529SOL    HW217487   2.333   6.974   4.651
 5530SOL     OW17488   0.091   2.497   2.212
 5530SOL    HW117489   0.028   2.566   2.174
 5530SOL    HW217490   0.183   2.512   2.174
 5531SOL     OW17491   3.620   3.760   3.153
 5531SOL    HW117492   3.674   3.774   3.070
 5531SOL    HW217493   3.523   3.751   3.129
 5532SOL     OW17494   1.137   1.628   1.100
 5532SOL    HW117495   1.219   1.580   1.068
 5532SOL    HW217496   1.136   1.630   1.200
 5533SOL     OW17497   2.767   1.234   2.472
 5533SOL    HW117498   2.765   1.323   2.425
 5533SOL    HW217499   2.826   1.241   2.553
 5534SOL     OW17500   1.202   3.380   6.086
 5534SOL    HW117501   1.114   3.396   6.131
 5534SOL    HW217502   1.272   3.437   6.130
 5535SOL     OW17503   0.627   2.647   3.572
 5535SOL    HW117504   0.567   2.669   3.650
 5535SOL    HW217505   0.580   2.585   3.510
 5536SOL     OW17506   3.662   1.347   4.183
 5536SOL    HW117507   3.706   1.422   4.232
 5536SOL    HW217508   3.567   1.340   4.213
 5537SOL     OW17509   3.049   0.508   4.447
 5537SOL    HW117510   3.141   0.489   4.482
 5537SOL    HW217511   2.982   0.494   4.520
 5538SOL     OW17512   3.411   0.207   5.071
 5538SOL    HW117513   3.352   0.287   5.059
 5538SOL    HW217514   3.419   0.157   4.985
 5539SOL     OW17515   1.133   2.624   1.173
 5539SOL    HW117516   1.224   2.640   1.134
 5539SOL    HW217517   1.064   2.667   1.116
 5540SOL     OW17518   5.514   3.827   2.382
 5540SOL    HW117519   5.543   3.767   2.308
 5540SOL    HW217520   5.458   3.775   2.447
 5541SOL     OW17521   5.257   2.355   6.223
 5541SOL    HW117522   5.189   2.292   6.186
 5541SOL    HW217523   5.340   2.305   6.247
 5542SOL     OW17524   6.010   6.450   5.603
 5542SOL    HW117525   5.973   6.532   5.558
 5542SOL    HW217526   5.942   6.414   5.667
 5543SOL     OW17527   2.121   5.401   6.199
 5543SOL    HW117528   2.057   5.476   6.212
 5543SOL    HW217529   2.107   5.333   6.271
 5544SOL     OW17530   4.986   5.526   5.945
 5544SOL    HW117531   4.967   5.464   5.868
 5544SOL    HW217532   5.029   5.609   5.910
 5545SOL     OW17533   4.796   1.360   3.042
 5545SOL    HW117534   4.871   1.369   3.107
 5545SOL    HW217535   4.742   1.279   3.064
 5546SOL     OW17536   0.926   6.871   4.440
 5546SOL    HW117537   0.935   6.775   4.465
 5546SOL    HW217538   0.857   6.881   4.368
 5547SOL     OW17539   4.057   0.975   4.826
 5547SOL    HW117540   4.006   1.025   4.756
 5547SOL    HW217541   4.138   1.028   4.853
 5548SOL     OW17542   6.276   3.139   5.364
 5548SOL    HW117543   6.341   3.148   5.290
 5548SOL    HW217544   6.245   3.044   5.370
 5549SOL     OW17545   3.955   4.531   0.487
 5549SOL    HW117546   3.910   4.485   0.564
 5549SOL    HW217547   4.049   4.496   0.479
 5550SOL     OW17548   2.202   4.624   2.407
 5550SOL    HW117549   2.207   4.580   2.317
 5550SOL    HW217550   2.269   4.697   2.412
 5551SOL     OW17551   1.356   6.511   2.858
 5551SOL    HW117552   1.429   6.554   2.910
 5551SOL    HW217553   1.318   6.434   2.910
 5552SOL     OW17554   6.699   0.581   6.701
 5552SOL    HW117555   6.770   0.644   6.670
 5552SOL    HW217556   6.615   0.598   6.649
 5553SOL     OW17557   4.622   6.165   6.533
 5553SOL    HW117558   4.700   6.103   6.520
 5553SOL    HW217559   4.610   6.182   6.631
 5554SOL     OW17560   4.182   2.088   6.999
 5554SOL    HW117561   4.100   2.076   0.037
 5554SOL    HW217562   4.222   1.999   6.979
 5555SOL     OW17563   0.840   3.982   2.864
 5555SOL    HW117564   0.796   3.898   2.895
 5555SOL    HW217565   0.840   3.986   2.764
 5556SOL     OW17566   6.217   1.971   2.973
 5556SOL    HW117567   6.181   2.054   2.929
 5556SOL    HW217568   6.251   1.908   2.903
 5557SOL     OW17569   3.901   6.527   2.750
 5557SOL    HW117570   3.906   6.428   2.761
 5557SOL    HW217571   3.980   6.559   2.699
 5558SOL     OW17572   3.497   3.931   6.085
 5558SOL    HW117573   3.474   3.936   6.182
 5558SOL    HW217574   3.545   3.846   6.066
 5559SOL     OW17575   2.096   0.057   1.216
 5559SOL    HW117576   2.001   0.029   1.225
 5559SOL    HW217577   2.148   7.003   1.172
 5560SOL     OW17578   0.394   5.611   1.641
 5560SOL    HW117579   0.368   5.534   1.583
 5560SOL    HW217580   0.457   5.579   1.712
 5561SOL     OW17581   1.469   1.333   4.322
 5561SOL    HW117582   1.550   1.364   4.271
 5561SOL    HW217583   1.486   1.241   4.358
 5562SOL     OW17584   4.091   2.467   6.357
 5562SOL    HW117585   4.082   2.465   6.456
 5562SOL    HW217586   4.014   2.517   6.317
 5563SOL     OW17587   3.513   4.890   2.595
 5563SOL    HW117588   3.509   4.953   2.517
 5563SOL    HW217589   3.599   4.840   2.592
 5564SOL     OW17590   4.921   6.931   0.905
 5564SOL    HW117591   4.870   6.866   0.849
 5564SOL    HW217592   4.856   6.992   0.952
 5565SOL     OW17593   4.300   2.136   6.105
 5565SOL    HW117594   4.307   2.043   6.140
 5565SOL    HW217595   4.288   2.199   6.182
 5566SOL     OW17596   1.390   3.779   6.717
 5566SOL    HW117597   1.357   3.780   6.623
 5566SOL    HW217598   1.439   3.694   6.735
 5567SOL     OW17599   6.961   2.945   1.139
 5567SOL    HW117600   6.936   2.913   1.230
 5567SOL    HW217601   0.042   2.957   1.134
 5568SOL     OW17602   5.103   1.551   3.755
 5568SOL    HW117603   5.018   1.594   3.725
 5568SOL    HW217604   5.082   1.472   3.812
 5569SOL     OW17605   1.833   1.966   2.717
 5569SOL    HW117606   1.918   1.998   2.760
 5569SOL    HW217607   1.755   1.991   2.775
 5570SOL     OW17608   6.912   3.795   4.948
 5570SOL    HW117609   6.911   3.697   4.929
 5570SOL    HW217610   6.819   3.826   4.968
 5571SOL     OW17611   6.229   6.239   0.336
 5571SOL    HW117612   6.172   6.214   0.414
 5571SOL    HW217613   6.326   6.235   0.362
 5572SOL     OW17614   1.299   2.962   4.801
 5572SOL    HW117615   1.318   3.049   4.756
 5572SOL    HW217616   1.361   2.892   4.766
 5573SOL     OW17617   1.986   5.393   5.113
 5573SOL    HW117618   2.082   5.408   5.135
 5573SOL    HW217619   1.971   5.297   5.091
 5574SOL     OW17620   6.931   1.992   2.570
 5574SOL    HW117621   6.942   2.089   2.549
 5574SOL    HW217622   6.835   1.967   2.565
 5575SOL     OW17623   0.071   0.999   1.222
 5575SOL    HW117624   0.101   0.907   1.195
 5575SOL    HW217625   6.994   1.011   1.194
 5576SOL     OW17626   1.013   4.666   1.590
 5576SOL    HW117627   0.917   4.668   1.618
 5576SOL    HW217628   1.071   4.684   1.669
 5577SOL     OW17629   3.318   3.088   5.708
 5577SOL    HW117630   3.260   3.028   5.652
 5577SOL    HW217631   3.269   3.114   5.790
 5578SOL     OW17632   3.538   3.860   1.368
 5578SOL    HW117633   3.542   3.843   1.269
 5578SOL    HW217634   3.629   3.850   1.407
 5579SOL     OW17635   0.669   3.345   1.095
 5579SOL    HW117636   0.720   3.412   1.041
 5579SOL    HW217637   0.572   3.351   1.072
 5580SOL     OW17638   5.249   2.527   5.690
 5580SOL    HW117639   5.296   2.541   5.603
 5580SOL    HW217640   5.316   2.528   5.764
 5581SOL     OW17641   1.531   6.960   1.700
 5581SOL    HW117642   1.499   6.996   1.612
 5581SOL    HW217643   1.520   0.011   1.771
 5582SOL     OW17644   3.265   3.647   5.378
 5582SOL    HW117645   3.222   3.558   5.393
 5582SOL    HW217646   3.363   3.640   5.398
 5583SOL     OW17647   4.934   0.621   2.876
 5583SOL    HW117648   4.935   0.649   2.972
 5583SOL    HW217649   4.911   0.524   2.870
 5584SOL     OW17650   6.120   5.613   3.467
 5584SOL    HW117651   6.021   5.614   3.477
 5584SOL    HW217652   6.162   5.593   3.556
 5585SOL     OW17653   5.252   5.102   3.496
 5585SOL    HW117654   5.222   5.090   3.402
 5585SOL    HW217655   5.217   5.188   3.533
 5586SOL     OW17656   0.563   2.596   6.168
 5586SOL    HW117657   0.557   2.498   6.187
 5586SOL    HW217658   0.659   2.621   6.155
 5587SOL     OW17659   4.482   6.623   1.443
 5587SOL    HW117660   4.520   6.644   1.534
 5587SOL    HW217661   4.557   6.599   1.381
 5588SOL     OW17662   2.232   5.409   3.003
 5588SOL    HW117663   2.210   5.410   2.906
 5588SOL    HW217664   2.175   5.339   3.049
 5589SOL     OW17665   6.606   3.093   5.671
 5589SOL    HW117666   6.684   3.148   5.639
 5589SOL    HW217667   6.521   3.139   5.648
 5590SOL     OW17668   0.015   6.444   3.739
 5590SOL    HW117669   6.944   6.403   3.721
 5590SOL    HW217670   0.044   6.497   3.659
 5591SOL     OW17671   5.169   1.531   0.514
 5591SOL    HW117672   5.108   1.609   0.522
 5591SOL    HW217673   5.195   1.499   0.605
 5592SOL     OW17674   0.377   5.181   2.176
 5592SOL    HW117675   0.371   5.279   2.156
 5592SOL    HW217676   0.471   5.150   2.165
 5593SOL     OW17677   0.905   3.510   0.382
 5593SOL    HW117678   0.853   3.594   0.366
 5593SOL    HW217679   0.991   3.531   0.428
 5594SOL     OW17680   4.579   0.913   6.421
 5594SOL    HW117681   4.579   0.832   6.479
 5594SOL    HW217682   4.523   0.897   6.340
 5595SOL     OW17683   6.812   0.931   4.678
 5595SOL    HW117684   6.826   0.967   4.586
 5595SOL    HW217685   6.873   0.854   4.694
 5596SOL     OW17686   4.623   0.632   3.073
 5596SOL    HW117687   4.718   0.628   3.103
 5596SOL    HW217688   4.614   0.698   2.999
 5597SOL     OW17689   4.845   3.121   5.060
 5597SOL    HW117690   4.879   3.053   5.125
 5597SOL    HW217691   4.813   3.201   5.110
 5598SOL     OW17692   5.748   4.327   3.571
 5598SOL    HW117693   5.719   4.265   3.497
 5598SOL    HW217694   5.837   4.366   3.549
 5599SOL     OW17695   0.684   2.193   1.835
 5599SOL    HW117696   0.694   2.180   1.934
 5599SOL    HW217697   0.613   2.261   1.818
 5600SOL     OW17698   1.493   1.305   1.345
 5600SOL    HW117699   1.518   1.208   1.345
 5600SOL    HW217700   1.573   1.360   1.368
 5601SOL     OW17701   2.247   1.066   6.674
 5601SOL    HW117702   2.347   1.071   6.678
 5601SOL    HW217703   2.213   1.014   6.752
 5602SOL     OW17704   0.561   1.820   1.563
 5602SOL    HW117705   0.570   1.763   1.645
 5602SOL    HW217706   0.557   1.916   1.590
 5603SOL     OW17707   6.059   2.422   0.484
 5603SOL    HW117708   6.117   2.429   0.566
 5603SOL    HW217709   5.988   2.353   0.501
 5604SOL     OW17710   6.388   2.365   4.189
 5604SOL    HW117711   6.392   2.460   4.220
 5604SOL    HW217712   6.293   2.340   4.169
 5605SOL     OW17713   7.015   0.889   4.919
 5605SOL    HW117714   0.046   0.816   4.966
 5605SOL    HW217715   0.043   0.911   4.833
 5606SOL     OW17716   5.120   5.982   0.114
 5606SOL    HW117717   5.171   6.038   0.180
 5606SOL    HW217718   5.094   6.038   0.035
 5607SOL     OW17719   6.013   1.393   2.816
 5607SOL    HW117720   6.030   1.409   2.913
 5607SOL    HW217721   5.968   1.473   2.776
 5608SOL     OW17722   5.713   0.320   3.801
 5608SOL    HW117723   5.654   0.398   3.823
 5608SOL    HW217724   5.750   0.331   3.709
 5609SOL     OW17725   3.339   6.040   1.272
 5609SOL    HW117726   3.312   6.121   1.324
 5609SOL    HW217727   3.348   5.962   1.334
 5610SOL     OW17728   4.722   5.551   0.740
 5610SOL    HW117729   4.670   5.574   0.822
 5610SOL    HW217730   4.769   5.463   0.754
 5611SOL     OW17731   0.886   6.167   2.624
 5611SOL    HW117732   0.935   6.188   2.709
 5611SOL    HW217733   0.951   6.162   2.548
 5612SOL     OW17734   3.678   1.961   5.949
 5612SOL    HW117735   3.750   1.928   6.010
 5612SOL    HW217736   3.686   2.060   5.938
 5613SOL     OW17737   6.728   4.945   3.623
 5613SOL    HW117738   6.772   4.939   3.713
 5613SOL    HW217739   6.772   5.015   3.568
 5614SOL     OW17740   4.753   2.489   4.418
 5614SOL    HW117741   4.744   2.401   4.466
 5614SOL    HW217742   4.666   2.538   4.423
 5615SOL     OW17743   6.754   1.396   3.509
 5615SOL    HW117744   6.723   1.437   3.594
 5615SOL    HW217745   6.712   1.305   3.498
 5616SOL     OW17746   2.768   2.325   3.954
 5616SOL    HW117747   2.781   2.257   4.026
 5616SOL    HW217748   2.814   2.294   3.871
 5617SOL     OW17749   2.778   6.279   5.502
 5617SOL    HW117750   2.787   6.256   5.598
 5617SOL    HW217751   2.865   6.263   5.455
 5618SOL     OW17752   0.428   4.357   3.931
 5618SOL    HW117753   0.425   4.262   3.960
 5618SOL    HW217754   0.352   4.375   3.868
 5619SOL     OW17755   3.599   3.809   4.841
 5619SOL    HW117756   3.618   3.718   4.880
 5619SOL    HW217757   3.677   3.869   4.859
 5620SOL     OW17758   4.519   3.693   0.672
 5620SOL    HW117759   4.440   3.676   0.732
 5620SOL    HW217760   4.573   3.610   0.665
 5621SOL     OW17761   2.414   2.545   0.375
 5621SOL    HW117762   2.323   2.524   0.411
 5621SOL    HW217763   2.468   2.592   0.445
 5622SOL     OW17764   4.655   0.244   5.958
 5622SOL    HW117765   4.641   0.331   5.912
 5622SOL    HW217766   4.717   0.257   6.036
 5623SOL     OW17767   3.760   5.715   5.298
 5623SOL    HW117768   3.678   5.734   5.353
 5623SOL    HW217769   3.813   5.799   5.288
 5624SOL     OW17770   0.757   4.637   3.455
 5624SOL    HW117771   0.776   4.600   3.546
 5624SOL    HW217772   0.667   4.680   3.455
 5625SOL     OW17773   5.515   0.655   4.985
 5625SOL    HW117774   5.581   0.630   5.056
 5625SOL    HW217775   5.435   0.595   4.991
 5626SOL     OW17776   2.314   5.863   4.479
 5626SOL    HW117777   2.239   5.820   4.427
 5626SOL    HW217778   2.281   5.886   4.571
 5627SOL     OW17779   0.421   5.478   6.007
 5627SOL    HW117780   0.370   5.455   5.924
 5627SOL    HW217781   0.402   5.572   6.034
 5628SOL     OW17782   1.567   2.414   2.262
 5628SOL    HW117783   1.666   2.431   2.264
 5628SOL    HW217784   1.547   2.334   2.318
 5629SOL     OW17785   3.780   3.703   2.286
 5629SOL    HW117786   3.743   3.645   2.359
 5629SOL    HW217787   3.780   3.799   2.316
 5630SOL     OW17788   1.930   3.533   6.711
 5630SOL    HW117789   1.927   3.453   6.652
 5630SOL    HW217790   1.846   3.586   6.701
 5631SOL     OW17791   4.667   2.339   1.289
 5631SOL    HW117792   4.638   2.307   1.379
 5631SOL    HW217793   4.591   2.387   1.245
 5632SOL     OW17794   3.115   2.133   6.007
 5632SOL    HW117795   3.174   2.124   6.087
 5632SOL    HW217796   3.131   2.221   5.963
 5633SOL     OW17797   6.310   4.201   4.557
 5633SOL    HW117798   6.281   4.112   4.591
 5633SOL    HW217799   6.385   4.189   4.492
 5634SOL     OW17800   2.045   5.060   3.894
 5634SOL    HW117801   2.117   5.116   3.852
 5634SOL    HW217802   2.062   5.053   3.993
 5635SOL     OW17803   1.978   4.807   5.597
 5635SOL    HW117804   1.983   4.754   5.512
 5635SOL    HW217805   2.050   4.776   5.660
 5636SOL     OW17806   4.792   0.054   4.806
 5636SOL    HW117807   4.694   0.061   4.822
 5636SOL    HW217808   4.822   0.126   4.744
 5637SOL     OW17809   5.200   0.495   2.850
 5637SOL    HW117810   5.286   0.538   2.826
 5637SOL    HW217811   5.125   0.561   2.839
 5638SOL     OW17812   6.275   4.095   0.691
 5638SOL    HW117813   6.221   4.035   0.751
 5638SOL    HW217814   6.348   4.042   0.649
 5639SOL     OW17815   0.958   0.920   2.481
 5639SOL    HW117816   1.051   0.939   2.515
 5639SOL    HW217817   0.963   0.871   2.394
 5640SOL     OW17818   3.735   0.471   3.689
 5640SOL    HW117819   3.664   0.541   3.691
 5640SOL    HW217820   3.795   0.486   3.610
 5641SOL     OW17821   0.887   4.820   5.074
 5641SOL    HW117822   0.842   4.753   5.015
 5641SOL    HW217823   0.933   4.889   5.017
 5642SOL     OW17824   1.694   6.431   5.198
 5642SOL    HW117825   1.645   6.478   5.125
 5642SOL    HW217826   1.749   6.357   5.160
 5643SOL     OW17827   4.279   1.048   5.405
 5643SOL    HW117828   4.379   1.047   5.392
 5643SOL    HW217829   4.251   1.135   5.444
 5644SOL     OW17830   3.219   0.397   5.081
 5644SOL    HW117831   3.229   0.489   5.120
 5644SOL    HW217832   3.124   0.368   5.089
 5645SOL     OW17833   5.944   4.903   3.792
 5645SOL    HW117834   6.009   4.975   3.818
 5645SOL    HW217835   5.891   4.933   3.713
 5646SOL     OW17836   1.256   4.867   3.532
 5646SOL    HW117837   1.173   4.817   3.505
 5646SOL    HW217838   1.298   4.822   3.610
 5647SOL     OW17839   5.182   5.641   1.160
 5647SOL    HW117840   5.277   5.673   1.155
 5647SOL    HW217841   5.170   5.583   1.241
 5648SOL     OW17842   1.720   6.874   2.719
 5648SOL    HW117843   1.711   6.787   2.767
 5648SOL    HW217844   1.814   6.908   2.727
 5649SOL     OW17845   0.702   0.407   4.098
 5649SOL    HW117846   0.607   0.429   4.117
 5649SOL    HW217847   0.748   0.380   4.183
 5650SOL     OW17848   0.474   5.714   0.999
 5650SOL    HW117849   0.543   5.650   0.964
 5650SOL    HW217850   0.413   5.741   0.925
 5651SOL     OW17851   1.645   0.643   1.498
 5651SOL    HW117852   1.649   0.555   1.544
 5651SOL    HW217853   1.734   0.689   1.504
 5652SOL     OW17854   6.302   0.311   1.476
 5652SOL    HW117855   6.219   0.297   1.529
 5652SOL    HW217856   6.287   0.281   1.381
 5653SOL     OW17857   6.276   6.413   6.212
 5653SOL    HW117858   6.214   6.425   6.290
 5653SOL    HW217859   6.327   6.497   6.198
 5654SOL     OW17860   0.678   6.375   5.307
 5654SOL    HW117861   0.762   6.320   5.312
 5654SOL    HW217862   0.598   6.314   5.312
 5655SOL     OW17863   1.089   3.694   4.252
 5655SOL    HW117864   1.125   3.717   4.342
 5655SOL    HW217865   1.030   3.768   4.220
 5656SOL     OW17866   0.089   3.864   6.507
 5656SOL    HW117867   0.112   3.803   6.431
 5656SOL    HW217868   0.160   3.857   6.577
 5657SOL     OW17869   6.175   2.615   6.926
 5657SOL    HW117870   6.106   2.675   6.887
 5657SOL    HW217871   6.138   2.569   7.006
 5658SOL     OW17872   2.999   3.073   6.743
 5658SOL    HW117873   3.096   3.049   6.748
 5658SOL    HW217874   2.958   3.025   6.666
 5659SOL     OW17875   3.184   3.319   5.154
 5659SOL    HW117876   3.231   3.364   5.230
 5659SOL    HW217877   3.099   3.368   5.134
 5660SOL     OW17878   4.146   6.754   6.436
 5660SOL    HW117879   4.100   6.713   6.515
 5660SOL    HW217880   4.245   6.741   6.445
 5661SOL     OW17881   1.871   5.592   4.945
 5661SOL    HW117882   1.927   5.536   5.005
 5661SOL    HW217883   1.779   5.602   4.983
 5662SOL     OW17884   2.802   6.639   4.163
 5662SOL    HW117885   2.857   6.635   4.080
 5662SOL    HW217886   2.710   6.671   4.140
 5663SOL     OW17887   2.325   2.042   0.636
 5663SOL    HW117888   2.340   2.112   0.566
 5663SOL    HW217889   2.332   1.952   0.594
 5664SOL     OW17890   0.258   3.335   4.437
 5664SOL    HW117891   0.332   3.350   4.371
 5664SOL    HW217892   0.241   3.237   4.446
 5665SOL     OW17893   2.433   0.804   0.333
 5665SOL    HW117894   2.354   0.836   0.384
 5665SOL    HW217895   2.465   0.877   0.273
 5666SOL     OW17896   6.564   6.747   3.314
 5666SOL    HW117897   6.611   6.812   3.255
 5666SOL    HW217898   6.624   6.718   3.388
 5667SOL     OW17899   1.716   4.925   4.841
 5667SOL    HW117900   1.812   4.898   4.843
 5667SOL    HW217901   1.709   5.025   4.851
 5668SOL     OW17902   5.451   2.959   3.190
 5668SOL    HW117903   5.518   3.033   3.190
 5668SOL    HW217904   5.487   2.882   3.243
 5669SOL     OW17905   6.519   3.783   0.857
 5669SOL    HW117906   6.459   3.707   0.882
 5669SOL    HW217907   6.498   3.863   0.913
 5670SOL     OW17908   0.958   3.922   4.185
 5670SOL    HW117909   0.882   3.938   4.249
 5670SOL    HW217910   1.004   4.009   4.166
 5671SOL     OW17911   5.850   5.924   5.311
 5671SOL    HW117912   5.865   6.017   5.279
 5671SOL    HW217913   5.895   5.911   5.399
 5672SOL     OW17914   4.591   3.619   6.662
 5672SOL    HW117915   4.584   3.659   6.753
 5672SOL    HW217916   4.505   3.573   6.639
 5673SOL     OW17917   1.970   6.690   1.071
 5673SOL    HW117918   2.054   6.710   1.020
 5673SOL    HW217919   1.928   6.607   1.034
 5674SOL     OW17920   0.646   4.407   5.116
 5674SOL    HW117921   0.735   4.400   5.072
 5674SOL    HW217922   0.607   4.497   5.098
 5675SOL     OW17923   4.483   2.996   6.147
 5675SOL    HW117924   4.579   3.004   6.119
 5675SOL    HW217925   4.475   3.016   6.245
 5676SOL     OW17926   2.684   1.565   2.792
 5676SOL    HW117927   2.649   1.572   2.698
 5676SOL    HW217928   2.751   1.491   2.797
 5677SOL     OW17929   0.506   1.058   0.650
 5677SOL    HW117930   0.497   0.977   0.592
 5677SOL    HW217931   0.441   1.052   0.726
 5678SOL     OW17932   3.949   0.004   2.761
 5678SOL    HW117933   3.986   0.092   2.791
 5678SOL    HW217934   3.977   6.951   2.825
 5679SOL     OW17935   6.281   1.675   3.729
 5679SOL    HW117936   6.199   1.644   3.777
 5679SOL    HW217937   6.256   1.711   3.639
 5680SOL     OW17938   1.617   5.480   6.218
 5680SOL    HW117939   1.694   5.422   6.192
 5680SOL    HW217940   1.532   5.426   6.217
 5681SOL     OW17941   0.764   3.342   2.027
 5681SOL    HW117942   0.836   3.403   1.992
 5681SOL    HW217943   0.697   3.326   1.955
 5682SOL     OW17944   2.067   5.366   4.818
 5682SOL    HW117945   1.982   5.383   4.867
 5682SOL    HW217946   2.068   5.418   4.733
 5683SOL     OW17947   4.007   1.024   5.602
 5683SOL    HW117948   3.969   1.092   5.664
 5683SOL    HW217949   4.107   1.021   5.612
 5684SOL     OW17950   2.298   3.720   6.150
 5684SOL    HW117951   2.394   3.694   6.161
 5684SOL    HW217952   2.255   3.729   6.240
 5685SOL     OW17953   2.259   1.449   3.698
 5685SOL    HW117954   2.247   1.410   3.606
 5685SOL    HW217955   2.356   1.466   3.715
 5686SOL     OW17956   2.945   1.476   6.271
 5686SOL    HW117957   2.965   1.421   6.190
 5686SOL    HW217958   2.937   1.572   6.244
 5687SOL     OW17959   0.192   5.427   6.419
 5687SOL    HW117960   0.183   5.435   6.320
 5687SOL    HW217961   0.245   5.345   6.441
 5688SOL     OW17962   1.349   2.543   2.507
 5688SOL    HW117963   1.369   2.471   2.573
 5688SOL    HW217964   1.434   2.592   2.485
 5689SOL     OW17965   3.011   1.601   1.435
 5689SOL    HW117966   3.015   1.507   1.402
 5689SOL    HW217967   3.080   1.655   1.389
 5690SOL     OW17968   1.469   6.127   0.381
 5690SOL    HW117969   1.565   6.147   0.405
 5690SOL    HW217970   1.467   6.056   0.311
 5691SOL     OW17971   4.200   0.362   2.243
 5691SOL    HW117972   4.124   0.387   2.304
 5691SOL    HW217973   4.177   0.280   2.192
 5692SOL     OW17974   5.380   3.780   0.554
 5692SOL    HW117975   5.432   3.721   0.616
 5692SOL    HW217976   5.372   3.871   0.594
 5693SOL     OW17977   4.151   1.574   2.557
 5693SOL    HW117978   4.145   1.651   2.494
 5693SOL    HW217979   4.154   1.489   2.505
 5694SOL     OW17980   1.234   1.329   3.157
 5694SOL    HW117981   1.242   1.351   3.254
 5694SOL    HW217982   1.142   1.353   3.125
 5695SOL     OW17983   1.699   2.120   3.962
 5695SOL    HW117984   1.734   2.192   3.902
 5695SOL    HW217985   1.698   2.033   3.912
 5696SOL     OW17986   0.789   0.953   3.692
 5696SOL    HW117987   0.811   0.856   3.686
 5696SOL    HW217988   0.791   0.993   3.600
 5697SOL     OW17989   5.808   2.055   1.978
 5697SOL    HW117990   5.714   2.077   1.952
 5697SOL    HW217991   5.839   2.121   2.047
 5698SOL     OW17992   0.865   4.449   4.075
 5698SOL    HW117993   0.824   4.454   4.166
 5698SOL    HW217994   0.916   4.534   4.056
 5699SOL     OW17995   0.996   2.954   2.921
 5699SOL    HW117996   0.974   2.858   2.934
 5699SOL    HW217997   1.094   2.968   2.933
 5700SOL     OW17998   6.338   6.953   3.664
 5700SOL    HW117999   6.341   6.853   3.668
 5700SOL    HW218000   6.326   6.983   3.569
 5701SOL     OW18001   0.642   0.347   1.216
 5701SOL    HW118002   0.610   0.300   1.299
 5701SOL    HW218003   0.641   0.446   1.232
 5702SOL     OW18004   2.773   5.341   4.391
 5702SOL    HW118005   2.834   5.413   4.357
 5702SOL    HW218006   2.776   5.262   4.330
 5703SOL     OW18007   6.401   4.492   0.435
 5703SOL    HW118008   6.349   4.424   0.486
 5703SOL    HW218009   6.480   4.448   0.392
 5704SOL     OW18010   4.716   4.152   3.053
 5704SOL    HW118011   4.790   4.155   3.120
 5704SOL    HW218012   4.722   4.067   2.999
 5705SOL     OW18013   4.900   6.501   6.995
 5705SOL    HW118014   4.895   6.519   6.896
 5705SOL    HW218015   4.929   6.584   0.024
 5706SOL     OW18016   6.764   3.117   2.341
 5706SOL    HW118017   6.858   3.147   2.356
 5706SOL    HW218018   6.721   3.097   2.430
 5707SOL     OW18019   6.647   6.724   0.658
 5707SOL    HW118020   6.609   6.652   0.601
 5707SOL    HW218021   6.736   6.752   0.623
 5708SOL     OW18022   4.867   5.750   2.338
 5708SOL    HW118023   4.933   5.675   2.342
 5708SOL    HW218024   4.835   5.771   2.431
 5709SOL     OW18025   1.290   1.438   2.243
 5709SOL    HW118026   1.226   1.446   2.320
 5709SOL    HW218027   1.240   1.449   2.157
 5710SOL     OW18028   3.066   2.850   0.533
 5710SOL    HW118029   3.133   2.867   0.605
 5710SOL    HW218030   2.995   2.788   0.567
 5711SOL     OW18031   5.189   1.328   2.588
 5711SOL    HW118032   5.122   1.265   2.549
 5711SOL    HW218033   5.151   1.368   2.672
 5712SOL     OW18034   6.076   0.192   0.198
 5712SOL    HW118035   6.049   0.210   0.292
 5712SOL    HW218036   6.011   0.128   0.156
 5713SOL     OW18037   2.738   4.036   1.681
 5713SOL    HW118038   2.815   4.097   1.699
 5713SOL    HW218039   2.770   3.953   1.636
 5714SOL     OW18040   0.011   5.686   0.888
 5714SOL    HW118041   0.053   5.715   0.974
 5714SOL    HW218042   6.958   5.752   0.863
 5715SOL     OW18043   0.739   0.610   2.455
 5715SOL    HW118044   0.830   0.644   2.481
 5715SOL    HW218045   0.688   0.685   2.413
 5716SOL     OW18046   1.334   4.914   5.958
 5716SOL    HW118047   1.292   4.824   5.950
 5716SOL    HW218048   1.302   4.973   5.884
 5717SOL     OW18049   1.884   5.057   0.727
 5717SOL    HW118050   1.858   5.150   0.754
 5717SOL    HW218051   1.965   5.029   0.779
 5718SOL     OW18052   0.531   3.390   0.311
 5718SOL    HW118053   0.602   3.380   0.242
 5718SOL    HW218054   0.450   3.339   0.283
 5719SOL     OW18055   1.739   2.729   6.999
 5719SOL    HW118056   1.740   2.638   0.022
 5719SOL    HW218057   1.662   2.782   0.017
 5720SOL     OW18058   2.373   6.132   4.793
 5720SOL    HW118059   2.376   6.153   4.891
 5720SOL    HW218060   2.362   6.033   4.780
 5721SOL     OW18061   6.173   3.903   1.054
 5721SOL    HW118062   6.247   3.931   1.114
 5721SOL    HW218063   6.085   3.917   1.100
 5722SOL     OW18064   6.704   2.069   5.029
 5722SOL    HW118065   6.670   2.019   5.109
 5722SOL    HW218066   6.681   2.019   4.946
 5723SOL     OW18067   4.292   3.181   0.238
 5723SOL    HW118068   4.255   3.261   0.284
 5723SOL    HW218069   4.339   3.123   0.304
 5724SOL     OW18070   5.682   2.783   4.309
 5724SOL    HW118071   5.586   2.759   4.324
 5724SOL    HW218072   5.724   2.716   4.249
 5725SOL     OW18073   6.261   5.338   3.592
 5725SOL    HW118074   6.282   5.334   3.690
 5725SOL    HW218075   6.346   5.344   3.540
 5726SOL     OW18076   6.613   5.559   4.291
 5726SOL    HW118077   6.650   5.514   4.210
 5726SOL    HW218078   6.668   5.641   4.312
 5727SOL     OW18079   6.034   2.403   4.160
 5727SOL    HW118080   6.057   2.337   4.088
 5727SOL    HW218081   6.073   2.373   4.247
 5728SOL     OW18082   4.064   6.054   5.620
 5728SOL    HW118083   4.146   5.998   5.611
 5728SOL    HW218084   4.052   6.081   5.716
 5729SOL     OW18085   2.496   0.613   0.117
 5729SOL    HW118086   2.466   0.663   0.199
 5729SOL    HW218087   2.561   0.542   0.144
 5730SOL     OW18088   5.246   4.775   6.108
 5730SOL    HW118089   5.215   4.781   6.203
 5730SOL    HW218090   5.195   4.840   6.052
 5731SOL     OW18091   0.173   6.971   3.132
 5731SOL    HW118092   0.206   6.888   3.176
 5731SOL    HW218093   0.205   6.975   3.038
 5732SOL     OW18094   0.763   5.592   4.137
 5732SOL    HW118095   0.728   5.684   4.119
 5732SOL    HW218096   0.863   5.595   4.143
 5733SOL     OW18097   2.988   6.472   5.320
 5733SOL    HW118098   2.946   6.450   5.232
 5733SOL    HW218099   3.047   6.552   5.311
 5734SOL     OW18100   1.135   0.604   5.160
 5734SOL    HW118101   1.041   0.631   5.142
 5734SOL    HW218102   1.175   0.666   5.227
 5735SOL     OW18103   3.987   1.709   1.314
 5735SOL    HW118104   4.066   1.671   1.267
 5735SOL    HW218105   3.903   1.679   1.268
 5736SOL     OW18106   5.922   3.806   0.156
 5736SOL    HW118107   5.847   3.764   0.208
 5736SOL    HW218108   6.000   3.821   0.217
 5737SOL     OW18109   5.684   6.332   6.986
 5737SOL    HW118110   5.685   6.395   6.908
 5737SOL    HW218111   5.702   6.239   6.953
 5738SOL     OW18112   1.983   2.478   6.007
 5738SOL    HW118113   2.011   2.445   5.917
 5738SOL    HW218114   1.887   2.504   6.005
 5739SOL     OW18115   1.758   0.959   5.998
 5739SOL    HW118116   1.713   0.885   6.047
 5739SOL    HW218117   1.721   0.964   5.904
 5740SOL     OW18118   4.371   4.568   0.618
 5740SOL    HW118119   4.288   4.599   0.663
 5740SOL    HW218120   4.367   4.590   0.521
 5741SOL     OW18121   0.836   5.300   4.942
 5741SOL    HW118122   0.771   5.232   4.907
 5741SOL    HW218123   0.892   5.258   5.014
 5742SOL     OW18124   5.683   6.502   2.787
 5742SOL    HW118125   5.767   6.556   2.787
 5742SOL    HW218126   5.613   6.549   2.733
 5743SOL     OW18127   2.217   6.531   4.667
 5743SOL    HW118128   2.170   6.559   4.583
 5743SOL    HW218129   2.149   6.503   4.735
 5744SOL     OW18130   4.347   6.933   2.293
 5744SOL    HW118131   4.406   7.005   2.258
 5744SOL    HW218132   4.402   6.865   2.342
 5745SOL     OW18133   3.704   0.735   4.046
 5745SOL    HW118134   3.737   0.785   3.966
 5745SOL    HW218135   3.752   0.647   4.052
 5746SOL     OW18136   5.246   0.229   1.493
 5746SOL    HW118137   5.200   0.236   1.404
 5746SOL    HW218138   5.338   0.267   1.485
 5747SOL     OW18139   0.433   4.880   2.322
 5747SOL    HW118140   0.446   4.951   2.252
 5747SOL    HW218141   0.423   4.924   2.411
 5748SOL     OW18142   1.253   5.272   0.826
 5748SOL    HW118143   1.257   5.244   0.922
 5748SOL    HW218144   1.212   5.199   0.772
 5749SOL     OW18145   2.507   0.343   4.764
 5749SOL    HW118146   2.415   0.314   4.738
 5749SOL    HW218147   2.502   0.400   4.846
 5750SOL     OW18148   6.284   5.287   4.769
 5750SOL    HW118149   6.232   5.311   4.687
 5750SOL    HW218150   6.229   5.227   4.827
 5751SOL     OW18151   2.397   2.570   4.566
 5751SOL    HW118152   2.337   2.503   4.610
 5751SOL    HW218153   2.458   2.523   4.502
 5752SOL     OW18154   6.465   0.584   6.570
 5752SOL    HW118155   6.411   0.538   6.500
 5752SOL    HW218156   6.405   0.613   6.645
 5753SOL     OW18157   3.024   3.525   5.696
 5753SOL    HW118158   3.107   3.491   5.740
 5753SOL    HW218159   3.031   3.624   5.685
 5754SOL     OW18160   5.898   5.175   1.461
 5754SOL    HW118161   5.902   5.173   1.362
 5754SOL    HW218162   5.866   5.087   1.495
 5755SOL     OW18163   2.891   3.272   5.748
 5755SOL    HW118164   2.912   3.359   5.704
 5755SOL    HW218165   2.792   3.266   5.765
 5756SOL     OW18166   6.234   5.499   3.147
 5756SOL    HW118167   6.297   5.525   3.220
 5756SOL    HW218168   6.285   5.451   3.075
 5757SOL     OW18169   6.623   6.614   2.650
 5757SOL    HW118170   6.588   6.707   2.643
 5757SOL    HW218171   6.723   6.615   2.647
 5758SOL     OW18172   3.366   1.434   4.089
 5758SOL    HW118173   3.300   1.505   4.064
 5758SOL    HW218174   3.355   1.355   4.029
 5759SOL     OW18175   4.646   1.661   6.435
 5759SOL    HW118176   4.551   1.644   6.461
 5759SOL    HW218177   4.690   1.574   6.412
 5760SOL     OW18178   1.594   5.103   1.695
 5760SOL    HW118179   1.574   5.016   1.650
 5760SOL    HW218180   1.650   5.086   1.777
 5761SOL     OW18181   5.330   0.209   5.995
 5761SOL    HW118182   5.233   0.204   5.970
 5761SOL    HW218183   5.373   0.286   5.948
 5762SOL     OW18184   4.766   6.879   0.201
 5762SOL    HW118185   4.841   6.823   0.163
 5762SOL    HW218186   4.803   6.940   0.271
 5763SOL     OW18187   0.190   0.423   0.253
 5763SOL    HW118188   0.092   0.412   0.238
 5763SOL    HW218189   0.215   0.386   0.342
 5764SOL     OW18190   5.479   4.565   6.381
 5764SOL    HW118191   5.534   4.578   6.298
 5764SOL    HW218192   5.446   4.470   6.385
 5765SOL     OW18193   6.692   3.947   6.187
 5765SOL    HW118194   6.790   3.941   6.206
 5765SOL    HW218195   6.655   4.031   6.225
 5766SOL     OW18196   2.835   1.710   0.951
 5766SOL    HW118197   2.847   1.761   0.866
 5766SOL    HW218198   2.923   1.703   0.998
 5767SOL     OW18199   2.741   0.078   0.342
 5767SOL    HW118200   2.804   0.110   0.271
 5767SOL    HW218201   2.771   7.007   0.376
 5768SOL     OW18202   0.412   6.929   3.378
 5768SOL    HW118203   0.358   7.009   3.404
 5768SOL    HW218204   0.380   6.849   3.429
 5769SOL     OW18205   2.418   0.170   3.747
 5769SOL    HW118206   2.493   0.143   3.808
 5769SOL    HW218207   2.456   0.207   3.662
 5770SOL     OW18208   0.204   6.569   0.799
 5770SOL    HW118209   0.205   6.495   0.866
 5770SOL    HW218210   0.297   6.590   0.770
 5771SOL     OW18211   1.183   5.969   2.176
 5771SOL    HW118212   1.093   5.927   2.191
 5771SOL    HW218213   1.201   5.974   2.078
 5772SOL     OW18214   5.780   2.540   0.468
 5772SOL    HW118215   5.833   2.466   0.427
 5772SOL    HW218216   5.841   2.602   0.517
 5773SOL     OW18217   5.313   0.965   3.800
 5773SOL    HW118218   5.247   0.906   3.755
 5773SOL    HW218219   5.335   0.929   3.890
 5774SOL     OW18220   2.526   5.498   4.104
 5774SOL    HW118221   2.496   5.455   4.189
 5774SOL    HW218222   2.482   5.588   4.095
 5775SOL     OW18223   1.495   6.747   0.981
 5775SOL    HW118224   1.538   6.714   1.065
 5775SOL    HW218225   1.404   6.784   1.002
 5776SOL     OW18226   6.905   0.943   6.230
 5776SOL    HW118227   6.969   0.989   6.168
 5776SOL    HW218228   6.812   0.955   6.196
 5777SOL     OW18229   6.104   0.611   4.400
 5777SOL    HW118230   6.158   0.658   4.469
 5777SOL    HW218231   6.122   0.513   4.405
 5778SOL     OW18232   1.853   6.952   1.224
 5778SOL    HW118233   1.860   6.880   1.154
 5778SOL    HW218234   1.794   6.921   1.298
 5779SOL     OW18235   4.052   0.823   1.251
 5779SOL    HW118236   4.102   0.900   1.291
 5779SOL    HW218237   3.980   0.794   1.315
 5780SOL     OW18238   6.273   5.088   2.495
 5780SOL    HW118239   6.185   5.067   2.538
 5780SOL    HW218240   6.262   5.089   2.396
 5781SOL     OW18241   1.738   4.346   5.191
 5781SOL    HW118242   1.807   4.281   5.160
 5781SOL    HW218243   1.649   4.301   5.196
 5782SOL     OW18244   1.569   1.029   1.207
 5782SOL    HW118245   1.645   1.070   1.157
 5782SOL    HW218246   1.583   0.931   1.216
 5783SOL     OW18247   1.795   1.242   1.140
 5783SOL    HW118248   1.814   1.287   1.227
 5783SOL    HW218249   1.876   1.245   1.082
 5784SOL     OW18250   0.474   6.505   0.324
 5784SOL    HW118251   0.419   6.421   0.317
 5784SOL    HW218252   0.562   6.484   0.366
 5785SOL     OW18253   1.945   2.219   1.302
 5785SOL    HW118254   1.864   2.262   1.261
 5785SOL    HW218255   1.980   2.277   1.375
 5786SOL     OW18256   1.289   4.177   0.659
 5786SOL    HW118257   1.319   4.111   0.591
 5786SOL    HW218258   1.369   4.226   0.696
 5787SOL     OW18259   4.957   2.498   4.246
 5787SOL    HW118260   4.884   2.495   4.314
 5787SOL    HW218261   4.918   2.482   4.155
 5788SOL     OW18262   3.173   0.356   1.273
 5788SOL    HW118263   3.257   0.313   1.306
 5788SOL    HW218264   3.186   0.455   1.269
 5789SOL     OW18265   3.785   2.285   6.192
 5789SOL    HW118266   3.691   2.319   6.203
 5789SOL    HW218267   3.848   2.363   6.193
 5790SOL     OW18268   6.762   5.900   5.262
 5790SOL    HW118269   6.842   5.897   5.201
 5790SOL    HW218270   6.787   5.944   5.348
 5791SOL     OW18271   3.210   1.390   2.447
 5791SOL    HW118272   3.180   1.295   2.436
 5791SOL    HW218273   3.299   1.402   2.402
 5792SOL     OW18274   4.920   3.817   3.332
 5792SOL    HW118275   4.937   3.719   3.320
 5792SOL    HW218276   4.931   3.863   3.245
 5793SOL     OW18277   6.182   1.421   5.657
 5793SOL    HW118278   6.092   1.459   5.680
 5793SOL    HW218279   6.184   1.324   5.680
 5794SOL     OW18280   3.400   6.768   6.615
 5794SOL    HW118281   3.379   6.859   6.651
 5794SOL    HW218282   3.401   6.702   6.690
 5795SOL     OW18283   0.920   6.200   1.631
 5795SOL    HW118284   1.008   6.197   1.584
 5795SOL    HW218285   0.849   6.167   1.570
 5796SOL     OW18286   4.713   0.489   6.838
 5796SOL    HW118287   4.718   0.588   6.848
 5796SOL    HW218288   4.619   0.463   6.815
 5797SOL     OW18289   5.460   1.132   7.015
 5797SOL    HW118290   5.510   1.216   0.018
 5797SOL    HW218291   5.513   1.053   0.027
 5798SOL     OW18292   0.793   4.111   4.730
 5798SOL    HW118293   0.770   4.068   4.643
 5798SOL    HW218294   0.777   4.046   4.805
 5799SOL     OW18295   0.588   6.969   2.602
 5799SOL    HW118296   0.681   6.978   2.636
 5799SOL    HW218297   0.549   6.882   2.633
 5800SOL     OW18298   0.980   0.332   1.139
 5800SOL    HW118299   0.912   0.394   1.100
 5800SOL    HW218300   0.959   0.238   1.112
 5801SOL     OW18301   2.423   2.536   3.777
 5801SOL    HW118302   2.441   2.529   3.679
 5801SOL    HW218303   2.334   2.580   3.792
 5802SOL     OW18304   6.204   3.468   2.562
 5802SOL    HW118305   6.160   3.533   2.624
 5802SOL    HW218306   6.249   3.397   2.616
 5803SOL     OW18307   0.726   4.896   4.059
 5803SOL    HW118308   0.680   4.977   4.096
 5803SOL    HW218309   0.702   4.816   4.114
 5804SOL     OW18310   6.798   6.289   3.735
 5804SOL    HW118311   6.796   6.193   3.761
 5804SOL    HW218312   6.721   6.309   3.675
 5805SOL     OW18313   1.473   3.347   0.724
 5805SOL    HW118314   1.426   3.285   0.660
 5805SOL    HW218315   1.436   3.334   0.816
 5806SOL     OW18316   6.879   4.175   4.561
 5806SOL    HW118317   6.885   4.151   4.464
 5806SOL    HW218318   6.812   4.116   4.606
 5807SOL     OW18319   1.428   6.356   1.287
 5807SOL    HW118320   1.378   6.365   1.201
 5807SOL    HW218321   1.458   6.261   1.298
 5808SOL     OW18322   6.425   6.921   4.735
 5808SOL    HW118323   6.354   6.991   4.723
 5808SOL    HW218324   6.426   6.860   4.656
 5809SOL     OW18325   0.342   2.374   5.694
 5809SOL    HW118326   0.430   2.340   5.661
 5809SOL    HW218327   0.336   2.359   5.793
 5810SOL     OW18328   3.928   0.380   4.741
 5810SOL    HW118329   3.842   0.359   4.788
 5810SOL    HW218330   3.909   0.426   4.654
 5811SOL     OW18331   2.469   2.451   5.528
 5811SOL    HW118332   2.443   2.358   5.500
 5811SOL    HW218333   2.433   2.517   5.463
 5812SOL     OW18334   5.876   3.583   6.563
 5812SOL    HW118335   5.891   3.511   6.631
 5812SOL    HW218336   5.884   3.673   6.607
 5813SOL     OW18337   3.051   6.029   1.204
 5813SOL    HW118338   3.143   6.068   1.204
 5813SOL    HW218339   3.021   6.013   1.298
 5814SOL     OW18340   0.031   2.142   2.024
 5814SOL    HW118341   7.001   2.069   1.975
 5814SOL    HW218342   0.071   2.205   1.958
 5815SOL     OW18343   5.685   1.973   4.078
 5815SOL    HW118344   5.702   2.061   4.035
 5815SOL    HW218345   5.647   1.986   4.169
 5816SOL     OW18346   6.865   4.835   1.998
 5816SOL    HW118347   6.900   4.916   2.046
 5816SOL    HW218348   6.938   4.767   1.990
 5817SOL     OW18349   6.008   4.268   5.293
 5817SOL    HW118350   6.058   4.310   5.369
 5817SOL    HW218351   5.930   4.217   5.329
 5818SOL     OW18352   0.928   5.875   5.291
 5818SOL    HW118353   0.871   5.936   5.238
 5818SOL    HW218354   1.001   5.927   5.335
 5819SOL     OW18355   2.998   4.970   6.563
 5819SOL    HW118356   2.972   4.918   6.481
 5819SOL    HW218357   2.991   5.068   6.544
 5820SOL     OW18358   4.625   4.839   2.265
 5820SOL    HW118359   4.713   4.861   2.223
 5820SOL    HW218360   4.554   4.842   2.195
 5821SOL     OW18361   6.486   0.831   1.670
 5821SOL    HW118362   6.522   0.917   1.706
 5821SOL    HW218363   6.539   0.754   1.706
 5822SOL     OW18364   1.238   2.578   2.888
 5822SOL    HW118365   1.207   2.501   2.943
 5822SOL    HW218366   1.236   2.552   2.791
 5823SOL     OW18367   2.564   6.447   4.396
 5823SOL    HW118368   2.545   6.392   4.478
 5823SOL    HW218369   2.617   6.393   4.331
 5824SOL     OW18370   0.708   0.141   2.435
 5824SOL    HW118371   0.649   0.070   2.474
 5824SOL    HW218372   0.727   0.119   2.339
 5825SOL     OW18373   0.334   6.143   4.924
 5825SOL    HW118374   0.390   6.105   4.851
 5825SOL    HW218375   0.291   6.069   4.975
 5826SOL     OW18376   6.889   0.067   5.630
 5826SOL    HW118377   6.873   0.083   5.533
 5826SOL    HW218378   6.808   0.026   5.671
 5827SOL     OW18379   1.003   3.840   5.124
 5827SOL    HW118380   0.925   3.785   5.092
 5827SOL    HW218381   0.978   3.885   5.210
 5828SOL     OW18382   5.136   1.016   3.491
 5828SOL    HW118383   5.216   1.047   3.438
 5828SOL    HW218384   5.062   1.082   3.480
 5829SOL     OW18385   1.226   0.346   5.130
 5829SOL    HW118386   1.182   0.434   5.148
 5829SOL    HW218387   1.311   0.361   5.080
 5830SOL     OW18388   4.271   5.677   5.397
 5830SOL    HW118389   4.347   5.612   5.400
 5830SOL    HW218390   4.196   5.642   5.453
 5831SOL     OW18391   0.985   1.781   5.522
 5831SOL    HW118392   0.885   1.773   5.522
 5831SOL    HW218393   1.012   1.867   5.566
 5832SOL     OW18394   3.779   4.479   1.380
 5832SOL    HW118395   3.740   4.564   1.413
 5832SOL    HW218396   3.820   4.494   1.290
 5833SOL     OW18397   3.913   3.581   5.309
 5833SOL    HW118398   3.924   3.581   5.210
 5833SOL    HW218399   3.842   3.515   5.335
 5834SOL     OW18400   6.692   3.579   6.467
 5834SOL    HW118401   6.599   3.553   6.492
 5834SOL    HW218402   6.704   3.572   6.368
 5835SOL     OW18403   6.047   1.745   2.655
 5835SOL    HW118404   5.953   1.778   2.647
 5835SOL    HW218405   6.093   1.753   2.567
 5836SOL     OW18406   3.368   6.655   2.321
 5836SOL    HW118407   3.329   6.735   2.365
 5836SOL    HW218408   3.463   6.673   2.295
 5837SOL     OW18409   4.120   3.760   0.194
 5837SOL    HW118410   4.192   3.712   0.144
 5837SOL    HW218411   4.100   3.712   0.279
 5838SOL     OW18412   2.610   1.458   1.294
 5838SOL    HW118413   2.702   1.469   1.256
 5838SOL    HW218414   2.614   1.400   1.375
 5839SOL     OW18415   0.602   2.670   1.453
 5839SOL    HW118416   0.640   2.585   1.489
 5839SOL    HW218417   0.605   2.668   1.353
 5840SOL     OW18418   0.257   3.861   1.594
 5840SOL    HW118419   0.185   3.889   1.658
 5840SOL    HW218420   0.284   3.767   1.615
 5841SOL     OW18421   4.942   0.861   1.650
 5841SOL    HW118422   4.966   0.783   1.592
 5841SOL    HW218423   4.943   0.832   1.746
 5842SOL     OW18424   4.115   2.150   0.741
 5842SOL    HW118425   4.112   2.064   0.793
 5842SOL    HW218426   4.024   2.170   0.705
 5843SOL     OW18427   2.240   3.661   1.426
 5843SOL    HW118428   2.340   3.664   1.433
 5843SOL    HW218429   2.213   3.599   1.353
 5844SOL     OW18430   0.730   6.028   4.938
 5844SOL    HW118431   0.723   6.128   4.944
 5844SOL    HW218432   0.791   6.003   4.863
 5845SOL     OW18433   0.221   0.128   1.670
 5845SOL    HW118434   0.195   0.087   1.757
 5845SOL    HW218435   0.214   0.228   1.677
 5846SOL     OW18436   6.339   3.686   5.485
 5846SOL    HW118437   6.258   3.709   5.538
 5846SOL    HW218438   6.385   3.770   5.457
 5847SOL     OW18439   2.851   2.841   1.588
 5847SOL    HW118440   2.885   2.758   1.632
 5847SOL    HW218441   2.782   2.884   1.646
 5848SOL     OW18442   2.172   6.060   4.109
 5848SOL    HW118443   2.194   6.117   4.188
 5848SOL    HW218444   2.139   5.971   4.140
 5849SOL     OW18445   1.958   6.366   5.712
 5849SOL    HW118446   1.974   6.385   5.615
 5849SOL    HW218447   1.862   6.378   5.733
 5850SOL     OW18448   1.160   3.360   1.782
 5850SOL    HW118449   1.114   3.448   1.791
 5850SOL    HW218450   1.108   3.291   1.833
 5851SOL     OW18451   5.296   3.922   3.899
 5851SOL    HW118452   5.233   3.918   3.821
 5851SOL    HW218453   5.383   3.881   3.873
 5852SOL     OW18454   4.429   6.011   3.001
 5852SOL    HW118455   4.528   6.009   2.994
 5852SOL    HW218456   4.390   6.038   2.913
 5853SOL     OW18457   4.223   5.064   5.170
 5853SOL    HW118458   4.218   5.127   5.093
 5853SOL    HW218459   4.211   5.114   5.256
 5854SOL     OW18460   3.838   4.405   5.299
 5854SOL    HW118461   3.757   4.457   5.326
 5854SOL    HW218462   3.920   4.459   5.315
 5855SOL     OW18463   2.066   2.475   4.010
 5855SOL    HW118464   1.976   2.489   4.052
 5855SOL    HW218465   2.135   2.524   4.062
 5856SOL     OW18466   1.168   0.018   2.312
 5856SOL    HW118467   1.183   0.102   2.259
 5856SOL    HW218468   1.197   6.957   2.258
 5857SOL     OW18469   6.840   3.225   5.496
 5857SOL    HW118470   6.844   3.165   5.416
 5857SOL    HW218471   6.904   3.191   5.565
 5858SOL     OW18472   2.371   2.061   2.485
 5858SOL    HW118473   2.435   2.126   2.525
 5858SOL    HW218474   2.412   2.019   2.404
 5859SOL     OW18475   5.595   6.459   1.569
 5859SOL    HW118476   5.630   6.552   1.561
 5859SOL    HW218477   5.545   6.450   1.655
 5860SOL     OW18478   0.805   4.579   3.194
 5860SOL    HW118479   0.768   4.587   3.287
 5860SOL    HW218480   0.732   4.551   3.131
 5861SOL     OW18481   5.709   0.539   4.812
 5861SOL    HW118482   5.787   0.596   4.787
 5861SOL    HW218483   5.655   0.586   4.882
 5862SOL     OW18484   6.107   5.910   2.275
 5862SOL    HW118485   6.011   5.887   2.289
 5862SOL    HW218486   6.156   5.904   2.362
 5863SOL     OW18487   3.108   1.391   4.355
 5863SOL    HW118488   3.197   1.359   4.387
 5863SOL    HW218489   3.045   1.313   4.351
 5864SOL     OW18490   3.731   3.656   2.860
 5864SOL    HW118491   3.780   3.738   2.831
 5864SOL    HW218492   3.780   3.575   2.827
 5865SOL     OW18493   5.532   0.688   5.387
 5865SOL    HW118494   5.440   0.720   5.367
 5865SOL    HW218495   5.587   0.765   5.419
 5866SOL     OW18496   3.366   3.341   0.544
 5866SOL    HW118497   3.312   3.364   0.625
 5866SOL    HW218498   3.362   3.242   0.529
 5867SOL     OW18499   2.384   1.828   1.669
 5867SOL    HW118500   2.314   1.768   1.629
 5867SOL    HW218501   2.460   1.837   1.604
 5868SOL     OW18502   0.846   2.162   5.868
 5868SOL    HW118503   0.861   2.065   5.849
 5868SOL    HW218504   0.836   2.175   5.967
 5869SOL     OW18505   1.474   4.501   3.866
 5869SOL    HW118506   1.566   4.477   3.836
 5869SOL    HW218507   1.412   4.500   3.788
 5870SOL     OW18508   3.950   5.258   5.436
 5870SOL    HW118509   3.918   5.303   5.520
 5870SOL    HW218510   3.912   5.306   5.357
 5871SOL     OW18511   3.849   3.867   2.708
 5871SOL    HW118512   3.773   3.856   2.643
 5871SOL    HW218513   3.834   3.949   2.763
 5872SOL     OW18514   4.168   6.281   1.465
 5872SOL    HW118515   4.139   6.229   1.385
 5872SOL    HW218516   4.123   6.370   1.465
 5873SOL     OW18517   2.820   5.768   2.158
 5873SOL    HW118518   2.870   5.713   2.091
 5873SOL    HW218519   2.882   5.798   2.230
 5874SOL     OW18520   2.382   4.289   5.220
 5874SOL    HW118521   2.438   4.323   5.144
 5874SOL    HW218522   2.360   4.192   5.204
 5875SOL     OW18523   3.643   2.098   0.091
 5875SOL    HW118524   3.678   2.166   0.156
 5875SOL    HW218525   3.694   2.106   0.005
 5876SOL     OW18526   3.939   3.503   2.076
 5876SOL    HW118527   3.997   3.466   2.004
 5876SOL    HW218528   3.873   3.434   2.104
 5877SOL     OW18529   6.178   6.183   6.991
 5877SOL    HW118530   6.241   6.245   0.019
 5877SOL    HW218531   6.108   6.237   6.944
 5878SOL     OW18532   1.455   6.102   3.951
 5878SOL    HW118533   1.434   6.183   4.007
 5878SOL    HW218534   1.474   6.131   3.857
 5879SOL     OW18535   0.252   3.634   0.669
 5879SOL    HW118536   0.225   3.720   0.626
 5879SOL    HW218537   0.334   3.599   0.624
 5880SOL     OW18538   2.713   4.992   0.909
 5880SOL    HW118539   2.657   4.954   0.836
 5880SOL    HW218540   2.684   5.086   0.929
 5881SOL     OW18541   0.404   4.873   3.127
 5881SOL    HW118542   0.489   4.902   3.171
 5881SOL    HW218543   0.327   4.902   3.183
 5882SOL     OW18544   6.406   6.264   1.383
 5882SOL    HW118545   6.506   6.259   1.392
 5882SOL    HW218546   6.378   6.359   1.373
 5883SOL     OW18547   0.848   2.066   6.661
 5883SOL    HW118548   0.769   2.023   6.704
 5883SOL    HW218549   0.892   2.127   6.728
 5884SOL     OW18550   2.511   1.200   3.900
 5884SOL    HW118551   2.473   1.290   3.882
 5884SOL    HW218552   2.610   1.201   3.884
 5885SOL     OW18553   6.775   0.029   2.251
 5885SOL    HW118554   6.838   6.979   2.288
 5885SOL    HW218555   6.692   7.001   2.219
 5886SOL     OW18556   0.499   2.015   5.094
 5886SOL    HW118557   0.503   2.046   4.999
 5886SOL    HW218558   0.404   1.996   5.119
 5887SOL     OW18559   3.776   0.878   3.598
 5887SOL    HW118560   3.777   0.799   3.537
 5887SOL    HW218561   3.689   0.880   3.648
 5888SOL     OW18562   2.652   1.028   2.791
 5888SOL    HW118563   2.605   0.984   2.714
 5888SOL    HW218564   2.745   0.993   2.797
 5889SOL     OW18565   1.576   6.555   1.449
 5889SOL    HW118566   1.529   6.471   1.423
 5889SOL    HW218567   1.639   6.535   1.524
 5890SOL     OW18568   1.098   0.035   5.680
 5890SOL    HW118569   1.009   0.052   5.721
 5890SOL    HW218570   1.144   6.979   5.730
 5891SOL     OW18571   3.579   2.977   5.761
 5891SOL    HW118572   3.490   3.020   5.777
 5891SOL    HW218573   3.606   2.990   5.666
 5892SOL     OW18574   0.833   5.887   1.496
 5892SOL    HW118575   0.783   5.973   1.483
 5892SOL    HW218576   0.917   5.905   1.547
 5893SOL     OW18577   1.330   4.084   4.124
 5893SOL    HW118578   1.407   4.117   4.070
 5893SOL    HW218579   1.358   4.001   4.173
 5894SOL     OW18580   0.924   6.028   3.073
 5894SOL    HW118581   0.836   5.992   3.045
 5894SOL    HW218582   0.915   6.075   3.161
 5895SOL     OW18583   4.909   3.181   4.230
 5895SOL    HW118584   4.986   3.117   4.234
 5895SOL    HW218585   4.904   3.233   4.315
 5896SOL     OW18586   4.100   1.621   0.499
 5896SOL    HW118587   4.023   1.576   0.546
 5896SOL    HW218588   4.066   1.680   0.427
 5897SOL     OW18589   3.832   0.303   1.712
 5897SOL    HW118590   3.755   0.302   1.648
 5897SOL    HW218591   3.912   0.342   1.667
 5898SOL     OW18592   1.922   6.714   3.376
 5898SOL    HW118593   1.924   6.773   3.457
 5898SOL    HW218594   1.828   6.683   3.360
 5899SOL     OW18595   4.628   6.381   5.912
 5899SOL    HW118596   4.641   6.339   5.822
 5899SOL    HW218597   4.548   6.440   5.910
 5900SOL     OW18598   4.553   5.521   3.568
 5900SOL    HW118599   4.565   5.549   3.473
 5900SOL    HW218600   4.597   5.587   3.629
 5901SOL     OW18601   2.792   0.421   0.229
 5901SOL    HW118602   2.818   0.514   0.204
 5901SOL    HW218603   2.836   0.356   0.167
 5902SOL     OW18604   0.035   2.536   6.914
 5902SOL    HW118605   0.067   2.514   6.822
 5902SOL    HW218606   7.005   2.457   6.953
 5903SOL     OW18607   4.395   4.060   0.717
 5903SOL    HW118608   4.397   4.160   0.718
 5903SOL    HW218609   4.348   4.027   0.799
 5904SOL     OW18610   0.924   3.533   1.943
 5904SOL    HW118611   0.926   3.543   1.843
 5904SOL    HW218612   0.983   3.603   1.984
 5905SOL     OW18613   6.596   6.232   3.154
 5905SOL    HW118614   6.526   6.169   3.188
 5905SOL    HW218615   6.563   6.277   3.072
 5906SOL     OW18616   4.928   1.434   4.712
 5906SOL    HW118617   4.881   1.488   4.782
 5906SOL    HW218618   5.014   1.479   4.687
 5907SOL     OW18619   1.894   5.963   2.151
 5907SOL    HW118620   1.903   5.983   2.249
 5907SOL    HW218621   1.962   6.016   2.100
 5908SOL     OW18622   0.945   2.410   5.798
 5908SOL    HW118623   0.878   2.483   5.790
 5908SOL    HW218624   0.898   2.324   5.820
 5909SOL     OW18625   6.724   5.262   0.742
 5909SOL    HW118626   6.783   5.343   0.740
 5909SOL    HW218627   6.768   5.187   0.692
 5910SOL     OW18628   0.826   2.799   3.439
 5910SOL    HW118629   0.857   2.881   3.486
 5910SOL    HW218630   0.740   2.768   3.479
 5911SOL     OW18631   6.279   5.804   6.798
 5911SOL    HW118632   6.297   5.843   6.888
 5911SOL    HW218633   6.181   5.803   6.781
 5912SOL     OW18634   6.526   0.575   5.508
 5912SOL    HW118635   6.466   0.522   5.447
 5912SOL    HW218636   6.472   0.647   5.553
 5913SOL     OW18637   4.534   2.658   6.490
 5913SOL    HW118638   4.539   2.711   6.574
 5913SOL    HW218639   4.446   2.674   6.445
 5914SOL     OW18640   0.870   6.182   6.703
 5914SOL    HW118641   0.927   6.235   6.766
 5914SOL    HW218642   0.803   6.129   6.755
 5915SOL     OW18643   4.378   5.968   1.003
 5915SOL    HW118644   4.456   5.972   1.065
 5915SOL    HW218645   4.320   5.891   1.027
 5916SOL     OW18646   0.262   6.229   2.680
 5916SOL    HW118647   0.204   6.177   2.617
 5916SOL    HW218648   0.344   6.260   2.631
 5917SOL     OW18649   3.217   3.887   4.868
 5917SOL    HW118650   3.187   3.942   4.945
 5917SOL    HW218651   3.206   3.939   4.783
 5918SOL     OW18652   2.015   5.118   6.139
 5918SOL    HW118653   2.112   5.108   6.162
 5918SOL    HW218654   1.990   5.050   6.071
 5919SOL     OW18655   2.984   3.372   2.225
 5919SOL    HW118656   3.032   3.458   2.209
 5919SOL    HW218657   2.952   3.335   2.138
 5920SOL     OW18658   4.905   0.538   6.284
 5920SOL    HW118659   4.821   0.582   6.251
 5920SOL    HW218660   4.961   0.606   6.332
 5921SOL     OW18661   4.066   5.037   6.393
 5921SOL    HW118662   4.011   4.964   6.352
 5921SOL    HW218663   4.068   5.025   6.492
 5922SOL     OW18664   6.062   4.094   4.323
 5922SOL    HW118665   6.091   4.026   4.391
 5922SOL    HW218666   6.020   4.171   4.369
 5923SOL     OW18667   6.772   1.218   2.273
 5923SOL    HW118668   6.823   1.286   2.221
 5923SOL    HW218669   6.700   1.178   2.216
 5924SOL     OW18670   6.038   6.835   2.673
 5924SOL    HW118671   6.119   6.797   2.629
 5924SOL    HW218672   6.052   6.933   2.690
 5925SOL     OW18673   3.731   6.220   2.226
 5925SOL    HW118674   3.665   6.280   2.181
 5925SOL    HW218675   3.752   6.256   2.317
 5926SOL     OW18676   4.345   4.592   2.349
 5926SOL    HW118677   4.323   4.632   2.260
 5926SOL    HW218678   4.399   4.509   2.335
 5927SOL     OW18679   1.203   4.346   1.885
 5927SOL    HW118680   1.117   4.301   1.863
 5927SOL    HW218681   1.242   4.305   1.967
 5928SOL     OW18682   3.787   6.633   1.613
 5928SOL    HW118683   3.752   6.715   1.659
 5928SOL    HW218684   3.718   6.596   1.551
 5929SOL     OW18685   5.532   0.593   5.657
 5929SOL    HW118686   5.559   0.589   5.560
 5929SOL    HW218687   5.479   0.676   5.673
 5930SOL     OW18688   0.934   3.349   3.087
 5930SOL    HW118689   0.919   3.446   3.067
 5930SOL    HW218690   0.993   3.310   3.017
 5931SOL     OW18691   6.319   6.101   2.818
 5931SOL    HW118692   6.296   6.008   2.845
 5931SOL    HW218693   6.256   6.165   2.861
 5932SOL     OW18694   3.675   7.016   0.343
 5932SOL    HW118695   3.717   0.045   0.421
 5932SOL    HW218696   3.627   0.064   0.286
 5933SOL     OW18697   6.887   4.751   4.247
 5933SOL    HW118698   6.797   4.758   4.204
 5933SOL    HW218699   6.885   4.799   4.335
 5934SOL     OW18700   3.819   2.908   5.144
 5934SOL    HW118701   3.823   2.895   5.045
 5934SOL    HW218702   3.885   2.847   5.188
 5935SOL     OW18703   0.495   5.247   6.213
 5935SOL    HW118704   0.560   5.183   6.171
 5935SOL    HW218705   0.456   5.306   6.142
 5936SOL     OW18706   3.030   3.548   1.655
 5936SOL    HW118707   3.036   3.448   1.655
 5936SOL    HW218708   3.121   3.586   1.670
 5937SOL     OW18709   6.206   3.315   2.103
 5937SOL    HW118710   6.249   3.322   2.013
 5937SOL    HW218711   6.165   3.224   2.114
 5938SOL     OW18712   6.478   6.278   4.297
 5938SOL    HW118713   6.574   6.304   4.295
 5938SOL    HW218714   6.467   6.196   4.354
 5939SOL     OW18715   2.796   6.219   4.033
 5939SOL    HW118716   2.842   6.132   4.020
 5939SOL    HW218717   2.855   6.293   4.003
 5940SOL     OW18718   4.037   5.271   3.644
 5940SOL    HW118719   4.039   5.171   3.642
 5940SOL    HW218720   4.054   5.307   3.552
 5941SOL     OW18721   5.621   2.812   2.586
 5941SOL    HW118722   5.720   2.824   2.587
 5941SOL    HW218723   5.581   2.868   2.514
 5942SOL     OW18724   5.648   3.836   6.743
 5942SOL    HW118725   5.650   3.887   6.829
 5942SOL    HW218726   5.741   3.828   6.706
 5943SOL     OW18727   3.206   3.509   6.036
 5943SOL    HW118728   3.277   3.575   6.061
 5943SOL    HW218729   3.221   3.479   5.942
 5944SOL     OW18730   0.506   2.748   0.527
 5944SOL    HW118731   0.598   2.754   0.488
 5944SOL    HW218732   0.450   2.824   0.492
 5945SOL     OW18733   0.156   5.204   4.903
 5945SOL    HW118734   0.107   5.259   4.970
 5945SOL    HW218735   0.093   5.137   4.862
 5946SOL     OW18736   3.464   4.271   0.190
 5946SOL    HW118737   3.543   4.276   0.252
 5946SOL    HW218738   3.420   4.361   0.185
 5947SOL     OW18739   3.134   3.462   2.815
 5947SOL    HW118740   3.075   3.383   2.795
 5947SOL    HW218741   3.166   3.503   2.730
 5948SOL     OW18742   4.178   4.754   2.508
 5948SOL    HW118743   4.245   4.685   2.482
 5948SOL    HW218744   4.106   4.758   2.438
 5949SOL     OW18745   5.589   5.123   1.252
 5949SOL    HW118746   5.657   5.053   1.233
 5949SOL    HW218747   5.523   5.088   1.319
 5950SOL     OW18748   5.546   2.175   4.891
 5950SOL    HW118749   5.448   2.192   4.880
 5950SOL    HW218750   5.598   2.247   4.844
 5951SOL     OW18751   0.864   5.471   5.412
 5951SOL    HW118752   0.795   5.497   5.480
 5951SOL    HW218753   0.844   5.379   5.379
 5952SOL     OW18754   4.705   5.800   3.445
 5952SOL    HW118755   4.693   5.806   3.544
 5952SOL    HW218756   4.761   5.876   3.413
 5953SOL     OW18757   6.975   4.309   5.231
 5953SOL    HW118758   6.965   4.228   5.174
 5953SOL    HW218759   6.945   4.289   5.324
 5954SOL     OW18760   6.584   5.134   4.963
 5954SOL    HW118761   6.512   5.132   5.033
 5954SOL    HW218762   6.629   5.045   4.960
 5955SOL     OW18763   4.850   5.202   2.130
 5955SOL    HW118764   4.904   5.199   2.214
 5955SOL    HW218765   4.806   5.292   2.121
 5956SOL     OW18766   5.779   2.450   3.767
 5956SOL    HW118767   5.681   2.469   3.758
 5956SOL    HW218768   5.795   2.352   3.751
 5957SOL     OW18769   3.124   1.633   4.199
 5957SOL    HW118770   3.128   1.712   4.261
 5957SOL    HW218771   3.122   1.549   4.253
 5958SOL     OW18772   3.986   0.430   2.685
 5958SOL    HW118773   4.076   0.472   2.697
 5958SOL    HW218774   3.962   0.431   2.588
 5959SOL     OW18775   4.638   2.664   5.481
 5959SOL    HW118776   4.717   2.709   5.523
 5959SOL    HW218777   4.646   2.565   5.494
 5960SOL     OW18778   3.825   6.206   4.361
 5960SOL    HW118779   3.799   6.202   4.264
 5960SOL    HW218780   3.767   6.143   4.414
 5961SOL     OW18781   4.525   1.748   2.762
 5961SOL    HW118782   4.506   1.656   2.729
 5961SOL    HW218783   4.472   1.766   2.845
 5962SOL     OW18784   5.390   5.729   5.860
 5962SOL    HW118785   5.424   5.763   5.772
 5962SOL    HW218786   5.424   5.788   5.933
 5963SOL     OW18787   3.090   3.671   6.575
 5963SOL    HW118788   3.162   3.697   6.511
 5963SOL    HW218789   3.131   3.638   6.660
 5964SOL     OW18790   1.966   6.361   4.475
 5964SOL    HW118791   2.025   6.362   4.555
 5964SOL    HW218792   1.874   6.333   4.502
 5965SOL     OW18793   2.296   1.079   0.260
 5965SOL    HW118794   2.257   1.129   0.337
 5965SOL    HW218795   2.261   1.118   0.174
 5966SOL     OW18796   1.326   6.497   6.677
 5966SOL    HW118797   1.255   6.450   6.728
 5966SOL    HW218798   1.285   6.569   6.621
 5967SOL     OW18799   2.371   0.282   6.009
 5967SOL    HW118800   2.384   0.370   5.963
 5967SOL    HW218801   2.385   0.293   6.107
 5968SOL     OW18802   5.648   2.220   6.953
 5968SOL    HW118803   5.573   2.180   7.005
 5968SOL    HW218804   5.614   2.295   6.897
 5969SOL     OW18805   5.762   1.072   0.109
 5969SOL    HW118806   5.809   1.103   0.192
 5969SOL    HW218807   5.681   1.019   0.135
 5970SOL     OW18808   0.435   5.038   1.273
 5970SOL    HW118809   0.470   5.118   1.322
 5970SOL    HW218810   0.338   5.050   1.254
 5971SOL     OW18811   0.009   0.468   1.139
 5971SOL    HW118812   0.065   0.389   1.112
 5971SOL    HW218813   6.986   0.508   1.057
 5972SOL     OW18814   5.141   6.000   6.447
 5972SOL    HW118815   5.151   5.938   6.370
 5972SOL    HW218816   5.203   5.971   6.521
 5973SOL     OW18817   1.895   2.857   2.916
 5973SOL    HW118818   1.925   2.845   3.011
 5973SOL    HW218819   1.893   2.768   2.870
 5974SOL     OW18820   5.004   6.707   0.147
 5974SOL    HW118821   5.025   6.623   0.197
 5974SOL    HW218822   5.082   6.769   0.152
 5975SOL     OW18823   4.127   6.427   0.867
 5975SOL    HW118824   4.210   6.392   0.910
 5975SOL    HW218825   4.103   6.515   0.908
 5976SOL     OW18826   3.746   2.778   5.484
 5976SOL    HW118827   3.785   2.741   5.399
 5976SOL    HW218828   3.646   2.773   5.480
 5977SOL     OW18829   1.015   5.780   0.295
 5977SOL    HW118830   1.106   5.805   0.328
 5977SOL    HW218831   0.995   5.685   0.320
 5978SOL     OW18832   3.411   5.867   1.485
 5978SOL    HW118833   3.464   5.926   1.545
 5978SOL    HW218834   3.467   5.789   1.457
 5979SOL     OW18835   6.721   0.526   2.251
 5979SOL    HW118836   6.820   0.517   2.253
 5979SOL    HW218837   6.681   0.450   2.200
 5980SOL     OW18838   4.268   3.884   1.309
 5980SOL    HW118839   4.353   3.832   1.313
 5980SOL    HW218840   4.278   3.969   1.360
 5981SOL     OW18841   4.786   1.689   0.020
 5981SOL    HW118842   4.781   1.601   0.068
 5981SOL    HW218843   4.796   1.763   0.087
 5982SOL     OW18844   6.313   1.958   2.567
 5982SOL    HW118845   6.386   1.988   2.506
 5982SOL    HW218846   6.263   1.882   2.525
 5983SOL     OW18847   1.241   1.525   4.296
 5983SOL    HW118848   1.322   1.480   4.334
 5983SOL    HW218849   1.160   1.470   4.318
 5984SOL     OW18850   4.607   6.788   3.527
 5984SOL    HW118851   4.698   6.795   3.567
 5984SOL    HW218852   4.598   6.700   3.480
 5985SOL     OW18853   6.453   3.365   3.664
 5985SOL    HW118854   6.520   3.432   3.696
 5985SOL    HW218855   6.455   3.285   3.724
 5986SOL     OW18856   3.480   3.792   5.172
 5986SOL    HW118857   3.457   3.824   5.264
 5986SOL    HW218858   3.396   3.767   5.123
 5987SOL     OW18859   5.381   0.179   4.356
 5987SOL    HW118860   5.396   0.106   4.290
 5987SOL    HW218861   5.464   0.233   4.366
 5988SOL     OW18862   4.419   0.159   6.496
 5988SOL    HW118863   4.405   0.091   6.424
 5988SOL    HW218864   4.341   0.220   6.501
 5989SOL     OW18865   1.742   5.719   6.107
 5989SOL    HW118866   1.717   5.622   6.114
 5989SOL    HW218867   1.674   5.767   6.051
 5990SOL     OW18868   3.438   3.328   6.890
 5990SOL    HW118869   3.459   3.329   6.988
 5990SOL    HW218870   3.476   3.411   6.848
 5991SOL     OW18871   4.629   5.865   6.707
 5991SOL    HW118872   4.568   5.797   6.748
 5991SOL    HW218873   4.610   5.872   6.609
 5992SOL     OW18874   3.636   6.892   2.037
 5992SOL    HW118875   3.666   6.972   1.986
 5992SOL    HW218876   3.715   6.839   2.066
 5993SOL     OW18877   4.276   3.810   6.024
 5993SOL    HW118878   4.375   3.820   6.031
 5993SOL    HW218879   4.250   3.716   6.047
 5994SOL     OW18880   6.577   2.157   0.286
 5994SOL    HW118881   6.674   2.168   0.262
 5994SOL    HW218882   6.570   2.110   0.375
 5995SOL     OW18883   4.868   3.552   2.086
 5995SOL    HW118884   4.862   3.616   2.163
 5995SOL    HW218885   4.871   3.458   2.122
 5996SOL     OW18886   0.626   5.778   1.216
 5996SOL    HW118887   0.582   5.789   1.305
 5996SOL    HW218888   0.557   5.772   1.144
 5997SOL     OW18889   1.255   5.963   2.828
 5997SOL    HW118890   1.192   5.887   2.813
 5997SOL    HW218891   1.330   5.958   2.762
 5998SOL     OW18892   6.465   1.498   2.074
 5998SOL    HW118893   6.446   1.412   2.119
 5998SOL    HW218894   6.453   1.573   2.139
 5999SOL     OW18895   3.127   3.208   1.357
 5999SOL    HW118896   3.186   3.276   1.401
 5999SOL    HW218897   3.096   3.141   1.424
 6000SOL     OW18898   1.022   6.481   0.808
 6000SOL    HW118899   1.094   6.417   0.783
 6000SOL    HW218900   1.053   6.574   0.792
 6001SOL     OW18901   6.935   5.107   6.836
 6001SOL    HW118902   7.006   5.087   6.769
 6001SOL    HW218903   6.974   5.100   6.928
 6002SOL     OW18904   6.119   7.010   5.622
 6002SOL    HW118905   6.055   6.983   5.550
 6002SOL    HW218906   6.160   6.928   5.662
 6003SOL     OW18907   6.048   2.183   5.063
 6003SOL    HW118908   5.985   2.236   5.120
 6003SOL    HW218909   6.063   2.093   5.105
 6004SOL     OW18910   6.275   2.932   3.639
 6004SOL    HW118911   6.272   2.999   3.713
 6004SOL    HW218912   6.310   2.845   3.673
 6005SOL     OW18913   6.208   4.835   4.824
 6005SOL    HW118914   6.274   4.832   4.900
 6005SOL    HW218915   6.166   4.745   4.814
 6006SOL     OW18916   2.477   0.859   4.907
 6006SOL    HW118917   2.518   0.831   4.821
 6006SOL    HW218918   2.404   0.925   4.889
 6007SOL     OW18919   6.857   3.311   5.854
 6007SOL    HW118920   6.792   3.331   5.780
 6007SOL    HW218921   6.859   3.387   5.919
 6008SOL     OW18922   2.837   4.898   5.748
 6008SOL    HW118923   2.748   4.853   5.739
 6008SOL    HW218924   2.826   4.996   5.736
 6009SOL     OW18925   3.686   0.166   3.513
 6009SOL    HW118926   3.780   0.173   3.546
 6009SOL    HW218927   3.656   0.070   3.518
 6010SOL     OW18928   0.679   4.421   3.830
 6010SOL    HW118929   0.762   4.377   3.863
 6010SOL    HW218930   0.602   4.393   3.887
 6011SOL     OW18931   5.287   3.426   3.016
 6011SOL    HW118932   5.306   3.477   3.099
 6011SOL    HW218933   5.205   3.462   2.972
 6012SOL     OW18934   6.075   0.489   0.898
 6012SOL    HW118935   6.166   0.492   0.858
 6012SOL    HW218936   6.058   0.573   0.949
 6013SOL     OW18937   4.879   1.035   2.907
 6013SOL    HW118938   4.800   1.007   2.852
 6013SOL    HW218939   4.963   1.002   2.864
 6014SOL     OW18940   3.154   4.013   3.273
 6014SOL    HW118941   3.100   4.097   3.267
 6014SOL    HW218942   3.221   4.022   3.347
 6015SOL     OW18943   6.145   3.964   4.559
 6015SOL    HW118944   6.236   3.951   4.598
 6015SOL    HW218945   6.077   3.965   4.632
 6016SOL     OW18946   5.929   1.506   5.668
 6016SOL    HW118947   5.864   1.429   5.661
 6016SOL    HW218948   5.892   1.585   5.620
 6017SOL     OW18949   6.450   5.097   4.114
 6017SOL    HW118950   6.387   5.029   4.151
 6017SOL    HW218951   6.475   5.163   4.185
 6018SOL     OW18952   3.515   1.367   5.636
 6018SOL    HW118953   3.422   1.403   5.626
 6018SOL    HW218954   3.518   1.273   5.603
 6019SOL     OW18955   0.840   3.362   5.281
 6019SOL    HW118956   0.819   3.308   5.199
 6019SOL    HW218957   0.760   3.416   5.306
 6020SOL     OW18958   1.116   5.212   6.966
 6020SOL    HW118959   1.059   5.271   0.004
 6020SOL    HW218960   1.191   5.266   6.927
 6021SOL     OW18961   4.269   0.755   2.928
 6021SOL    HW118962   4.268   0.724   2.833
 6021SOL    HW218963   4.181   0.735   2.971
 6022SOL     OW18964   0.266   1.709   3.385
 6022SOL    HW118965   0.334   1.740   3.451
 6022SOL    HW218966   0.183   1.765   3.394
 6023SOL     OW18967   5.157   0.625   1.860
 6023SOL    HW118968   5.067   0.659   1.888
 6023SOL    HW218969   5.146   0.551   1.794
 6024SOL     OW18970   1.149   4.540   1.157
 6024SOL    HW118971   1.153   4.470   1.228
 6024SOL    HW218972   1.099   4.619   1.193
 6025SOL     OW18973   3.115   2.175   3.131
 6025SOL    HW118974   3.120   2.110   3.207
 6025SOL    HW218975   3.205   2.185   3.089
 6026SOL     OW18976   6.980   5.908   4.630
 6026SOL    HW118977   6.920   5.948   4.561
 6026SOL    HW218978   6.952   5.814   4.649
 6027SOL     OW18979   0.217   3.479   6.394
 6027SOL    HW118980   0.292   3.545   6.388
 6027SOL    HW218981   0.229   3.408   6.324
 6028SOL     OW18982   5.774   4.350   0.962
 6028SOL    HW118983   5.719   4.359   1.045
 6028SOL    HW218984   5.840   4.276   0.973
 6029SOL     OW18985   3.035   6.906   3.735
 6029SOL    HW118986   3.089   6.920   3.651
 6029SOL    HW218987   2.973   6.984   3.747
 6030SOL     OW18988   4.812   4.450   4.327
 6030SOL    HW118989   4.892   4.464   4.386
 6030SOL    HW218990   4.729   4.452   4.383
 6031SOL     OW18991   2.632   5.792   4.180
 6031SOL    HW118992   2.717   5.740   4.173
 6031SOL    HW218993   2.650   5.889   4.166
 6032SOL     OW18994   2.336   5.043   2.994
 6032SOL    HW118995   2.356   5.097   3.076
 6032SOL    HW218996   2.237   5.044   2.977
 6033SOL     OW18997   2.203   3.086   2.692
 6033SOL    HW118998   2.259   3.042   2.622
 6033SOL    HW218999   2.215   3.040   2.780
 6034SOL     OW19000   1.164   1.074   5.858
 6034SOL    HW119001   1.117   1.084   5.770
 6034SOL    HW219002   1.097   1.051   5.929
 6035SOL     OW19003   1.425   0.835   2.021
 6035SOL    HW119004   1.494   0.818   2.091
 6035SOL    HW219005   1.467   0.829   1.930
 6036SOL     OW19006   5.341   4.831   2.334
 6036SOL    HW119007   5.343   4.770   2.254
 6036SOL    HW219008   5.429   4.878   2.342
 6037SOL     OW19009   3.584   6.936   0.633
 6037SOL    HW119010   3.501   6.991   0.639
 6037SOL    HW219011   3.660   6.993   0.603
 6038SOL     OW19012   1.557   2.520   6.439
 6038SOL    HW119013   1.649   2.498   6.406
 6038SOL    HW219014   1.559   2.607   6.488
 6039SOL     OW19015   3.997   3.030   3.118
 6039SOL    HW119016   4.055   3.100   3.077
 6039SOL    HW219017   3.923   3.006   3.055
 6040SOL     OW19018   1.695   1.741   0.663
 6040SOL    HW119019   1.792   1.739   0.687
 6040SOL    HW219020   1.686   1.739   0.563
 6041SOL     OW19021   2.682   2.306   4.536
 6041SOL    HW119022   2.774   2.278   4.564
 6041SOL    HW219023   2.625   2.319   4.617
 6042SOL     OW19024   3.649   6.763   3.071
 6042SOL    HW119025   3.576   6.800   3.013
 6042SOL    HW219026   3.645   6.807   3.161
 6043SOL     OW19027   0.534   0.252   4.828
 6043SOL    HW119028   0.625   0.248   4.787
 6043SOL    HW219029   0.541   0.235   4.926
 6044SOL     OW19030   2.550   2.231   1.730
 6044SOL    HW119031   2.602   2.317   1.725
 6044SOL    HW219032   2.613   2.154   1.725
 6045SOL     OW19033   5.495   3.523   3.597
 6045SOL    HW119034   5.513   3.444   3.538
 6045SOL    HW219035   5.552   3.517   3.679
 6046SOL     OW19036   3.560   2.440   1.061
 6046SOL    HW119037   3.632   2.412   0.997
 6046SOL    HW219038   3.545   2.367   1.127
 6047SOL     OW19039   5.498   2.711   1.541
 6047SOL    HW119040   5.463   2.724   1.448
 6047SOL    HW219041   5.434   2.752   1.606
 6048SOL     OW19042   4.985   5.145   4.742
 6048SOL    HW119043   5.026   5.173   4.828
 6048SOL    HW219044   4.940   5.057   4.753
 6049SOL     OW19045   4.536   4.259   6.295
 6049SOL    HW119046   4.448   4.222   6.267
 6049SOL    HW219047   4.526   4.356   6.319
 6050SOL     OW19048   1.779   5.389   0.034
 6050SOL    HW119049   1.813   5.295   0.039
 6050SOL    HW219050   1.787   5.432   0.124
 6051SOL     OW19051   1.981   6.894   2.901
 6051SOL    HW119052   2.074   6.859   2.909
 6051SOL    HW219053   1.940   6.902   2.992
 6052SOL     OW19054   5.214   1.536   1.751
 6052SOL    HW119055   5.116   1.556   1.744
 6052SOL    HW219056   5.229   1.438   1.734
 6053SOL     OW19057   4.201   0.993   6.049
 6053SOL    HW119058   4.244   0.967   6.136
 6053SOL    HW219059   4.148   0.915   6.014
 6054SOL     OW19060   2.653   3.623   0.271
 6054SOL    HW119061   2.625   3.581   0.185
 6054SOL    HW219062   2.658   3.553   0.343
 6055SOL     OW19063   5.016   6.006   5.448
 6055SOL    HW119064   4.996   5.924   5.503
 6055SOL    HW219065   5.030   5.979   5.352
 6056SOL     OW19066   4.772   3.317   5.211
 6056SOL    HW119067   4.712   3.393   5.186
 6056SOL    HW219068   4.858   3.353   5.248
 6057SOL     OW19069   6.401   0.818   2.174
 6057SOL    HW119070   6.320   0.826   2.232
 6057SOL    HW219071   6.425   0.722   2.162
 6058SOL     OW19072   5.127   3.940   0.436
 6058SOL    HW119073   5.176   3.886   0.367
 6058SOL    HW219074   5.190   3.966   0.509
 6059SOL     OW19075   4.480   4.563   5.872
 6059SOL    HW119076   4.564   4.523   5.906
 6059SOL    HW219077   4.408   4.555   5.941
 6060SOL     OW19078   2.189   3.323   6.626
 6060SOL    HW119079   2.155   3.271   6.705
 6060SOL    HW219080   2.195   3.420   6.650
 6061SOL     OW19081   5.037   3.796   0.090
 6061SOL    HW119082   4.975   3.744   0.149
 6061SOL    HW219083   5.112   3.737   0.061
 6062SOL     OW19084   2.447   1.302   6.324
 6062SOL    HW119085   2.396   1.388   6.325
 6062SOL    HW219086   2.494   1.292   6.236
 6063SOL     OW19087   4.274   2.435   5.534
 6063SOL    HW119088   4.220   2.354   5.556
 6063SOL    HW219089   4.314   2.473   5.618
 6064SOL     OW19090   1.410   0.914   0.843
 6064SOL    HW119091   1.370   0.966   0.767
 6064SOL    HW219092   1.489   0.963   0.878
 6065SOL     OW19093   0.609   6.286   2.358
 6065SOL    HW119094   0.695   6.242   2.382
 6065SOL    HW219095   0.606   6.302   2.259
 6066SOL     OW19096   5.243   1.057   5.930
 6066SOL    HW119097   5.275   0.962   5.932
 6066SOL    HW219098   5.181   1.072   6.006
 6067SOL     OW19099   4.442   0.279   5.193
 6067SOL    HW119100   4.386   0.265   5.112
 6067SOL    HW219101   4.537   0.256   5.172
 6068SOL     OW19102   5.178   2.851   4.437
 6068SOL    HW119103   5.197   2.888   4.528
 6068SOL    HW219104   5.118   2.771   4.445
 6069SOL     OW19105   6.384   3.414   4.989
 6069SOL    HW119106   6.426   3.394   5.077
 6069SOL    HW219107   6.313   3.484   5.001
 6070SOL     OW19108   2.892   2.927   1.329
 6070SOL    HW119109   2.938   2.840   1.309
 6070SOL    HW219110   2.861   2.927   1.425
 6071SOL     OW19111   0.671   5.587   4.853
 6071SOL    HW119112   0.765   5.571   4.882
 6071SOL    HW219113   0.632   5.662   4.907
 6072SOL     OW19114   0.488   0.569   1.365
 6072SOL    HW119115   0.455   0.474   1.369
 6072SOL    HW219116   0.512   0.600   1.457
 6073SOL     OW19117   4.895   3.109   0.940
 6073SOL    HW119118   4.808   3.133   0.982
 6073SOL    HW219119   4.880   3.084   0.844
 6074SOL     OW19120   1.698   6.128   2.003
 6074SOL    HW119121   1.644   6.074   1.939
 6074SOL    HW219122   1.775   6.074   2.038
 6075SOL     OW19123   4.550   6.735   5.545
 6075SOL    HW119124   4.580   6.649   5.585
 6075SOL    HW219125   4.451   6.733   5.532
 6076SOL     OW19126   2.678   4.787   3.125
 6076SOL    HW119127   2.639   4.829   3.207
 6076SOL    HW219128   2.728   4.856   3.073
 6077SOL     OW19129   6.068   5.248   1.678
 6077SOL    HW119130   5.995   5.238   1.611
 6077SOL    HW219131   6.117   5.334   1.660
 6078SOL     OW19132   4.804   4.729   7.013
 6078SOL    HW119133   4.816   4.631   7.005
 6078SOL    HW219134   4.885   4.776   6.977
 6079SOL     OW19135   4.855   3.577   6.100
 6079SOL    HW119136   4.755   3.573   6.104
 6079SOL    HW219137   4.889   3.501   6.044
 6080SOL     OW19138   0.120   5.652   0.622
 6080SOL    HW119139   0.031   5.622   0.587
 6080SOL    HW219140   0.107   5.697   0.711
 6081SOL     OW19141   0.110   2.359   5.538
 6081SOL    HW119142   0.140   2.415   5.460
 6081SOL    HW219143   0.190   2.337   5.595
 6082SOL     OW19144   3.201   0.260   2.620
 6082SOL    HW119145   3.265   0.308   2.681
 6082SOL    HW219146   3.253   0.202   2.558
 6083SOL     OW19147   6.007   6.127   0.197
 6083SOL    HW119148   6.090   6.161   0.153
 6083SOL    HW219149   5.927   6.170   0.154
 6084SOL     OW19150   0.853   6.703   2.241
 6084SOL    HW119151   0.870   6.749   2.328
 6084SOL    HW219152   0.773   6.643   2.250
 6085SOL     OW19153   0.415   6.582   6.713
 6085SOL    HW119154   0.394   6.628   6.626
 6085SOL    HW219155   0.508   6.545   6.709
 6086SOL     OW19156   2.578   2.051   5.450
 6086SOL    HW119157   2.629   2.070   5.367
 6086SOL    HW219158   2.509   2.122   5.464
 6087SOL     OW19159   3.567   6.186   1.632
 6087SOL    HW119160   3.607   6.095   1.641
 6087SOL    HW219161   3.608   6.233   1.553
 6088SOL     OW19162   5.337   0.615   4.347
 6088SOL    HW119163   5.338   0.689   4.415
 6088SOL    HW219164   5.392   0.538   4.381
 6089SOL     OW19165   6.121   2.433   2.829
 6089SOL    HW119166   6.165   2.437   2.739
 6089SOL    HW219167   6.067   2.515   2.843
 6090SOL     OW19168   2.114   5.194   4.498
 6090SOL    HW119169   2.149   5.107   4.462
 6090SOL    HW219170   2.187   5.261   4.502
 6091SOL     OW19171   2.652   1.730   6.705
 6091SOL    HW119172   2.629   1.674   6.626
 6091SOL    HW219173   2.578   1.725   6.772
 6092SOL     OW19174   4.434   0.961   2.551
 6092SOL    HW119175   4.503   0.936   2.482
 6092SOL    HW219176   4.354   0.902   2.540
 6093SOL     OW19177   2.445   2.559   2.131
 6093SOL    HW119178   2.447   2.608   2.044
 6093SOL    HW219179   2.526   2.500   2.138
 6094SOL     OW19180   1.406   5.706   3.530
 6094SOL    HW119181   1.428   5.802   3.516
 6094SOL    HW219182   1.449   5.674   3.614
 6095SOL     OW19183   4.605   4.855   6.661
 6095SOL    HW119184   4.511   4.880   6.639
 6095SOL    HW219185   4.638   4.911   6.737
 6096SOL     OW19186   6.712   0.113   2.500
 6096SOL    HW119187   6.627   0.161   2.522
 6096SOL    HW219188   6.719   0.100   2.402
 6097SOL     OW19189   1.959   5.501   2.383
 6097SOL    HW119190   2.009   5.437   2.325
 6097SOL    HW219191   1.981   5.595   2.357
 6098SOL     OW19192   0.179   1.730   5.971
 6098SOL    HW119193   0.210   1.700   5.880
 6098SOL    HW219194   0.163   1.829   5.970
 6099SOL     OW19195   5.236   5.952   5.242
 6099SOL    HW119196   5.311   5.939   5.306
 6099SOL    HW219197   5.240   6.044   5.204
 6100SOL     OW19198   5.755   6.245   1.502
 6100SOL    HW119199   5.759   6.190   1.585
 6100SOL    HW219200   5.699   6.327   1.518
 6101SOL     OW19201   0.209   2.994   3.052
 6101SOL    HW119202   0.233   2.915   2.997
 6101SOL    HW219203   0.120   2.978   3.096
 6102SOL     OW19204   4.190   5.964   3.088
 6102SOL    HW119205   4.261   6.033   3.074
 6102SOL    HW219206   4.233   5.874   3.102
 6103SOL     OW19207   5.564   1.416   1.668
 6103SOL    HW119208   5.543   1.485   1.737
 6103SOL    HW219209   5.577   1.461   1.579
 6104SOL     OW19210   5.901   0.123   4.828
 6104SOL    HW119211   5.863   0.168   4.909
 6104SOL    HW219212   5.857   0.158   4.746
 6105SOL     OW19213   1.976   5.584   6.398
 6105SOL    HW119214   1.916   5.662   6.382
 6105SOL    HW219215   1.921   5.503   6.419
 6106SOL     OW19216   1.654   4.910   6.084
 6106SOL    HW119217   1.556   4.919   6.068
 6106SOL    HW219218   1.672   4.916   6.182
 6107SOL     OW19219   4.820   5.437   4.962
 6107SOL    HW119220   4.758   5.487   4.901
 6107SOL    HW219221   4.914   5.454   4.934
 6108SOL     OW19222   2.277   2.385   3.027
 6108SOL    HW119223   2.351   2.448   3.051
 6108SOL    HW219224   2.235   2.415   2.941
 6109SOL     OW19225   6.008   1.329   5.371
 6109SOL    HW119226   6.047   1.415   5.337
 6109SOL    HW219227   6.044   1.311   5.463
 6110SOL     OW19228   2.472   3.625   1.188
 6110SOL    HW119229   2.529   3.582   1.118
 6110SOL    HW219230   2.511   3.605   1.278
 6111SOL     OW19231   1.304   2.961   2.365
 6111SOL    HW119232   1.373   2.939   2.295
 6111SOL    HW219233   1.339   2.933   2.455
 6112SOL     OW19234   3.495   0.460   2.435
 6112SOL    HW119235   3.494   0.445   2.534
 6112SOL    HW219236   3.587   0.447   2.400
 6113SOL     OW19237   2.523   2.213   5.906
 6113SOL    HW119238   2.482   2.299   5.937
 6113SOL    HW219239   2.452   2.143   5.898
 6114SOL     OW19240   5.048   4.471   2.404
 6114SOL    HW119241   5.114   4.543   2.429
 6114SOL    HW219242   4.964   4.484   2.456
 6115SOL     OW19243   6.325   0.367   4.237
 6115SOL    HW119244   6.424   0.368   4.253
 6115SOL    HW219245   6.300   0.444   4.178
 6116SOL     OW19246   3.510   1.582   6.237
 6116SOL    HW119247   3.425   1.589   6.288
 6116SOL    HW219248   3.508   1.645   6.160
 6117SOL     OW19249   2.209   1.863   3.456
 6117SOL    HW119250   2.279   1.856   3.527
 6117SOL    HW219251   2.244   1.919   3.380
 6118SOL     OW19252   5.512   1.492   1.185
 6118SOL    HW119253   5.483   1.481   1.090
 6118SOL    HW219254   5.576   1.569   1.192
 6119SOL     OW19255   0.882   3.857   0.554
 6119SOL    HW119256   0.982   3.865   0.560
 6119SOL    HW219257   0.856   3.834   0.460
 6120SOL     OW19258   2.248   6.561   5.398
 6120SOL    HW119259   2.258   6.484   5.460
 6120SOL    HW219260   2.169   6.616   5.426
 6121SOL     OW19261   1.266   3.601   5.319
 6121SOL    HW119262   1.223   3.522   5.276
 6121SOL    HW219263   1.263   3.590   5.418
 6122SOL     OW19264   4.151   5.228   6.927
 6122SOL    HW119265   4.207   5.171   6.867
 6122SOL    HW219266   4.128   5.313   6.879
 6123SOL     OW19267   5.221   6.803   6.141
 6123SOL    HW119268   5.317   6.805   6.115
 6123SOL    HW219269   5.213   6.799   6.241
 6124SOL     OW19270   1.291   6.958   5.987
 6124SOL    HW119271   1.225   6.908   5.930
 6124SOL    HW219272   1.372   6.980   5.933
 6125SOL     OW19273   1.729   4.078   0.286
 6125SOL    HW119274   1.776   4.148   0.232
 6125SOL    HW219275   1.753   3.987   0.252
 6126SOL     OW19276   0.104   0.728   4.365
 6126SOL    HW119277   0.104   0.692   4.459
 6126SOL    HW219278   0.198   0.745   4.336
 6127SOL     OW19279   3.642   6.630   1.215
 6127SOL    HW119280   3.579   6.616   1.139
 6127SOL    HW219281   3.593   6.618   1.302
 6128SOL     OW19282   5.916   5.685   0.522
 6128SOL    HW119283   5.844   5.624   0.556
 6128SOL    HW219284   5.958   5.644   0.441
 6129SOL     OW19285   0.534   3.102   2.878
 6129SOL    HW119286   0.607   3.144   2.824
 6129SOL    HW219287   0.487   3.034   2.822
 6130SOL     OW19288   4.746   2.529   2.514
 6130SOL    HW119289   4.691   2.571   2.442
 6130SOL    HW219290   4.834   2.576   2.520
 6131SOL     OW19291   0.543   1.468   3.500
 6131SOL    HW119292   0.482   1.409   3.553
 6131SOL    HW219293   0.528   1.563   3.525
 6132SOL     OW19294   3.854   1.779   6.951
 6132SOL    HW119295   3.812   1.806   0.020
 6132SOL    HW219296   3.819   1.838   6.878
 6133SOL     OW19297   2.146   3.690   3.096
 6133SOL    HW119298   2.222   3.750   3.073
 6133SOL    HW219299   2.098   3.663   3.013
 6134SOL     OW19300   4.242   5.732   6.725
 6134SOL    HW119301   4.290   5.671   6.788
 6134SOL    HW219302   4.231   5.687   6.637
 6135SOL     OW19303   0.383   6.085   0.985
 6135SOL    HW119304   0.433   6.132   0.912
 6135SOL    HW219305   0.447   6.062   1.059
 6136SOL     OW19306   1.414   2.849   1.619
 6136SOL    HW119307   1.349   2.794   1.670
 6136SOL    HW219308   1.503   2.847   1.666
 6137SOL     OW19309   6.861   4.056   2.086
 6137SOL    HW119310   6.900   4.139   2.126
 6137SOL    HW219311   6.914   3.977   2.116
 6138SOL     OW19312   3.613   0.287   3.280
 6138SOL    HW119313   3.676   0.268   3.205
 6138SOL    HW219314   3.650   0.250   3.365
 6139SOL     OW19315   0.666   0.199   5.856
 6139SOL    HW119316   0.734   0.139   5.898
 6139SOL    HW219317   0.711   0.283   5.826
 6140SOL     OW19318   0.978   0.373   2.137
 6140SOL    HW119319   0.905   0.393   2.202
 6140SOL    HW219320   0.967   0.430   2.056
 6141SOL     OW19321   0.679   6.815   6.171
 6141SOL    HW119322   0.593   6.849   6.134
 6141SOL    HW219323   0.755   6.844   6.113
 6142SOL     OW19324   0.126   5.866   6.281
 6142SOL    HW119325   0.111   5.773   6.247
 6142SOL    HW219326   0.039   5.913   6.291
 6143SOL     OW19327   6.485   4.018   0.994
 6143SOL    HW119328   6.442   4.019   1.084
 6143SOL    HW219329   6.503   4.112   0.964
 6144SOL     OW19330   5.594   5.029   4.185
 6144SOL    HW119331   5.618   4.932   4.173
 6144SOL    HW219332   5.615   5.057   4.278
 6145SOL     OW19333   5.801   5.232   4.189
 6145SOL    HW119334   5.724   5.291   4.164
 6145SOL    HW219335   5.767   5.147   4.228
 6146SOL     OW19336   3.107   5.511   3.905
 6146SOL    HW119337   3.140   5.547   3.992
 6146SOL    HW219338   3.136   5.572   3.831
 6147SOL     OW19339   2.344   2.733   5.083
 6147SOL    HW119340   2.379   2.826   5.084
 6147SOL    HW219341   2.252   2.732   5.044
 6148SOL     OW19342   4.105   6.603   4.830
 6148SOL    HW119343   4.011   6.581   4.806
 6148SOL    HW219344   4.112   6.700   4.852
 6149SOL     OW19345   2.725   0.103   1.584
 6149SOL    HW119346   2.652   0.038   1.564
 6149SOL    HW219347   2.766   0.134   1.498
 6150SOL     OW19348   6.148   4.221   0.137
 6150SOL    HW119349   6.165   4.293   0.069
 6150SOL    HW219350   6.054   4.188   0.128
 6151SOL     OW19351   6.442   4.702   6.082
 6151SOL    HW119352   6.470   4.658   5.997
 6151SOL    HW219353   6.407   4.632   6.145
 6152SOL     OW19354   0.674   6.183   4.494
 6152SOL    HW119355   0.676   6.083   4.487
 6152SOL    HW219356   0.766   6.219   4.478
 6153SOL     OW19357   5.809   4.953   1.203
 6153SOL    HW119358   5.832   4.866   1.158
 6153SOL    HW219359   5.826   4.945   1.301
 6154SOL     OW19360   6.092   2.720   1.903
 6154SOL    HW119361   6.035   2.661   1.846
 6154SOL    HW219362   6.162   2.666   1.949
 6155SOL     OW19363   2.414   1.353   3.223
 6155SOL    HW119364   2.315   1.360   3.212
 6155SOL    HW219365   2.436   1.267   3.269
 6156SOL     OW19366   4.854   4.490   2.176
 6156SOL    HW119367   4.832   4.401   2.137
 6156SOL    HW219368   4.939   4.483   2.228
 6157SOL     OW19369   6.910   2.458   3.348
 6157SOL    HW119370   6.958   2.468   3.260
 6157SOL    HW219371   6.945   2.378   3.396
 6158SOL     OW19372   3.693   1.919   6.746
 6158SOL    HW119373   3.761   1.921   6.672
 6158SOL    HW219374   3.602   1.936   6.708
 6159SOL     OW19375   4.011   1.798   0.286
 6159SOL    HW119376   3.996   1.894   0.262
 6159SOL    HW219377   3.928   1.761   0.328
 6160SOL     OW19378   5.500   0.389   6.631
 6160SOL    HW119379   5.562   0.462   6.601
 6160SOL    HW219380   5.537   0.347   6.714
 6161SOL     OW19381   5.866   1.579   6.720
 6161SOL    HW119382   5.821   1.575   6.631
 6161SOL    HW219383   5.912   1.668   6.730
 6162SOL     OW19384   6.301   0.061   4.190
 6162SOL    HW119385   6.335   0.155   4.190
 6162SOL    HW219386   6.353   0.006   4.255
 6163SOL     OW19387   5.511   6.127   1.347
 6163SOL    HW119388   5.575   6.108   1.272
 6163SOL    HW219389   5.562   6.164   1.425
 6164SOL     OW19390   3.187   4.108   4.108
 6164SOL    HW119391   3.249   4.169   4.159
 6164SOL    HW219392   3.118   4.071   4.171
 6165SOL     OW19393   4.517   1.444   6.232
 6165SOL    HW119394   4.506   1.404   6.324
 6165SOL    HW219395   4.581   1.387   6.180
 6166SOL     OW19396   5.176   1.773   0.323
 6166SOL    HW119397   5.247   1.812   0.264
 6166SOL    HW219398   5.166   1.676   0.304
 6167SOL     OW19399   0.913   4.511   2.826
 6167SOL    HW119400   0.895   4.414   2.838
 6167SOL    HW219401   0.832   4.564   2.852
 6168SOL     OW19402   1.411   3.404   3.382
 6168SOL    HW119403   1.355   3.449   3.451
 6168SOL    HW219404   1.429   3.467   3.306
 6169SOL     OW19405   1.382   1.930   0.514
 6169SOL    HW119406   1.459   1.882   0.557
 6169SOL    HW219407   1.299   1.914   0.566
 6170SOL     OW19408   3.083   3.795   5.779
 6170SOL    HW119409   3.053   3.868   5.718
 6170SOL    HW219410   3.174   3.816   5.815
 6171SOL     OW19411   1.850   3.756   1.407
 6171SOL    HW119412   1.920   3.812   1.452
 6171SOL    HW219413   1.759   3.794   1.426
 6172SOL     OW19414   1.420   1.005   3.713
 6172SOL    HW119415   1.433   1.016   3.614
 6172SOL    HW219416   1.495   0.949   3.750
 6173SOL     OW19417   6.619   5.333   2.672
 6173SOL    HW119418   6.707   5.327   2.625
 6173SOL    HW219419   6.631   5.372   2.763
 6174SOL     OW19420   6.223   5.453   2.752
 6174SOL    HW119421   6.240   5.390   2.676
 6174SOL    HW219422   6.128   5.485   2.748
 6175SOL     OW19423   4.922   1.201   3.454
 6175SOL    HW119424   4.946   1.226   3.360
 6175SOL    HW219425   4.864   1.273   3.494
 6176SOL     OW19426   6.447   2.959   0.346
 6176SOL    HW119427   6.478   2.982   0.254
 6176SOL    HW219428   6.415   3.042   0.393
 6177SOL     OW19429   5.294   1.813   1.636
 6177SOL    HW119430   5.292   1.725   1.682
 6177SOL    HW219431   5.279   1.886   1.703
 6178SOL     OW19432   4.761   4.971   2.847
 6178SOL    HW119433   4.738   4.942   2.754
 6178SOL    HW219434   4.700   5.046   2.874
 6179SOL     OW19435   6.373   4.745   4.493
 6179SOL    HW119436   6.327   4.685   4.559
 6179SOL    HW219437   6.331   4.835   4.495
 6180SOL     OW19438   3.800   5.705   0.229
 6180SOL    HW119439   3.779   5.763   0.307
 6180SOL    HW219440   3.845   5.759   0.158
 6181SOL     OW19441   4.370   6.592   1.005
 6181SOL    HW119442   4.395   6.496   0.990
 6181SOL    HW219443   4.290   6.614   0.950
 6182SOL     OW19444   5.820   3.397   6.033
 6182SOL    HW119445   5.760   3.409   6.112
 6182SOL    HW219446   5.884   3.474   6.028
 6183SOL     OW19447   1.890   0.529   2.921
 6183SOL    HW119448   1.930   0.450   2.968
 6183SOL    HW219449   1.856   0.500   2.831
 6184SOL     OW19450   1.282   0.121   6.594
 6184SOL    HW119451   1.281   0.195   6.661
 6184SOL    HW219452   1.289   0.160   6.502
 6185SOL     OW19453   0.433   4.299   6.552
 6185SOL    HW119454   0.480   4.244   6.483
 6185SOL    HW219455   0.497   4.365   6.591
 6186SOL     OW19456   6.106   6.728   5.243
 6186SOL    HW119457   6.053   6.757   5.322
 6186SOL    HW219458   6.086   6.632   5.223
 6187SOL     OW19459   4.092   5.013   3.605
 6187SOL    HW119460   4.156   4.977   3.673
 6187SOL    HW219461   4.041   4.938   3.565
 6188SOL     OW19462   2.421   0.552   0.421
 6188SOL    HW119463   2.441   0.556   0.519
 6188SOL    HW219464   2.413   0.645   0.384
 6189SOL     OW19465   4.839   4.174   4.405
 6189SOL    HW119466   4.872   4.244   4.342
 6189SOL    HW219467   4.787   4.216   4.479
 6190SOL     OW19468   6.656   3.795   5.959
 6190SOL    HW119469   6.687   3.844   6.041
 6190SOL    HW219470   6.572   3.746   5.980
 6191SOL     OW19471   3.901   2.752   6.745
 6191SOL    HW119472   3.989   2.705   6.751
 6191SOL    HW219473   3.831   2.698   6.792
 6192SOL     OW19474   2.921   2.812   6.615
 6192SOL    HW119475   2.911   2.733   6.553
 6192SOL    HW219476   2.944   2.779   6.706
 6193SOL     OW19477   5.320   0.903   2.477
 6193SOL    HW119478   5.355   0.929   2.567
 6193SOL    HW219479   5.258   0.974   2.444
 6194SOL     OW19480   1.094   0.433   0.545
 6194SOL    HW119481   1.182   0.479   0.543
 6194SOL    HW219482   1.096   0.352   0.487
 6195SOL     OW19483   3.935   6.533   5.087
 6195SOL    HW119484   4.023   6.523   5.042
 6195SOL    HW219485   3.945   6.516   5.185
 6196SOL     OW19486   5.937   2.095   1.297
 6196SOL    HW119487   5.938   2.019   1.363
 6196SOL    HW219488   5.846   2.104   1.258
 6197SOL     OW19489   4.285   4.648   0.328
 6197SOL    HW119490   4.291   4.746   0.349
 6197SOL    HW219491   4.309   4.633   0.232
 6198SOL     OW19492   3.015   5.835   2.343
 6198SOL    HW119493   3.041   5.756   2.400
 6198SOL    HW219494   3.066   5.916   2.373
 6199SOL     OW19495   1.052   0.748   0.637
 6199SOL    HW119496   1.097   0.723   0.723
 6199SOL    HW219497   0.971   0.804   0.656
 6200SOL     OW19498   1.781   1.268   5.303
 6200SOL    HW119499   1.823   1.355   5.326
 6200SOL    HW219500   1.704   1.283   5.241
 6201SOL     OW19501   1.588   4.060   4.730
 6201SOL    HW119502   1.516   3.990   4.735
 6201SOL    HW219503   1.625   4.064   4.638
 6202SOL     OW19504   4.200   1.386   2.177
 6202SOL    HW119505   4.193   1.473   2.128
 6202SOL    HW219506   4.150   1.315   2.128
 6203SOL     OW19507   6.353   6.684   3.039
 6203SOL    HW119508   6.337   6.744   3.117
 6203SOL    HW219509   6.366   6.740   2.956
 6204SOL     OW19510   1.362   5.212   4.606
 6204SOL    HW119511   1.337   5.245   4.697
 6204SOL    HW219512   1.281   5.179   4.559
 6205SOL     OW19513   6.752   6.380   0.181
 6205SOL    HW119514   6.779   6.474   0.164
 6205SOL    HW219515   6.811   6.318   0.129
 6206SOL     OW19516   0.005   0.735   2.323
 6206SOL    HW119517   0.005   0.645   2.279
 6206SOL    HW219518   0.023   0.805   2.255
 6207SOL     OW19519   1.418   5.247   4.307
 6207SOL    HW119520   1.514   5.256   4.281
 6207SOL    HW219521   1.412   5.214   4.401
 6208SOL     OW19522   5.750   1.539   6.176
 6208SOL    HW119523   5.688   1.589   6.115
 6208SOL    HW219524   5.842   1.541   6.138
 6209SOL     OW19525   4.393   5.546   0.062
 6209SOL    HW119526   4.438   5.558   6.991
 6209SOL    HW219527   4.426   5.462   0.104
 6210SOL     OW19528   5.446   3.773   3.527
 6210SOL    HW119529   5.509   3.791   3.603
 6210SOL    HW219530   5.462   3.681   3.492
 6211SOL     OW19531   2.889   6.018   5.694
 6211SOL    HW119532   2.812   5.980   5.641
 6211SOL    HW219533   2.878   6.117   5.701
 6212SOL     OW19534   2.157   4.777   2.732
 6212SOL    HW119535   2.135   4.850   2.796
 6212SOL    HW219536   2.134   4.806   2.639
 6213SOL     OW19537   5.651   0.246   6.810
 6213SOL    HW119538   5.737   0.246   6.760
 6213SOL    HW219539   5.631   0.153   6.841
 6214SOL     OW19540   4.664   4.977   4.412
 6214SOL    HW119541   4.640   4.955   4.506
 6214SOL    HW219542   4.754   4.938   4.390
 6215SOL     OW19543   4.209   1.603   1.175
 6215SOL    HW119544   4.212   1.503   1.179
 6215SOL    HW219545   4.159   1.632   1.094
 6216SOL     OW19546   5.975   1.931   1.797
 6216SOL    HW119547   6.004   1.840   1.827
 6216SOL    HW219548   5.913   1.971   1.865
 6217SOL     OW19549   0.520   2.855   2.302
 6217SOL    HW119550   0.567   2.941   2.286
 6217SOL    HW219551   0.565   2.805   2.376
 6218SOL     OW19552   3.636   5.087   5.440
 6218SOL    HW119553   3.708   5.084   5.371
 6218SOL    HW219554   3.625   5.180   5.473
 6219SOL     OW19555   0.915   2.264   4.442
 6219SOL    HW119556   0.830   2.265   4.494
 6219SOL    HW219557   0.993   2.272   4.504
 6220SOL     OW19558   1.528   2.738   5.083
 6220SOL    HW119559   1.521   2.644   5.048
 6220SOL    HW219560   1.448   2.759   5.139
 6221SOL     OW19561   6.403   5.997   6.978
 6221SOL    HW119562   6.467   6.039   0.023
 6221SOL    HW219563   6.312   6.038   6.989
 6222SOL     OW19564   0.681   6.240   1.002
 6222SOL    HW119565   0.641   6.330   0.986
 6222SOL    HW219566   0.629   6.192   1.072
 6223SOL     OW19567   0.379   4.857   4.059
 6223SOL    HW119568   0.420   4.765   4.056
 6223SOL    HW219569   0.284   4.849   4.088
 6224SOL     OW19570   2.353   1.760   6.015
 6224SOL    HW119571   2.402   1.769   6.102
 6224SOL    HW219572   2.290   1.683   6.021
 6225SOL     OW19573   3.356   3.999   0.681
 6225SOL    HW119574   3.348   4.059   0.761
 6225SOL    HW219575   3.332   4.051   0.599
 6226SOL     OW19576   5.908   1.500   5.143
 6226SOL    HW119577   5.810   1.512   5.126
 6226SOL    HW219578   5.947   1.440   5.073
 6227SOL     OW19579   4.061   5.580   5.517
 6227SOL    HW119580   4.015   5.509   5.464
 6227SOL    HW219581   3.994   5.648   5.547
 6228SOL     OW19582   1.242   2.618   3.308
 6228SOL    HW119583   1.177   2.550   3.340
 6228SOL    HW219584   1.194   2.702   3.284
 6229SOL     OW19585   0.332   2.153   2.995
 6229SOL    HW119586   0.399   2.224   3.016
 6229SOL    HW219587   0.353   2.111   2.907
 6230SOL     OW19588   1.362   1.323   3.768
 6230SOL    HW119589   1.448   1.371   3.786
 6230SOL    HW219590   1.381   1.226   3.753
 6231SOL     OW19591   6.051   4.886   0.988
 6231SOL    HW119592   6.150   4.883   0.978
 6231SOL    HW219593   6.008   4.844   0.909
 6232SOL     OW19594   6.622   1.195   0.874
 6232SOL    HW119595   6.546   1.221   0.933
 6232SOL    HW219596   6.586   1.162   0.786
 6233SOL     OW19597   6.278   0.600   0.473
 6233SOL    HW119598   6.324   0.674   0.424
 6233SOL    HW219599   6.181   0.624   0.484
 6234SOL     OW19600   6.274   1.586   5.476
 6234SOL    HW119601   6.190   1.623   5.437
 6234SOL    HW219602   6.252   1.514   5.542
 6235SOL     OW19603   1.090   0.248   1.669
 6235SOL    HW119604   1.029   0.319   1.634
 6235SOL    HW219605   1.130   0.279   1.755
 6236SOL     OW19606   0.417   3.912   0.652
 6236SOL    HW119607   0.375   3.872   0.733
 6236SOL    HW219608   0.517   3.910   0.661
 6237SOL     OW19609   3.516   6.247   0.107
 6237SOL    HW119610   3.590   6.303   0.142
 6237SOL    HW219611   3.551   6.184   0.037
 6238SOL     OW19612   4.290   4.905   2.897
 6238SOL    HW119613   4.321   4.923   2.990
 6238SOL    HW219614   4.366   4.867   2.844
 6239SOL     OW19615   3.091   6.645   2.248
 6239SOL    HW119616   3.187   6.637   2.274
 6239SOL    HW219617   3.056   6.734   2.278
 6240SOL     OW19618   2.871   2.973   6.060
 6240SOL    HW119619   2.779   3.009   6.042
 6240SOL    HW219620   2.932   3.047   6.085
 6241SOL     OW19621   3.829   0.048   1.925
 6241SOL    HW119622   3.910   0.026   1.979
 6241SOL    HW219623   3.832   0.144   1.897
 6242SOL     OW19624   5.757   1.569   3.235
 6242SOL    HW119625   5.730   1.652   3.282
 6242SOL    HW219626   5.828   1.522   3.287
 6243SOL     OW19627   6.223   6.971   3.943
 6243SOL    HW119628   6.275   6.992   3.860
 6243SOL    HW219629   6.264   7.017   4.021
 6244SOL     OW19630   0.862   2.539   2.701
 6244SOL    HW119631   0.935   2.531   2.633
 6244SOL    HW219632   0.899   2.581   2.784
 6245SOL     OW19633   1.535   3.786   0.458
 6245SOL    HW119634   1.591   3.703   0.465
 6245SOL    HW219635   1.555   3.846   0.536
 6246SOL     OW19636   1.713   2.562   5.716
 6246SOL    HW119637   1.728   2.546   5.618
 6246SOL    HW219638   1.702   2.474   5.762
 6247SOL     OW19639   1.465   6.183   4.565
 6247SOL    HW119640   1.403   6.133   4.505
 6247SOL    HW219641   1.533   6.120   4.602
 6248SOL     OW19642   3.295   3.384   0.300
 6248SOL    HW119643   3.355   3.388   0.221
 6248SOL    HW219644   3.346   3.409   0.382
 6249SOL     OW19645   0.346   3.863   0.956
 6249SOL    HW119646   0.424   3.903   1.004
 6249SOL    HW219647   0.261   3.902   0.990
 6250SOL     OW19648   6.789   5.972   0.203
 6250SOL    HW119649   6.803   6.056   0.256
 6250SOL    HW219650   6.878   5.934   0.177
 6251SOL     OW19651   3.668   5.298   7.001
 6251SOL    HW119652   3.735   5.298   0.058
 6251SOL    HW219653   3.577   5.277   0.019
 6252SOL     OW19654   1.165   6.812   5.773
 6252SOL    HW119655   1.089   6.767   5.726
 6252SOL    HW219656   1.252   6.783   5.731
 6253SOL     OW19657   2.078   4.063   2.936
 6253SOL    HW119658   2.127   4.009   2.867
 6253SOL    HW219659   1.987   4.024   2.950
 6254SOL     OW19660   4.759   1.724   0.326
 6254SOL    HW119661   4.659   1.728   0.328
 6254SOL    HW219662   4.788   1.630   0.307
 6255SOL     OW19663   2.910   0.232   1.004
 6255SOL    HW119664   2.876   0.164   0.939
 6255SOL    HW219665   2.842   0.305   1.016
 6256SOL     OW19666   3.443   5.073   2.395
 6256SOL    HW119667   3.370   5.141   2.381
 6256SOL    HW219668   3.467   5.032   2.307
 6257SOL     OW19669   4.678   2.275   0.086
 6257SOL    HW119670   4.583   2.270   0.053
 6257SOL    HW219671   4.690   2.211   0.161
 6258SOL     OW19672   3.849   0.114   3.876
 6258SOL    HW119673   3.764   0.164   3.894
 6258SOL    HW219674   3.892   0.149   3.793
 6259SOL     OW19675   2.318   2.424   0.844
 6259SOL    HW119676   2.366   2.337   0.832
 6259SOL    HW219677   2.239   2.411   0.903
 6260SOL     OW19678   3.354   5.690   0.818
 6260SOL    HW119679   3.389   5.709   0.909
 6260SOL    HW219680   3.310   5.772   0.781
 6261SOL     OW19681   4.048   0.510   6.132
 6261SOL    HW119682   4.031   0.484   6.037
 6261SOL    HW219683   4.072   0.429   6.185
 6262SOL     OW19684   1.815   5.844   0.531
 6262SOL    HW119685   1.866   5.913   0.480
 6262SOL    HW219686   1.864   5.758   0.529
 6263SOL     OW19687   6.495   0.277   5.302
 6263SOL    HW119688   6.426   0.347   5.320
 6263SOL    HW219689   6.451   0.197   5.260
 6264SOL     OW19690   1.413   6.576   2.363
 6264SOL    HW119691   1.352   6.502   2.334
 6264SOL    HW219692   1.424   6.572   2.463
 6265SOL     OW19693   3.273   4.346   0.486
 6265SOL    HW119694   3.258   4.437   0.446
 6265SOL    HW219695   3.288   4.279   0.413
 6266SOL     OW19696   3.943   0.721   4.881
 6266SOL    HW119697   3.956   0.701   4.784
 6266SOL    HW219698   3.990   0.806   4.904
 6267SOL     OW19699   2.602   0.834   6.679
 6267SOL    HW119700   2.580   0.777   6.600
 6267SOL    HW219701   2.542   0.809   6.755
 6268SOL     OW19702   3.379   0.216   3.637
 6268SOL    HW119703   3.397   0.142   3.701
 6268SOL    HW219704   3.281   0.222   3.620
 6269SOL     OW19705   6.631   5.935   1.567
 6269SOL    HW119706   6.717   5.982   1.587
 6269SOL    HW219707   6.555   5.989   1.604
 6270SOL     OW19708   1.526   0.364   4.980
 6270SOL    HW119709   1.512   0.462   4.994
 6270SOL    HW219710   1.553   0.321   5.067
 6271SOL     OW19711   6.125   2.147   6.502
 6271SOL    HW119712   6.214   2.187   6.524
 6271SOL    HW219713   6.117   2.138   6.403
 6272SOL     OW19714   0.458   2.364   0.034
 6272SOL    HW119715   0.433   2.381   6.957
 6272SOL    HW219716   0.557   2.378   0.046
 6273SOL     OW19717   1.778   6.417   2.674
 6273SOL    HW119718   1.715   6.457   2.606
 6273SOL    HW219719   1.790   6.482   2.749
 6274SOL     OW19720   2.707   5.764   6.098
 6274SOL    HW119721   2.740   5.772   6.192
 6274SOL    HW219722   2.762   5.822   6.039
 6275SOL     OW19723   1.660   6.220   5.463
 6275SOL    HW119724   1.724   6.295   5.477
 6275SOL    HW219725   1.617   6.229   5.373
 6276SOL     OW19726   2.066   4.375   3.056
 6276SOL    HW119727   2.029   4.332   2.974
 6276SOL    HW219728   2.166   4.364   3.057
 6277SOL     OW19729   5.432   3.227   1.920
 6277SOL    HW119730   5.488   3.257   1.843
 6277SOL    HW219731   5.353   3.175   1.886
 6278SOL     OW19732   5.178   6.494   4.151
 6278SOL    HW119733   5.156   6.592   4.147
 6278SOL    HW219734   5.097   6.441   4.127
 6279SOL     OW19735   4.076   0.063   6.811
 6279SOL    HW119736   4.153   0.043   6.750
 6279SOL    HW219737   4.011   0.123   6.764
 6280SOL     OW19738   1.219   2.299   5.270
 6280SOL    HW119739   1.144   2.363   5.285
 6280SOL    HW219740   1.186   2.218   5.222
 6281SOL     OW19741   1.190   5.217   3.366
 6281SOL    HW119742   1.214   5.259   3.279
 6281SOL    HW219743   1.269   5.166   3.402
 6282SOL     OW19744   1.341   6.545   4.746
 6282SOL    HW119745   1.436   6.576   4.752
 6282SOL    HW219746   1.290   6.580   4.824
 6283SOL     OW19747   7.011   2.974   5.743
 6283SOL    HW119748   0.047   2.909   5.691
 6283SOL    HW219749   0.015   3.067   5.714
 6284SOL     OW19750   1.879   5.720   4.688
 6284SOL    HW119751   1.883   5.687   4.783
 6284SOL    HW219752   1.884   5.643   4.625
 6285SOL     OW19753   0.278   3.138   4.683
 6285SOL    HW119754   0.273   3.219   4.624
 6285SOL    HW219755   0.203   3.076   4.660
 6286SOL     OW19756   6.196   2.215   3.168
 6286SOL    HW119757   6.205   2.183   3.073
 6286SOL    HW219758   6.188   2.314   3.169
 6287SOL     OW19759   3.647   5.119   3.885
 6287SOL    HW119760   3.558   5.105   3.840
 6287SOL    HW219761   3.692   5.199   3.845
 6288SOL     OW19762   4.940   4.877   2.427
 6288SOL    HW119763   5.035   4.887   2.458
 6288SOL    HW219764   4.939   4.854   2.330
 6289SOL     OW19765   1.958   4.717   1.951
 6289SOL    HW119766   1.915   4.629   1.974
 6289SOL    HW219767   2.004   4.709   1.863
 6290SOL     OW19768   6.735   4.248   4.875
 6290SOL    HW119769   6.766   4.337   4.843
 6290SOL    HW219770   6.649   4.224   4.830
 6291SOL     OW19771   3.723   2.911   4.589
 6291SOL    HW119772   3.814   2.954   4.593
 6291SOL    HW219773   3.708   2.874   4.497
 6292SOL     OW19774   1.811   2.537   4.134
 6292SOL    HW119775   1.799   2.463   4.201
 6292SOL    HW219776   1.728   2.546   4.079
 6293SOL     OW19777   3.641   0.408   0.024
 6293SOL    HW119778   3.604   0.428   0.114
 6293SOL    HW219779   3.574   0.434   6.973
 6294SOL     OW19780   3.884   4.928   4.761
 6294SOL    HW119781   3.907   4.831   4.773
 6294SOL    HW219782   3.791   4.944   4.794
 6295SOL     OW19783   5.863   4.719   5.607
 6295SOL    HW119784   5.800   4.644   5.626
 6295SOL    HW219785   5.887   4.765   5.693
 6296SOL     OW19786   0.380   0.130   6.272
 6296SOL    HW119787   0.412   0.131   6.367
 6296SOL    HW219788   0.447   0.175   6.213
 6297SOL     OW19789   4.755   6.531   4.391
 6297SOL    HW119790   4.655   6.527   4.396
 6297SOL    HW219791   4.794   6.531   4.483
 6298SOL     OW19792   1.090   2.857   6.748
 6298SOL    HW119793   1.042   2.911   6.817
 6298SOL    HW219794   1.067   2.891   6.657
 6299SOL     OW19795   5.129   1.802   0.011
 6299SOL    HW119796   5.073   1.744   0.069
 6299SOL    HW219797   5.211   1.830   0.060
 6300SOL     OW19798   6.102   0.212   0.499
 6300SOL    HW119799   6.162   0.198   0.578
 6300SOL    HW219800   6.079   0.309   0.490
 6301SOL     OW19801   3.940   0.528   0.520
 6301SOL    HW119802   3.852   0.481   0.529
 6301SOL    HW219803   3.962   0.576   0.605
 6302SOL     OW19804   1.896   0.261   3.433
 6302SOL    HW119805   1.841   0.333   3.475
 6302SOL    HW219806   1.962   0.302   3.370
 6303SOL     OW19807   1.807   1.542   4.387
 6303SOL    HW119808   1.755   1.507   4.465
 6303SOL    HW219809   1.765   1.627   4.355
 6304SOL     OW19810   2.328   1.526   1.227
 6304SOL    HW119811   2.371   1.496   1.313
 6304SOL    HW219812   2.346   1.457   1.156
 6305SOL     OW19813   5.553   0.089   1.728
 6305SOL    HW119814   5.522   0.182   1.709
 6305SOL    HW219815   5.497   0.049   1.800
 6306SOL     OW19816   0.380   3.800   4.561
 6306SOL    HW119817   0.437   3.853   4.498
 6306SOL    HW219818   0.285   3.832   4.555
 6307SOL     OW19819   3.931   4.262   5.589
 6307SOL    HW119820   3.971   4.210   5.665
 6307SOL    HW219821   3.961   4.223   5.502
 6308SOL     OW19822   2.239   2.388   4.345
 6308SOL    HW119823   2.319   2.334   4.371
 6308SOL    HW219824   2.165   2.327   4.319
 6309SOL     OW19825   5.379   4.877   5.219
 6309SOL    HW119826   5.364   4.778   5.216
 6309SOL    HW219827   5.476   4.896   5.205
 6310SOL     OW19828   1.635   5.946   3.038
 6310SOL    HW119829   1.669   5.938   2.945
 6310SOL    HW219830   1.684   6.020   3.085
 6311SOL     OW19831   4.618   0.587   6.285
 6311SOL    HW119832   4.591   0.492   6.275
 6311SOL    HW219833   4.602   0.617   6.380
 6312SOL     OW19834   5.808   5.472   5.335
 6312SOL    HW119835   5.827   5.472   5.433
 6312SOL    HW219836   5.797   5.566   5.303
 6313SOL     OW19837   1.542   6.753   4.382
 6313SOL    HW119838   1.523   6.777   4.287
 6313SOL    HW219839   1.492   6.670   4.406
 6314SOL     OW19840   3.854   6.341   1.631
 6314SOL    HW119841   3.828   6.430   1.667
 6314SOL    HW219842   3.798   6.319   1.551
 6315SOL     OW19843   1.998   2.720   5.871
 6315SOL    HW119844   2.010   2.649   5.940
 6315SOL    HW219845   2.019   2.809   5.911
 6316SOL     OW19846   4.656   1.293   6.847
 6316SOL    HW119847   4.604   1.251   6.772
 6316SOL    HW219848   4.663   1.228   6.923
 6317SOL     OW19849   4.632   5.971   2.791
 6317SOL    HW119850   4.639   6.038   2.717
 6317SOL    HW219851   4.715   5.916   2.795
 6318SOL     OW19852   3.901   1.723   4.982
 6318SOL    HW119853   3.815   1.675   4.998
 6318SOL    HW219854   3.935   1.702   4.891
 6319SOL     OW19855   6.838   1.681   4.165
 6319SOL    HW119856   6.752   1.633   4.154
 6319SOL    HW219857   6.849   1.748   4.091
 6320SOL     OW19858   5.885   5.962   4.980
 6320SOL    HW119859   5.950   5.994   5.049
 6320SOL    HW219860   5.874   5.863   4.988
 6321SOL     OW19861   3.403   3.320   0.940
 6321SOL    HW119862   3.387   3.381   1.017
 6321SOL    HW219863   3.470   3.360   0.879
 6322SOL     OW19864   1.623   2.264   0.177
 6322SOL    HW119865   1.709   2.217   0.157
 6322SOL    HW219866   1.553   2.237   0.112
 6323SOL     OW19867   3.593   2.421   1.451
 6323SOL    HW119868   3.520   2.364   1.414
 6323SOL    HW219869   3.608   2.398   1.547
 6324SOL     OW19870   5.400   6.911   6.553
 6324SOL    HW119871   5.453   6.839   6.598
 6324SOL    HW219872   5.346   6.871   6.478
 6325SOL     OW19873   2.518   1.722   2.311
 6325SOL    HW119874   2.607   1.730   2.264
 6325SOL    HW219875   2.532   1.680   2.400
 6326SOL     OW19876   4.808   5.101   1.883
 6326SOL    HW119877   4.835   5.112   1.979
 6326SOL    HW219878   4.769   5.010   1.870
 6327SOL     OW19879   6.820   0.253   4.640
 6327SOL    HW119880   6.762   0.175   4.666
 6327SOL    HW219881   6.896   0.260   4.704
 6328SOL     OW19882   2.821   3.023   0.518
 6328SOL    HW119883   2.788   3.046   0.426
 6328SOL    HW219884   2.874   2.938   0.513
 6329SOL     OW19885   2.417   2.224   3.665
 6329SOL    HW119886   2.333   2.269   3.698
 6329SOL    HW219887   2.496   2.278   3.692
 6330SOL     OW19888   4.837   0.827   1.156
 6330SOL    HW119889   4.871   0.885   1.230
 6330SOL    HW219890   4.915   0.782   1.111
 6331SOL     OW19891   6.419   1.822   6.638
 6331SOL    HW119892   6.484   1.805   6.564
 6331SOL    HW219893   6.405   1.921   6.648
 6332SOL     OW19894   5.877   3.494   1.601
 6332SOL    HW119895   5.888   3.505   1.700
 6332SOL    HW219896   5.780   3.501   1.577
 6333SOL     OW19897   4.918   5.666   5.270
 6333SOL    HW119898   5.001   5.665   5.215
 6333SOL    HW219899   4.941   5.682   5.366
 6334SOL     OW19900   3.219   0.544   1.567
 6334SOL    HW119901   3.140   0.485   1.581
 6334SOL    HW219902   3.228   0.567   1.470
 6335SOL     OW19903   4.333   1.096   0.378
 6335SOL    HW119904   4.234   1.110   0.377
 6335SOL    HW219905   4.366   1.086   0.284
 6336SOL     OW19906   0.880   2.099   5.603
 6336SOL    HW119907   0.888   2.147   5.691
 6336SOL    HW219908   0.820   2.020   5.614
 6337SOL     OW19909   4.914   3.899   6.468
 6337SOL    HW119910   4.934   3.818   6.413
 6337SOL    HW219911   4.863   3.966   6.413
 6338SOL     OW19912   3.770   1.852   4.144
 6338SOL    HW119913   3.850   1.799   4.115
 6338SOL    HW219914   3.687   1.809   4.108
 6339SOL     OW19915   1.530   3.808   2.838
 6339SOL    HW119916   1.466   3.826   2.913
 6339SOL    HW219917   1.502   3.724   2.791
 6340SOL     OW19918   1.649   5.154   3.024
 6340SOL    HW119919   1.657   5.254   3.034
 6340SOL    HW219920   1.566   5.122   3.069
 6341SOL     OW19921   0.889   4.358   4.540
 6341SOL    HW119922   0.853   4.291   4.605
 6341SOL    HW219923   0.935   4.431   4.591
 6342SOL     OW19924   2.325   1.356   2.317
 6342SOL    HW119925   2.247   1.411   2.288
 6342SOL    HW219926   2.393   1.353   2.244
 6343SOL     OW19927   4.349   1.877   6.181
 6343SOL    HW119928   4.293   1.810   6.229
 6343SOL    HW219929   4.446   1.859   6.200
 6344SOL     OW19930   5.858   3.129   5.399
 6344SOL    HW119931   5.922   3.196   5.436
 6344SOL    HW219932   5.826   3.159   5.310
 6345SOL     OW19933   5.160   2.720   2.308
 6345SOL    HW119934   5.226   2.647   2.329
 6345SOL    HW219935   5.084   2.682   2.255
 6346SOL     OW19936   6.761   4.662   3.626
 6346SOL    HW119937   6.860   4.650   3.635
 6346SOL    HW219938   6.738   4.759   3.635
 6347SOL     OW19939   2.380   0.435   0.711
 6347SOL    HW119940   2.358   0.343   0.744
 6347SOL    HW219941   2.296   0.481   0.682
 6348SOL     OW19942   1.147   4.216   5.409
 6348SOL    HW119943   1.211   4.265   5.349
 6348SOL    HW219944   1.087   4.159   5.353
 6349SOL     OW19945   2.914   0.405   1.269
 6349SOL    HW119946   2.899   0.450   1.180
 6349SOL    HW219947   3.011   0.382   1.277
 6350SOL     OW19948   2.072   5.091   4.150
 6350SOL    HW119949   1.978   5.098   4.184
 6350SOL    HW219950   2.130   5.052   4.222
 6351SOL     OW19951   6.336   3.536   3.343
 6351SOL    HW119952   6.315   3.554   3.439
 6351SOL    HW219953   6.416   3.589   3.315
 6352SOL     OW19954   3.582   5.608   4.520
 6352SOL    HW119955   3.547   5.539   4.457
 6352SOL    HW219956   3.659   5.656   4.478
 6353SOL     OW19957   0.092   0.459   5.789
 6353SOL    HW119958   7.015   0.431   5.779
 6353SOL    HW219959   0.095   0.558   5.807
 6354SOL     OW19960   1.753   5.639   3.271
 6354SOL    HW119961   1.754   5.733   3.306
 6354SOL    HW219962   1.755   5.575   3.348
 6355SOL     OW19963   0.866   5.444   6.327
 6355SOL    HW119964   0.797   5.464   6.258
 6355SOL    HW219965   0.821   5.424   6.414
 6356SOL     OW19966   4.100   5.337   2.392
 6356SOL    HW119967   4.113   5.262   2.327
 6356SOL    HW219968   4.173   5.404   2.381
 6357SOL     OW19969   5.272   3.655   2.384
 6357SOL    HW119970   5.245   3.643   2.289
 6357SOL    HW219971   5.264   3.567   2.432
 6358SOL     OW19972   0.706   1.898   6.431
 6358SOL    HW119973   0.803   1.901   6.454
 6358SOL    HW219974   0.674   1.990   6.410
 6359SOL     OW19975   6.163   6.818   6.031
 6359SOL    HW119976   6.213   6.732   6.019
 6359SOL    HW219977   6.205   6.870   6.105
 6360SOL     OW19978   1.073   4.135   4.097
 6360SOL    HW119979   1.044   4.176   4.184
 6360SOL    HW219980   1.170   4.113   4.102
 6361SOL     OW19981   6.323   6.909   0.864
 6361SOL    HW119982   6.385   6.875   0.935
 6361SOL    HW219983   6.239   6.942   0.906
 6362SOL     OW19984   0.736   6.471   0.742
 6362SOL    HW119985   0.677   6.472   0.823
 6362SOL    HW219986   0.831   6.460   0.771
 6363SOL     OW19987   2.096   4.674   3.443
 6363SOL    HW119988   2.049   4.763   3.443
 6363SOL    HW219989   2.185   4.684   3.397
 6364SOL     OW19990   3.256   1.178   5.800
 6364SOL    HW119991   3.326   1.176   5.729
 6364SOL    HW219992   3.259   1.093   5.853
 6365SOL     OW19993   5.561   0.639   4.059
 6365SOL    HW119994   5.568   0.599   3.968
 6365SOL    HW219995   5.465   0.648   4.084
 6366SOL     OW19996   1.240   6.179   6.139
 6366SOL    HW119997   1.182   6.247   6.094
 6366SOL    HW219998   1.217   6.174   6.236
 6367SOL     OW19999   4.113   0.500   4.906
 6367SOL    HW120000   4.062   0.426   4.861
 6367SOL    HW220001   4.053   0.579   4.917
 6368SOL     OW20002   3.249   4.962   3.473
 6368SOL    HW120003   3.256   4.888   3.541
 6368SOL    HW220004   3.239   4.922   3.381
 6369SOL     OW20005   1.634   5.213   3.797
 6369SOL    HW120006   1.615   5.261   3.711
 6369SOL    HW220007   1.733   5.201   3.807
 6370SOL     OW20008   0.360   3.208   3.065
 6370SOL    HW120009   0.282   3.146   3.064
 6370SOL    HW220010   0.426   3.179   2.996
 6371SOL     OW20011   5.037   4.120   4.179
 6371SOL    HW120012   4.959   4.067   4.213
 6371SOL    HW220013   5.005   4.186   4.112
 6372SOL     OW20014   2.389   0.368   1.996
 6372SOL    HW120015   2.303   0.419   1.986
 6372SOL    HW220016   2.409   0.321   1.910
 6373SOL     OW20017   5.000   4.398   3.074
 6373SOL    HW120018   4.959   4.347   2.999
 6373SOL    HW220019   5.089   4.358   3.097
 6374SOL     OW20020   3.036   3.987   4.283
 6374SOL    HW120021   2.989   3.914   4.233
 6374SOL    HW220022   2.982   4.011   4.364
 6375SOL     OW20023   6.539   1.723   3.750
 6375SOL    HW120024   6.564   1.814   3.718
 6375SOL    HW220025   6.439   1.713   3.745
 6376SOL     OW20026   5.763   2.703   4.840
 6376SOL    HW120027   5.682   2.675   4.790
 6376SOL    HW220028   5.814   2.623   4.870
 6377SOL     OW20029   6.160   1.682   5.076
 6377SOL    HW120030   6.232   1.630   5.031
 6377SOL    HW220031   6.076   1.627   5.079
 6378SOL     OW20032   4.872   5.389   3.774
 6378SOL    HW120033   4.859   5.439   3.689
 6378SOL    HW220034   4.784   5.356   3.807
 6379SOL     OW20035   1.985   4.027   4.174
 6379SOL    HW120036   1.996   4.121   4.205
 6379SOL    HW220037   1.894   4.016   4.133
 6380SOL     OW20038   0.651   2.020   6.072
 6380SOL    HW120039   0.576   1.976   6.121
 6380SOL    HW220040   0.736   1.969   6.088
 6381SOL     OW20041   3.924   3.338   1.786
 6381SOL    HW120042   3.869   3.311   1.707
 6381SOL    HW220043   3.970   3.258   1.823
 6382SOL     OW20044   1.387   1.651   0.813
 6382SOL    HW120045   1.423   1.561   0.834
 6382SOL    HW220046   1.313   1.643   0.746
 6383SOL     OW20047   1.284   1.887   3.182
 6383SOL    HW120048   1.362   1.875   3.243
 6383SOL    HW220049   1.200   1.889   3.236
 6384SOL     OW20050   5.653   3.937   1.425
 6384SOL    HW120051   5.717   3.860   1.423
 6384SOL    HW220052   5.687   4.010   1.365
 6385SOL     OW20053   0.022   4.619   3.670
 6385SOL    HW120054   0.091   4.546   3.672
 6385SOL    HW220055   0.023   4.668   3.757
 6386SOL     OW20056   2.557   4.144   6.137
 6386SOL    HW120057   2.476   4.182   6.092
 6386SOL    HW220058   2.591   4.209   6.205
 6387SOL     OW20059   0.632   1.730   6.649
 6387SOL    HW120060   0.666   1.762   6.560
 6387SOL    HW220061   0.536   1.706   6.641
 6388SOL     OW20062   4.236   4.841   1.096
 6388SOL    HW120063   4.161   4.782   1.125
 6388SOL    HW220064   4.209   4.892   1.014
 6389SOL     OW20065   0.818   5.679   2.352
 6389SOL    HW120066   0.904   5.628   2.345
 6389SOL    HW220067   0.753   5.645   2.285
 6390SOL     OW20068   0.632   2.035   5.333
 6390SOL    HW120069   0.601   2.041   5.238
 6390SOL    HW220070   0.624   1.940   5.364
 6391SOL     OW20071   2.554   6.912   5.923
 6391SOL    HW120072   2.500   6.833   5.892
 6391SOL    HW220073   2.516   6.946   6.010
 6392SOL     OW20074   2.221   6.803   3.003
 6392SOL    HW120075   2.300   6.854   3.038
 6392SOL    HW220076   2.252   6.735   2.936
 6393SOL     OW20077   6.690   6.986   1.625
 6393SOL    HW120078   6.714   7.012   1.719
 6393SOL    HW220079   6.722   0.038   1.562
 6394SOL     OW20080   2.162   4.633   0.689
 6394SOL    HW120081   2.102   4.667   0.617
 6394SOL    HW220082   2.255   4.666   0.674
 6395SOL     OW20083   6.478   2.497   1.481
 6395SOL    HW120084   6.537   2.573   1.452
 6395SOL    HW220085   6.398   2.533   1.527
 6396SOL     OW20086   5.188   3.126   6.223
 6396SOL    HW120087   5.209   3.036   6.184
 6396SOL    HW220088   5.089   3.139   6.222
 6397SOL     OW20089   5.457   2.319   6.608
 6397SOL    HW120090   5.515   2.387   6.654
 6397SOL    HW220091   5.375   2.302   6.663
 6398SOL     OW20092   3.454   0.522   0.656
 6398SOL    HW120093   3.385   0.593   0.669
 6398SOL    HW220094   3.531   0.540   0.718
 6399SOL     OW20095   1.322   5.612   6.421
 6399SOL    HW120096   1.294   5.541   6.357
 6399SOL    HW220097   1.416   5.641   6.399
 6400SOL     OW20098   2.322   6.434   2.232
 6400SOL    HW120099   2.240   6.454   2.179
 6400SOL    HW220100   2.301   6.445   2.330
 6401SOL     OW20101   0.199   4.815   3.560
 6401SOL    HW120102   0.149   4.728   3.569
 6401SOL    HW220103   0.158   4.883   3.621
 6402SOL     OW20104   3.811   1.604   2.325
 6402SOL    HW120105   3.856   1.646   2.246
 6402SOL    HW220106   3.772   1.676   2.382
 6403SOL     OW20107   6.604   6.400   6.251
 6403SOL    HW120108   6.687   6.426   6.201
 6403SOL    HW220109   6.628   6.339   6.326
 6404SOL     OW20110   4.377   1.368   2.412
 6404SOL    HW120111   4.333   1.369   2.322
 6404SOL    HW220112   4.331   1.300   2.470
 6405SOL     OW20113   2.554   0.256   3.512
 6405SOL    HW120114   2.480   0.266   3.446
 6405SOL    HW220115   2.625   0.196   3.474
 6406SOL     OW20116   1.018   2.415   3.327
 6406SOL    HW120117   1.051   2.322   3.339
 6406SOL    HW220118   0.962   2.441   3.406
 6407SOL     OW20119   2.694   6.227   4.294
 6407SOL    HW120120   2.617   6.168   4.316
 6407SOL    HW220121   2.715   6.219   4.197
 6408SOL     OW20122   5.588   1.870   0.374
 6408SOL    HW120123   5.546   1.786   0.407
 6408SOL    HW220124   5.550   1.948   0.425
 6409SOL     OW20125   0.046   4.134   3.284
 6409SOL    HW120126   0.066   4.081   3.366
 6409SOL    HW220127   6.997   4.085   3.228
 6410SOL     OW20128   1.882   1.545   0.361
 6410SOL    HW120129   1.795   1.592   0.349
 6410SOL    HW220130   1.950   1.583   0.298
 6411SOL     OW20131   0.590   2.959   3.110
 6411SOL    HW120132   0.508   2.937   3.163
 6411SOL    HW220133   0.563   2.983   3.016
 6412SOL     OW20134   0.273   2.258   5.044
 6412SOL    HW120135   0.314   2.256   5.136
 6412SOL    HW220136   0.338   2.297   4.979
 6413SOL     OW20137   4.242   4.608   3.845
 6413SOL    HW120138   4.224   4.632   3.941
 6413SOL    HW220139   4.340   4.599   3.831
 6414SOL     OW20140   5.627   0.857   0.893
 6414SOL    HW120141   5.681   0.786   0.848
 6414SOL    HW220142   5.676   0.890   0.974
 6415SOL     OW20143   1.840   2.679   3.342
 6415SOL    HW120144   1.852   2.595   3.395
 6415SOL    HW220145   1.773   2.738   3.387
 6416SOL     OW20146   1.185   1.359   6.591
 6416SOL    HW120147   1.109   1.371   6.528
 6416SOL    HW220148   1.256   1.426   6.571
 6417SOL     OW20149   6.837   4.920   2.346
 6417SOL    HW120150   6.888   4.977   2.282
 6417SOL    HW220151   6.766   4.870   2.296
 6418SOL     OW20152   5.120   4.647   1.937
 6418SOL    HW120153   5.171   4.570   1.899
 6418SOL    HW220154   5.048   4.675   1.873
 6419SOL     OW20155   2.505   4.517   2.359
 6419SOL    HW120156   2.599   4.510   2.392
 6419SOL    HW220157   2.476   4.613   2.360
 6420SOL     OW20158   3.196   3.911   5.300
 6420SOL    HW120159   3.253   3.960   5.366
 6420SOL    HW220160   3.208   3.812   5.313
 6421SOL     OW20161   5.602   1.191   2.782
 6421SOL    HW120162   5.680   1.217   2.838
 6421SOL    HW220163   5.599   1.248   2.700
 6422SOL     OW20164   0.389   0.526   3.279
 6422SOL    HW120165   0.342   0.441   3.302
 6422SOL    HW220166   0.476   0.531   3.329
 6423SOL     OW20167   4.966   5.305   2.831
 6423SOL    HW120168   4.958   5.220   2.779
 6423SOL    HW220169   5.029   5.291   2.908
 6424SOL     OW20170   6.956   6.060   5.955
 6424SOL    HW120171   6.946   5.961   5.957
 6424SOL    HW220172   0.031   6.084   5.928
 6425SOL     OW20173   6.337   5.857   2.956
 6425SOL    HW120174   6.383   5.770   2.936
 6425SOL    HW220175   6.238   5.845   2.948
 6426SOL     OW20176   0.943   4.729   2.623
 6426SOL    HW120177   0.943   4.666   2.701
 6426SOL    HW220178   0.855   4.776   2.618
 6427SOL     OW20179   2.965   2.716   5.968
 6427SOL    HW120180   2.898   2.682   5.902
 6427SOL    HW220181   2.929   2.798   6.012
 6428SOL     OW20182   6.372   3.131   6.765
 6428SOL    HW120183   6.303   3.144   6.694
 6428SOL    HW220184   6.352   3.049   6.817
 6429SOL     OW20185   1.770   1.845   5.907
 6429SOL    HW120186   1.820   1.825   5.823
 6429SOL    HW220187   1.833   1.841   5.985
 6430SOL     OW20188   5.735   0.876   1.946
 6430SOL    HW120189   5.659   0.935   1.972
 6430SOL    HW220190   5.700   0.798   1.895
 6431SOL     OW20191   5.244   6.274   3.715
 6431SOL    HW120192   5.242   6.225   3.802
 6431SOL    HW220193   5.172   6.344   3.716
 6432SOL     OW20194   3.534   3.753   6.481
 6432SOL    HW120195   3.537   3.848   6.511
 6432SOL    HW220196   3.613   3.703   6.517
 6433SOL     OW20197   3.023   4.417   0.688
 6433SOL    HW120198   3.120   4.420   0.708
 6433SOL    HW220199   2.973   4.380   0.767
 6434SOL     OW20200   1.454   3.727   0.026
 6434SOL    HW120201   1.493   3.655   0.083
 6434SOL    HW220202   1.365   3.699   7.011
 6435SOL     OW20203   4.231   6.036   6.655
 6435SOL    HW120204   4.248   5.938   6.662
 6435SOL    HW220205   4.134   6.054   6.671
 6436SOL     OW20206   2.078   3.716   3.382
 6436SOL    HW120207   2.127   3.708   3.295
 6436SOL    HW220208   1.989   3.672   3.374
 6437SOL     OW20209   2.376   1.198   0.701
 6437SOL    HW120210   2.449   1.134   0.676
 6437SOL    HW220211   2.414   1.272   0.757
 6438SOL     OW20212   0.514   3.919   6.530
 6438SOL    HW120213   0.447   3.896   6.600
 6438SOL    HW220214   0.483   3.999   6.479
 6439SOL     OW20215   5.423   1.102   1.674
 6439SOL    HW120216   5.423   1.020   1.616
 6439SOL    HW220217   5.355   1.167   1.640
 6440SOL     OW20218   2.416   1.783   6.920
 6440SOL    HW120219   2.394   1.685   6.917
 6440SOL    HW220220   2.447   1.807   7.012
 6441SOL     OW20221   0.920   5.898   2.214
 6441SOL    HW120222   0.869   5.850   2.284
 6441SOL    HW220223   0.857   5.938   2.148
 6442SOL     OW20224   2.666   0.563   4.628
 6442SOL    HW120225   2.595   0.493   4.626
 6442SOL    HW220226   2.754   0.521   4.649
 6443SOL     OW20227   3.927   2.415   5.729
 6443SOL    HW120228   4.009   2.423   5.786
 6443SOL    HW220229   3.874   2.500   5.735
 6444SOL     OW20230   6.726   2.571   4.004
 6444SOL    HW120231   6.704   2.479   4.035
 6444SOL    HW220232   6.695   2.582   3.909
 6445SOL     OW20233   4.776   3.018   5.323
 6445SOL    HW120234   4.817   3.013   5.413
 6445SOL    HW220235   4.770   3.114   5.294
 6446SOL     OW20236   1.377   0.944   6.126
 6446SOL    HW120237   1.425   0.858   6.109
 6446SOL    HW220238   1.298   0.926   6.185
 6447SOL     OW20239   0.692   4.822   2.612
 6447SOL    HW120240   0.632   4.898   2.586
 6447SOL    HW220241   0.637   4.740   2.624
 6448SOL     OW20242   4.725   5.443   2.887
 6448SOL    HW120243   4.724   5.523   2.827
 6448SOL    HW220244   4.812   5.396   2.878
 6449SOL     OW20245   3.034   4.895   0.765
 6449SOL    HW120246   2.973   4.838   0.710
 6449SOL    HW220247   3.028   4.869   0.861
 6450SOL     OW20248   0.184   3.584   1.360
 6450SOL    HW120249   0.238   3.607   1.280
 6450SOL    HW220250   0.241   3.591   1.442
 6451SOL     OW20251   2.136   0.007   5.070
 6451SOL    HW120252   2.226   0.020   5.111
 6451SOL    HW220253   2.138   0.038   4.975
 6452SOL     OW20254   3.198   6.819   4.667
 6452SOL    HW120255   3.138   6.801   4.745
 6452SOL    HW220256   3.250   6.736   4.645
 6453SOL     OW20257   2.259   6.718   0.920
 6453SOL    HW120258   2.294   6.629   0.947
 6453SOL    HW220259   2.252   6.723   0.820
 6454SOL     OW20260   2.387   1.928   3.646
 6454SOL    HW120261   2.479   1.900   3.617
 6454SOL    HW220262   2.383   2.028   3.653
 6455SOL     OW20263   0.211   1.915   4.114
 6455SOL    HW120264   0.277   1.990   4.106
 6455SOL    HW220265   0.173   1.913   4.206
 6456SOL     OW20266   1.697   0.558   3.332
 6456SOL    HW120267   1.622   0.525   3.389
 6456SOL    HW220268   1.675   0.545   3.236
 6457SOL     OW20269   4.723   1.992   0.738
 6457SOL    HW120270   4.816   1.984   0.701
 6457SOL    HW220271   4.723   2.056   0.814
 6458SOL     OW20272   0.969   0.262   3.968
 6458SOL    HW120273   0.991   0.296   3.877
 6458SOL    HW220274   1.015   0.174   3.983
 6459SOL     OW20275   5.887   5.100   0.486
 6459SOL    HW120276   5.891   5.129   0.582
 6459SOL    HW220277   5.879   5.000   0.482
 6460SOL     OW20278   4.540   5.490   5.720
 6460SOL    HW120279   4.440   5.502   5.723
 6460SOL    HW220280   4.562   5.395   5.739
 6461SOL     OW20281   2.676   4.810   5.266
 6461SOL    HW120282   2.604   4.879   5.263
 6461SOL    HW220283   2.747   4.831   5.199
 6462SOL     OW20284   2.325   2.777   4.735
 6462SOL    HW120285   2.418   2.774   4.772
 6462SOL    HW220286   2.320   2.719   4.653
 6463SOL     OW20287   6.877   3.692   6.615
 6463SOL    HW120288   6.946   3.701   6.543
 6463SOL    HW220289   6.791   3.661   6.574
 6464SOL     OW20290   1.568   4.785   4.361
 6464SOL    HW120291   1.567   4.689   4.336
 6464SOL    HW220292   1.484   4.808   4.410
 6465SOL     OW20293   6.771   2.969   3.460
 6465SOL    HW120294   6.847   2.967   3.526
 6465SOL    HW220295   6.700   3.031   3.494
 6466SOL     OW20296   1.202   1.924   6.450
 6466SOL    HW120297   1.243   1.851   6.395
 6466SOL    HW220298   1.273   1.967   6.506
 6467SOL     OW20299   3.259   0.316   6.604
 6467SOL    HW120300   3.321   0.269   6.667
 6467SOL    HW220301   3.167   0.319   6.643
 6468SOL     OW20302   4.084   6.685   0.942
 6468SOL    HW120303   3.984   6.684   0.931
 6468SOL    HW220304   4.107   6.737   1.023
 6469SOL     OW20305   4.599   0.644   4.979
 6469SOL    HW120306   4.622   0.706   4.904
 6469SOL    HW220307   4.500   0.642   4.992
 6470SOL     OW20308   6.255   4.851   6.854
 6470SOL    HW120309   6.307   4.936   6.855
 6470SOL    HW220310   6.314   4.776   6.824
 6471SOL     OW20311   6.524   6.233   5.130
 6471SOL    HW120312   6.437   6.253   5.084
 6471SOL    HW220313   6.544   6.304   5.197
 6472SOL     OW20314   0.576   4.786   1.218
 6472SOL    HW120315   0.644   4.813   1.149
 6472SOL    HW220316   0.510   4.860   1.230
 6473SOL     OW20317   2.666   1.114   4.228
 6473SOL    HW120318   2.720   1.161   4.158
 6473SOL    HW220319   2.599   1.176   4.266
 6474SOL     OW20320   2.695   4.025   5.954
 6474SOL    HW120321   2.648   4.076   5.882
 6474SOL    HW220322   2.664   4.057   6.044
 6475SOL     OW20323   6.526   5.302   4.308
 6475SOL    HW120324   6.551   5.398   4.293
 6475SOL    HW220325   6.479   5.293   4.396
 6476SOL     OW20326   4.608   3.067   0.835
 6476SOL    HW120327   4.600   3.121   0.919
 6476SOL    HW220328   4.604   2.969   0.858
 6477SOL     OW20329   6.343   4.777   0.964
 6477SOL    HW120330   6.319   4.697   0.910
 6477SOL    HW220331   6.315   4.764   1.059
 6478SOL     OW20332   3.637   6.267   1.943
 6478SOL    HW120333   3.559   6.302   1.996
 6478SOL    HW220334   3.604   6.220   1.862
 6479SOL     OW20335   3.932   5.919   3.832
 6479SOL    HW120336   3.853   5.954   3.781
 6479SOL    HW220337   4.016   5.950   3.788
 6480SOL     OW20338   3.261   2.161   5.564
 6480SOL    HW120339   3.298   2.113   5.644
 6480SOL    HW220340   3.162   2.144   5.559
 6481SOL     OW20341   3.803   2.073   1.775
 6481SOL    HW120342   3.794   2.146   1.843
 6481SOL    HW220343   3.754   2.099   1.692
 6482SOL     OW20344   0.107   0.755   5.907
 6482SOL    HW120345   0.015   0.724   5.929
 6482SOL    HW220346   0.104   0.848   5.872
 6483SOL     OW20347   1.093   6.160   1.221
 6483SOL    HW120348   1.076   6.073   1.174
 6483SOL    HW220349   1.006   6.202   1.246
 6484SOL     OW20350   3.554   0.356   1.892
 6484SOL    HW120351   3.626   0.291   1.915
 6484SOL    HW220352   3.474   0.339   1.948
 6485SOL     OW20353   1.758   4.683   3.356
 6485SOL    HW120354   1.678   4.721   3.309
 6485SOL    HW220355   1.835   4.680   3.293
 6486SOL     OW20356   1.882   4.604   4.540
 6486SOL    HW120357   1.943   4.534   4.576
 6486SOL    HW220358   1.924   4.694   4.550
 6487SOL     OW20359   6.816   6.224   5.160
 6487SOL    HW120360   6.859   6.306   5.123
 6487SOL    HW220361   6.718   6.241   5.175
 6488SOL     OW20362   3.333   5.943   5.321
 6488SOL    HW120363   3.362   6.038   5.304
 6488SOL    HW220364   3.411   5.890   5.354
 6489SOL     OW20365   2.436   2.813   6.475
 6489SOL    HW120366   2.484   2.738   6.429
 6489SOL    HW220367   2.503   2.880   6.508
 6490SOL     OW20368   4.210   1.726   5.883
 6490SOL    HW120369   4.208   1.689   5.976
 6490SOL    HW220370   4.165   1.815   5.881
 6491SOL     OW20371   4.084   1.095   6.766
 6491SOL    HW120372   4.033   1.031   6.824
 6491SOL    HW220373   4.078   1.065   6.670
 6492SOL     OW20374   5.437   5.299   0.157
 6492SOL    HW120375   5.473   5.304   0.064
 6492SOL    HW220376   5.456   5.208   0.195
 6493SOL     OW20377   1.327   5.574   4.994
 6493SOL    HW120378   1.290   5.627   4.918
 6493SOL    HW220379   1.308   5.477   4.980
 6494SOL     OW20380   0.258   1.035   3.350
 6494SOL    HW120381   0.168   1.057   3.388
 6494SOL    HW220382   0.270   1.083   3.263
 6495SOL     OW20383   4.842   6.006   4.403
 6495SOL    HW120384   4.816   6.102   4.394
 6495SOL    HW220385   4.761   5.949   4.389
 6496SOL     OW20386   6.983   0.501   2.200
 6496SOL    HW120387   0.008   0.411   2.188
 6496SOL    HW220388   6.954   0.536   2.111
 6497SOL     OW20389   2.453   2.826   0.807
 6497SOL    HW120390   2.547   2.803   0.833
 6497SOL    HW220391   2.390   2.771   0.862
 6498SOL     OW20392   2.174   3.880   4.038
 6498SOL    HW120393   2.113   3.954   4.064
 6498SOL    HW220394   2.268   3.905   4.061
 6499SOL     OW20395   5.288   2.249   4.864
 6499SOL    HW120396   5.230   2.212   4.937
 6499SOL    HW220397   5.237   2.316   4.811
 6500SOL     OW20398   0.117   4.349   3.474
 6500SOL    HW120399   0.131   4.260   3.430
 6500SOL    HW220400   0.051   4.402   3.422
 6501SOL     OW20401   6.365   2.798   6.469
 6501SOL    HW120402   6.434   2.793   6.541
 6501SOL    HW220403   6.389   2.735   6.396
 6502SOL     OW20404   6.254   3.462   1.645
 6502SOL    HW120405   6.160   3.435   1.669
 6502SOL    HW220406   6.301   3.384   1.603
 6503SOL     OW20407   4.690   1.346   3.555
 6503SOL    HW120408   4.638   1.260   3.552
 6503SOL    HW220409   4.687   1.384   3.647
 6504SOL     OW20410   4.924   6.130   6.023
 6504SOL    HW120411   4.839   6.176   6.048
 6504SOL    HW220412   4.922   6.036   6.058
 6505SOL     OW20413   5.343   5.302   1.541
 6505SOL    HW120414   5.309   5.271   1.629
 6505SOL    HW220415   5.351   5.401   1.541
 6506SOL     OW20416   6.279   3.684   1.847
 6506SOL    HW120417   6.219   3.697   1.926
 6506SOL    HW220418   6.282   3.587   1.823
 6507SOL     OW20419   1.826   5.316   6.079
 6507SOL    HW120420   1.890   5.245   6.109
 6507SOL    HW220421   1.866   5.367   6.003
 6508SOL     OW20422   2.377   0.527   3.164
 6508SOL    HW120423   2.347   0.607   3.113
 6508SOL    HW220424   2.393   0.451   3.101
 6509SOL     OW20425   3.253   1.865   4.685
 6509SOL    HW120426   3.198   1.837   4.763
 6509SOL    HW220427   3.350   1.859   4.708
 6510SOL     OW20428   0.146   4.404   6.845
 6510SOL    HW120429   0.138   4.445   6.754
 6510SOL    HW220430   0.135   4.305   6.838
 6511SOL     OW20431   4.772   1.121   4.609
 6511SOL    HW120432   4.713   1.054   4.564
 6511SOL    HW220433   4.842   1.074   4.662
 6512SOL     OW20434   5.063   0.074   2.213
 6512SOL    HW120435   5.015   0.051   2.128
 6512SOL    HW220436   5.077   0.173   2.218
 6513SOL     OW20437   3.105   4.995   2.955
 6513SOL    HW120438   3.077   5.089   2.977
 6513SOL    HW220439   3.141   4.992   2.862
 6514SOL     OW20440   5.291   1.216   3.707
 6514SOL    HW120441   5.279   1.120   3.730
 6514SOL    HW220442   5.292   1.227   3.608
 6515SOL     OW20443   0.582   5.160   4.031
 6515SOL    HW120444   0.665   5.186   4.081
 6515SOL    HW220445   0.576   5.211   3.946
 6516SOL     OW20446   0.572   3.259   1.856
 6516SOL    HW120447   0.542   3.287   1.765
 6516SOL    HW220448   0.492   3.240   1.913
 6517SOL     OW20449   6.550   0.855   0.545
 6517SOL    HW120450   6.471   0.826   0.600
 6517SOL    HW220451   6.553   0.954   0.540
 6518SOL     OW20452   0.185   0.075   0.006
 6518SOL    HW120453   0.268   0.102   0.054
 6518SOL    HW220454   0.115   0.145   0.018
 6519SOL     OW20455   2.922   1.770   3.587
 6519SOL    HW120456   2.995   1.701   3.588
 6519SOL    HW220457   2.916   1.811   3.497
 6520SOL     OW20458   5.701   5.248   2.075
 6520SOL    HW120459   5.763   5.170   2.085
 6520SOL    HW220460   5.607   5.216   2.077
 6521SOL     OW20461   2.158   2.693   4.405
 6521SOL    HW120462   2.238   2.635   4.423
 6521SOL    HW220463   2.188   2.778   4.361
 6522SOL     OW20464   3.718   4.455   0.001
 6522SOL    HW120465   3.638   4.418   6.973
 6522SOL    HW220466   3.704   4.452   0.100
 6523SOL     OW20467   3.523   0.494   6.408
 6523SOL    HW120468   3.481   0.509   6.497
 6523SOL    HW220469   3.469   0.540   6.337
 6524SOL     OW20470   2.954   3.652   2.039
 6524SOL    HW120471   2.955   3.740   1.991
 6524SOL    HW220472   2.914   3.582   1.979
 6525SOL     OW20473   1.247   3.919   3.588
 6525SOL    HW120474   1.295   3.921   3.676
 6525SOL    HW220475   1.150   3.938   3.602
 6526SOL     OW20476   1.897   0.103   6.541
 6526SOL    HW120477   1.891   0.173   6.470
 6526SOL    HW220478   1.814   0.104   6.597
 6527SOL     OW20479   0.994   2.517   4.705
 6527SOL    HW120480   1.029   2.571   4.628
 6527SOL    HW220481   0.970   2.578   4.780
 6528SOL     OW20482   0.361   1.072   3.916
 6528SOL    HW120483   0.421   1.074   3.836
 6528SOL    HW220484   0.311   0.985   3.917
 6529SOL     OW20485   0.375   1.429   2.633
 6529SOL    HW120486   0.397   1.526   2.638
 6529SOL    HW220487   0.400   1.384   2.718
 6530SOL     OW20488   6.822   3.614   1.739
 6530SOL    HW120489   6.737   3.583   1.696
 6530SOL    HW220490   6.800   3.682   1.810
 6531SOL     OW20491   5.375   3.622   4.404
 6531SOL    HW120492   5.277   3.613   4.420
 6531SOL    HW220493   5.394   3.710   4.359
 6532SOL     OW20494   6.222   0.458   6.416
 6532SOL    HW120495   6.188   0.543   6.374
 6532SOL    HW220496   6.200   0.459   6.514
 6533SOL     OW20497   4.773   5.926   0.846
 6533SOL    HW120498   4.742   5.884   0.931
 6533SOL    HW220499   4.813   6.016   0.866
 6534SOL     OW20500   3.552   4.249   1.085
 6534SOL    HW120501   3.528   4.188   1.009
 6534SOL    HW220502   3.536   4.202   1.172
 6535SOL     OW20503   6.239   3.737   4.426
 6535SOL    HW120504   6.190   3.811   4.472
 6535SOL    HW220505   6.277   3.771   4.339
 6536SOL     OW20506   0.587   2.326   5.619
 6536SOL    HW120507   0.613   2.250   5.678
 6536SOL    HW220508   0.636   2.320   5.533
 6537SOL     OW20509   5.857   5.468   0.054
 6537SOL    HW120510   5.818   5.485   6.982
 6537SOL    HW220511   5.869   5.369   0.067
 6538SOL     OW20512   3.244   3.975   0.165
 6538SOL    HW120513   3.296   4.027   0.098
 6538SOL    HW220514   3.276   3.880   0.166
 6539SOL     OW20515   3.304   0.194   6.357
 6539SOL    HW120516   3.291   0.254   6.436
 6539SOL    HW220517   3.401   0.190   6.334
 6540SOL     OW20518   5.477   1.329   5.274
 6540SOL    HW120519   5.479   1.238   5.317
 6540SOL    HW220520   5.388   1.371   5.290
 6541SOL     OW20521   3.624   1.627   5.093
 6541SOL    HW120522   3.676   1.565   5.152
 6541SOL    HW220523   3.591   1.704   5.147
 6542SOL     OW20524   6.582   4.555   4.051
 6542SOL    HW120525   6.567   4.520   4.143
 6542SOL    HW220526   6.537   4.644   4.041
 6543SOL     OW20527   6.267   3.468   6.282
 6543SOL    HW120528   6.191   3.422   6.328
 6543SOL    HW220529   6.351   3.456   6.335
 6544SOL     OW20530   0.432   6.651   2.920
 6544SOL    HW120531   0.436   6.557   2.887
 6544SOL    HW220532   0.523   6.681   2.947
 6545SOL     OW20533   5.298   1.949   6.639
 6545SOL    HW120534   5.369   2.005   6.596
 6545SOL    HW220535   5.208   1.984   6.613
 6546SOL     OW20536   3.581   3.981   6.629
 6546SOL    HW120537   3.508   4.048   6.619
 6546SOL    HW220538   3.640   4.006   6.706
 6547SOL     OW20539   4.763   1.336   5.804
 6547SOL    HW120540   4.698   1.324   5.879
 6547SOL    HW220541   4.856   1.340   5.841
 6548SOL     OW20542   0.849   3.769   0.262
 6548SOL    HW120543   0.947   3.760   0.248
 6548SOL    HW220544   0.803   3.774   0.173
 6549SOL     OW20545   4.295   1.349   1.056
 6549SOL    HW120546   4.284   1.410   0.977
 6549SOL    HW220547   4.388   1.313   1.058
 6550SOL     OW20548   0.609   6.669   4.028
 6550SOL    HW120549   0.696   6.622   4.045
 6550SOL    HW220550   0.567   6.692   4.116
 6551SOL     OW20551   1.683   4.527   2.270
 6551SOL    HW120552   1.633   4.519   2.184
 6551SOL    HW220553   1.666   4.618   2.309
 6552SOL     OW20554   2.111   0.220   5.483
 6552SOL    HW120555   2.151   0.292   5.540
 6552SOL    HW220556   2.112   0.134   5.533
 6553SOL     OW20557   0.854   1.442   2.997
 6553SOL    HW120558   0.861   1.343   2.988
 6553SOL    HW220559   0.929   1.485   2.948
 6554SOL     OW20560   6.017   1.143   5.613
 6554SOL    HW120561   5.994   1.100   5.700
 6554SOL    HW220562   5.939   1.136   5.551
 6555SOL     OW20563   0.221   2.229   1.845
 6555SOL    HW120564   0.275   2.193   1.921
 6555SOL    HW220565   0.242   2.177   1.762
 6556SOL     OW20566   4.655   4.571   5.230
 6556SOL    HW120567   4.714   4.608   5.158
 6556SOL    HW220568   4.648   4.638   5.304
 6557SOL     OW20569   3.553   5.662   1.358
 6557SOL    HW120570   3.591   5.570   1.348
 6557SOL    HW220571   3.615   5.729   1.317
 6558SOL     OW20572   6.832   5.090   0.214
 6558SOL    HW120573   6.903   5.020   0.207
 6558SOL    HW220574   6.781   5.078   0.299
 6559SOL     OW20575   6.525   4.282   6.598
 6559SOL    HW120576   6.563   4.316   6.684
 6559SOL    HW220577   6.523   4.182   6.600
 6560SOL     OW20578   4.322   4.325   0.929
 6560SOL    HW120579   4.327   4.414   0.974
 6560SOL    HW220580   4.233   4.315   0.884
 6561SOL     OW20581   3.837   3.981   2.295
 6561SOL    HW120582   3.789   4.012   2.213
 6561SOL    HW220583   3.901   4.051   2.325
 6562SOL     OW20584   5.378   4.352   0.013
 6562SOL    HW120585   5.305   4.283   0.013
 6562SOL    HW220586   5.384   4.394   6.941
 6563SOL     OW20587   0.155   6.048   0.410
 6563SOL    HW120588   0.252   6.062   0.427
 6563SOL    HW220589   0.112   6.134   0.385
 6564SOL     OW20590   0.020   3.987   2.647
 6564SOL    HW120591   0.062   3.898   2.667
 6564SOL    HW220592   0.089   4.058   2.657
 6565SOL     OW20593   6.669   2.308   4.039
 6565SOL    HW120594   6.613   2.275   3.964
 6565SOL    HW220595   6.624   2.287   4.126
 6566SOL     OW20596   2.712   6.286   2.555
 6566SOL    HW120597   2.706   6.208   2.492
 6566SOL    HW220598   2.647   6.356   2.528
 6567SOL     OW20599   4.019   2.559   0.812
 6567SOL    HW120600   3.981   2.523   0.728
 6567SOL    HW220601   4.080   2.491   0.853
 6568SOL     OW20602   4.534   0.029   3.469
 6568SOL    HW120603   4.547   6.950   3.486
 6568SOL    HW220604   4.452   0.043   3.414
 6569SOL     OW20605   2.798   3.814   7.006
 6569SOL    HW120606   2.702   3.803   6.979
 6569SOL    HW220607   2.829   3.906   6.984
 6570SOL     OW20608   4.218   6.491   2.241
 6570SOL    HW120609   4.159   6.558   2.286
 6570SOL    HW220610   4.229   6.516   2.145
 6571SOL     OW20611   2.779   5.522   2.317
 6571SOL    HW120612   2.789   5.600   2.255
 6571SOL    HW220613   2.864   5.469   2.318
 6572SOL     OW20614   0.154   5.920   5.586
 6572SOL    HW120615   0.067   5.872   5.585
 6572SOL    HW220616   0.160   5.978   5.667
 6573SOL     OW20617   2.153   1.544   2.037
 6573SOL    HW120618   2.093   1.556   1.958
 6573SOL    HW220619   2.182   1.634   2.069
 6574SOL     OW20620   3.063   6.359   2.704
 6574SOL    HW120621   2.997   6.434   2.692
 6574SOL    HW220622   3.075   6.340   2.801
 6575SOL     OW20623   1.126   1.139   2.105
 6575SOL    HW120624   1.212   1.159   2.058
 6575SOL    HW220625   1.133   1.051   2.152
 6576SOL     OW20626   1.807   6.484   6.572
 6576SOL    HW120627   1.822   6.392   6.610
 6576SOL    HW220628   1.709   6.502   6.566
 6577SOL     OW20629   0.863   2.383   3.572
 6577SOL    HW120630   0.763   2.387   3.581
 6577SOL    HW220631   0.890   2.291   3.546
 6578SOL     OW20632   0.794   4.241   2.730
 6578SOL    HW120633   0.802   4.156   2.679
 6578SOL    HW220634   0.846   4.233   2.815
 6579SOL     OW20635   6.910   3.535   4.861
 6579SOL    HW120636   6.891   3.506   4.767
 6579SOL    HW220637   6.843   3.495   4.923
 6580SOL     OW20638   6.650   1.583   1.249
 6580SOL    HW120639   6.593   1.502   1.236
 6580SOL    HW220640   6.742   1.565   1.213
 6581SOL     OW20641   2.903   1.318   6.735
 6581SOL    HW120642   2.821   1.291   6.685
 6581SOL    HW220643   2.954   1.386   6.682
 6582SOL     OW20644   1.588   1.072   1.632
 6582SOL    HW120645   1.662   1.100   1.571
 6582SOL    HW220646   1.509   1.044   1.577
 6583SOL     OW20647   4.331   0.651   5.040
 6583SOL    HW120648   4.298   0.616   5.127
 6583SOL    HW220649   4.272   0.618   4.966
 6584SOL     OW20650   4.811   1.834   6.596
 6584SOL    HW120651   4.746   1.765   6.563
 6584SOL    HW220652   4.781   1.925   6.567
 6585SOL     OW20653   7.012   0.249   0.055
 6585SOL    HW120654   6.991   0.305   6.993
 6585SOL    HW220655   6.957   0.280   0.133
 6586SOL     OW20656   6.337   1.964   5.745
 6586SOL    HW120657   6.383   1.880   5.718
 6586SOL    HW220658   6.403   2.027   5.786
 6587SOL     OW20659   2.617   6.231   4.997
 6587SOL    HW120660   2.665   6.188   4.920
 6587SOL    HW220661   2.552   6.167   5.036
 6588SOL     OW20662   1.589   3.879   1.390
 6588SOL    HW120663   1.640   3.965   1.397
 6588SOL    HW220664   1.504   3.894   1.338
 6589SOL     OW20665   4.927   0.276   0.317
 6589SOL    HW120666   4.950   0.190   0.362
 6589SOL    HW220667   4.829   0.280   0.301
 6590SOL     OW20668   1.087   1.401   5.792
 6590SOL    HW120669   1.108   1.468   5.721
 6590SOL    HW220670   1.085   1.310   5.752
 6591SOL     OW20671   5.126   6.218   2.440
 6591SOL    HW120672   5.029   6.240   2.454
 6591SOL    HW220673   5.134   6.124   2.405
 6592SOL     OW20674   5.659   6.384   3.902
 6592SOL    HW120675   5.747   6.381   3.947
 6592SOL    HW220676   5.601   6.454   3.944
 6593SOL     OW20677   2.937   1.511   4.007
 6593SOL    HW120678   3.016   1.569   4.023
 6593SOL    HW220679   2.853   1.560   4.031
 6594SOL     OW20680   3.620   1.350   6.984
 6594SOL    HW120681   3.658   1.284   0.031
 6594SOL    HW220682   3.695   1.390   6.931
 6595SOL     OW20683   1.001   2.749   1.485
 6595SOL    HW120684   1.095   2.780   1.467
 6595SOL    HW220685   0.951   2.744   1.399
 6596SOL     OW20686   3.211   6.951   4.161
 6596SOL    HW120687   3.216   0.032   4.149
 6596SOL    HW220688   3.302   6.916   4.185
 6597SOL     OW20689   1.938   6.354   3.163
 6597SOL    HW120690   1.990   6.340   3.247
 6597SOL    HW220691   1.977   6.431   3.112
 6598SOL     OW20692   0.605   0.163   4.463
 6598SOL    HW120693   0.681   0.217   4.425
 6598SOL    HW220694   0.627   0.136   4.556
 6599SOL     OW20695   3.892   5.984   5.281
 6599SOL    HW120696   3.797   5.999   5.253
 6599SOL    HW220697   3.933   6.071   5.309
 6600SOL     OW20698   4.560   5.542   6.014
 6600SOL    HW120699   4.570   5.547   5.914
 6600SOL    HW220700   4.502   5.464   6.038
 6601SOL     OW20701   1.161   1.749   5.769
 6601SOL    HW120702   1.116   1.724   5.683
 6601SOL    HW220703   1.260   1.754   5.755
 6602SOL     OW20704   0.191   1.857   1.899
 6602SOL    HW120705   0.204   1.784   1.967
 6602SOL    HW220706   0.154   1.938   1.945
 6603SOL     OW20707   0.632   2.291   4.013
 6603SOL    HW120708   0.676   2.265   3.927
 6603SOL    HW220709   0.698   2.340   4.070
 6604SOL     OW20710   2.716   6.475   0.801
 6604SOL    HW120711   2.803   6.508   0.835
 6604SOL    HW220712   2.727   6.382   0.765
 6605SOL     OW20713   5.784   4.575   1.712
 6605SOL    HW120714   5.714   4.601   1.646
 6605SOL    HW220715   5.783   4.476   1.724
 6606SOL     OW20716   6.510   6.853   2.577
 6606SOL    HW120717   6.467   6.939   2.604
 6606SOL    HW220718   6.565   6.867   2.495
 6607SOL     OW20719   1.718   2.213   2.005
 6607SOL    HW120720   1.700   2.128   2.054
 6607SOL    HW220721   1.711   2.291   2.067
 6608SOL     OW20722   5.202   5.965   2.307
 6608SOL    HW120723   5.301   5.972   2.300
 6608SOL    HW220724   5.176   5.869   2.318
 6609SOL     OW20725   4.868   0.783   6.070
 6609SOL    HW120726   4.784   0.817   6.111
 6609SOL    HW220727   4.859   0.686   6.048
 6610SOL     OW20728   2.693   1.271   6.575
 6610SOL    HW120729   2.690   1.244   6.479
 6610SOL    HW220730   2.672   1.192   6.633
 6611SOL     OW20731   6.033   2.935   3.899
 6611SOL    HW120732   5.948   2.888   3.923
 6611SOL    HW220733   6.088   2.877   3.839
 6612SOL     OW20734   6.650   1.955   6.938
 6612SOL    HW120735   6.661   1.860   6.908
 6612SOL    HW220736   6.564   1.964   6.988
 6613SOL     OW20737   6.250   6.244   4.925
 6613SOL    HW120738   6.274   6.341   4.930
 6613SOL    HW220739   6.181   6.229   4.854
 6614SOL     OW20740   5.439   6.261   0.058
 6614SOL    HW120741   5.379   6.335   0.025
 6614SOL    HW220742   5.534   6.288   0.047
 6615SOL     OW20743   0.483   4.885   3.487
 6615SOL    HW120744   0.388   4.868   3.512
 6615SOL    HW220745   0.537   4.905   3.569
 6616SOL     OW20746   4.411   1.008   5.698
 6616SOL    HW120747   4.501   1.040   5.669
 6616SOL    HW220748   4.344   1.081   5.685
 6617SOL     OW20749   3.625   5.262   3.033
 6617SOL    HW120750   3.662   5.340   3.083
 6617SOL    HW220751   3.699   5.201   3.005
 6618SOL     OW20752   1.641   3.818   3.220
 6618SOL    HW120753   1.555   3.769   3.236
 6618SOL    HW220754   1.633   3.911   3.256
 6619SOL     OW20755   6.661   0.465   4.629
 6619SOL    HW120756   6.569   0.440   4.660
 6619SOL    HW220757   6.720   0.385   4.632
 6620SOL     OW20758   1.969   2.805   5.398
 6620SOL    HW120759   1.885   2.808   5.343
 6620SOL    HW220760   2.039   2.861   5.355
 6621SOL     OW20761   2.030   3.827   6.596
 6621SOL    HW120762   1.954   3.888   6.616
 6621SOL    HW220763   2.017   3.740   6.642
 6622SOL     OW20764   5.463   6.424   1.794
 6622SOL    HW120765   5.364   6.415   1.782
 6622SOL    HW220766   5.496   6.346   1.847
 6623SOL     OW20767   2.105   3.420   0.133
 6623SOL    HW120768   2.092   3.453   0.226
 6623SOL    HW220769   2.071   3.488   0.068
 6624SOL     OW20770   1.973   0.201   4.559
 6624SOL    HW120771   1.991   0.111   4.518
 6624SOL    HW220772   1.875   0.210   4.578
 6625SOL     OW20773   5.522   1.957   6.171
 6625SOL    HW120774   5.468   1.872   6.171
 6625SOL    HW220775   5.610   1.940   6.214
 6626SOL     OW20776   3.964   5.031   5.288
 6626SOL    HW120777   4.051   5.014   5.240
 6626SOL    HW220778   3.979   5.099   5.360
 6627SOL     OW20779   2.239   0.940   6.066
 6627SOL    HW120780   2.176   1.008   6.029
 6627SOL    HW220781   2.321   0.936   6.009
 6628SOL     OW20782   4.672   4.278   4.598
 6628SOL    HW120783   4.605   4.334   4.547
 6628SOL    HW220784   4.677   4.311   4.692
 6629SOL     OW20785   3.459   5.712   6.639
 6629SOL    HW120786   3.373   5.704   6.689
 6629SOL    HW220787   3.474   5.630   6.585
 6630SOL     OW20788   3.509   1.473   1.127
 6630SOL    HW120789   3.511   1.409   1.050
 6630SOL    HW220790   3.537   1.427   1.210
 6631SOL     OW20791   3.473   0.009   2.483
 6631SOL    HW120792   3.461   0.090   2.426
 6631SOL    HW220793   3.559   0.016   2.533
 6632SOL     OW20794   0.442   6.182   1.564
 6632SOL    HW120795   0.465   6.119   1.638
 6632SOL    HW220796   0.394   6.261   1.601
 6633SOL     OW20797   0.546   3.818   6.040
 6633SOL    HW120798   0.615   3.745   6.038
 6633SOL    HW220799   0.510   3.826   6.133
 6634SOL     OW20800   6.372   2.599   4.346
 6634SOL    HW120801   6.452   2.656   4.365
 6634SOL    HW220802   6.328   2.573   4.432
 6635SOL     OW20803   4.104   4.814   3.244
 6635SOL    HW120804   4.199   4.843   3.231
 6635SOL    HW220805   4.072   4.847   3.333
 6636SOL     OW20806   4.037   1.230   5.395
 6636SOL    HW120807   4.047   1.130   5.390
 6636SOL    HW220808   3.940   1.252   5.408
 6637SOL     OW20809   1.549   0.208   6.042
 6637SOL    HW120810   1.510   0.119   6.020
 6637SOL    HW220811   1.622   0.229   5.977
 6638SOL     OW20812   3.464   4.190   4.230
 6638SOL    HW120813   3.487   4.267   4.290
 6638SOL    HW220814   3.546   4.164   4.178
 6639SOL     OW20815   5.609   5.087   6.427
 6639SOL    HW120816   5.692   5.033   6.412
 6639SOL    HW220817   5.534   5.049   6.374
 6640SOL     OW20818   0.974   1.423   4.925
 6640SOL    HW120819   0.931   1.394   4.839
 6640SOL    HW220820   1.013   1.514   4.915
 6641SOL     OW20821   2.358   2.239   0.453
 6641SOL    HW120822   2.451   2.272   0.443
 6641SOL    HW220823   2.330   2.191   0.370
 6642SOL     OW20824   2.881   5.024   6.801
 6642SOL    HW120825   2.940   5.064   6.870
 6642SOL    HW220826   2.936   4.995   6.722
 6643SOL     OW20827   6.845   5.459   6.843
 6643SOL    HW120828   6.807   5.393   6.778
 6643SOL    HW220829   6.927   5.500   6.805
 6644SOL     OW20830   2.996   4.772   2.226
 6644SOL    HW120831   2.963   4.728   2.142
 6644SOL    HW220832   2.961   4.865   2.232
 6645SOL     OW20833   0.148   5.183   0.525
 6645SOL    HW120834   0.143   5.092   0.483
 6645SOL    HW220835   0.175   5.250   0.456
 6646SOL     OW20836   3.610   6.903   4.511
 6646SOL    HW120837   3.670   6.849   4.571
 6646SOL    HW220838   3.532   6.935   4.564
 6647SOL     OW20839   4.479   0.727   2.329
 6647SOL    HW120840   4.478   0.796   2.256
 6647SOL    HW220841   4.551   0.749   2.395
 6648SOL     OW20842   3.454   5.927   3.130
 6648SOL    HW120843   3.495   5.902   3.042
 6648SOL    HW220844   3.513   5.896   3.204
 6649SOL     OW20845   5.240   1.038   0.136
 6649SOL    HW120846   5.208   0.957   0.088
 6649SOL    HW220847   5.324   1.071   0.093
 6650SOL     OW20848   2.979   1.556   4.523
 6650SOL    HW120849   3.038   1.506   4.459
 6650SOL    HW220850   2.931   1.629   4.474
 6651SOL     OW20851   2.079   1.840   6.544
 6651SOL    HW120852   2.044   1.764   6.598
 6651SOL    HW220853   2.158   1.880   6.589
 6652SOL     OW20854   6.734   4.434   0.237
 6652SOL    HW120855   6.695   4.489   0.163
 6652SOL    HW220856   6.784   4.357   0.199
 6653SOL     OW20857   3.631   2.825   2.063
 6653SOL    HW120858   3.549   2.834   2.007
 6653SOL    HW220859   3.610   2.775   2.147
 6654SOL     OW20860   1.949   2.974   1.604
 6654SOL    HW120861   2.024   2.972   1.538
 6654SOL    HW220862   1.864   2.999   1.557
 6655SOL     OW20863   2.641   0.210   1.853
 6655SOL    HW120864   2.719   0.197   1.791
 6655SOL    HW220865   2.559   0.230   1.799
 6656SOL     OW20866   6.047   1.692   1.908
 6656SOL    HW120867   6.097   1.671   1.824
 6656SOL    HW220868   6.027   1.607   1.957
 6657SOL     OW20869   5.715   5.974   6.003
 6657SOL    HW120870   5.717   6.018   5.913
 6657SOL    HW220871   5.737   5.877   5.993
 6658SOL     OW20872   6.175   1.321   4.829
 6658SOL    HW120873   6.205   1.226   4.837
 6658SOL    HW220874   6.078   1.323   4.804
 6659SOL     OW20875   2.103   2.211   0.688
 6659SOL    HW120876   2.190   2.170   0.660
 6659SOL    HW220877   2.068   2.162   0.769
 6660SOL     OW20878   0.606   5.828   0.044
 6660SOL    HW120879   0.532   5.790   7.007
 6660SOL    HW220880   0.612   5.779   0.130
 6661SOL     OW20881   1.173   6.163   4.064
 6661SOL    HW120882   1.167   6.238   4.130
 6661SOL    HW220883   1.267   6.157   4.029
 6662SOL     OW20884   1.125   1.256   6.985
 6662SOL    HW120885   1.109   1.176   6.926
 6662SOL    HW220886   1.107   1.340   6.934
 6663SOL     OW20887   6.863   5.111   3.493
 6663SOL    HW120888   6.793   5.150   3.433
 6663SOL    HW220889   6.945   5.091   3.440
 6664SOL     OW20890   2.304   0.122   0.438
 6664SOL    HW120891   2.353   0.144   0.353
 6664SOL    HW220892   2.223   0.067   0.416
 6665SOL     OW20893   1.345   0.007   3.217
 6665SOL    HW120894   1.394   0.074   3.272
 6665SOL    HW220895   1.401   6.943   3.205
 6666SOL     OW20896   5.391   6.971   5.777
 6666SOL    HW120897   5.406   0.040   5.731
 6666SOL    HW220898   5.414   6.980   5.874
 6667SOL     OW20899   6.932   5.346   6.462
 6667SOL    HW120900   6.896   5.286   6.390
 6667SOL    HW220901   0.012   5.356   6.451
 6668SOL     OW20902   6.230   5.834   2.014
 6668SOL    HW120903   6.162   5.878   1.956
 6668SOL    HW220904   6.200   5.839   2.110
 6669SOL     OW20905   1.878   3.145   3.753
 6669SOL    HW120906   1.798   3.144   3.813
 6669SOL    HW220907   1.869   3.071   3.686
 6670SOL     OW20908   3.684   1.714   5.522
 6670SOL    HW120909   3.717   1.781   5.589
 6670SOL    HW220910   3.618   1.758   5.461
 6671SOL     OW20911   5.608   5.404   1.213
 6671SOL    HW120912   5.642   5.399   1.119
 6671SOL    HW220913   5.552   5.323   1.232
 6672SOL     OW20914   0.376   2.165   5.364
 6672SOL    HW120915   0.471   2.142   5.381
 6672SOL    HW220916   0.322   2.080   5.357
 6673SOL     OW20917   4.952   6.287   3.619
 6673SOL    HW120918   4.999   6.215   3.568
 6673SOL    HW220919   4.884   6.246   3.679
 6674SOL     OW20920   1.172   4.704   5.810
 6674SOL    HW120921   1.112   4.641   5.761
 6674SOL    HW220922   1.118   4.761   5.872
 6675SOL     OW20923   4.386   4.010   1.641
 6675SOL    HW120924   4.368   4.048   1.550
 6675SOL    HW220925   4.415   4.084   1.702
 6676SOL     OW20926   0.309   4.322   5.572
 6676SOL    HW120927   0.331   4.414   5.541
 6676SOL    HW220928   0.277   4.325   5.667
 6677SOL     OW20929   0.411   2.055   6.608
 6677SOL    HW120930   0.446   2.064   6.515
 6677SOL    HW220931   0.317   2.021   6.606
 6678SOL     OW20932   2.290   2.810   0.204
 6678SOL    HW120933   2.370   2.866   0.184
 6678SOL    HW220934   2.317   2.736   0.266
 6679SOL     OW20935   3.107   1.615   3.724
 6679SOL    HW120936   3.058   1.528   3.714
 6679SOL    HW220937   3.165   1.611   3.805
 6680SOL     OW20938   4.801   6.857   6.364
 6680SOL    HW120939   4.802   6.951   6.398
 6680SOL    HW220940   4.817   6.857   6.265
 6681SOL     OW20941   4.629   5.517   0.410
 6681SOL    HW120942   4.548   5.466   0.436
 6681SOL    HW220943   4.613   5.615   0.423
 6682SOL     OW20944   1.418   4.282   2.897
 6682SOL    HW120945   1.476   4.271   2.816
 6682SOL    HW220946   1.376   4.195   2.920
 6683SOL     OW20947   5.365   3.113   5.577
 6683SOL    HW120948   5.459   3.128   5.548
 6683SOL    HW220949   5.354   3.143   5.672
 6684SOL     OW20950   2.800   6.200   0.833
 6684SOL    HW120951   2.869   6.133   0.861
 6684SOL    HW220952   2.765   6.247   0.914
 6685SOL     OW20953   5.771   2.583   6.271
 6685SOL    HW120954   5.782   2.614   6.176
 6685SOL    HW220955   5.834   2.507   6.288
 6686SOL     OW20956   5.127   6.377   4.488
 6686SOL    HW120957   5.168   6.317   4.419
 6686SOL    HW220958   5.049   6.331   4.530
 6687SOL     OW20959   0.244   2.676   1.095
 6687SOL    HW120960   0.286   2.588   1.118
 6687SOL    HW220961   0.203   2.670   1.005
 6688SOL     OW20962   0.045   4.263   2.198
 6688SOL    HW120963   6.983   4.316   2.224
 6688SOL    HW220964   0.126   4.302   2.243
 6689SOL     OW20965   4.206   3.429   0.325
 6689SOL    HW120966   4.240   3.490   0.254
 6689SOL    HW220967   4.222   3.470   0.415
 6690SOL     OW20968   2.620   1.556   0.991
 6690SOL    HW120969   2.715   1.586   0.986
 6690SOL    HW220970   2.573   1.604   1.064
 6691SOL     OW20971   2.978   6.715   1.766
 6691SOL    HW120972   2.996   6.745   1.859
 6691SOL    HW220973   3.013   6.783   1.702
 6692SOL     OW20974   3.647   4.157   5.316
 6692SOL    HW120975   3.698   4.219   5.257
 6692SOL    HW220976   3.549   4.168   5.299
 6693SOL     OW20977   4.125   3.296   6.198
 6693SOL    HW120978   4.180   3.316   6.278
 6693SOL    HW220979   4.185   3.278   6.120
 6694SOL     OW20980   5.235   5.639   0.584
 6694SOL    HW120981   5.142   5.633   0.619
 6694SOL    HW220982   5.297   5.663   0.659
 6695SOL     OW20983   2.882   2.288   6.069
 6695SOL    HW120984   2.822   2.215   6.036
 6695SOL    HW220985   2.977   2.259   6.059
 6696SOL     OW20986   1.210   3.066   0.242
 6696SOL    HW120987   1.190   3.083   0.146
 6696SOL    HW220988   1.246   3.149   0.285
 6697SOL     OW20989   5.073   2.842   3.164
 6697SOL    HW120990   5.147   2.910   3.156
 6697SOL    HW220991   5.024   2.837   3.077
 6698SOL     OW20992   2.827   2.625   0.556
 6698SOL    HW120993   2.817   2.531   0.522
 6698SOL    HW220994   2.737   2.670   0.555
 6699SOL     OW20995   3.182   5.038   6.339
 6699SOL    HW120996   3.128   4.956   6.356
 6699SOL    HW220997   3.125   5.108   6.296
 6700SOL     OW20998   6.641   6.137   1.028
 6700SOL    HW120999   6.638   6.166   1.123
 6700SOL    HW221000   6.730   6.157   0.989
 6701SOL     OW21001   6.092   2.685   0.735
 6701SOL    HW121002   6.165   2.735   0.783
 6701SOL    HW221003   6.107   2.587   0.746
 6702SOL     OW21004   2.979   2.644   1.305
 6702SOL    HW121005   2.956   2.561   1.254
 6702SOL    HW221006   3.006   2.620   1.398
 6703SOL     OW21007   6.177   1.577   0.145
 6703SOL    HW121008   6.125   1.534   0.218
 6703SOL    HW221009   6.235   1.650   0.183
 6704SOL     OW21010   4.386   2.202   2.489
 6704SOL    HW121011   4.449   2.235   2.419
 6704SOL    HW221012   4.403   2.104   2.505
 6705SOL     OW21013   6.842   2.741   1.632
 6705SOL    HW121014   6.824   2.769   1.726
 6705SOL    HW221015   6.755   2.732   1.583
 6706SOL     OW21016   0.712   4.132   0.960
 6706SOL    HW121017   0.724   4.043   1.003
 6706SOL    HW221018   0.788   4.192   0.986
 6707SOL     OW21019   0.033   6.142   3.911
 6707SOL    HW121020   0.006   6.238   3.900
 6707SOL    HW221021   0.119   6.127   3.862
 6708SOL     OW21022   0.965   5.375   2.518
 6708SOL    HW121023   0.882   5.361   2.464
 6708SOL    HW221024   0.991   5.472   2.514
 6709SOL     OW21025   3.303   6.559   1.954
 6709SOL    HW121026   3.232   6.628   1.958
 6709SOL    HW221027   3.270   6.474   1.995
 6710SOL     OW21028   2.920   1.476   5.931
 6710SOL    HW121029   2.926   1.551   5.997
 6710SOL    HW221030   2.824   1.448   5.922
 6711SOL     OW21031   5.380   4.673   6.796
 6711SOL    HW121032   5.323   4.753   6.776
 6711SOL    HW221033   5.448   4.661   6.723
 6712SOL     OW21034   4.992   5.247   0.148
 6712SOL    HW121035   4.961   5.312   0.217
 6712SOL    HW221036   4.915   5.189   0.121
 6713SOL     OW21037   2.264   1.830   1.945
 6713SOL    HW121038   2.302   1.881   1.868
 6713SOL    HW221039   2.167   1.812   1.928
 6714SOL     OW21040   5.558   0.557   6.287
 6714SOL    HW121041   5.637   0.540   6.346
 6714SOL    HW221042   5.506   0.472   6.277
 6715SOL     OW21043   0.558   0.452   6.683
 6715SOL    HW121044   0.630   0.498   6.631
 6715SOL    HW221045   0.481   0.431   6.624
 6716SOL     OW21046   0.358   5.569   2.320
 6716SOL    HW121047   0.339   5.472   2.335
 6716SOL    HW221048   0.317   5.598   2.234
 6717SOL     OW21049   4.480   3.080   0.413
 6717SOL    HW121050   4.496   3.128   0.499
 6717SOL    HW221051   4.565   3.076   0.361
 6718SOL     OW21052   4.244   6.646   6.090
 6718SOL    HW121053   4.213   6.643   6.185
 6718SOL    HW221054   4.344   6.642   6.087
 6719SOL     OW21055   0.512   0.016   5.727
 6719SOL    HW121056   0.539   6.950   5.774
 6719SOL    HW221057   0.565   0.093   5.763
 6720SOL     OW21058   1.069   5.622   2.569
 6720SOL    HW121059   1.071   5.547   2.635
 6720SOL    HW221060   1.111   5.703   2.610
 6721SOL     OW21061   6.449   6.911   5.039
 6721SOL    HW121062   6.351   6.919   5.054
 6721SOL    HW221063   6.466   6.888   4.943
 6722SOL     OW21064   5.912   3.562   1.861
 6722SOL    HW121065   5.980   3.629   1.831
 6722SOL    HW221066   5.932   3.535   1.955
 6723SOL     OW21067   2.272   6.635   2.781
 6723SOL    HW121068   2.278   6.693   2.699
 6723SOL    HW221069   2.281   6.539   2.754
 6724SOL     OW21070   1.409   3.328   5.872
 6724SOL    HW121071   1.412   3.427   5.856
 6724SOL    HW221072   1.326   3.305   5.922
 6725SOL     OW21073   0.805   4.225   1.301
 6725SOL    HW121074   0.809   4.298   1.369
 6725SOL    HW221075   0.776   4.262   1.213
 6726SOL     OW21076   0.871   2.246   4.769
 6726SOL    HW121077   0.788   2.266   4.823
 6726SOL    HW221078   0.910   2.332   4.736
 6727SOL     OW21079   6.378   3.211   5.605
 6727SOL    HW121080   6.333   3.149   5.541
 6727SOL    HW221081   6.413   3.291   5.556
 6728SOL     OW21082   5.217   1.694   4.196
 6728SOL    HW121083   5.201   1.614   4.137
 6728SOL    HW221084   5.134   1.750   4.198
 6729SOL     OW21085   0.063   1.192   2.415
 6729SOL    HW121086   0.104   1.102   2.425
 6729SOL    HW221087   7.005   1.188   2.350
 6730SOL     OW21088   2.024   6.522   6.422
 6730SOL    HW121089   2.063   6.587   6.486
 6730SOL    HW221090   1.942   6.480   6.462
 6731SOL     OW21091   1.324   4.856   0.902
 6731SOL    HW121092   1.356   4.762   0.914
 6731SOL    HW221093   1.351   4.911   0.981
 6732SOL     OW21094   4.310   5.155   6.736
 6732SOL    HW121095   4.295   5.214   6.656
 6732SOL    HW221096   4.391   5.099   6.721
 6733SOL     OW21097   3.809   5.262   0.213
 6733SOL    HW121098   3.829   5.339   0.274
 6733SOL    HW221099   3.750   5.197   0.260
 6734SOL     OW21100   6.872   3.064   5.270
 6734SOL    HW121101   6.908   2.977   5.236
 6734SOL    HW221102   6.880   3.134   5.200
 6735SOL     OW21103   0.181   5.360   5.159
 6735SOL    HW121104   0.277   5.335   5.170
 6735SOL    HW221105   0.172   5.460   5.158
 6736SOL     OW21106   2.222   3.171   0.391
 6736SOL    HW121107   2.252   3.112   0.466
 6736SOL    HW221108   2.123   3.170   0.384
 6737SOL     OW21109   2.038   2.658   0.858
 6737SOL    HW121110   2.007   2.741   0.811
 6737SOL    HW221111   1.976   2.636   0.932
 6738SOL     OW21112   2.069   3.411   2.208
 6738SOL    HW121113   2.058   3.489   2.270
 6738SOL    HW221114   2.111   3.441   2.123
 6739SOL     OW21115   3.566   4.849   6.266
 6739SOL    HW121116   3.651   4.866   6.216
 6739SOL    HW221117   3.489   4.851   6.203
 6740SOL     OW21118   1.696   1.519   4.666
 6740SOL    HW121119   1.791   1.493   4.676
 6740SOL    HW221120   1.679   1.604   4.716
 6741SOL     OW21121   4.644   1.263   6.042
 6741SOL    HW121122   4.690   1.174   6.053
 6741SOL    HW221123   4.551   1.249   6.009
 6742SOL     OW21124   0.097   5.356   2.779
 6742SOL    HW121125   0.063   5.371   2.871
 6742SOL    HW221126   0.022   5.368   2.713
 6743SOL     OW21127   3.856   4.057   0.145
 6743SOL    HW121128   3.889   4.135   0.093
 6743SOL    HW221129   3.917   4.040   0.222
 6744SOL     OW21130   5.201   5.455   5.474
 6744SOL    HW121131   5.240   5.547   5.482
 6744SOL    HW221132   5.182   5.435   5.378
 6745SOL     OW21133   0.910   6.294   2.239
 6745SOL    HW121134   0.972   6.257   2.308
 6745SOL    HW221135   0.921   6.243   2.154
 6746SOL     OW21136   0.965   0.925   2.918
 6746SOL    HW121137   0.928   0.959   3.004
 6746SOL    HW221138   0.909   0.959   2.842
 6747SOL     OW21139   5.278   0.206   4.865
 6747SOL    HW121140   5.245   0.271   4.933
 6747SOL    HW221141   5.343   0.143   4.909
 6748SOL     OW21142   1.352   0.730   2.779
 6748SOL    HW121143   1.277   0.755   2.840
 6748SOL    HW221144   1.427   0.795   2.791
 6749SOL     OW21145   3.097   5.638   0.494
 6749SOL    HW121146   3.180   5.614   0.545
 6749SOL    HW221147   3.121   5.667   0.402
 6750SOL     OW21148   3.825   1.463   4.680
 6750SOL    HW121149   3.787   1.429   4.766
 6750SOL    HW221150   3.878   1.546   4.698
 6751SOL     OW21151   4.040   1.773   4.158
 6751SOL    HW121152   4.110   1.792   4.227
 6751SOL    HW221153   4.043   1.844   4.087
 6752SOL     OW21154   6.412   3.053   2.465
 6752SOL    HW121155   6.508   3.057   2.492
 6752SOL    HW221156   6.398   3.106   2.382
 6753SOL     OW21157   5.079   0.667   6.535
 6753SOL    HW121158   5.157   0.604   6.531
 6753SOL    HW221159   5.022   0.644   6.614
 6754SOL     OW21160   6.473   1.804   6.150
 6754SOL    HW121161   6.490   1.827   6.054
 6754SOL    HW221162   6.557   1.767   6.190
 6755SOL     OW21163   4.399   1.608   3.359
 6755SOL    HW121164   4.430   1.674   3.427
 6755SOL    HW221165   4.476   1.550   3.331
 6756SOL     OW21166   4.798   4.050   4.741
 6756SOL    HW121167   4.830   3.967   4.696
 6756SOL    HW221168   4.724   4.091   4.687
 6757SOL     OW21169   5.002   6.309   0.708
 6757SOL    HW121170   4.973   6.325   0.803
 6757SOL    HW221171   4.925   6.272   0.656
 6758SOL     OW21172   6.065   3.627   1.442
 6758SOL    HW121173   6.020   3.584   1.520
 6758SOL    HW221174   6.139   3.568   1.409
 6759SOL     OW21175   1.010   3.495   4.426
 6759SOL    HW121176   1.068   3.566   4.466
 6759SOL    HW221177   0.917   3.531   4.414
 6760SOL     OW21178   6.574   5.004   4.589
 6760SOL    HW121179   6.582   4.989   4.687
 6760SOL    HW221180   6.494   5.060   4.569
 6761SOL     OW21181   5.626   2.226   6.389
 6761SOL    HW121182   5.547   2.254   6.443
 6761SOL    HW221183   5.623   2.270   6.299
 6762SOL     OW21184   0.238   5.540   3.143
 6762SOL    HW121185   0.292   5.527   3.060
 6762SOL    HW221186   0.181   5.621   3.134
 6763SOL     OW21187   6.599   6.055   3.916
 6763SOL    HW121188   6.557   6.146   3.924
 6763SOL    HW221189   6.685   6.063   3.867
 6764SOL     OW21190   2.778   4.772   6.523
 6764SOL    HW121191   2.809   4.680   6.546
 6764SOL    HW221192   2.709   4.767   6.451
 6765SOL     OW21193   5.340   5.564   3.262
 6765SOL    HW121194   5.267   5.607   3.316
 6765SOL    HW221195   5.373   5.482   3.310
 6766SOL     OW21196   2.853   6.493   6.869
 6766SOL    HW121197   2.896   6.493   6.778
 6766SOL    HW221198   2.760   6.527   6.862
 6767SOL     OW21199   0.370   2.178   1.080
 6767SOL    HW121200   0.348   2.082   1.095
 6767SOL    HW221201   0.435   2.186   1.005
 6768SOL     OW21202   0.857   0.341   3.635
 6768SOL    HW121203   0.951   0.374   3.634
 6768SOL    HW221204   0.799   0.406   3.685
 6769SOL     OW21205   2.908   1.052   5.150
 6769SOL    HW121206   2.930   1.040   5.053
 6769SOL    HW221207   2.944   0.974   5.202
 6770SOL     OW21208   6.996   2.268   3.525
 6770SOL    HW121209   0.057   2.214   3.498
 6770SOL    HW221210   0.007   2.354   3.567
 6771SOL     OW21211   4.004   2.201   3.585
 6771SOL    HW121212   3.998   2.102   3.595
 6771SOL    HW221213   3.921   2.236   3.542
 6772SOL     OW21214   5.363   1.734   2.245
 6772SOL    HW121215   5.444   1.678   2.228
 6772SOL    HW221216   5.368   1.772   2.337
 6773SOL     OW21217   0.100   6.630   1.305
 6773SOL    HW121218   0.108   6.548   1.249
 6773SOL    HW221219   0.010   6.672   1.290
 6774SOL     OW21220   1.755   2.561   5.373
 6774SOL    HW121221   1.658   2.561   5.349
 6774SOL    HW221222   1.802   2.633   5.322
 6775SOL     OW21223   0.816   1.846   3.471
 6775SOL    HW121224   0.895   1.818   3.417
 6775SOL    HW221225   0.737   1.861   3.410
 6776SOL     OW21226   3.833   3.921   1.979
 6776SOL    HW121227   3.773   4.000   1.982
 6776SOL    HW221228   3.884   3.922   1.892
 6777SOL     OW21229   4.449   5.054   1.042
 6777SOL    HW121230   4.459   4.958   1.016
 6777SOL    HW221231   4.533   5.086   1.087
 6778SOL     OW21232   5.776   3.144   2.380
 6778SOL    HW121233   5.843   3.071   2.374
 6778SOL    HW221234   5.819   3.226   2.419
 6779SOL     OW21235   5.115   4.179   6.281
 6779SOL    HW121236   5.112   4.266   6.329
 6779SOL    HW221237   5.167   4.113   6.336
 6780SOL     OW21238   2.054   3.633   2.665
 6780SOL    HW121239   2.119   3.558   2.670
 6780SOL    HW221240   2.009   3.645   2.753
 6781SOL     OW21241   6.600   1.170   3.543
 6781SOL    HW121242   6.585   1.081   3.498
 6781SOL    HW221243   6.516   1.198   3.590
 6782SOL     OW21244   1.143   1.163   3.563
 6782SOL    HW121245   1.152   1.119   3.653
 6782SOL    HW221246   1.145   1.093   3.492
 6783SOL     OW21247   0.762   3.992   4.969
 6783SOL    HW121248   0.755   4.051   5.049
 6783SOL    HW221249   0.748   3.897   4.996
 6784SOL     OW21250   2.781   3.767   1.664
 6784SOL    HW121251   2.683   3.747   1.658
 6784SOL    HW221252   2.822   3.708   1.733
 6785SOL     OW21253   5.681   4.868   5.459
 6785SOL    HW121254   5.678   4.956   5.506
 6785SOL    HW221255   5.762   4.817   5.488
 6786SOL     OW21256   6.895   2.417   0.411
 6786SOL    HW121257   6.982   2.368   0.402
 6786SOL    HW221258   6.913   2.515   0.419
 6787SOL     OW21259   3.497   2.219   1.295
 6787SOL    HW121260   3.529   2.168   1.375
 6787SOL    HW221261   3.423   2.168   1.250
 6788SOL     OW21262   0.572   3.629   2.568
 6788SOL    HW121263   0.575   3.604   2.471
 6788SOL    HW221264   0.589   3.548   2.624
 6789SOL     OW21265   6.801   4.506   4.796
 6789SOL    HW121266   6.860   4.518   4.716
 6789SOL    HW221267   6.718   4.560   4.784
 6790SOL     OW21268   0.399   4.882   6.137
 6790SOL    HW121269   0.434   4.919   6.223
 6790SOL    HW221270   0.326   4.940   6.102
 6791SOL     OW21271   4.869   2.005   3.113
 6791SOL    HW121272   4.855   1.907   3.104
 6791SOL    HW221273   4.780   2.052   3.106
 6792SOL     OW21274   3.697   6.535   5.340
 6792SOL    HW121275   3.690   6.595   5.261
 6792SOL    HW221276   3.760   6.575   5.407
 6793SOL     OW21277   3.106   2.131   0.106
 6793SOL    HW121278   3.199   2.164   0.121
 6793SOL    HW221279   3.101   2.083   0.019
 6794SOL     OW21280   4.814   0.917   5.645
 6794SOL    HW121281   4.776   0.827   5.623
 6794SOL    HW221282   4.893   0.906   5.705
 6795SOL     OW21283   1.357   0.419   0.732
 6795SOL    HW121284   1.290   0.372   0.789
 6795SOL    HW221285   1.426   0.353   0.701
 6796SOL     OW21286   5.323   1.205   1.964
 6796SOL    HW121287   5.244   1.145   1.979
 6796SOL    HW221288   5.369   1.179   1.879
 6797SOL     OW21289   6.636   2.774   1.443
 6797SOL    HW121290   6.683   2.759   1.356
 6797SOL    HW221291   6.571   2.849   1.433
 6798SOL     OW21292   5.214   6.989   1.864
 6798SOL    HW121293   5.188   7.013   1.770
 6798SOL    HW221294   5.193   6.893   1.881
 6799SOL     OW21295   5.463   0.805   2.954
 6799SOL    HW121296   5.397   0.748   3.004
 6799SOL    HW221297   5.539   0.828   3.014
 6800SOL     OW21298   1.544   1.961   1.075
 6800SOL    HW121299   1.583   1.907   1.150
 6800SOL    HW221300   1.451   1.929   1.057
 6801SOL     OW21301   1.660   6.392   4.530
 6801SOL    HW121302   1.675   6.390   4.431
 6801SOL    HW221303   1.575   6.345   4.552
 6802SOL     OW21304   3.744   6.158   1.150
 6802SOL    HW121305   3.696   6.181   1.234
 6802SOL    HW221306   3.737   6.234   1.085
 6803SOL     OW21307   5.144   4.540   6.857
 6803SOL    HW121308   5.130   4.458   6.802
 6803SOL    HW221309   5.229   4.585   6.827
 6804SOL     OW21310   2.677   5.224   3.144
 6804SOL    HW121311   2.711   5.250   3.234
 6804SOL    HW221312   2.656   5.127   3.142
 6805SOL     OW21313   0.643   4.815   6.015
 6805SOL    HW121314   0.555   4.842   6.053
 6805SOL    HW221315   0.676   4.733   6.061
 6806SOL     OW21316   6.821   1.279   4.260
 6806SOL    HW121317   6.915   1.253   4.281
 6806SOL    HW221318   6.816   1.315   4.167
 6807SOL     OW21319   3.699   2.950   3.540
 6807SOL    HW121320   3.745   3.008   3.607
 6807SOL    HW221321   3.753   2.946   3.456
 6808SOL     OW21322   5.351   1.048   4.773
 6808SOL    HW121323   5.284   1.034   4.846
 6808SOL    HW221324   5.412   1.123   4.798
 6809SOL     OW21325   6.721   4.207   1.332
 6809SOL    HW121326   6.760   4.236   1.245
 6809SOL    HW221327   6.708   4.107   1.331
 6810SOL     OW21328   3.519   1.043   3.412
 6810SOL    HW121329   3.525   0.943   3.408
 6810SOL    HW221330   3.529   1.074   3.507
 6811SOL     OW21331   6.663   2.488   2.227
 6811SOL    HW121332   6.629   2.496   2.133
 6811SOL    HW221333   6.738   2.422   2.230
 6812SOL     OW21334   3.369   3.574   4.388
 6812SOL    HW121335   3.349   3.573   4.486
 6812SOL    HW221336   3.303   3.633   4.341
 6813SOL     OW21337   5.069   3.613   1.917
 6813SOL    HW121338   4.988   3.608   1.975
 6813SOL    HW221339   5.113   3.701   1.930
 6814SOL     OW21340   4.317   1.524   6.068
 6814SOL    HW121341   4.366   1.511   6.154
 6814SOL    HW221342   4.376   1.498   5.992
 6815SOL     OW21343   1.396   5.251   6.880
 6815SOL    HW121344   1.339   5.330   6.855
 6815SOL    HW221345   1.417   5.199   6.797
 6816SOL     OW21346   6.577   1.529   4.398
 6816SOL    HW121347   6.564   1.435   4.431
 6816SOL    HW221348   6.673   1.555   4.407
 6817SOL     OW21349   3.009   2.169   3.465
 6817SOL    HW121350   2.916   2.150   3.433
 6817SOL    HW221351   3.065   2.087   3.455
 6818SOL     OW21352   2.357   6.383   5.918
 6818SOL    HW121353   2.395   6.328   5.992
 6818SOL    HW221354   2.427   6.397   5.847
 6819SOL     OW21355   4.985   6.252   3.019
 6819SOL    HW121356   5.036   6.168   2.999
 6819SOL    HW221357   4.973   6.305   2.935
 6820SOL     OW21358   1.747   6.281   1.545
 6820SOL    HW121359   1.678   6.235   1.600
 6820SOL    HW221360   1.760   6.374   1.579
 6821SOL     OW21361   4.689   2.412   5.560
 6821SOL    HW121362   4.787   2.395   5.567
 6821SOL    HW221363   4.647   2.410   5.651
 6822SOL     OW21364   6.733   2.467   6.521
 6822SOL    HW121365   6.722   2.496   6.426
 6822SOL    HW221366   6.819   2.503   6.558
 6823SOL     OW21367   5.482   3.486   6.514
 6823SOL    HW121368   5.416   3.417   6.484
 6823SOL    HW221369   5.566   3.441   6.543
 6824SOL     OW21370   1.305   1.900   0.020
 6824SOL    HW121371   1.387   1.868   6.990
 6824SOL    HW221372   1.316   1.884   0.118
 6825SOL     OW21373   6.521   6.101   0.687
 6825SOL    HW121374   6.510   6.060   0.777
 6825SOL    HW221375   6.568   6.036   0.626
 6826SOL     OW21376   0.506   3.250   3.349
 6826SOL    HW121377   0.444   3.267   3.272
 6826SOL    HW221378   0.582   3.193   3.319
 6827SOL     OW21379   5.182   4.979   5.601
 6827SOL    HW121380   5.221   5.024   5.521
 6827SOL    HW221381   5.227   4.890   5.615
 6828SOL     OW21382   3.218   1.584   2.651
 6828SOL    HW121383   3.209   1.504   2.590
 6828SOL    HW221384   3.302   1.633   2.629
 6829SOL     OW21385   4.828   6.842   5.188
 6829SOL    HW121386   4.826   6.934   5.151
 6829SOL    HW221387   4.876   6.842   5.276
 6830SOL     OW21388   6.114   1.533   3.057
 6830SOL    HW121389   6.085   1.461   3.120
 6830SOL    HW221390   6.213   1.527   3.043
 6831SOL     OW21391   1.032   1.162   5.641
 6831SOL    HW121392   1.019   1.215   5.558
 6831SOL    HW221393   0.944   1.136   5.680
 6832SOL     OW21394   2.811   2.840   0.141
 6832SOL    HW121395   2.712   2.831   0.150
 6832SOL    HW221396   2.833   2.920   0.085
 6833SOL     OW21397   3.900   5.621   6.200
 6833SOL    HW121398   3.971   5.633   6.131
 6833SOL    HW221399   3.854   5.709   6.217
 6834SOL     OW21400   5.260   0.132   0.563
 6834SOL    HW121401   5.234   0.042   0.531
 6834SOL    HW221402   5.250   0.136   0.663
 6835SOL     OW21403   3.727   1.598   4.428
 6835SOL    HW121404   3.792   1.670   4.402
 6835SOL    HW221405   3.740   1.575   4.524
 6836SOL     OW21406   2.016   4.385   6.856
 6836SOL    HW121407   2.082   4.458   6.840
 6836SOL    HW221408   1.928   4.426   6.881
 6837SOL     OW21409   1.109   1.361   2.759
 6837SOL    HW121410   1.105   1.406   2.670
 6837SOL    HW221411   1.117   1.429   2.831
 6838SOL     OW21412   2.973   4.253   5.270
 6838SOL    HW121413   2.889   4.201   5.284
 6838SOL    HW221414   2.951   4.349   5.252
 6839SOL     OW21415   5.219   2.095   3.735
 6839SOL    HW121416   5.280   2.036   3.681
 6839SOL    HW221417   5.228   2.190   3.704
 6840SOL     OW21418   2.528   6.830   4.907
 6840SOL    HW121419   2.494   6.847   4.815
 6840SOL    HW221420   2.471   6.761   4.952
 6841SOL     OW21421   4.154   5.059   1.960
 6841SOL    HW121422   4.247   5.063   1.925
 6841SOL    HW221423   4.093   5.025   1.888
 6842SOL     OW21424   0.925   2.970   6.928
 6842SOL    HW121425   0.846   3.032   6.926
 6842SOL    HW221426   0.894   2.876   6.943
 6843SOL     OW21427   4.981   1.239   1.660
 6843SOL    HW121428   4.888   1.235   1.624
 6843SOL    HW221429   4.979   1.239   1.760
 6844SOL     OW21430   5.116   5.555   4.429
 6844SOL    HW121431   5.173   5.616   4.485
 6844SOL    HW221432   5.140   5.566   4.333
 6845SOL     OW21433   4.799   4.276   2.018
 6845SOL    HW121434   4.851   4.203   1.974
 6845SOL    HW221435   4.701   4.259   2.005
 6846SOL     OW21436   3.871   3.295   0.961
 6846SOL    HW121437   3.963   3.260   0.946
 6846SOL    HW221438   3.809   3.254   0.894
 6847SOL     OW21439   5.371   3.990   2.111
 6847SOL    HW121440   5.360   4.000   2.210
 6847SOL    HW221441   5.469   3.995   2.088
 6848SOL     OW21442   1.121   4.887   4.191
 6848SOL    HW121443   1.208   4.932   4.172
 6848SOL    HW221444   1.046   4.952   4.180
 6849SOL     OW21445   3.522   5.836   4.268
 6849SOL    HW121446   3.506   5.757   4.209
 6849SOL    HW221447   3.442   5.851   4.327
 6850SOL     OW21448   5.790   2.563   2.896
 6850SOL    HW121449   5.733   2.554   2.815
 6850SOL    HW221450   5.862   2.631   2.879
 6851SOL     OW21451   1.551   4.830   5.332
 6851SOL    HW121452   1.591   4.858   5.420
 6851SOL    HW221453   1.598   4.878   5.258
 6852SOL     OW21454   1.478   4.304   1.113
 6852SOL    HW121455   1.481   4.311   1.212
 6852SOL    HW221456   1.408   4.237   1.086
 6853SOL     OW21457   6.957   4.782   6.551
 6853SOL    HW121458   6.860   4.759   6.565
 6853SOL    HW221459   6.977   4.782   6.453
 6854SOL     OW21460   5.661   0.954   5.812
 6854SOL    HW121461   5.659   0.955   5.912
 6854SOL    HW221462   5.581   1.002   5.777
 6855SOL     OW21463   3.237   6.841   3.119
 6855SOL    HW121464   3.247   6.912   3.049
 6855SOL    HW221465   3.186   6.764   3.080
 6856SOL     OW21466   5.091   4.458   5.340
 6856SOL    HW121467   5.129   4.380   5.391
 6856SOL    HW221468   5.163   4.525   5.324
 6857SOL     OW21469   3.075   1.126   6.560
 6857SOL    HW121470   3.000   1.163   6.615
 6857SOL    HW221471   3.120   1.200   6.510
 6858SOL     OW21472   3.937   3.083   4.588
 6858SOL    HW121473   3.974   3.172   4.563
 6858SOL    HW221474   4.004   3.012   4.566
 6859SOL     OW21475   1.631   6.575   1.133
 6859SOL    HW121476   1.574   6.524   1.069
 6859SOL    HW221477   1.685   6.512   1.188
 6860SOL     OW21478   6.066   4.888   1.864
 6860SOL    HW121479   6.001   4.817   1.891
 6860SOL    HW221480   6.159   4.858   1.889
 6861SOL     OW21481   5.611   4.442   1.154
 6861SOL    HW121482   5.568   4.352   1.160
 6861SOL    HW221483   5.541   4.512   1.165
 6862SOL     OW21484   2.790   4.705   4.612
 6862SOL    HW121485   2.745   4.718   4.524
 6862SOL    HW221486   2.889   4.706   4.601
 6863SOL     OW21487   6.023   1.137   5.164
 6863SOL    HW121488   6.011   1.205   5.237
 6863SOL    HW221489   5.935   1.117   5.122
 6864SOL     OW21490   3.717   6.006   4.178
 6864SOL    HW121491   3.643   5.954   4.220
 6864SOL    HW221492   3.790   5.944   4.150
 6865SOL     OW21493   6.468   4.871   3.550
 6865SOL    HW121494   6.453   4.807   3.474
 6865SOL    HW221495   6.564   4.902   3.549
 6866SOL     OW21496   6.386   4.302   2.139
 6866SOL    HW121497   6.331   4.235   2.088
 6866SOL    HW221498   6.414   4.376   2.077
 6867SOL     OW21499   1.128   4.760   0.746
 6867SOL    HW121500   1.178   4.814   0.815
 6867SOL    HW221501   1.179   4.676   0.727
 6868SOL     OW21502   1.646   5.755   5.320
 6868SOL    HW121503   1.725   5.807   5.354
 6868SOL    HW221504   1.562   5.806   5.338
 6869SOL     OW21505   5.589   2.589   5.575
 6869SOL    HW121506   5.613   2.494   5.596
 6869SOL    HW221507   5.494   2.594   5.545
 6870SOL     OW21508   6.343   3.710   3.013
 6870SOL    HW121509   6.297   3.622   3.029
 6870SOL    HW221510   6.411   3.699   2.941
 6871SOL     OW21511   6.389   4.840   2.223
 6871SOL    HW121512   6.366   4.767   2.287
 6871SOL    HW221513   6.354   4.817   2.132
 6872SOL     OW21514   2.476   3.709   0.906
 6872SOL    HW121515   2.390   3.664   0.933
 6872SOL    HW221516   2.465   3.808   0.910
 6873SOL     OW21517   6.042   3.240   5.752
 6873SOL    HW121518   6.045   3.263   5.654
 6873SOL    HW221519   6.061   3.142   5.764
 6874SOL     OW21520   0.893   3.463   3.737
 6874SOL    HW121521   0.946   3.546   3.722
 6874SOL    HW221522   0.797   3.487   3.753
 6875SOL     OW21523   1.851   2.297   3.837
 6875SOL    HW121524   1.892   2.249   3.759
 6875SOL    HW221525   1.866   2.396   3.826
 6876SOL     OW21526   3.677   5.335   6.718
 6876SOL    HW121527   3.656   5.282   6.800
 6876SOL    HW221528   3.645   5.429   6.731
 6877SOL     OW21529   2.540   4.088   6.939
 6877SOL    HW121530   2.533   3.988   6.929
 6877SOL    HW221531   2.495   4.116   0.005
 6878SOL     OW21532   2.143   1.596   5.342
 6878SOL    HW121533   2.226   1.633   5.383
 6878SOL    HW221534   2.096   1.668   5.290
 6879SOL     OW21535   0.966   2.133   0.339
 6879SOL    HW121536   0.923   2.202   0.280
 6879SOL    HW221537   0.941   2.042   0.307
 6880SOL     OW21538   2.127   3.555   5.057
 6880SOL    HW121539   2.133   3.586   4.963
 6880SOL    HW221540   2.087   3.463   5.059
 6881SOL     OW21541   6.845   4.495   2.008
 6881SOL    HW121542   6.843   4.496   2.108
 6881SOL    HW221543   6.754   4.474   1.973
 6882SOL     OW21544   1.993   0.333   5.822
 6882SOL    HW121545   2.042   0.370   5.743
 6882SOL    HW221546   1.985   0.404   5.892
 6883SOL     OW21547   3.695   0.810   0.711
 6883SOL    HW121548   3.644   0.887   0.751
 6883SOL    HW221549   3.675   0.803   0.614
 6884SOL     OW21550   2.388   4.288   4.285
 6884SOL    HW121551   2.358   4.317   4.194
 6884SOL    HW221552   2.441   4.361   4.328
 6885SOL     OW21553   2.902   5.349   3.965
 6885SOL    HW121554   2.979   5.411   3.951
 6885SOL    HW221555   2.926   5.281   4.034
 6886SOL     OW21556   6.567   0.663   2.465
 6886SOL    HW121557   6.654   0.712   2.461
 6886SOL    HW221558   6.576   0.575   2.420
 6887SOL     OW21559   5.144   0.238   5.467
 6887SOL    HW121560   5.174   0.155   5.420
 6887SOL    HW221561   5.080   0.214   5.540
 6888SOL     OW21562   5.749   6.545   6.136
 6888SOL    HW121563   5.824   6.479   6.131
 6888SOL    HW221564   5.786   6.638   6.132
 6889SOL     OW21565   1.146   2.774   5.470
 6889SOL    HW121566   1.229   2.791   5.524
 6889SOL    HW221567   1.092   2.703   5.514
 6890SOL     OW21568   2.339   6.201   0.622
 6890SOL    HW121569   2.309   6.122   0.676
 6890SOL    HW221570   2.438   6.198   0.610
 6891SOL     OW21571   2.135   4.064   4.623
 6891SOL    HW121572   2.132   4.016   4.711
 6891SOL    HW221573   2.138   3.997   4.548
 6892SOL     OW21574   4.354   0.814   4.417
 6892SOL    HW121575   4.412   0.771   4.348
 6892SOL    HW221576   4.306   0.744   4.469
 6893SOL     OW21577   5.776   6.801   1.759
 6893SOL    HW121578   5.865   6.777   1.797
 6893SOL    HW221579   5.745   6.888   1.797
 6894SOL     OW21580   6.040   5.849   0.195
 6894SOL    HW121581   6.042   5.944   0.228
 6894SOL    HW221582   6.116   5.799   0.236
 6895SOL     OW21583   3.057   5.110   0.012
 6895SOL    HW121584   3.034   5.074   0.103
 6895SOL    HW221585   3.149   5.078   7.005
 6896SOL     OW21586   3.560   0.001   3.771
 6896SOL    HW121587   3.510   6.978   3.846
 6896SOL    HW221588   3.594   0.091   3.799
 6897SOL     OW21589   2.965   3.669   0.135
 6897SOL    HW121590   2.951   3.570   0.137
 6897SOL    HW221591   2.894   3.712   0.079
 6898SOL     OW21592   3.775   1.675   1.779
 6898SOL    HW121593   3.690   1.623   1.776
 6898SOL    HW221594   3.782   1.731   1.696
 6899SOL     OW21595   4.970   6.915   6.953
 6899SOL    HW121596   5.028   6.847   6.998
 6899SOL    HW221597   4.895   6.868   6.906
 6900SOL     OW21598   6.068   0.223   6.124
 6900SOL    HW121599   6.140   0.195   6.186
 6900SOL    HW221600   6.053   0.152   6.055
 6901SOL     OW21601   0.357   0.362   6.528
 6901SOL    HW121602   0.379   0.265   6.541
 6901SOL    HW221603   0.277   0.371   6.469
 6902SOL     OW21604   0.173   6.302   0.852
 6902SOL    HW121605   0.091   6.267   0.808
 6902SOL    HW221606   0.252   6.249   0.823
 6903SOL     OW21607   3.262   3.732   6.359
 6903SOL    HW121608   3.362   3.735   6.359
 6903SOL    HW221609   3.226   3.824   6.343
 6904SOL     OW21610   6.977   1.129   3.324
 6904SOL    HW121611   6.994   1.138   3.422
 6904SOL    HW221612   6.966   1.219   3.283
 6905SOL     OW21613   6.617   6.361   6.842
 6905SOL    HW121614   6.519   6.379   6.848
 6905SOL    HW221615   6.665   6.416   6.910
 6906SOL     OW21616   4.031   1.260   4.015
 6906SOL    HW121617   4.059   1.214   4.099
 6906SOL    HW221618   3.960   1.206   3.970
 6907SOL     OW21619   4.415   2.152   0.939
 6907SOL    HW121620   4.442   2.205   0.859
 6907SOL    HW221621   4.338   2.093   0.916
 6908SOL     OW21622   1.021   0.002   5.177
 6908SOL    HW121623   0.997   6.924   5.165
 6908SOL    HW221624   1.010   0.027   5.273
 6909SOL     OW21625   4.906   4.934   1.293
 6909SOL    HW121626   4.905   4.835   1.306
 6909SOL    HW221627   4.813   4.965   1.276
 6910SOL     OW21628   6.684   2.352   2.738
 6910SOL    HW121629   6.755   2.290   2.770
 6910SOL    HW221630   6.716   2.401   2.657
 6911SOL     OW21631   3.692   0.788   3.247
 6911SOL    HW121632   3.649   0.833   3.168
 6911SOL    HW221633   3.627   0.787   3.323
 6912SOL     OW21634   5.087   4.920   1.703
 6912SOL    HW121635   5.185   4.907   1.690
 6912SOL    HW221636   5.056   5.000   1.652
 6913SOL     OW21637   5.188   4.193   5.466
 6913SOL    HW121638   5.244   4.160   5.543
 6913SOL    HW221639   5.094   4.160   5.477
 6914SOL     OW21640   5.944   5.210   0.089
 6914SOL    HW121641   5.904   5.119   0.080
 6914SOL    HW221642   6.026   5.205   0.146
 6915SOL     OW21643   0.156   4.690   1.586
 6915SOL    HW121644   0.132   4.722   1.494
 6915SOL    HW221645   0.091   4.620   1.615
 6916SOL     OW21646   6.264   3.711   6.924
 6916SOL    HW121647   6.249   3.663   7.011
 6916SOL    HW221648   6.282   3.807   6.941
 6917SOL     OW21649   3.987   5.080   0.060
 6917SOL    HW121650   4.031   5.157   0.013
 6917SOL    HW221651   3.935   5.113   0.138
 6918SOL     OW21652   0.341   4.278   4.481
 6918SOL    HW121653   0.358   4.355   4.420
 6918SOL    HW221654   0.374   4.300   4.573
 6919SOL     OW21655   1.370   5.620   2.394
 6919SOL    HW121656   1.381   5.536   2.342
 6919SOL    HW221657   1.411   5.696   2.344
 6920SOL     OW21658   4.920   5.122   5.568
 6920SOL    HW121659   4.981   5.051   5.535
 6920SOL    HW221660   4.857   5.083   5.635
 6921SOL     OW21661   5.013   5.927   3.321
 6921SOL    HW121662   4.992   5.918   3.224
 6921SOL    HW221663   5.079   6.001   3.335
 6922SOL     OW21664   1.510   5.626   6.944
 6922SOL    HW121665   1.544   5.557   6.880
 6922SOL    HW221666   1.511   5.716   6.900
 6923SOL     OW21667   5.581   6.676   3.635
 6923SOL    HW121668   5.653   6.606   3.628
 6923SOL    HW221669   5.617   6.756   3.682
 6924SOL     OW21670   1.018   4.193   6.795
 6924SOL    HW121671   1.091   4.236   6.848
 6924SOL    HW221672   0.940   4.174   6.854
 6925SOL     OW21673   4.302   5.952   4.145
 6925SOL    HW121674   4.235   5.902   4.089
 6925SOL    HW221675   4.255   6.024   4.196
 6926SOL     OW21676   3.396   3.226   2.707
 6926SOL    HW121677   3.428   3.320   2.713
 6926SOL    HW221678   3.319   3.221   2.643
 6927SOL     OW21679   6.202   2.888   6.728
 6927SOL    HW121680   6.120   2.851   6.771
 6927SOL    HW221681   6.183   2.911   6.632
 6928SOL     OW21682   5.626   6.868   0.804
 6928SOL    HW121683   5.567   6.934   0.759
 6928SOL    HW221684   5.715   6.910   0.824
 6929SOL     OW21685   4.862   5.404   0.332
 6929SOL    HW121686   4.772   5.445   0.347
 6929SOL    HW221687   4.879   5.335   0.402
 6930SOL     OW21688   0.214   6.795   1.680
 6930SOL    HW121689   0.121   6.771   1.650
 6930SOL    HW221690   0.209   6.874   1.742
 6931SOL     OW21691   1.058   0.809   1.835
 6931SOL    HW121692   1.049   0.902   1.870
 6931SOL    HW221693   0.969   0.764   1.835
 6932SOL     OW21694   3.717   1.155   0.143
 6932SOL    HW121695   3.806   1.191   0.172
 6932SOL    HW221696   3.682   1.092   0.213
 6933SOL     OW21697   3.426   6.245   4.739
 6933SOL    HW121698   3.382   6.333   4.756
 6933SOL    HW221699   3.459   6.241   4.645
 6934SOL     OW21700   5.002   4.057   5.840
 6934SOL    HW121701   4.984   4.071   5.742
 6934SOL    HW221702   5.087   4.103   5.864
 6935SOL     OW21703   4.152   6.607   3.128
 6935SOL    HW121704   4.072   6.634   3.181
 6935SOL    HW221705   4.232   6.602   3.188
 6936SOL     OW21706   6.526   2.386   2.487
 6936SOL    HW121707   6.572   2.451   2.427
 6936SOL    HW221708   6.487   2.312   2.433
 6937SOL     OW21709   6.183   6.612   0.060
 6937SOL    HW121710   6.145   6.663   0.136
 6937SOL    HW221711   6.166   6.661   6.993
 6938SOL     OW21712   4.950   3.743   5.514
 6938SOL    HW121713   4.940   3.686   5.596
 6938SOL    HW221714   4.869   3.733   5.457
 6939SOL     OW21715   0.457   4.725   2.850
 6939SOL    HW121716   0.469   4.627   2.863
 6939SOL    HW221717   0.417   4.764   2.933
 6940SOL     OW21718   4.776   0.918   0.429
 6940SOL    HW121719   4.704   0.982   0.457
 6940SOL    HW221720   4.857   0.969   0.400
 6941SOL     OW21721   4.028   3.097   2.504
 6941SOL    HW121722   3.959   3.045   2.554
 6941SOL    HW221723   4.112   3.044   2.497
 6942SOL     OW21724   6.673   2.821   1.175
 6942SOL    HW121725   6.690   2.919   1.183
 6942SOL    HW221726   6.743   2.780   1.117
 6943SOL     OW21727   4.997   6.183   6.951
 6943SOL    HW121728   4.983   6.276   6.986
 6943SOL    HW221729   4.908   6.143   6.927
 6944SOL     OW21730   1.498   4.494   5.538
 6944SOL    HW121731   1.529   4.412   5.586
 6944SOL    HW221732   1.566   4.520   5.469
 6945SOL     OW21733   5.946   2.742   6.831
 6945SOL    HW121734   5.886   2.692   6.769
 6945SOL    HW221735   5.892   2.784   6.904
 6946SOL     OW21736   6.089   5.478   2.349
 6946SOL    HW121737   6.054   5.558   2.398
 6946SOL    HW221738   6.051   5.395   2.389
 6947SOL     OW21739   3.629   6.862   4.855
 6947SOL    HW121740   3.538   6.880   4.894
 6947SOL    HW221741   3.694   6.929   4.891
 6948SOL     OW21742   5.946   0.424   0.495
 6948SOL    HW121743   5.926   0.430   0.593
 6948SOL    HW221744   5.981   0.512   0.463
 6949SOL     OW21745   5.343   6.686   3.792
 6949SOL    HW121746   5.362   6.620   3.865
 6949SOL    HW221747   5.419   6.685   3.727
 6950SOL     OW21748   2.452   6.904   3.128
 6950SOL    HW121749   2.519   6.942   3.065
 6950SOL    HW221750   2.471   6.937   3.220
 6951SOL     OW21751   6.207   6.376   5.891
 6951SOL    HW121752   6.235   6.373   5.986
 6951SOL    HW221753   6.255   6.305   5.839
 6952SOL     OW21754   0.400   5.691   3.344
 6952SOL    HW121755   0.307   5.716   3.372
 6952SOL    HW221756   0.396   5.621   3.273
 6953SOL     OW21757   4.850   0.107   6.448
 6953SOL    HW121758   4.933   0.135   6.400
 6953SOL    HW221759   4.855   0.135   6.544
 6954SOL     OW21760   0.835   4.018   4.475
 6954SOL    HW121761   0.920   4.058   4.440
 6954SOL    HW221762   0.857   3.948   4.542
 6955SOL     OW21763   6.680   0.305   2.110
 6955SOL    HW121764   6.721   0.288   2.020
 6955SOL    HW221765   6.722   0.245   2.178
 6956SOL     OW21766   4.169   6.305   2.888
 6956SOL    HW121767   4.206   6.397   2.880
 6956SOL    HW221768   4.220   6.243   2.828
 6957SOL     OW21769   6.848   4.882   1.573
 6957SOL    HW121770   6.751   4.870   1.594
 6957SOL    HW221771   6.873   4.821   1.498
 6958SOL     OW21772   2.988   3.729   5.446
 6958SOL    HW121773   2.985   3.766   5.354
 6958SOL    HW221774   3.057   3.656   5.450
 6959SOL     OW21775   2.022   1.161   4.958
 6959SOL    HW121776   2.003   1.259   4.957
 6959SOL    HW221777   1.949   1.113   5.008
 6960SOL     OW21778   0.754   5.141   0.306
 6960SOL    HW121779   0.722   5.088   0.384
 6960SOL    HW221780   0.718   5.234   0.311
 6961SOL     OW21781   0.216   2.525   4.067
 6961SOL    HW121782   0.151   2.513   4.142
 6961SOL    HW221783   0.308   2.542   4.104
 6962SOL     OW21784   5.120   5.271   2.575
 6962SOL    HW121785   5.178   5.193   2.549
 6962SOL    HW221786   5.177   5.352   2.586
 6963SOL     OW21787   0.624   5.637   0.267
 6963SOL    HW121788   0.586   5.545   0.275
 6963SOL    HW221789   0.632   5.678   0.357
 6964SOL     OW21790   5.164   4.904   4.530
 6964SOL    HW121791   5.224   4.828   4.552
 6964SOL    HW221792   5.074   4.869   4.504
 6965SOL     OW21793   0.634   3.501   6.147
 6965SOL    HW121794   0.541   3.495   6.109
 6965SOL    HW221795   0.676   3.410   6.147
 6966SOL     OW21796   6.042   2.743   2.826
 6966SOL    HW121797   6.021   2.803   2.903
 6966SOL    HW221798   6.140   2.750   2.805
 6967SOL     OW21799   1.472   1.717   5.775
 6967SOL    HW121800   1.478   1.785   5.848
 6967SOL    HW221801   1.513   1.631   5.806
 6968SOL     OW21802   3.775   6.275   2.477
 6968SOL    HW121803   3.815   6.270   2.569
 6968SOL    HW221804   3.701   6.207   2.469
 6969SOL     OW21805   3.685   2.073   1.530
 6969SOL    HW121806   3.617   2.030   1.470
 6969SOL    HW221807   3.742   2.135   1.477
 6970SOL     OW21808   4.459   3.730   0.384
 6970SOL    HW121809   4.554   3.722   0.357
 6970SOL    HW221810   4.451   3.717   0.483
 6971SOL     OW21811   6.511   3.817   2.227
 6971SOL    HW121812   6.595   3.850   2.271
 6971SOL    HW221813   6.471   3.744   2.283
 6972SOL     OW21814   5.992   5.256   4.008
 6972SOL    HW121815   6.013   5.180   3.946
 6972SOL    HW221816   5.902   5.241   4.049
 6973SOL     OW21817   1.294   4.058   4.910
 6973SOL    HW121818   1.353   3.980   4.929
 6973SOL    HW221819   1.199   4.028   4.904
 6974SOL     OW21820   3.386   2.944   3.099
 6974SOL    HW121821   3.305   2.944   3.157
 6974SOL    HW221822   3.467   2.928   3.155
 6975SOL     OW21823   3.083   6.788   5.910
 6975SOL    HW121824   3.165   6.817   5.959
 6975SOL    HW221825   3.002   6.825   5.957
 6976SOL     OW21826   3.920   4.392   6.186
 6976SOL    HW121827   3.880   4.451   6.116
 6976SOL    HW221828   4.015   4.417   6.202
 6977SOL     OW21829   5.025   2.385   1.787
 6977SOL    HW121830   5.000   2.475   1.823
 6977SOL    HW221831   4.982   2.371   1.698
 6978SOL     OW21832   6.380   1.930   1.089
 6978SOL    HW121833   6.287   1.936   1.053
 6978SOL    HW221834   6.387   1.850   1.149
 6979SOL     OW21835   0.974   4.958   1.216
 6979SOL    HW121836   1.061   4.983   1.259
 6979SOL    HW221837   0.906   5.027   1.237
 6980SOL     OW21838   1.729   0.130   3.972
 6980SOL    HW121839   1.740   0.219   4.014
 6980SOL    HW221840   1.796   0.066   4.010
 6981SOL     OW21841   2.207   2.812   6.865
 6981SOL    HW121842   2.224   2.819   6.963
 6981SOL    HW221843   2.210   2.716   6.838
 6982SOL     OW21844   1.394   1.687   3.829
 6982SOL    HW121845   1.361   1.767   3.879
 6982SOL    HW221846   1.357   1.604   3.870
 6983SOL     OW21847   5.987   2.491   3.308
 6983SOL    HW121848   6.065   2.501   3.246
 6983SOL    HW221849   5.929   2.416   3.275
 6984SOL     OW21850   2.450   2.111   4.862
 6984SOL    HW121851   2.451   2.065   4.951
 6984SOL    HW221852   2.386   2.188   4.866
 6985SOL     OW21853   3.699   5.161   2.447
 6985SOL    HW121854   3.754   5.176   2.366
 6985SOL    HW221855   3.606   5.134   2.420
 6986SOL     OW21856   1.366   6.423   6.408
 6986SOL    HW121857   1.402   6.502   6.358
 6986SOL    HW221858   1.359   6.444   6.505
 6987SOL     OW21859   0.963   2.093   6.382
 6987SOL    HW121860   1.044   2.036   6.365
 6987SOL    HW221861   0.951   2.103   6.481
 6988SOL     OW21862   6.177   0.887   5.444
 6988SOL    HW121863   6.199   0.984   5.432
 6988SOL    HW221864   6.186   0.862   5.540
 6989SOL     OW21865   0.597   3.070   4.017
 6989SOL    HW121866   0.627   3.165   4.020
 6989SOL    HW221867   0.620   3.030   3.928
 6990SOL     OW21868   4.939   1.922   0.341
 6990SOL    HW121869   4.869   1.850   0.336
 6990SOL    HW221870   5.029   1.880   0.354
 6991SOL     OW21871   2.484   4.470   3.829
 6991SOL    HW121872   2.582   4.484   3.844
 6991SOL    HW221873   2.442   4.558   3.806
 6992SOL     OW21874   6.385   6.294   4.635
 6992SOL    HW121875   6.417   6.202   4.612
 6992SOL    HW221876   6.420   6.319   4.726
 6993SOL     OW21877   6.461   0.254   2.476
 6993SOL    HW121878   6.450   0.319   2.402
 6993SOL    HW221879   6.374   0.208   2.494
 6994SOL     OW21880   0.902   3.166   5.013
 6994SOL    HW121881   0.939   3.122   4.931
 6994SOL    HW221882   0.952   3.134   5.093
 6995SOL     OW21883   6.193   5.747   5.239
 6995SOL    HW121884   6.253   5.784   5.169
 6995SOL    HW221885   6.117   5.810   5.256
 6996SOL     OW21886   1.795   1.057   5.131
 6996SOL    HW121887   1.782   0.968   5.175
 6996SOL    HW221888   1.818   1.125   5.200
 6997SOL     OW21889   5.267   6.187   5.070
 6997SOL    HW121890   5.199   6.257   5.049
 6997SOL    HW221891   5.340   6.189   5.001
 6998SOL     OW21892   1.757   2.114   1.620
 6998SOL    HW121893   1.725   2.040   1.679
 6998SOL    HW221894   1.839   2.084   1.571
 6999SOL     OW21895   2.365   2.270   6.792
 6999SOL    HW121896   2.335   2.254   6.698
 6999SOL    HW221897   2.463   2.290   6.792
 7000SOL     OW21898   6.966   5.784   2.680
 7000SOL    HW121899   6.978   5.806   2.777
 7000SOL    HW221900   6.868   5.775   2.660
 7001SOL     OW21901   2.548   3.115   5.655
 7001SOL    HW121902   2.587   3.197   5.698
 7001SOL    HW221903   2.582   3.108   5.561
 7002SOL     OW21904   2.346   4.504   2.860
 7002SOL    HW121905   2.352   4.430   2.793
 7002SOL    HW221906   2.255   4.546   2.855
 7003SOL     OW21907   3.764   6.376   0.161
 7003SOL    HW121908   3.783   6.464   0.205
 7003SOL    HW221909   3.839   6.313   0.179
 7004SOL     OW21910   2.196   5.008   1.593
 7004SOL    HW121911   2.127   5.075   1.565
 7004SOL    HW221912   2.283   5.055   1.610
 7005SOL     OW21913   0.617   6.366   5.903
 7005SOL    HW121914   0.656   6.343   5.992
 7005SOL    HW221915   0.683   6.344   5.831
 7006SOL     OW21916   6.188   5.322   4.502
 7006SOL    HW121917   6.188   5.333   4.403
 7006SOL    HW221918   6.137   5.397   4.544
 7007SOL     OW21919   4.805   6.929   3.233
 7007SOL    HW121920   4.829   6.903   3.327
 7007SOL    HW221921   4.861   7.008   3.206
 7008SOL     OW21922   1.958   5.483   4.600
 7008SOL    HW121923   1.900   5.405   4.575
 7008SOL    HW221924   2.043   5.480   4.548
 7009SOL     OW21925   5.717   5.362   2.333
 7009SOL    HW121926   5.812   5.344   2.360
 7009SOL    HW221927   5.703   5.335   2.238
 7010SOL     OW21928   4.184   3.490   5.916
 7010SOL    HW121929   4.283   3.477   5.909
 7010SOL    HW221930   4.162   3.523   6.008
 7011SOL     OW21931   1.947   0.590   6.517
 7011SOL    HW121932   1.880   0.653   6.556
 7011SOL    HW221933   2.012   0.641   6.460
 7012SOL     OW21934   2.502   1.128   2.399
 7012SOL    HW121935   2.420   1.173   2.433
 7012SOL    HW221936   2.583   1.173   2.437
 7013SOL     OW21937   0.081   6.415   1.147
 7013SOL    HW121938   0.068   6.380   1.054
 7013SOL    HW221939   0.144   6.356   1.197
 7014SOL     OW21940   4.910   3.180   1.292
 7014SOL    HW121941   4.918   3.081   1.297
 7014SOL    HW221942   4.902   3.217   1.385
 7015SOL     OW21943   5.629   4.649   2.223
 7015SOL    HW121944   5.574   4.565   2.220
 7015SOL    HW221945   5.612   4.702   2.140
 7016SOL     OW21946   3.680   4.864   2.353
 7016SOL    HW121947   3.661   4.931   2.281
 7016SOL    HW221948   3.644   4.775   2.326
 7017SOL     OW21949   2.227   0.163   2.022
 7017SOL    HW121950   2.182   0.193   1.938
 7017SOL    HW221951   2.299   0.228   2.047
 7018SOL     OW21952   6.605   4.199   5.112
 7018SOL    HW121953   6.617   4.278   5.172
 7018SOL    HW221954   6.672   4.203   5.037
 7019SOL     OW21955   2.857   4.489   6.588
 7019SOL    HW121956   2.893   4.466   6.678
 7019SOL    HW221957   2.763   4.455   6.579
 7020SOL     OW21958   6.353   6.772   6.445
 7020SOL    HW121959   6.369   6.812   6.354
 7020SOL    HW221960   6.359   6.843   6.514
 7021SOL     OW21961   2.141   1.341   5.221
 7021SOL    HW121962   2.057   1.359   5.170
 7021SOL    HW221963   2.171   1.425   5.267
 7022SOL     OW21964   4.505   4.789   1.019
 7022SOL    HW121965   4.527   4.716   0.954
 7022SOL    HW221966   4.417   4.770   1.061
 7023SOL     OW21967   0.534   1.957   3.404
 7023SOL    HW121968   0.541   2.027   3.474
 7023SOL    HW221969   0.505   1.871   3.446
 7024SOL     OW21970   1.422   5.327   5.619
 7024SOL    HW121971   1.420   5.426   5.608
 7024SOL    HW221972   1.389   5.303   5.710
 7025SOL     OW21973   3.210   0.954   0.037
 7025SOL    HW121974   3.161   1.015   0.100
 7025SOL    HW221975   3.258   1.009   6.987
 7026SOL     OW21976   2.834   1.541   1.990
 7026SOL    HW121977   2.814   1.578   2.080
 7026SOL    HW221978   2.803   1.606   1.920
 7027SOL     OW21979   2.722   5.118   2.795
 7027SOL    HW121980   2.771   5.121   2.708
 7027SOL    HW221981   2.734   5.205   2.843
 7028SOL     OW21982   6.123   6.897   4.306
 7028SOL    HW121983   6.169   6.980   4.274
 7028SOL    HW221984   6.096   6.841   4.228
 7029SOL     OW21985   4.062   6.619   0.036
 7029SOL    HW121986   4.089   6.689   6.989
 7029SOL    HW221987   4.019   6.662   0.115
 7030SOL     OW21988   6.276   2.482   5.652
 7030SOL    HW121989   6.236   2.449   5.737
 7030SOL    HW221990   6.356   2.538   5.672
 7031SOL     OW21991   2.297   5.783   3.747
 7031SOL    HW121992   2.382   5.804   3.796
 7031SOL    HW221993   2.295   5.835   3.661
 7032SOL     OW21994   3.378   6.903   3.940
 7032SOL    HW121995   3.323   6.984   3.961
 7032SOL    HW221996   3.409   6.861   4.025
 7033SOL     OW21997   6.801   1.564   3.300
 7033SOL    HW121998   6.708   1.558   3.264
 7033SOL    HW221999   6.810   1.503   3.378
 7034SOL     OW22000   6.143   0.422   2.821
 7034SOL    HW122001   6.227   0.431   2.873
 7034SOL    HW222002   6.065   0.420   2.884
 7035SOL     OW22003   1.520   6.728   2.146
 7035SOL    HW122004   1.586   6.794   2.184
 7035SOL    HW222005   1.491   6.665   2.218
 7036SOL     OW22006   6.926   0.441   1.830
 7036SOL    HW122007   0.003   0.470   1.840
 7036SOL    HW222008   6.866   0.511   1.869
 7037SOL     OW22009   1.007   0.354   6.208
 7037SOL    HW122010   1.054   0.291   6.147
 7037SOL    HW222011   1.072   0.393   6.273
 7038SOL     OW22012   1.591   3.629   4.198
 7038SOL    HW122013   1.659   3.642   4.269
 7038SOL    HW222014   1.612   3.689   4.120
 7039SOL     OW22015   2.993   5.604   0.883
 7039SOL    HW122016   3.019   5.684   0.937
 7039SOL    HW222017   2.922   5.630   0.817
 7040SOL     OW22018   5.435   2.038   5.161
 7040SOL    HW122019   5.434   2.003   5.067
 7040SOL    HW222020   5.473   1.969   5.222
 7041SOL     OW22021   0.812   1.780   3.071
 7041SOL    HW122022   0.823   1.773   2.972
 7041SOL    HW222023   0.717   1.801   3.092
 7042SOL     OW22024   5.419   5.348   6.554
 7042SOL    HW122025   5.433   5.413   6.629
 7042SOL    HW222026   5.494   5.281   6.554
 7043SOL     OW22027   2.472   2.594   3.513
 7043SOL    HW122028   2.414   2.663   3.470
 7043SOL    HW222029   2.482   2.516   3.451
 7044SOL     OW22030   4.748   4.746   3.248
 7044SOL    HW122031   4.805   4.828   3.246
 7044SOL    HW222032   4.807   4.665   3.250
 7045SOL     OW22033   5.154   5.682   2.115
 7045SOL    HW122034   5.204   5.728   2.041
 7045SOL    HW222035   5.075   5.635   2.076
 7046SOL     OW22036   3.738   2.137   3.486
 7046SOL    HW122037   3.690   2.107   3.569
 7046SOL    HW222038   3.674   2.184   3.425
 7047SOL     OW22039   1.087   2.426   3.049
 7047SOL    HW122040   1.020   2.359   3.018
 7047SOL    HW222041   1.078   2.440   3.148
 7048SOL     OW22042   0.088   5.415   1.802
 7048SOL    HW122043   0.003   5.365   1.784
 7048SOL    HW222044   0.069   5.490   1.866
 7049SOL     OW22045   2.473   1.429   0.825
 7049SOL    HW122046   2.438   1.496   0.760
 7049SOL    HW222047   2.540   1.472   0.885
 7050SOL     OW22048   3.849   4.027   3.243
 7050SOL    HW122049   3.852   3.933   3.277
 7050SOL    HW222050   3.917   4.082   3.291
 7051SOL     OW22051   0.231   1.018   0.809
 7051SOL    HW122052   0.137   0.984   0.804
 7051SOL    HW222053   0.235   1.095   0.873
 7052SOL     OW22054   6.188   2.589   3.846
 7052SOL    HW122055   6.188   2.614   3.943
 7052SOL    HW222056   6.096   2.599   3.809
 7053SOL     OW22057   0.941   3.439   5.000
 7053SOL    HW122058   0.990   3.469   5.082
 7053SOL    HW222059   0.939   3.339   4.996
 7054SOL     OW22060   1.106   5.906   1.675
 7054SOL    HW122061   1.124   5.812   1.643
 7054SOL    HW222062   1.114   5.969   1.598
 7055SOL     OW22063   3.667   6.265   5.384
 7055SOL    HW122064   3.679   6.363   5.372
 7055SOL    HW222065   3.700   6.237   5.474
 7056SOL     OW22066   5.508   5.805   2.766
 7056SOL    HW122067   5.449   5.827   2.688
 7056SOL    HW222068   5.508   5.882   2.830
 7057SOL     OW22069   1.432   5.052   3.876
 7057SOL    HW122070   1.430   5.004   3.964
 7057SOL    HW222071   1.515   5.107   3.870
 7058SOL     OW22072   6.043   5.414   6.346
 7058SOL    HW122073   6.011   5.382   6.435
 7058SOL    HW222074   6.141   5.397   6.338
 7059SOL     OW22075   0.048   0.569   3.043
 7059SOL    HW122076   7.010   0.587   3.124
 7059SOL    HW222077   0.092   0.480   3.053
 7060SOL     OW22078   3.483   6.953   1.757
 7060SOL    HW122079   3.453   6.915   1.844
 7060SOL    HW222080   3.582   6.942   1.748
 7061SOL     OW22081   0.449   2.574   3.850
 7061SOL    HW122082   0.443   2.478   3.877
 7061SOL    HW222083   0.476   2.629   3.928
 7062SOL     OW22084   5.387   1.185   6.319
 7062SOL    HW122085   5.377   1.093   6.282
 7062SOL    HW222086   5.462   1.232   6.271
 7063SOL     OW22087   0.192   0.259   1.092
 7063SOL    HW122088   0.281   0.237   1.053
 7063SOL    HW222089   0.203   0.283   1.189
 7064SOL     OW22090   4.185   2.145   2.107
 7064SOL    HW122091   4.111   2.164   2.043
 7064SOL    HW222092   4.168   2.193   2.193
 7065SOL     OW22093   4.335   3.554   0.109
 7065SOL    HW122094   4.379   3.642   0.089
 7065SOL    HW222095   4.314   3.507   0.023
 7066SOL     OW22096   4.450   0.309   0.642
 7066SOL    HW122097   4.358   0.347   0.637
 7066SOL    HW222098   4.470   0.260   0.557
 7067SOL     OW22099   1.667   1.985   5.615
 7067SOL    HW122100   1.611   2.036   5.550
 7067SOL    HW222101   1.644   2.015   5.708
 7068SOL     OW22102   0.699   4.188   4.150
 7068SOL    HW122103   0.690   4.269   4.092
 7068SOL    HW222104   0.742   4.214   4.236
 7069SOL     OW22105   5.763   2.610   4.100
 7069SOL    HW122106   5.856   2.598   4.065
 7069SOL    HW222107   5.728   2.522   4.131
 7070SOL     OW22108   6.982   6.360   4.921
 7070SOL    HW122109   6.985   6.260   4.914
 7070SOL    HW222110   0.054   6.397   4.903
 7071SOL     OW22111   1.091   6.433   5.954
 7071SOL    HW122112   1.128   6.513   6.003
 7071SOL    HW222113   1.131   6.429   5.862
 7072SOL     OW22114   0.346   6.254   5.955
 7072SOL    HW122115   0.368   6.347   5.983
 7072SOL    HW222116   0.348   6.194   6.035
 7073SOL     OW22117   5.822   0.316   4.638
 7073SOL    HW122118   5.907   0.361   4.664
 7073SOL    HW222119   5.746   0.357   4.691
 7074SOL     OW22120   3.939   2.793   1.608
 7074SOL    HW122121   3.884   2.802   1.691
 7074SOL    HW222122   3.883   2.815   1.528
 7075SOL     OW22123   1.058   5.702   5.624
 7075SOL    HW122124   1.063   5.650   5.709
 7075SOL    HW222125   1.089   5.645   5.548
 7076SOL     OW22126   4.080   2.307   0.100
 7076SOL    HW122127   4.066   2.282   0.196
 7076SOL    HW222128   4.130   2.234   0.054
 7077SOL     OW22129   2.177   4.468   5.236
 7077SOL    HW122130   2.240   4.391   5.237
 7077SOL    HW222131   2.110   4.455   5.163
 7078SOL     OW22132   6.306   0.520   1.665
 7078SOL    HW122133   6.343   0.452   1.602
 7078SOL    HW222134   6.377   0.587   1.687
 7079SOL     OW22135   6.648   6.633   5.099
 7079SOL    HW122136   6.650   6.693   5.019
 7079SOL    HW222137   6.739   6.594   5.113
 7080SOL     OW22138   3.411   2.055   4.074
 7080SOL    HW122139   3.352   2.112   4.017
 7080SOL    HW222140   3.378   2.055   4.168
 7081SOL     OW22141   3.148   0.652   6.558
 7081SOL    HW122142   3.133   0.567   6.608
 7081SOL    HW222143   3.080   0.719   6.585
 7082SOL     OW22144   5.870   4.711   6.704
 7082SOL    HW122145   5.779   4.671   6.714
 7082SOL    HW222146   5.866   4.790   6.643
 7083SOL     OW22147   3.396   0.496   6.890
 7083SOL    HW122148   3.386   0.521   6.794
 7083SOL    HW222149   3.374   0.575   6.947
 7084SOL     OW22150   0.295   6.776   5.917
 7084SOL    HW122151   0.205   6.806   5.885
 7084SOL    HW222152   0.310   6.807   6.011
 7085SOL     OW22153   1.964   1.921   2.505
 7085SOL    HW122154   1.905   1.922   2.586
 7085SOL    HW222155   1.972   1.828   2.470
 7086SOL     OW22156   4.760   0.627   5.640
 7086SOL    HW122157   4.814   0.632   5.556
 7086SOL    HW222158   4.665   0.606   5.618
 7087SOL     OW22159   5.978   4.319   3.877
 7087SOL    HW122160   5.984   4.417   3.891
 7087SOL    HW222161   5.904   4.298   3.813
 7088SOL     OW22162   5.269   2.436   3.195
 7088SOL    HW122163   5.173   2.419   3.172
 7088SOL    HW222164   5.280   2.530   3.225
 7089SOL     OW22165   3.564   1.968   5.543
 7089SOL    HW122166   3.495   2.018   5.596
 7089SOL    HW222167   3.633   2.032   5.509
 7090SOL     OW22168   2.188   1.548   6.610
 7090SOL    HW122169   2.137   1.464   6.595
 7090SOL    HW222170   2.125   1.619   6.643
 7091SOL     OW22171   6.968   2.278   6.991
 7091SOL    HW122172   0.017   2.209   0.002
 7091SOL    HW222173   6.898   2.234   6.936
 7092SOL     OW22174   4.607   2.607   6.195
 7092SOL    HW122175   4.703   2.587   6.215
 7092SOL    HW222176   4.560   2.632   6.279
 7093SOL     OW22177   3.042   3.772   3.166
 7093SOL    HW122178   3.009   3.768   3.072
 7093SOL    HW222179   3.042   3.867   3.198
 7094SOL     OW22180   0.678   5.480   6.105
 7094SOL    HW122181   0.680   5.557   6.168
 7094SOL    HW222182   0.582   5.454   6.088
 7095SOL     OW22183   3.713   2.880   6.194
 7095SOL    HW122184   3.639   2.814   6.179
 7095SOL    HW222185   3.777   2.842   6.261
 7096SOL     OW22186   6.510   0.303   3.990
 7096SOL    HW122187   6.532   0.399   4.011
 7096SOL    HW222188   6.412   0.289   4.003
 7097SOL     OW22189   5.770   1.075   1.436
 7097SOL    HW122190   5.862   1.115   1.431
 7097SOL    HW222191   5.703   1.142   1.407
 7098SOL     OW22192   0.692   0.491   3.848
 7098SOL    HW122193   0.592   0.489   3.849
 7098SOL    HW222194   0.728   0.448   3.931
 7099SOL     OW22195   2.955   0.808   5.281
 7099SOL    HW122196   2.947   0.764   5.192
 7099SOL    HW222197   2.931   0.742   5.353
 7100SOL     OW22198   5.681   3.124   1.105
 7100SOL    HW122199   5.581   3.120   1.109
 7100SOL    HW222200   5.719   3.039   1.138
 7101SOL     OW22201   1.829   0.264   4.844
 7101SOL    HW122202   1.778   0.266   4.757
 7101SOL    HW222203   1.819   0.174   4.886
 7102SOL     OW22204   4.697   0.858   0.717
 7102SOL    HW122205   4.752   0.834   0.637
 7102SOL    HW222206   4.618   0.798   0.723
 7103SOL     OW22207   4.254   5.204   1.165
 7103SOL    HW122208   4.166   5.195   1.117
 7103SOL    HW222209   4.321   5.142   1.124
 7104SOL     OW22210   1.182   3.689   4.905
 7104SOL    HW122211   1.151   3.777   4.940
 7104SOL    HW222212   1.192   3.624   4.980
 7105SOL     OW22213   2.833   2.525   5.430
 7105SOL    HW122214   2.773   2.468   5.487
 7105SOL    HW222215   2.874   2.468   5.359
 7106SOL     OW22216   2.850   3.447   2.431
 7106SOL    HW122217   2.759   3.443   2.390
 7106SOL    HW222218   2.918   3.421   2.363
 7107SOL     OW22219   3.689   0.745   0.455
 7107SOL    HW122220   3.723   0.652   0.469
 7107SOL    HW222221   3.766   0.808   0.446
 7108SOL     OW22222   4.162   6.324   2.573
 7108SOL    HW122223   4.169   6.238   2.623
 7108SOL    HW222224   4.131   6.306   2.480
 7109SOL     OW22225   3.738   6.837   6.211
 7109SOL    HW122226   3.805   6.864   6.280
 7109SOL    HW222227   3.756   6.744   6.181
 7110SOL     OW22228   3.973   6.199   3.689
 7110SOL    HW122229   3.932   6.219   3.600
 7110SOL    HW222230   4.055   6.143   3.676
 7111SOL     OW22231   2.457   1.963   4.630
 7111SOL    HW122232   2.469   2.015   4.715
 7111SOL    HW222233   2.391   1.890   4.645
 7112SOL     OW22234   2.494   5.871   3.890
 7112SOL    HW122235   2.507   5.970   3.885
 7112SOL    HW222236   2.583   5.825   3.885
 7113SOL     OW22237   3.005   3.688   4.601
 7113SOL    HW122238   3.004   3.786   4.582
 7113SOL    HW222239   3.092   3.662   4.643
 7114SOL     OW22240   3.834   6.451   1.281
 7114SOL    HW122241   3.779   6.510   1.222
 7114SOL    HW222242   3.910   6.414   1.229
 7115SOL     OW22243   5.217   3.299   2.267
 7115SOL    HW122244   5.125   3.294   2.230
 7115SOL    HW222245   5.277   3.237   2.216
 7116SOL     OW22246   5.181   3.805   3.600
 7116SOL    HW122247   5.280   3.795   3.583
 7116SOL    HW222248   5.130   3.757   3.529
 7117SOL     OW22249   0.201   6.281   4.588
 7117SOL    HW122250   0.175   6.376   4.602
 7117SOL    HW222251   0.295   6.267   4.619
 7118SOL     OW22252   2.708   4.160   0.621
 7118SOL    HW122253   2.698   4.257   0.599
 7118SOL    HW222254   2.743   4.111   0.541
 7119SOL     OW22255   5.164   1.618   3.132
 7119SOL    HW122256   5.151   1.525   3.097
 7119SOL    HW222257   5.160   1.682   3.055
 7120SOL     OW22258   4.228   1.840   2.421
 7120SOL    HW122259   4.168   1.862   2.497
 7120SOL    HW222260   4.178   1.850   2.335
 7121SOL     OW22261   2.717   0.182   2.379
 7121SOL    HW122262   2.807   0.174   2.422
 7121SOL    HW222263   2.670   0.263   2.414
 7122SOL     OW22264   0.089   0.840   5.600
 7122SOL    HW122265   0.056   0.899   5.526
 7122SOL    HW222266   0.011   0.792   5.641
 7123SOL     OW22267   2.434   4.920   1.965
 7123SOL    HW122268   2.359   4.885   2.021
 7123SOL    HW222269   2.449   5.017   1.985
 7124SOL     OW22270   0.275   2.857   0.718
 7124SOL    HW122271   0.372   2.833   0.714
 7124SOL    HW222272   0.266   2.955   0.737
 7125SOL     OW22273   6.459   6.539   1.139
 7125SOL    HW122274   6.501   6.594   1.067
 7125SOL    HW222275   6.442   6.446   1.105
 7126SOL     OW22276   3.314   4.671   0.409
 7126SOL    HW122277   3.401   4.628   0.430
 7126SOL    HW222278   3.288   4.733   0.483
 7127SOL     OW22279   2.495   6.055   4.400
 7127SOL    HW122280   2.506   6.109   4.484
 7127SOL    HW222281   2.413   5.999   4.407
 7128SOL     OW22282   2.518   5.588   0.360
 7128SOL    HW122283   2.596   5.600   0.421
 7128SOL    HW222284   2.546   5.538   0.278
 7129SOL     OW22285   3.057   0.278   0.534
 7129SOL    HW122286   3.141   0.330   0.518
 7129SOL    HW222287   3.053   0.202   0.469
 7130SOL     OW22288   3.407   4.480   5.290
 7130SOL    HW122289   3.390   4.395   5.239
 7130SOL    HW222290   3.459   4.459   5.373
 7131SOL     OW22291   2.786   1.548   0.325
 7131SOL    HW122292   2.803   1.646   0.316
 7131SOL    HW222293   2.708   1.533   0.385
 7132SOL     OW22294   3.374   3.765   0.468
 7132SOL    HW122295   3.344   3.730   0.557
 7132SOL    HW222296   3.322   3.720   0.396
 7133SOL     OW22297   4.796   5.553   4.216
 7133SOL    HW122298   4.847   5.467   4.207
 7133SOL    HW222299   4.802   5.585   4.310
 7134SOL     OW22300   5.908   6.194   2.063
 7134SOL    HW122301   5.874   6.278   2.021
 7134SOL    HW222302   5.840   6.159   2.127
 7135SOL     OW22303   1.677   2.333   2.887
 7135SOL    HW122304   1.631   2.421   2.890
 7135SOL    HW222305   1.776   2.346   2.878
 7136SOL     OW22306   1.754   2.584   0.835
 7136SOL    HW122307   1.666   2.577   0.789
 7136SOL    HW222308   1.823   2.534   0.783
 7137SOL     OW22309   4.455   0.459   6.793
 7137SOL    HW122310   4.437   0.552   6.825
 7137SOL    HW222311   4.370   0.416   6.764
 7138SOL     OW22312   1.581   2.949   0.519
 7138SOL    HW122313   1.544   2.865   0.477
 7138SOL    HW222314   1.600   2.932   0.616
 7139SOL     OW22315   5.133   4.203   2.783
 7139SOL    HW122316   5.185   4.234   2.863
 7139SOL    HW222317   5.041   4.243   2.785
 7140SOL     OW22318   5.754   3.472   4.716
 7140SOL    HW122319   5.830   3.415   4.686
 7140SOL    HW222320   5.671   3.445   4.666
 7141SOL     OW22321   3.166   5.925   1.627
 7141SOL    HW122322   3.229   5.880   1.564
 7141SOL    HW222323   3.112   5.856   1.676
 7142SOL     OW22324   4.293   0.284   3.466
 7142SOL    HW122325   4.350   0.354   3.424
 7142SOL    HW222326   4.258   0.316   3.553
 7143SOL     OW22327   1.627   2.993   6.095
 7143SOL    HW122328   1.706   3.027   6.045
 7143SOL    HW222329   1.602   2.902   6.062
 7144SOL     OW22330   1.602   1.477   3.794
 7144SOL    HW122331   1.572   1.547   3.859
 7144SOL    HW222332   1.694   1.447   3.817
 7145SOL     OW22333   4.413   6.703   6.459
 7145SOL    HW122334   4.400   6.612   6.420
 7145SOL    HW222335   4.500   6.707   6.508
 7146SOL     OW22336   2.446   0.717   6.888
 7146SOL    HW122337   2.457   0.680   6.980
 7146SOL    HW222338   2.367   0.674   6.844
 7147SOL     OW22339   6.618   6.467   3.330
 7147SOL    HW122340   6.570   6.547   3.293
 7147SOL    HW222341   6.587   6.385   3.283
 7148SOL     OW22342   0.013   6.753   0.844
 7148SOL    HW122343   0.098   6.704   0.822
 7148SOL    HW222344   0.006   6.834   0.785
 7149SOL     OW22345   6.638   6.701   2.961
 7149SOL    HW122346   6.573   6.627   2.979
 7149SOL    HW222347   6.715   6.667   2.908
 7150SOL     OW22348   4.216   1.642   2.027
 7150SOL    HW122349   4.225   1.726   2.080
 7150SOL    HW222350   4.145   1.654   1.958
 7151SOL     OW22351   1.830   6.395   0.929
 7151SOL    HW122352   1.855   6.302   0.956
 7151SOL    HW222353   1.734   6.411   0.951
 7152SOL     OW22354   0.752   1.672   4.795
 7152SOL    HW122355   0.739   1.756   4.743
 7152SOL    HW222356   0.850   1.658   4.812
 7153SOL     OW22357   2.806   5.651   3.060
 7153SOL    HW122358   2.864   5.730   3.041
 7153SOL    HW222359   2.745   5.673   3.136
 7154SOL     OW22360   3.765   0.420   4.511
 7154SOL    HW122361   3.829   0.386   4.443
 7154SOL    HW222362   3.718   0.344   4.555
 7155SOL     OW22363   2.464   5.123   1.535
 7155SOL    HW122364   2.473   5.056   1.609
 7155SOL    HW222365   2.550   5.131   1.486
 7156SOL     OW22366   0.183   4.014   4.580
 7156SOL    HW122367   0.108   3.991   4.518
 7156SOL    HW222368   0.218   4.105   4.558
 7157SOL     OW22369   6.544   4.443   0.677
 7157SOL    HW122370   6.477   4.472   0.745
 7157SOL    HW222371   6.525   4.487   0.589
 7158SOL     OW22372   1.140   0.282   2.721
 7158SOL    HW122373   1.066   0.325   2.773
 7158SOL    HW222374   1.104   0.248   2.634
 7159SOL     OW22375   0.712   3.729   2.819
 7159SOL    HW122376   0.681   3.761   2.730
 7159SOL    HW222377   0.754   3.639   2.810
 7160SOL     OW22378   5.822   0.645   3.446
 7160SOL    HW122379   5.806   0.663   3.543
 7160SOL    HW222380   5.807   0.729   3.394
 7161SOL     OW22381   3.113   4.057   4.621
 7161SOL    HW122382   3.096   4.145   4.664
 7161SOL    HW222383   3.178   4.068   4.546
 7162SOL     OW22384   2.268   5.581   5.679
 7162SOL    HW122385   2.211   5.641   5.735
 7162SOL    HW222386   2.255   5.486   5.708
 7163SOL     OW22387   2.638   6.672   2.838
 7163SOL    HW122388   2.729   6.691   2.872
 7163SOL    HW222389   2.584   6.757   2.837
 7164SOL     OW22390   1.961   1.000   4.054
 7164SOL    HW122391   2.028   1.062   4.095
 7164SOL    HW222392   1.906   1.051   3.988
 7165SOL     OW22393   6.882   1.401   1.423
 7165SOL    HW122394   6.824   1.457   1.482
 7165SOL    HW222395   6.918   1.458   1.349
 7166SOL     OW22396   5.706   3.016   6.664
 7166SOL    HW122397   5.780   2.970   6.614
 7166SOL    HW222398   5.646   2.947   6.705
 7167SOL     OW22399   5.200   3.588   4.922
 7167SOL    HW122400   5.116   3.557   4.877
 7167SOL    HW222401   5.268   3.515   4.921
 7168SOL     OW22402   1.582   2.609   3.993
 7168SOL    HW122403   1.508   2.626   3.928
 7168SOL    HW222404   1.570   2.666   4.074
 7169SOL     OW22405   0.161   3.581   4.896
 7169SOL    HW122406   0.206   3.539   4.817
 7169SOL    HW222407   0.067   3.546   4.904
 7170SOL     OW22408   4.225   6.498   3.810
 7170SOL    HW122409   4.239   6.399   3.804
 7170SOL    HW222410   4.306   6.540   3.850
 7171SOL     OW22411   5.557   4.712   6.581
 7171SOL    HW122412   5.516   4.657   6.508
 7171SOL    HW222413   5.638   4.758   6.546
 7172SOL     OW22414   1.404   0.669   5.527
 7172SOL    HW122415   1.391   0.593   5.590
 7172SOL    HW222416   1.454   0.743   5.572
 7173SOL     OW22417   0.482   5.146   5.454
 7173SOL    HW122418   0.469   5.105   5.363
 7173SOL    HW222419   0.560   5.103   5.499
 7174SOL     OW22420   1.081   4.692   6.968
 7174SOL    HW122421   1.029   4.673   6.885
 7174SOL    HW222422   1.080   4.790   6.987
 7175SOL     OW22423   5.851   3.708   6.922
 7175SOL    HW122424   5.911   3.741   6.995
 7175SOL    HW222425   5.757   3.737   6.939
 7176SOL     OW22426   1.210   6.215   3.292
 7176SOL    HW122427   1.188   6.304   3.252
 7176SOL    HW222428   1.245   6.154   3.220
 7177SOL     OW22429   2.392   6.804   4.420
 7177SOL    HW122430   2.447   6.731   4.378
 7177SOL    HW222431   2.408   6.890   4.372
 7178SOL     OW22432   2.311   3.387   5.780
 7178SOL    HW122433   2.372   3.465   5.763
 7178SOL    HW222434   2.366   3.303   5.781
 7179SOL     OW22435   1.807   3.589   4.748
 7179SOL    HW122436   1.895   3.632   4.769
 7179SOL    HW222437   1.753   3.580   4.832
 7180SOL     OW22438   1.507   4.680   6.471
 7180SOL    HW122439   1.540   4.656   6.380
 7180SOL    HW222440   1.475   4.598   6.518
 7181SOL     OW22441   2.146   5.929   0.633
 7181SOL    HW122442   2.063   5.931   0.577
 7181SOL    HW222443   2.122   5.908   0.727
 7182SOL     OW22444   2.109   3.141   5.561
 7182SOL    HW122445   2.123   3.223   5.617
 7182SOL    HW222446   2.140   3.061   5.611
 7183SOL     OW22447   1.304   5.700   0.759
 7183SOL    HW122448   1.272   5.775   0.817
 7183SOL    HW222449   1.398   5.719   0.729
 7184SOL     OW22450   0.888   0.231   3.115
 7184SOL    HW122451   0.940   0.145   3.116
 7184SOL    HW222452   0.812   0.223   3.051
 7185SOL     OW22453   5.438   1.056   5.472
 7185SOL    HW122454   5.407   1.067   5.377
 7185SOL    HW222455   5.521   1.000   5.473
 7186SOL     OW22456   6.645   6.888   6.788
 7186SOL    HW122457   6.650   6.987   6.800
 7186SOL    HW222458   6.637   6.845   6.878
 7187SOL     OW22459   2.910   4.425   0.422
 7187SOL    HW122460   2.856   4.344   0.398
 7187SOL    HW222461   2.949   4.414   0.513
 7188SOL     OW22462   6.186   6.956   0.413
 7188SOL    HW122463   6.144   7.014   0.482
 7188SOL    HW222464   6.281   6.985   0.398
 7189SOL     OW22465   6.299   0.807   6.173
 7189SOL    HW122466   6.218   0.837   6.122
 7189SOL    HW222467   6.354   0.887   6.198
 7190SOL     OW22468   0.083   3.866   3.133
 7190SOL    HW122469   0.081   3.779   3.083
 7190SOL    HW222470   7.015   3.913   3.121
 7191SOL     OW22471   0.592   4.166   3.218
 7191SOL    HW122472   0.642   4.084   3.246
 7191SOL    HW222473   0.574   4.223   3.299
 7192SOL     OW22474   3.363   5.063   5.384
 7192SOL    HW122475   3.462   5.060   5.398
 7192SOL    HW222476   3.321   4.983   5.428
 7193SOL     OW22477   2.333   1.944   2.734
 7193SOL    HW122478   2.351   2.007   2.811
 7193SOL    HW222479   2.364   1.986   2.649
 7194SOL     OW22480   2.989   1.981   0.916
 7194SOL    HW122481   3.025   1.931   0.995
 7194SOL    HW222482   3.009   2.078   0.926
 7195SOL     OW22483   0.155   5.402   6.145
 7195SOL    HW122484   0.075   5.343   6.142
 7195SOL    HW222485   0.238   5.347   6.138
 7196SOL     OW22486   3.229   4.315   1.644
 7196SOL    HW122487   3.304   4.273   1.696
 7196SOL    HW222488   3.230   4.414   1.658
 7197SOL     OW22489   6.952   2.176   6.079
 7197SOL    HW122490   6.962   2.260   6.133
 7197SOL    HW222491   6.896   2.195   5.998
 7198SOL     OW22492   0.503   1.121   6.163
 7198SOL    HW122493   0.479   1.039   6.111
 7198SOL    HW222494   0.439   1.195   6.139
 7199SOL     OW22495   2.064   0.879   2.276
 7199SOL    HW122496   2.102   0.957   2.325
 7199SOL    HW222497   2.136   0.812   2.258
 7200SOL     OW22498   2.666   2.053   6.926
 7200SOL    HW122499   2.711   2.011   6.847
 7200SOL    HW222500   2.571   2.021   6.930
 7201SOL     OW22501   1.234   5.432   4.250
 7201SOL    HW122502   1.279   5.507   4.299
 7201SOL    HW222503   1.286   5.347   4.263
 7202SOL     OW22504   4.295   0.294   6.050
 7202SOL    HW122505   4.276   0.299   5.951
 7202SOL    HW222506   4.333   0.381   6.081
 7203SOL     OW22507   0.089   2.060   1.237
 7203SOL    HW122508   0.133   2.099   1.318
 7203SOL    HW222509   0.118   1.965   1.227
 7204SOL     OW22510   6.717   6.945   5.266
 7204SOL    HW122511   6.626   6.918   5.233
 7204SOL    HW222512   6.787   6.898   5.212
 7205SOL     OW22513   1.514   5.771   3.201
 7205SOL    HW122514   1.568   5.835   3.146
 7205SOL    HW222515   1.568   5.690   3.220
 7206SOL     OW22516   2.044   0.318   1.067
 7206SOL    HW122517   2.060   0.222   1.088
 7206SOL    HW222518   2.069   0.374   1.146
 7207SOL     OW22519   4.064   6.697   1.835
 7207SOL    HW122520   4.115   6.782   1.851
 7207SOL    HW222521   3.966   6.718   1.828
 7208SOL     OW22522   4.299   6.246   3.721
 7208SOL    HW122523   4.377   6.190   3.747
 7208SOL    HW222524   4.281   6.235   3.623
 7209SOL     OW22525   3.373   3.325   1.830
 7209SOL    HW122526   3.448   3.264   1.802
 7209SOL    HW222527   3.383   3.347   1.927
 7210SOL     OW22528   4.429   0.151   4.006
 7210SOL    HW122529   4.457   0.206   3.928
 7210SOL    HW222530   4.330   0.145   4.010
 7211SOL     OW22531   2.788   5.569   4.046
 7211SOL    HW122532   2.696   5.532   4.062
 7211SOL    HW222533   2.843   5.501   3.998
 7212SOL     OW22534   0.794   6.360   3.699
 7212SOL    HW122535   0.730   6.335   3.626
 7212SOL    HW222536   0.797   6.460   3.707
 7213SOL     OW22537   6.253   0.190   6.336
 7213SOL    HW122538   6.191   0.136   6.393
 7213SOL    HW222539   6.254   0.285   6.368
 7214SOL     OW22540   1.221   5.721   4.808
 7214SOL    HW122541   1.192   5.801   4.861
 7214SOL    HW222542   1.141   5.676   4.770
 7215SOL     OW22543   0.542   3.104   4.316
 7215SOL    HW122544   0.566   3.136   4.224
 7215SOL    HW222545   0.589   3.159   4.384
 7216SOL     OW22546   2.388   6.170   0.334
 7216SOL    HW122547   2.346   6.097   0.281
 7216SOL    HW222548   2.342   6.178   0.422
 7217SOL     OW22549   2.046   4.546   2.600
 7217SOL    HW122550   2.112   4.594   2.543
 7217SOL    HW222551   2.032   4.454   2.565
 7218SOL     OW22552   4.762   2.503   5.166
 7218SOL    HW122553   4.783   2.575   5.233
 7218SOL    HW222554   4.688   2.533   5.107
 7219SOL     OW22555   4.774   6.258   4.348
 7219SOL    HW122556   4.823   6.342   4.371
 7219SOL    HW222557   4.678   6.267   4.375
 7220SOL     OW22558   0.557   5.484   4.274
 7220SOL    HW122559   0.590   5.525   4.359
 7220SOL    HW222560   0.616   5.513   4.198
 7221SOL     OW22561   5.489   4.878   4.807
 7221SOL    HW122562   5.450   4.970   4.804
 7221SOL    HW222563   5.586   4.883   4.782
 7222SOL     OW22564   6.015   0.599   2.211
 7222SOL    HW122565   6.078   0.594   2.134
 7222SOL    HW222566   6.019   0.514   2.264
 7223SOL     OW22567   3.201   1.964   1.353
 7223SOL    HW122568   3.253   1.951   1.437
 7223SOL    HW222569   3.151   2.051   1.358
 7224SOL     OW22570   5.404   2.361   4.189
 7224SOL    HW122571   5.361   2.312   4.113
 7224SOL    HW222572   5.372   2.456   4.190
 7225SOL     OW22573   1.294   5.964   5.996
 7225SOL    HW122574   1.285   6.049   6.048
 7225SOL    HW222575   1.274   5.886   6.055
 7226SOL     OW22576   0.863   0.926   0.427
 7226SOL    HW122577   0.861   0.899   0.523
 7226SOL    HW222578   0.842   1.023   0.419
 7227SOL     OW22579   0.595   2.146   0.916
 7227SOL    HW122580   0.681   2.162   0.964
 7227SOL    HW222581   0.611   2.088   0.836
 7228SOL     OW22582   0.265   1.227   1.810
 7228SOL    HW122583   0.256   1.213   1.711
 7228SOL    HW222584   0.216   1.310   1.837
 7229SOL     OW22585   0.757   0.536   4.878
 7229SOL    HW122586   0.796   0.602   4.813
 7229SOL    HW222587   0.784   0.444   4.852
 7230SOL     OW22588   5.095   5.537   4.907
 7230SOL    HW122589   5.057   5.592   4.832
 7230SOL    HW222590   5.087   5.588   4.992
 7231SOL     OW22591   4.486   6.448   0.158
 7231SOL    HW122592   4.571   6.397   0.150
 7231SOL    HW222593   4.438   6.420   0.241
 7232SOL     OW22594   4.596   5.259   3.443
 7232SOL    HW122595   4.598   5.330   3.513
 7232SOL    HW222596   4.509   5.210   3.447
 7233SOL     OW22597   0.321   2.289   4.323
 7233SOL    HW122598   0.232   2.299   4.278
 7233SOL    HW222599   0.374   2.373   4.310
 7234SOL     OW22600   5.650   2.791   3.029
 7234SOL    HW122601   5.715   2.722   2.997
 7234SOL    HW222602   5.696   2.853   3.094
 7235SOL     OW22603   6.358   4.527   3.092
 7235SOL    HW122604   6.367   4.546   3.189
 7235SOL    HW222605   6.373   4.610   3.039
 7236SOL     OW22606   3.253   1.498   2.956
 7236SOL    HW122607   3.251   1.542   2.867
 7236SOL    HW222608   3.159   1.489   2.991
 7237SOL     OW22609   6.321   6.689   5.436
 7237SOL    HW122610   6.240   6.717   5.385
 7237SOL    HW222611   6.390   6.653   5.373
 7238SOL     OW22612   2.236   2.214   1.211
 7238SOL    HW122613   2.317   2.229   1.155
 7238SOL    HW222614   2.157   2.260   1.169
 7239SOL     OW22615   2.844   1.094   3.735
 7239SOL    HW122616   2.807   1.004   3.756
 7239SOL    HW222617   2.944   1.092   3.745
 7240SOL     OW22618   2.544   3.764   6.705
 7240SOL    HW122619   2.553   3.798   6.799
 7240SOL    HW222620   2.634   3.737   6.671
 7241SOL     OW22621   3.119   0.039   6.996
 7241SOL    HW122622   3.182   6.980   7.004
 7241SOL    HW222623   3.172   0.124   6.995
 7242SOL     OW22624   6.867   5.368   0.086
 7242SOL    HW122625   6.845   5.390   7.009
 7242SOL    HW222626   6.798   5.306   0.123
 7243SOL     OW22627   0.603   4.195   6.114
 7243SOL    HW122628   0.632   4.216   6.208
 7243SOL    HW222629   0.673   4.226   6.050
 7244SOL     OW22630   5.033   1.098   1.125
 7244SOL    HW122631   5.015   1.129   1.218
 7244SOL    HW222632   4.948   1.097   1.073
 7245SOL     OW22633   0.770   1.784   5.203
 7245SOL    HW122634   0.775   1.780   5.303
 7245SOL    HW222635   0.847   1.733   5.164
 7246SOL     OW22636   5.909   6.765   4.708
 7246SOL    HW122637   5.906   6.731   4.614
 7246SOL    HW222638   5.986   6.827   4.719
 7247SOL     OW22639   3.128   6.636   3.336
 7247SOL    HW122640   3.087   6.549   3.308
 7247SOL    HW222641   3.208   6.654   3.280
 7248SOL     OW22642   3.640   1.230   2.626
 7248SOL    HW122643   3.584   1.148   2.618
 7248SOL    HW222644   3.699   1.238   2.546
 7249SOL     OW22645   5.843   5.063   1.775
 7249SOL    HW122646   5.913   5.004   1.816
 7249SOL    HW222647   5.868   5.159   1.790
 7250SOL     OW22648   3.512   5.256   5.857
 7250SOL    HW122649   3.421   5.216   5.860
 7250SOL    HW222650   3.529   5.306   5.942
 7251SOL     OW22651   6.994   6.421   5.391
 7251SOL    HW122652   0.007   6.331   5.361
 7251SOL    HW222653   6.965   6.474   5.312
 7252SOL     OW22654   3.454   3.243   3.432
 7252SOL    HW122655   3.421   3.326   3.387
 7252SOL    HW222656   3.517   3.195   3.370
 7253SOL     OW22657   1.808   6.950   0.517
 7253SOL    HW122658   1.860   6.950   0.602
 7253SOL    HW222659   1.807   0.024   0.478
 7254SOL     OW22660   4.497   5.077   5.247
 7254SOL    HW122661   4.583   5.041   5.210
 7254SOL    HW222662   4.433   5.094   5.173
 7255SOL     OW22663   3.114   3.902   1.427
 7255SOL    HW122664   3.019   3.877   1.409
 7255SOL    HW222665   3.174   3.851   1.365
 7256SOL     OW22666   5.341   5.154   4.139
 7256SOL    HW122667   5.312   5.173   4.233
 7256SOL    HW222668   5.431   5.111   4.140
 7257SOL     OW22669   5.335   2.852   3.605
 7257SOL    HW122670   5.427   2.883   3.629
 7257SOL    HW222671   5.279   2.847   3.688
 7258SOL     OW22672   4.130   1.404   3.505
 7258SOL    HW122673   4.181   1.483   3.540
 7258SOL    HW222674   4.085   1.358   3.581
 7259SOL     OW22675   3.471   4.142   1.317
 7259SOL    HW122676   3.501   4.049   1.342
 7259SOL    HW222677   3.372   4.149   1.325
 7260SOL     OW22678   3.453   1.744   3.014
 7260SOL    HW122679   3.488   1.650   3.010
 7260SOL    HW222680   3.416   1.762   3.105
 7261SOL     OW22681   2.935   3.082   1.070
 7261SOL    HW122682   2.922   3.015   1.143
 7261SOL    HW222683   2.989   3.041   0.996
 7262SOL     OW22684   5.818   2.243   4.020
 7262SOL    HW122685   5.745   2.273   3.957
 7262SOL    HW222686   5.798   2.277   4.112
 7263SOL     OW22687   0.352   5.694   2.029
 7263SOL    HW122688   0.371   5.597   2.021
 7263SOL    HW222689   0.285   5.721   1.960
 7264SOL     OW22690   6.482   1.555   6.978
 7264SOL    HW122691   6.429   1.472   6.964
 7264SOL    HW222692   6.434   1.632   6.936
 7265SOL     OW22693   5.443   4.875   5.920
 7265SOL    HW122694   5.391   4.852   5.838
 7265SOL    HW222695   5.393   4.845   6.001
 7266SOL     OW22696   4.145   0.391   0.654
 7266SOL    HW122697   4.080   0.416   0.583
 7266SOL    HW222698   4.099   0.391   0.743
 7267SOL     OW22699   6.810   4.898   5.561
 7267SOL    HW122700   6.835   4.934   5.472
 7267SOL    HW222701   6.846   4.958   5.633
 7268SOL     OW22702   4.386   4.893   3.498
 7268SOL    HW122703   4.392   4.799   3.465
 7268SOL    HW222704   4.407   4.895   3.596
 7269SOL     OW22705   6.907   6.133   1.469
 7269SOL    HW122706   6.979   6.202   1.465
 7269SOL    HW222707   6.877   6.121   1.564
 7270SOL     OW22708   1.280   2.476   3.645
 7270SOL    HW122709   1.267   2.386   3.603
 7270SOL    HW222710   1.192   2.524   3.646
 7271SOL     OW22711   0.589   4.785   3.768
 7271SOL    HW122712   0.624   4.849   3.836
 7271SOL    HW222713   0.658   4.715   3.750
 7272SOL     OW22714   6.111   3.712   2.077
 7272SOL    HW122715   6.158   3.786   2.125
 7272SOL    HW222716   6.083   3.642   2.142
 7273SOL     OW22717   6.015   4.387   1.874
 7273SOL    HW122718   6.088   4.339   1.825
 7273SOL    HW222719   5.927   4.364   1.833
 7274SOL     OW22720   0.175   6.803   6.339
 7274SOL    HW122721   0.131   6.715   6.352
 7274SOL    HW222722   0.196   6.843   6.429
 7275SOL     OW22723   6.640   0.776   1.284
 7275SOL    HW122724   6.720   0.787   1.225
 7275SOL    HW222725   6.564   0.738   1.232
 7276SOL     OW22726   3.561   1.317   3.758
 7276SOL    HW122727   3.565   1.358   3.667
 7276SOL    HW222728   3.619   1.369   3.821
 7277SOL     OW22729   5.525   0.965   5.040
 7277SOL    HW122730   5.542   0.866   5.033
 7277SOL    HW222731   5.428   0.983   5.026
 7278SOL     OW22732   3.716   2.087   3.121
 7278SOL    HW122733   3.808   2.098   3.085
 7278SOL    HW222734   3.671   2.010   3.074
 7279SOL     OW22735   4.082   3.672   6.566
 7279SOL    HW122736   3.996   3.635   6.531
 7279SOL    HW222737   4.111   3.749   6.509
 7280SOL     OW22738   5.897   2.330   5.224
 7280SOL    HW122739   5.815   2.360   5.174
 7280SOL    HW222740   5.905   2.382   5.309
 7281SOL     OW22741   3.322   0.147   1.000
 7281SOL    HW122742   3.258   0.162   0.924
 7281SOL    HW222743   3.272   0.109   1.078
 7282SOL     OW22744   6.673   5.598   1.411
 7282SOL    HW122745   6.703   5.627   1.321
 7282SOL    HW222746   6.618   5.670   1.453
 7283SOL     OW22747   2.634   6.882   2.235
 7283SOL    HW122748   2.684   6.956   2.282
 7283SOL    HW222749   2.685   6.797   2.245
 7284SOL     OW22750   6.763   2.843   4.010
 7284SOL    HW122751   6.754   2.892   4.096
 7284SOL    HW222752   6.739   2.747   4.024
 7285SOL     OW22753   5.015   3.662   1.641
 7285SOL    HW122754   5.049   3.579   1.598
 7285SOL    HW222755   4.979   3.641   1.732
 7286SOL     OW22756   0.846   1.185   0.430
 7286SOL    HW122757   0.933   1.232   0.414
 7286SOL    HW222758   0.772   1.252   0.434
 7287SOL     OW22759   6.317   2.978   4.250
 7287SOL    HW122760   6.383   3.044   4.287
 7287SOL    HW222761   6.364   2.891   4.234
 7288SOL     OW22762   1.709   2.758   2.108
 7288SOL    HW122763   1.804   2.752   2.079
 7288SOL    HW222764   1.657   2.681   2.070
 7289SOL     OW22765   5.589   3.591   2.262
 7289SOL    HW122766   5.582   3.543   2.174
 7289SOL    HW222767   5.591   3.525   2.337
 7290SOL     OW22768   3.245   0.670   5.167
 7290SOL    HW122769   3.210   0.729   5.240
 7290SOL    HW222770   3.341   0.648   5.185
 7291SOL     OW22771   4.189   6.933   0.804
 7291SOL    HW122772   4.144   6.997   0.741
 7291SOL    HW222773   4.121   6.897   0.868
 7292SOL     OW22774   1.660   6.613   3.350
 7292SOL    HW122775   1.588   6.652   3.408
 7292SOL    HW222776   1.663   6.662   3.263
 7293SOL     OW22777   1.466   1.337   6.410
 7293SOL    HW122778   1.386   1.346   6.350
 7293SOL    HW222779   1.528   1.268   6.373
 7294SOL     OW22780   3.252   4.869   1.446
 7294SOL    HW122781   3.322   4.896   1.381
 7294SOL    HW222782   3.178   4.821   1.398
 7295SOL     OW22783   6.541   4.294   1.525
 7295SOL    HW122784   6.620   4.319   1.469
 7295SOL    HW222785   6.457   4.321   1.478
 7296SOL     OW22786   3.795   5.059   2.914
 7296SOL    HW122787   3.881   5.084   2.959
 7296SOL    HW222788   3.765   4.969   2.947
 7297SOL     OW22789   3.486   6.523   2.547
 7297SOL    HW122790   3.411   6.459   2.566
 7297SOL    HW222791   3.496   6.535   2.449
 7298SOL     OW22792   4.996   5.581   0.076
 7298SOL    HW122793   4.918   5.606   0.020
 7298SOL    HW222794   4.978   5.606   0.172
 7299SOL     OW22795   1.170   1.649   0.609
 7299SOL    HW122796   1.154   1.746   0.591
 7299SOL    HW222797   1.093   1.595   0.574
 7300SOL     OW22798   1.132   4.966   1.963
 7300SOL    HW122799   1.117   4.902   2.039
 7300SOL    HW222800   1.225   5.002   1.969
 7301SOL     OW22801   6.862   0.335   5.751
 7301SOL    HW122802   6.891   0.254   5.700
 7301SOL    HW222803   6.765   0.353   5.733
 7302SOL     OW22804   6.616   1.547   5.337
 7302SOL    HW122805   6.647   1.465   5.288
 7302SOL    HW222806   6.573   1.611   5.273
 7303SOL     OW22807   3.281   1.118   6.822
 7303SOL    HW122808   3.223   1.131   6.741
 7303SOL    HW222809   3.359   1.060   6.798
 7304SOL     OW22810   2.227   5.196   1.937
 7304SOL    HW122811   2.181   5.266   1.883
 7304SOL    HW222812   2.182   5.108   1.923
 7305SOL     OW22813   5.340   2.545   1.136
 7305SOL    HW122814   5.357   2.462   1.084
 7305SOL    HW222815   5.424   2.572   1.184
 7306SOL     OW22816   3.958   1.409   1.750
 7306SOL    HW122817   3.957   1.500   1.792
 7306SOL    HW222818   4.011   1.412   1.666
 7307SOL     OW22819   3.881   6.477   2.325
 7307SOL    HW122820   3.852   6.404   2.387
 7307SOL    HW222821   3.849   6.457   2.233
 7308SOL     OW22822   6.727   1.515   2.946
 7308SOL    HW122823   6.790   1.586   2.976
 7308SOL    HW222824   6.660   1.497   3.019
 7309SOL     OW22825   2.378   6.249   2.806
 7309SOL    HW122826   2.330   6.230   2.721
 7309SOL    HW222827   2.346   6.185   2.877
 7310SOL     OW22828   1.419   3.498   6.617
 7310SOL    HW122829   1.452   3.517   6.524
 7310SOL    HW222830   1.461   3.414   6.651
 7311SOL     OW22831   1.092   0.228   0.359
 7311SOL    HW122832   1.127   0.206   0.268
 7311SOL    HW222833   1.012   0.171   0.378
 7312SOL     OW22834   0.526   1.333   5.007
 7312SOL    HW122835   0.549   1.412   5.064
 7312SOL    HW222836   0.590   1.328   4.930
 7313SOL     OW22837   2.908   1.158   0.796
 7313SOL    HW122838   2.990   1.177   0.741
 7313SOL    HW222839   2.912   1.063   0.830
 7314SOL     OW22840   0.529   3.626   6.781
 7314SOL    HW122841   0.478   3.546   6.814
 7314SOL    HW222842   0.596   3.596   6.713
 7315SOL     OW22843   6.347   5.343   2.542
 7315SOL    HW122844   6.429   5.338   2.598
 7315SOL    HW222845   6.320   5.251   2.513
 7316SOL     OW22846   3.326   1.895   5.991
 7316SOL    HW122847   3.267   1.851   5.924
 7316SOL    HW222848   3.419   1.858   5.983
 7317SOL     OW22849   3.674   1.386   1.708
 7317SOL    HW122850   3.593   1.417   1.757
 7317SOL    HW222851   3.751   1.447   1.730
 7318SOL     OW22852   3.791   6.497   2.050
 7318SOL    HW122853   3.710   6.520   1.996
 7318SOL    HW222854   3.814   6.401   2.035
 7319SOL     OW22855   6.694   3.051   6.105
 7319SOL    HW122856   6.612   3.089   6.063
 7319SOL    HW222857   6.775   3.101   6.074
 7320SOL     OW22858   6.789   3.979   1.035
 7320SOL    HW122859   6.692   3.989   1.054
 7320SOL    HW222860   6.802   3.905   0.968
 7321SOL     OW22861   1.594   6.636   6.456
 7321SOL    HW122862   1.687   6.640   6.492
 7321SOL    HW222863   1.531   6.676   6.523
 7322SOL     OW22864   0.808   2.789   3.159
 7322SOL    HW122865   0.728   2.848   3.149
 7322SOL    HW222866   0.817   2.759   3.254
 7323SOL     OW22867   2.529   1.667   1.426
 7323SOL    HW122868   2.601   1.734   1.406
 7323SOL    HW222869   2.537   1.590   1.363
 7324SOL     OW22870   6.458   4.254   2.417
 7324SOL    HW122871   6.444   4.268   2.319
 7324SOL    HW222872   6.534   4.191   2.432
 7325SOL     OW22873   2.984   0.684   5.865
 7325SOL    HW122874   3.040   0.613   5.909
 7325SOL    HW222875   2.999   0.682   5.767
 7326SOL     OW22876   4.131   0.082   6.151
 7326SOL    HW122877   4.179   0.153   6.099
 7326SOL    HW222878   4.049   0.053   6.101
 7327SOL     OW22879   5.755   3.945   4.032
 7327SOL    HW122880   5.711   4.003   4.100
 7327SOL    HW222881   5.745   3.986   3.941
 7328SOL     OW22882   4.276   5.581   5.721
 7328SOL    HW122883   4.301   5.623   5.634
 7328SOL    HW222884   4.191   5.528   5.709
 7329SOL     OW22885   0.883   2.727   0.120
 7329SOL    HW122886   0.892   2.639   0.073
 7329SOL    HW222887   0.786   2.746   0.138
 7330SOL     OW22888   3.316   3.060   0.910
 7330SOL    HW122889   3.316   3.017   1.000
 7330SOL    HW222890   3.365   3.147   0.914
 7331SOL     OW22891   4.710   6.966   1.761
 7331SOL    HW122892   4.778   0.020   1.754
 7331SOL    HW222893   4.715   6.922   1.850
 7332SOL     OW22894   3.968   4.261   0.007
 7332SOL    HW122895   3.926   4.344   6.989
 7332SOL    HW222896   4.044   4.285   0.067
 7333SOL     OW22897   5.990   3.397   3.208
 7333SOL    HW122898   5.899   3.389   3.250
 7333SOL    HW222899   6.037   3.309   3.213
 7334SOL     OW22900   2.875   5.938   5.957
 7334SOL    HW122901   2.892   5.968   5.863
 7334SOL    HW222902   2.894   6.014   6.019
 7335SOL     OW22903   0.407   3.430   2.900
 7335SOL    HW122904   0.376   3.522   2.925
 7335SOL    HW222905   0.385   3.367   2.974
 7336SOL     OW22906   2.417   6.503   1.029
 7336SOL    HW122907   2.517   6.499   1.032
 7336SOL    HW222908   2.379   6.431   1.086
 7337SOL     OW22909   3.288   2.748   1.246
 7337SOL    HW122910   3.302   2.710   1.155
 7337SOL    HW222911   3.206   2.707   1.287
 7338SOL     OW22912   5.993   2.348   1.585
 7338SOL    HW122913   5.962   2.423   1.527
 7338SOL    HW222914   6.076   2.307   1.547
 7339SOL     OW22915   0.235   6.501   5.754
 7339SOL    HW122916   0.309   6.434   5.764
 7339SOL    HW222917   0.273   6.593   5.757
 7340SOL     OW22918   3.975   0.882   6.518
 7340SOL    HW122919   4.014   0.795   6.544
 7340SOL    HW222920   3.876   0.881   6.534
 7341SOL     OW22921   1.614   5.161   4.663
 7341SOL    HW122922   1.633   5.192   4.756
 7341SOL    HW222923   1.519   5.183   4.639
 7342SOL     OW22924   6.524   6.919   0.341
 7342SOL    HW122925   6.497   6.919   0.438
 7342SOL    HW222926   6.615   6.878   0.332
 7343SOL     OW22927   5.626   4.129   1.859
 7343SOL    HW122928   5.708   4.144   1.803
 7343SOL    HW222929   5.558   4.079   1.805
 7344SOL     OW22930   1.671   0.143   6.806
 7344SOL    HW122931   1.611   0.199   6.864
 7344SOL    HW222932   1.615   0.084   6.748
 7345SOL     OW22933   4.199   5.016   6.019
 7345SOL    HW122934   4.256   5.035   6.099
 7345SOL    HW222935   4.107   5.050   6.035
 7346SOL     OW22936   4.282   3.982   0.953
 7346SOL    HW122937   4.282   3.886   0.981
 7346SOL    HW222938   4.267   4.040   1.033
 7347SOL     OW22939   6.897   2.655   2.110
 7347SOL    HW122940   6.823   2.674   2.174
 7347SOL    HW222941   6.861   2.605   2.031
 7348SOL     OW22942   1.803   4.160   3.754
 7348SOL    HW122943   1.743   4.103   3.697
 7348SOL    HW222944   1.772   4.255   3.751
 7349SOL     OW22945   3.784   1.606   1.143
 7349SOL    HW122946   3.688   1.631   1.146
 7349SOL    HW222947   3.793   1.506   1.139
 7350SOL     OW22948   0.514   2.737   4.046
 7350SOL    HW122949   0.545   2.832   4.038
 7350SOL    HW222950   0.578   2.687   4.105
 7351SOL     OW22951   4.063   4.483   6.739
 7351SOL    HW122952   4.075   4.515   6.645
 7351SOL    HW222953   4.153   4.474   6.782
 7352SOL     OW22954   1.640   1.837   3.831
 7352SOL    HW122955   1.723   1.783   3.812
 7352SOL    HW222956   1.559   1.783   3.806
 7353SOL     OW22957   0.415   1.575   5.380
 7353SOL    HW122958   0.373   1.484   5.386
 7353SOL    HW222959   0.404   1.610   5.287
 7354SOL     OW22960   0.381   0.691   6.606
 7354SOL    HW122961   0.447   0.624   6.640
 7354SOL    HW222962   0.410   0.783   6.632
 7355SOL     OW22963   1.658   6.153   1.002
 7355SOL    HW122964   1.644   6.109   1.090
 7355SOL    HW222965   1.662   6.083   0.930
 7356SOL     OW22966   5.025   2.545   6.560
 7356SOL    HW122967   4.990   2.595   6.638
 7356SOL    HW222968   5.002   2.448   6.570
 7357SOL     OW22969   4.916   1.004   1.363
 7357SOL    HW122970   4.854   1.002   1.443
 7357SOL    HW222971   5.010   0.992   1.394
 7358SOL     OW22972   2.690   2.070   2.370
 7358SOL    HW122973   2.718   2.164   2.388
 7358SOL    HW222974   2.761   2.023   2.318
 7359SOL     OW22975   3.581   2.843   0.864
 7359SOL    HW122976   3.614   2.838   0.958
 7359SOL    HW222977   3.481   2.837   0.862
 7360SOL     OW22978   2.344   2.186   5.542
 7360SOL    HW122979   2.285   2.218   5.616
 7360SOL    HW222980   2.300   2.108   5.497
 7361SOL     OW22981   4.894   6.327   2.085
 7361SOL    HW122982   4.978   6.362   2.045
 7361SOL    HW222983   4.860   6.251   2.029
 7362SOL     OW22984   0.800   6.701   4.693
 7362SOL    HW122985   0.714   6.702   4.642
 7362SOL    HW222986   0.820   6.793   4.727
 7363SOL     OW22987   4.478   1.796   0.435
 7363SOL    HW122988   4.419   1.820   0.512
 7363SOL    HW222989   4.429   1.813   0.349
 7364SOL     OW22990   4.221   6.528   1.693
 7364SOL    HW122991   4.154   6.558   1.761
 7364SOL    HW222992   4.176   6.521   1.604
 7365SOL     OW22993   2.229   6.188   2.577
 7365SOL    HW122994   2.144   6.239   2.564
 7365SOL    HW222995   2.217   6.093   2.546
 7366SOL     OW22996   1.266   5.547   0.016
 7366SOL    HW122997   1.344   5.595   6.993
 7366SOL    HW222998   1.279   5.539   0.114
 7367SOL     OW22999   4.659   3.744   0.973
 7367SOL    HW123000   4.727   3.754   1.046
 7367SOL    HW223001   4.691   3.788   0.890
 7368SOL     OW23002   3.423   2.979   3.701
 7368SOL    HW123003   3.367   2.974   3.618
 7368SOL    HW223004   3.519   2.960   3.678
 7369SOL     OW23005   5.073   3.459   0.650
 7369SOL    HW123006   5.000   3.475   0.717
 7369SOL    HW223007   5.145   3.526   0.663
 7370SOL     OW23008   2.150   0.428   6.372
 7370SOL    HW123009   2.082   0.462   6.437
 7370SOL    HW223010   2.108   0.413   6.283
 7371SOL     OW23011   3.208   5.449   4.187
 7371SOL    HW123012   3.214   5.359   4.142
 7371SOL    HW223013   3.159   5.439   4.274
 7372SOL     OW23014   3.040   0.395   5.467
 7372SOL    HW123015   3.102   0.466   5.500
 7372SOL    HW223016   3.015   0.414   5.372
 7373SOL     OW23017   4.731   1.449   3.814
 7373SOL    HW123018   4.682   1.437   3.900
 7373SOL    HW223019   4.804   1.517   3.826
 7374SOL     OW23020   2.483   2.782   5.528
 7374SOL    HW123021   2.470   2.759   5.625
 7374SOL    HW223022   2.578   2.809   5.513
 7375SOL     OW23023   1.548   2.148   3.722
 7375SOL    HW123024   1.515   2.208   3.795
 7375SOL    HW223025   1.528   2.053   3.746
 7376SOL     OW23026   3.366   2.319   0.106
 7376SOL    HW123027   3.331   2.399   0.058
 7376SOL    HW223028   3.439   2.277   0.052
 7377SOL     OW23029   4.771   5.703   1.993
 7377SOL    HW123030   4.714   5.747   1.923
 7377SOL    HW223031   4.867   5.710   1.966
 7378SOL     OW23032   0.135   1.857   4.374
 7378SOL    HW123033   0.087   1.784   4.327
 7378SOL    HW223034   0.174   1.822   4.459
 7379SOL     OW23035   3.884   1.644   2.671
 7379SOL    HW123036   3.973   1.606   2.646
 7379SOL    HW223037   3.880   1.657   2.770
 7380SOL     OW23038   0.266   3.126   5.952
 7380SOL    HW123039   0.341   3.190   5.965
 7380SOL    HW223040   0.271   3.087   5.860
 7381SOL     OW23041   4.928   3.168   2.458
 7381SOL    HW123042   5.019   3.127   2.453
 7381SOL    HW223043   4.889   3.152   2.549
 7382SOL     OW23044   6.868   5.625   4.768
 7382SOL    HW123045   6.909   5.568   4.839
 7382SOL    HW223046   6.800   5.685   4.810
 7383SOL     OW23047   6.891   6.717   2.696
 7383SOL    HW123048   6.974   6.772   2.700
 7383SOL    HW223049   6.870   6.693   2.601
 7384SOL     OW23050   5.151   0.978   1.800
 7384SOL    HW123051   5.123   0.926   1.720
 7384SOL    HW223052   5.101   1.065   1.803
 7385SOL     OW23053   3.668   5.980   2.118
 7385SOL    HW123054   3.692   6.074   2.142
 7385SOL    HW223055   3.685   5.919   2.196
 7386SOL     OW23056   0.567   2.750   5.578
 7386SOL    HW123057   0.589   2.846   5.597
 7386SOL    HW223058   0.540   2.740   5.482
 7387SOL     OW23059   4.360   6.448   4.938
 7387SOL    HW123060   4.384   6.501   5.019
 7387SOL    HW223061   4.261   6.433   4.937
 7388SOL     OW23062   0.061   5.592   3.606
 7388SOL    HW123063   0.005   5.532   3.548
 7388SOL    HW223064   0.136   5.540   3.646
 7389SOL     OW23065   1.348   4.937   6.628
 7389SOL    HW123066   1.383   4.870   6.692
 7389SOL    HW223067   1.261   4.974   6.661
 7390SOL     OW23068   1.408   2.047   6.600
 7390SOL    HW123069   1.459   1.973   6.644
 7390SOL    HW223070   1.454   2.134   6.618
 7391SOL     OW23071   4.633   3.984   5.331
 7391SOL    HW123072   4.662   3.892   5.303
 7391SOL    HW223073   4.537   3.981   5.360
 7392SOL     OW23074   2.429   6.076   6.448
 7392SOL    HW123075   2.456   6.068   6.352
 7392SOL    HW223076   2.442   6.170   6.479
 7393SOL     OW23077   5.780   5.740   1.565
 7393SOL    HW123078   5.775   5.781   1.656
 7393SOL    HW223079   5.836   5.797   1.506
 7394SOL     OW23080   3.093   3.077   6.160
 7394SOL    HW123081   3.066   3.064   6.255
 7394SOL    HW223082   3.173   3.022   6.140
 7395SOL     OW23083   0.857   0.962   6.826
 7395SOL    HW123084   0.881   0.939   6.920
 7395SOL    HW223085   0.841   0.878   6.773
 7396SOL     OW23086   1.141   1.021   6.845
 7396SOL    HW123087   1.181   0.942   6.892
 7396SOL    HW223088   1.066   0.990   6.786
 7397SOL     OW23089   6.093   5.389   4.219
 7397SOL    HW123090   6.062   5.338   4.139
 7397SOL    HW223091   6.143   5.471   4.189
 7398SOL     OW23092   3.403   4.934   3.970
 7398SOL    HW123093   3.384   4.920   4.067
 7398SOL    HW223094   3.321   4.917   3.916
 7399SOL     OW23095   0.573   3.722   5.542
 7399SOL    HW123096   0.554   3.815   5.572
 7399SOL    HW223097   0.529   3.657   5.604
 7400SOL     OW23098   3.329   3.716   0.077
 7400SOL    HW123099   3.426   3.712   0.056
 7400SOL    HW223100   3.312   3.673   0.165
 7401SOL     OW23101   0.739   1.224   3.526
 7401SOL    HW123102   0.654   1.273   3.501
 7401SOL    HW223103   0.752   1.147   3.463
 7402SOL     OW23104   2.155   6.297   4.286
 7402SOL    HW123105   2.232   6.277   4.347
 7402SOL    HW223106   2.074   6.318   4.339
 7403SOL     OW23107   2.053   3.155   3.240
 7403SOL    HW123108   1.963   3.133   3.276
 7403SOL    HW223109   2.055   3.251   3.210
 7404SOL     OW23110   2.432   6.440   1.395
 7404SOL    HW123111   2.360   6.394   1.343
 7404SOL    HW223112   2.499   6.373   1.426
 7405SOL     OW23113   1.138   4.984   4.681
 7405SOL    HW123114   1.209   4.914   4.671
 7405SOL    HW223115   1.127   5.033   4.595
 7406SOL     OW23116   1.780   3.817   2.417
 7406SOL    HW123117   1.680   3.809   2.417
 7406SOL    HW223118   1.807   3.900   2.465
 7407SOL     OW23119   0.584   6.458   4.686
 7407SOL    HW123120   0.601   6.371   4.732
 7407SOL    HW223121   0.524   6.443   4.607
 7408SOL     OW23122   1.063   4.380   4.983
 7408SOL    HW123123   1.153   4.336   4.977
 7408SOL    HW223124   1.072   4.469   5.026
 7409SOL     OW23125   0.501   0.864   4.408
 7409SOL    HW123126   0.452   0.934   4.459
 7409SOL    HW223127   0.451   0.843   4.324
 7410SOL     OW23128   6.914   5.084   0.634
 7410SOL    HW123129   6.971   5.151   0.586
 7410SOL    HW223130   6.971   5.021   0.686
 7411SOL     OW23131   2.941   6.979   4.062
 7411SOL    HW123132   3.034   6.955   4.088
 7411SOL    HW223133   2.911   6.919   3.987
 7412SOL     OW23134   4.088   1.327   0.739
 7412SOL    HW123135   4.159   1.380   0.785
 7412SOL    HW223136   4.123   1.237   0.714
 7413SOL     OW23137   0.044   4.680   3.926
 7413SOL    HW123138   0.072   4.708   4.018
 7413SOL    HW223139   0.030   4.581   3.924
 7414SOL     OW23140   0.153   0.298   2.973
 7414SOL    HW123141   0.192   0.323   2.885
 7414SOL    HW223142   0.064   0.254   2.958
 7415SOL     OW23143   0.687   3.751   3.107
 7415SOL    HW123144   0.703   3.723   3.013
 7415SOL    HW223145   0.637   3.680   3.155
 7416SOL     OW23146   3.310   0.681   4.027
 7416SOL    HW123147   3.223   0.669   4.075
 7416SOL    HW223148   3.367   0.746   4.076
 7417SOL     OW23149   1.264   0.335   6.755
 7417SOL    HW123150   1.214   0.416   6.786
 7417SOL    HW223151   1.324   0.302   6.828
 7418SOL     OW23152   3.950   5.056   1.234
 7418SOL    HW123153   3.943   5.060   1.334
 7418SOL    HW223154   3.955   4.961   1.205
 7419SOL     OW23155   6.545   2.305   4.673
 7419SOL    HW123156   6.631   2.276   4.715
 7419SOL    HW223157   6.563   2.383   4.612
 7420SOL     OW23158   6.323   6.201   2.551
 7420SOL    HW123159   6.332   6.164   2.643
 7420SOL    HW223160   6.367   6.140   2.486
 7421SOL     OW23161   3.219   2.967   2.043
 7421SOL    HW123162   3.212   2.895   2.111
 7421SOL    HW223163   3.292   2.945   1.978
 7422SOL     OW23164   0.340   3.479   2.617
 7422SOL    HW123165   0.356   3.447   2.711
 7422SOL    HW223166   0.388   3.567   2.604
 7423SOL     OW23167   0.080   3.709   6.263
 7423SOL    HW123168   7.009   3.689   6.224
 7423SOL    HW223169   0.128   3.624   6.281
 7424SOL     OW23170   6.219   1.432   4.123
 7424SOL    HW123171   6.131   1.465   4.156
 7424SOL    HW223172   6.293   1.484   4.166
 7425SOL     OW23173   4.333   4.855   6.584
 7425SOL    HW123174   4.312   4.952   6.581
 7425SOL    HW223175   4.311   4.813   6.496
 7426SOL     OW23176   1.073   1.878   6.709
 7426SOL    HW123177   1.074   1.913   6.803
 7426SOL    HW223178   1.070   1.954   6.645
 7427SOL     OW23179   2.811   6.249   4.806
 7427SOL    HW123180   2.843   6.341   4.829
 7427SOL    HW223181   2.873   6.207   4.740
 7428SOL     OW23182   3.199   1.117   5.383
 7428SOL    HW123183   3.255   1.090   5.305
 7428SOL    HW223184   3.214   1.214   5.402
 7429SOL     OW23185   6.100   0.345   3.416
 7429SOL    HW123186   6.036   0.281   3.459
 7429SOL    HW223187   6.124   0.312   3.325
 7430SOL     OW23188   0.266   4.658   5.984
 7430SOL    HW123189   0.259   4.590   6.057
 7430SOL    HW223190   0.317   4.738   6.017
 7431SOL     OW23191   0.477   3.950   2.172
 7431SOL    HW123192   0.458   3.967   2.075
 7431SOL    HW223193   0.400   3.982   2.227
 7432SOL     OW23194   0.514   0.021   3.748
 7432SOL    HW123195   0.455   6.959   3.753
 7432SOL    HW223196   0.610   7.010   3.751
 7433SOL     OW23197   6.790   5.507   0.312
 7433SOL    HW123198   6.823   5.444   0.242
 7433SOL    HW223199   6.693   5.490   0.329
 7434SOL     OW23200   4.171   1.059   6.489
 7434SOL    HW123201   4.130   1.133   6.437
 7434SOL    HW223202   4.116   0.976   6.479
 7435SOL     OW23203   3.417   6.197   6.495
 7435SOL    HW123204   3.425   6.098   6.480
 7435SOL    HW223205   3.436   6.217   6.591
 7436SOL     OW23206   6.648   2.967   6.403
 7436SOL    HW123207   6.659   2.881   6.453
 7436SOL    HW223208   6.638   2.947   6.305
 7437SOL     OW23209   6.919   5.769   6.931
 7437SOL    HW123210   6.966   5.822   6.860
 7437SOL    HW223211   6.828   5.744   6.897
 7438SOL     OW23212   0.661   4.773   0.575
 7438SOL    HW123213   0.726   4.722   0.631
 7438SOL    HW223214   0.685   4.870   0.577
 7439SOL     OW23215   2.087   6.626   4.431
 7439SOL    HW123216   2.070   6.706   4.375
 7439SOL    HW223217   2.015   6.558   4.415
 7440SOL     OW23218   0.877   3.053   4.587
 7440SOL    HW123219   0.947   3.075   4.519
 7440SOL    HW223220   0.920   3.014   4.668
 7441SOL     OW23221   5.901   6.648   4.470
 7441SOL    HW123222   5.836   6.683   4.402
 7441SOL    HW223223   5.881   6.552   4.489
 7442SOL     OW23224   0.973   1.003   6.023
 7442SOL    HW123225   0.993   0.978   6.118
 7442SOL    HW223226   0.911   0.936   5.983
 7443SOL     OW23227   0.473   1.522   1.064
 7443SOL    HW123228   0.522   1.501   1.149
 7443SOL    HW223229   0.532   1.501   0.986
 7444SOL     OW23230   0.217   3.204   4.945
 7444SOL    HW123231   0.237   3.201   4.847
 7444SOL    HW223232   0.303   3.201   4.996
 7445SOL     OW23233   4.303   0.961   1.436
 7445SOL    HW123234   4.286   1.039   1.495
 7445SOL    HW223235   4.363   0.988   1.360
 7446SOL     OW23236   5.356   4.153   0.304
 7446SOL    HW123237   5.272   4.185   0.348
 7446SOL    HW223238   5.336   4.126   0.210
 7447SOL     OW23239   2.018   3.608   6.968
 7447SOL    HW123240   1.996   3.705   6.977
 7447SOL    HW223241   1.963   3.568   6.894
 7448SOL     OW23242   4.989   6.025   5.781
 7448SOL    HW123243   4.916   6.038   5.714
 7448SOL    HW223244   4.959   6.058   5.870
 7449SOL     OW23245   5.122   2.889   2.081
 7449SOL    HW123246   5.053   2.923   2.145
 7449SOL    HW223247   5.179   2.820   2.126
 7450SOL     OW23248   5.108   2.420   4.718
 7450SOL    HW123249   5.016   2.438   4.751
 7450SOL    HW223250   5.106   2.403   4.619
 7451SOL     OW23251   1.520   0.069   3.576
 7451SOL    HW123252   1.518   0.131   3.498
 7451SOL    HW223253   1.536   0.121   3.660
 7452SOL     OW23254   0.652   6.842   4.940
 7452SOL    HW123255   0.643   6.870   5.035
 7452SOL    HW223256   0.748   6.841   4.914
 7453SOL     OW23257   5.496   5.911   5.394
 7453SOL    HW123258   5.536   5.971   5.324
 7453SOL    HW223259   5.536   5.933   5.483
 7454SOL     OW23260   1.038   3.165   1.908
 7454SOL    HW123261   1.074   3.084   1.863
 7454SOL    HW223262   1.032   3.148   2.007
 7455SOL     OW23263   6.962   1.268   1.920
 7455SOL    HW123264   0.004   1.347   1.910
 7455SOL    HW223265   6.921   1.245   1.832
 7456SOL     OW23266   1.161   2.012   4.663
 7456SOL    HW123267   1.177   1.928   4.611
 7456SOL    HW223268   1.080   2.001   4.720
 7457SOL     OW23269   4.112   0.760   5.943
 7457SOL    HW123270   4.145   0.668   5.967
 7457SOL    HW223271   4.052   0.754   5.864
 7458SOL     OW23272   1.443   0.653   6.464
 7458SOL    HW123273   1.493   0.611   6.540
 7458SOL    HW223274   1.499   0.725   6.423
 7459SOL     OW23275   4.875   7.008   0.423
 7459SOL    HW123276   4.796   0.002   0.483
 7459SOL    HW223277   4.947   6.960   0.474
 7460SOL     OW23278   2.143   4.176   0.939
 7460SOL    HW123279   2.102   4.257   0.898
 7460SOL    HW223280   2.159   4.107   0.868
 7461SOL     OW23281   4.990   1.345   5.969
 7461SOL    HW123282   4.983   1.444   5.976
 7461SOL    HW223283   5.053   1.311   6.039
 7462SOL     OW23284   2.199   2.714   2.148
 7462SOL    HW123285   2.253   2.721   2.231
 7462SOL    HW223286   2.241   2.648   2.086
 7463SOL     OW23287   3.757   4.224   1.350
 7463SOL    HW123288   3.675   4.166   1.352
 7463SOL    HW223289   3.732   4.316   1.381
 7464SOL     OW23290   3.119   6.678   6.292
 7464SOL    HW123291   3.088   6.662   6.386
 7464SOL    HW223292   3.153   6.592   6.254
 7465SOL     OW23293   1.804   0.754   0.624
 7465SOL    HW123294   1.811   0.732   0.721
 7465SOL    HW223295   1.815   0.671   0.570
 7466SOL     OW23296   0.472   0.530   6.930
 7466SOL    HW123297   0.489   0.515   6.832
 7466SOL    HW223298   0.560   0.545   6.977
 7467SOL     OW23299   6.783   1.759   0.871
 7467SOL    HW123300   6.808   1.667   0.843
 7467SOL    HW223301   6.734   1.755   0.958
 7468SOL     OW23302   5.364   2.535   2.408
 7468SOL    HW123303   5.356   2.563   2.504
 7468SOL    HW223304   5.461   2.529   2.384
 7469SOL     OW23305   0.454   0.408   0.791
 7469SOL    HW123306   0.546   0.419   0.753
 7469SOL    HW223307   0.452   0.332   0.855
 7470SOL     OW23308   0.342   3.196   3.800
 7470SOL    HW123309   0.346   3.262   3.725
 7470SOL    HW223310   0.370   3.106   3.767
 7471SOL     OW23311   6.086   6.946   4.802
 7471SOL    HW123312   6.141   6.972   4.723
 7471SOL    HW223313   6.012   7.012   4.814
 7472SOL     OW23314   5.769   6.887   4.021
 7472SOL    HW123315   5.746   6.898   4.118
 7472SOL    HW223316   5.774   6.977   3.977
 7473SOL     OW23317   0.701   4.366   3.057
 7473SOL    HW123318   0.665   4.313   3.133
 7473SOL    HW223319   0.781   4.319   3.018
 7474SOL     OW23320   2.239   0.856   5.336
 7474SOL    HW123321   2.311   0.873   5.269
 7474SOL    HW223322   2.178   0.935   5.341
 7475SOL     OW23323   3.487   1.398   2.366
 7475SOL    HW123324   3.514   1.447   2.284
 7475SOL    HW223325   3.556   1.412   2.438
 7476SOL     OW23326   3.641   6.452   4.072
 7476SOL    HW123327   3.680   6.507   4.145
 7476SOL    HW223328   3.713   6.423   4.009
 7477SOL     OW23329   5.615   1.774   3.883
 7477SOL    HW123330   5.582   1.699   3.940
 7477SOL    HW223331   5.627   1.856   3.938
 7478SOL     OW23332   3.850   4.188   6.009
 7478SOL    HW123333   3.764   4.182   5.959
 7478SOL    HW223334   3.833   4.216   6.103
 7479SOL     OW23335   4.221   2.787   0.680
 7479SOL    HW123336   4.121   2.790   0.683
 7479SOL    HW223337   4.252   2.819   0.590
 7480SOL     OW23338   6.236   4.588   1.820
 7480SOL    HW123339   6.155   4.534   1.841
 7480SOL    HW223340   6.318   4.539   1.852
 7481SOL     OW23341   5.729   5.367   1.566
 7481SOL    HW123342   5.750   5.276   1.529
 7481SOL    HW223343   5.764   5.374   1.660
 7482SOL     OW23344   4.759   1.813   2.644
 7482SOL    HW123345   4.756   1.864   2.558
 7482SOL    HW223346   4.665   1.796   2.676
 7483SOL     OW23347   4.563   2.273   5.044
 7483SOL    HW123348   4.515   2.246   5.128
 7483SOL    HW223349   4.549   2.371   5.029
 7484SOL     OW23350   0.014   0.193   2.510
 7484SOL    HW123351   6.953   0.160   2.457
 7484SOL    HW223352   0.011   0.292   2.516
 7485SOL     OW23353   3.099   5.826   5.384
 7485SOL    HW123354   3.184   5.877   5.368
 7485SOL    HW223355   3.117   5.728   5.378
 7486SOL     OW23356   2.418   0.540   5.885
 7486SOL    HW123357   2.476   0.527   5.804
 7486SOL    HW223358   2.469   0.588   5.956
 7487SOL     OW23359   1.970   6.692   2.533
 7487SOL    HW123360   2.048   6.632   2.545
 7487SOL    HW223361   2.001   6.787   2.524
 7488SOL     OW23362   1.796   6.781   5.154
 7488SOL    HW123363   1.888   6.742   5.149
 7488SOL    HW223364   1.733   6.725   5.100
 7489SOL     OW23365   5.486   2.275   5.316
 7489SOL    HW123366   5.479   2.211   5.239
 7489SOL    HW223367   5.406   2.335   5.316
 7490SOL     OW23368   1.117   1.601   1.387
 7490SOL    HW123369   1.157   1.518   1.424
 7490SOL    HW223370   1.074   1.654   1.460
 7491SOL     OW23371   0.135   4.277   6.531
 7491SOL    HW123372   0.229   4.311   6.537
 7491SOL    HW223373   0.082   4.338   6.473
 7492SOL     OW23374   2.821   1.214   4.733
 7492SOL    HW123375   2.914   1.239   4.761
 7492SOL    HW223376   2.821   1.121   4.696
 7493SOL     OW23377   6.279   4.125   6.263
 7493SOL    HW123378   6.253   4.101   6.357
 7493SOL    HW223379   6.206   4.178   6.220
 7494SOL     OW23380   6.027   1.033   2.398
 7494SOL    HW123381   6.118   1.073   2.385
 7494SOL    HW223382   5.957   1.103   2.384
 7495SOL     OW23383   2.780   1.277   1.029
 7495SOL    HW123384   2.810   1.236   0.943
 7495SOL    HW223385   2.685   1.308   1.019
 7496SOL     OW23386   0.911   3.432   5.989
 7496SOL    HW123387   0.899   3.483   6.074
 7496SOL    HW223388   0.899   3.334   6.006
 7497SOL     OW23389   2.255   5.173   1.094
 7497SOL    HW123390   2.266   5.149   1.190
 7497SOL    HW223391   2.325   5.240   1.069
 7498SOL     OW23392   1.697   0.736   4.601
 7498SOL    HW123393   1.704   0.835   4.607
 7498SOL    HW223394   1.607   0.706   4.634
 7499SOL     OW23395   6.069   1.334   3.248
 7499SOL    HW123396   6.007   1.377   3.313
 7499SOL    HW223397   6.026   1.252   3.211
 7500SOL     OW23398   3.924   6.411   3.498
 7500SOL    HW123399   3.830   6.382   3.485
 7500SOL    HW223400   3.984   6.361   3.435
 7501SOL     OW23401   6.516   4.161   4.389
 7501SOL    HW123402   6.537   4.081   4.334
 7501SOL    HW223403   6.573   4.238   4.359
 7502SOL     OW23404   1.062   0.914   5.457
 7502SOL    HW123405   0.972   0.946   5.429
 7502SOL    HW223406   1.052   0.845   5.529
 7503SOL     OW23407   2.085   1.651   0.162
 7503SOL    HW123408   2.098   1.576   0.097
 7503SOL    HW223409   2.121   1.736   0.123
 7504SOL     OW23410   3.100   0.473   3.933
 7504SOL    HW123411   3.099   0.502   4.028
 7504SOL    HW223412   3.163   0.532   3.881
 7505SOL     OW23413   2.095   0.839   5.672
 7505SOL    HW123414   2.063   0.789   5.592
 7505SOL    HW223415   2.023   0.900   5.705
 7506SOL     OW23416   3.972   0.237   2.872
 7506SOL    HW123417   3.966   0.310   2.804
 7506SOL    HW223418   4.007   0.274   2.958
 7507SOL     OW23419   0.112   0.747   1.123
 7507SOL    HW123420   0.125   0.663   1.175
 7507SOL    HW223421   0.178   0.750   1.048
 7508SOL     OW23422   5.803   0.186   2.244
 7508SOL    HW123423   5.746   0.267   2.229
 7508SOL    HW223424   5.775   0.113   2.181
 7509SOL     OW23425   5.625   3.916   1.032
 7509SOL    HW123426   5.643   3.978   0.956
 7509SOL    HW223427   5.711   3.892   1.077
 7510SOL     OW23428   2.765   4.102   5.402
 7510SOL    HW123429   2.733   4.010   5.378
 7510SOL    HW223430   2.687   4.164   5.407
 7511SOL     OW23431   1.236   0.276   3.514
 7511SOL    HW123432   1.166   0.241   3.452
 7511SOL    HW223433   1.193   0.300   3.602
 7512SOL     OW23434   3.147   4.644   1.278
 7512SOL    HW123435   3.207   4.573   1.315
 7512SOL    HW223436   3.170   4.661   1.182
 7513SOL     OW23437   1.814   1.726   1.738
 7513SOL    HW123438   1.766   1.797   1.788
 7513SOL    HW223439   1.830   1.756   1.644
 7514SOL     OW23440   2.816   5.690   2.612
 7514SOL    HW123441   2.777   5.673   2.702
 7514SOL    HW223442   2.771   5.631   2.545
 7515SOL     OW23443   1.529   6.291   2.117
 7515SOL    HW123444   1.582   6.328   2.194
 7515SOL    HW223445   1.585   6.224   2.068
 7516SOL     OW23446   0.161   6.050   4.234
 7516SOL    HW123447   0.158   5.972   4.171
 7516SOL    HW223448   0.072   6.063   4.276
 7517SOL     OW23449   6.866   3.256   1.659
 7517SOL    HW123450   6.823   3.338   1.621
 7517SOL    HW223451   6.883   3.190   1.585
 7518SOL     OW23452   3.873   5.665   3.552
 7518SOL    HW123453   3.883   5.763   3.535
 7518SOL    HW223454   3.817   5.651   3.633
 7519SOL     OW23455   0.294   6.680   3.533
 7519SOL    HW123456   0.246   6.721   3.611
 7519SOL    HW223457   0.233   6.615   3.488
 7520SOL     OW23458   3.376   0.015   2.060
 7520SOL    HW123459   3.319   6.956   2.086
 7520SOL    HW223460   3.473   7.007   2.066
 7521SOL     OW23461   4.279   4.501   6.025
 7521SOL    HW123462   4.246   4.594   6.007
 7521SOL    HW223463   4.251   4.473   6.116
 7522SOL     OW23464   2.761   0.597   6.765
 7522SOL    HW123465   2.680   0.572   6.818
 7522SOL    HW223466   2.748   0.571   6.670
 7523SOL     OW23467   5.388   0.376   5.781
 7523SOL    HW123468   5.394   0.292   5.726
 7523SOL    HW223469   5.411   0.455   5.724
 7524SOL     OW23470   1.153   2.178   6.608
 7524SOL    HW123471   1.211   2.096   6.609
 7524SOL    HW223472   1.128   2.202   6.701
 7525SOL     OW23473   2.591   6.765   0.166
 7525SOL    HW123474   2.529   6.714   0.106
 7525SOL    HW223475   2.685   6.754   0.135
 7526SOL     OW23476   3.619   3.078   2.569
 7526SOL    HW123477   3.663   3.163   2.539
 7526SOL    HW223478   3.530   3.100   2.610
 7527SOL     OW23479   4.019   5.627   3.317
 7527SOL    HW123480   4.111   5.658   3.341
 7527SOL    HW223481   3.960   5.636   3.397
 7528SOL     OW23482   3.848   1.963   6.537
 7528SOL    HW123483   3.849   2.055   6.499
 7528SOL    HW223484   3.935   1.944   6.582
 7529SOL     OW23485   5.581   0.782   4.297
 7529SOL    HW123486   5.579   0.727   4.213
 7529SOL    HW223487   5.535   0.732   4.370
 7530SOL     OW23488   6.319   3.924   2.415
 7530SOL    HW123489   6.237   3.945   2.363
 7530SOL    HW223490   6.389   3.886   2.355
 7531SOL     OW23491   4.711   2.429   4.100
 7531SOL    HW123492   4.667   2.487   4.032
 7531SOL    HW223493   4.673   2.449   4.191
 7532SOL     OW23494   5.480   5.659   1.479
 7532SOL    HW123495   5.397   5.714   1.486
 7532SOL    HW223496   5.520   5.648   1.570
 7533SOL     OW23497   2.322   0.758   2.968
 7533SOL    HW123498   2.265   0.835   2.940
 7533SOL    HW223499   2.411   0.792   3.000
 7534SOL     OW23500   3.421   6.517   5.336
 7534SOL    HW123501   3.520   6.504   5.331
 7534SOL    HW223502   3.381   6.507   5.244
 7535SOL     OW23503   2.719   0.759   5.898
 7535SOL    HW123504   2.816   0.745   5.883
 7535SOL    HW223505   2.666   0.707   5.831
 7536SOL     OW23506   5.744   4.931   4.743
 7536SOL    HW123507   5.814   4.983   4.793
 7536SOL    HW223508   5.783   4.897   4.657
 7537SOL     OW23509   2.750   5.352   4.683
 7537SOL    HW123510   2.765   5.345   4.584
 7537SOL    HW223511   2.740   5.448   4.708
 7538SOL     OW23512   3.399   2.830   1.877
 7538SOL    HW123513   3.317   2.844   1.821
 7538SOL    HW223514   3.455   2.758   1.838
 7539SOL     OW23515   2.335   2.569   4.136
 7539SOL    HW123516   2.319   2.504   4.211
 7539SOL    HW223517   2.425   2.553   4.096
 7540SOL     OW23518   2.557   0.639   5.670
 7540SOL    HW123519   2.477   0.693   5.643
 7540SOL    HW223520   2.619   0.630   5.592
 7541SOL     OW23521   6.844   3.567   4.478
 7541SOL    HW123522   6.918   3.503   4.497
 7541SOL    HW223523   6.862   3.653   4.526
 7542SOL     OW23524   0.695   6.008   6.865
 7542SOL    HW123525   0.682   5.956   6.949
 7542SOL    HW223526   0.636   5.971   6.793
 7543SOL     OW23527   4.207   2.356   0.891
 7543SOL    HW123528   4.197   2.272   0.838
 7543SOL    HW223529   4.256   2.336   0.976
 7544SOL     OW23530   0.259   2.153   3.766
 7544SOL    HW123531   0.232   2.230   3.823
 7544SOL    HW223532   0.312   2.185   3.688
 7545SOL     OW23533   5.913   6.565   3.134
 7545SOL    HW123534   5.918   6.543   3.037
 7545SOL    HW223535   6.006   6.565   3.173
 7546SOL     OW23536   4.452   0.922   1.715
 7546SOL    HW123537   4.488   0.997   1.770
 7546SOL    HW223538   4.382   0.872   1.767
 7547SOL     OW23539   4.739   0.171   0.803
 7547SOL    HW123540   4.804   0.204   0.735
 7547SOL    HW223541   4.664   0.237   0.813
 7548SOL     OW23542   2.859   2.320   0.449
 7548SOL    HW123543   2.781   2.312   0.387
 7548SOL    HW223544   2.931   2.257   0.419
 7549SOL     OW23545   5.435   1.986   1.500
 7549SOL    HW123546   5.369   1.918   1.532
 7549SOL    HW223547   5.516   1.939   1.465
 7550SOL     OW23548   2.496   4.646   1.861
 7550SOL    HW123549   2.555   4.580   1.816
 7550SOL    HW223550   2.464   4.609   1.947
 7551SOL     OW23551   4.876   3.747   6.852
 7551SOL    HW123552   4.946   3.791   6.908
 7551SOL    HW223553   4.800   3.719   6.910
 7552SOL     OW23554   2.009   5.437   3.824
 7552SOL    HW123555   2.082   5.488   3.779
 7552SOL    HW223556   2.047   5.385   3.901
 7553SOL     OW23557   4.219   5.251   5.380
 7553SOL    HW123558   4.131   5.292   5.405
 7553SOL    HW223559   4.293   5.315   5.401
 7554SOL     OW23560   4.943   0.354   0.666
 7554SOL    HW123561   5.006   0.332   0.740
 7554SOL    HW223562   4.987   0.336   0.578
 7555SOL     OW23563   1.938   5.119   5.080
 7555SOL    HW123564   2.001   5.044   5.062
 7555SOL    HW223565   1.912   5.117   5.177
 7556SOL     OW23566   0.687   2.554   5.718
 7556SOL    HW123567   0.643   2.626   5.665
 7556SOL    HW223568   0.651   2.465   5.689
 7557SOL     OW23569   5.206   2.825   6.199
 7557SOL    HW123570   5.180   2.827   6.296
 7557SOL    HW223571   5.176   2.739   6.158
 7558SOL     OW23572   2.484   2.481   3.244
 7558SOL    HW123573   2.471   2.539   3.164
 7558SOL    HW223574   2.574   2.437   3.241
 7559SOL     OW23575   6.263   5.699   0.817
 7559SOL    HW123576   6.340   5.718   0.878
 7559SOL    HW223577   6.226   5.786   0.782
 7560SOL     OW23578   5.406   6.086   0.281
 7560SOL    HW123579   5.432   6.133   0.365
 7560SOL    HW223580   5.410   6.150   0.204
 7561SOL     OW23581   0.877   3.187   0.789
 7561SOL    HW123582   0.943   3.235   0.847
 7561SOL    HW223583   0.906   3.194   0.693
 7562SOL     OW23584   5.356   6.624   4.589
 7562SOL    HW123585   5.301   6.650   4.510
 7562SOL    HW223586   5.361   6.524   4.596
 7563SOL     OW23587   2.698   6.443   1.140
 7563SOL    HW123588   2.772   6.379   1.122
 7563SOL    HW223589   2.728   6.512   1.206
 7564SOL     OW23590   5.401   1.496   2.529
 7564SOL    HW123591   5.342   1.575   2.547
 7564SOL    HW223592   5.346   1.412   2.535
 7565SOL     OW23593   5.105   4.622   0.113
 7565SOL    HW123594   5.046   4.551   0.152
 7565SOL    HW223595   5.124   4.600   0.017
 7566SOL     OW23596   0.516   5.215   3.303
 7566SOL    HW123597   0.541   5.119   3.314
 7566SOL    HW223598   0.560   5.270   3.374
 7567SOL     OW23599   2.125   2.528   5.120
 7567SOL    HW123600   2.118   2.614   5.070
 7567SOL    HW223601   2.176   2.543   5.205
 7568SOL     OW23602   5.769   6.214   3.469
 7568SOL    HW123603   5.781   6.117   3.449
 7568SOL    HW223604   5.677   6.231   3.504
 7569SOL     OW23605   4.068   4.655   6.517
 7569SOL    HW123606   3.981   4.623   6.480
 7569SOL    HW223607   4.054   4.741   6.565
 7570SOL     OW23608   5.315   4.603   5.313
 7570SOL    HW123609   5.350   4.655   5.391
 7570SOL    HW223610   5.350   4.509   5.317
 7571SOL     OW23611   5.212   5.010   2.498
 7571SOL    HW123612   5.259   4.982   2.582
 7571SOL    HW223613   5.259   4.972   2.419
 7572SOL     OW23614   4.904   0.404   3.305
 7572SOL    HW123615   4.821   0.354   3.331
 7572SOL    HW223616   4.971   0.397   3.378
 7573SOL     OW23617   5.878   6.315   4.468
 7573SOL    HW123618   5.974   6.312   4.441
 7573SOL    HW223619   5.872   6.336   4.566
 7574SOL     OW23620   6.736   0.902   4.963
 7574SOL    HW123621   6.728   0.888   4.865
 7574SOL    HW223622   6.833   0.899   4.989
 7575SOL     OW23623   4.344   6.903   6.017
 7575SOL    HW123624   4.301   6.986   5.983
 7575SOL    HW223625   4.304   6.823   5.971
 7576SOL     OW23626   6.218   5.672   0.303
 7576SOL    HW123627   6.152   5.598   0.291
 7576SOL    HW223628   6.250   5.674   0.397
 7577SOL     OW23629   6.954   6.721   5.602
 7577SOL    HW123630   6.867   6.678   5.580
 7577SOL    HW223631   6.971   6.797   5.539
 7578SOL     OW23632   2.249   6.220   3.208
 7578SOL    HW123633   2.195   6.224   3.292
 7578SOL    HW223634   2.241   6.306   3.158
 7579SOL     OW23635   4.920   2.046   2.311
 7579SOL    HW123636   4.857   1.968   2.308
 7579SOL    HW223637   4.943   2.074   2.218
 7580SOL     OW23638   1.057   4.215   4.377
 7580SOL    HW123639   1.151   4.249   4.371
 7580SOL    HW223640   1.009   4.264   4.449
 7581SOL     OW23641   5.201   0.334   1.216
 7581SOL    HW123642   5.111   0.364   1.184
 7581SOL    HW223643   5.262   0.412   1.221
 7582SOL     OW23644   3.081   1.103   0.204
 7582SOL    HW123645   3.004   1.045   0.179
 7582SOL    HW223646   3.047   1.193   0.232
 7583SOL     OW23647   6.213   2.894   1.579
 7583SOL    HW123648   6.116   2.877   1.560
 7583SOL    HW223649   6.223   2.939   1.668
 7584SOL     OW23650   2.937   6.559   0.903
 7584SOL    HW123651   2.986   6.596   0.982
 7584SOL    HW223652   3.000   6.505   0.847
 7585SOL     OW23653   1.527   3.277   6.191
 7585SOL    HW123654   1.512   3.203   6.256
 7585SOL    HW223655   1.619   3.268   6.152
 7586SOL     OW23656   3.517   0.768   3.467
 7586SOL    HW123657   3.529   0.741   3.562
 7586SOL    HW223658   3.440   0.719   3.427
 7587SOL     OW23659   3.410   1.449   6.561
 7587SOL    HW123660   3.409   1.409   6.653
 7587SOL    HW223661   3.346   1.400   6.502
 7588SOL     OW23662   1.053   3.666   2.440
 7588SOL    HW123663   1.120   3.595   2.418
 7588SOL    HW223664   1.083   3.753   2.401
 7589SOL     OW23665   6.539   6.886   1.080
 7589SOL    HW123666   6.491   6.853   1.161
 7589SOL    HW223667   6.557   6.810   1.018
 7590SOL     OW23668   3.047   2.102   6.825
 7590SOL    HW123669   3.016   2.195   6.848
 7590SOL    HW223670   2.970   2.047   6.795
 7591SOL     OW23671   6.714   4.697   0.572
 7591SOL    HW123672   6.722   4.748   0.487
 7591SOL    HW223673   6.728   4.758   0.650
 7592SOL     OW23674   6.764   4.430   6.537
 7592SOL    HW123675   6.754   4.494   6.613
 7592SOL    HW223676   6.703   4.351   6.553
 7593SOL     OW23677   5.231   2.634   0.713
 7593SOL    HW123678   5.325   2.668   0.721
 7593SOL    HW223679   5.178   2.666   0.792
 7594SOL     OW23680   0.165   4.739   2.306
 7594SOL    HW123681   0.108   4.798   2.364
 7594SOL    HW223682   0.261   4.760   2.321
 7595SOL     OW23683   6.872   2.344   5.852
 7595SOL    HW123684   6.929   2.414   5.808
 7595SOL    HW223685   6.800   2.389   5.905
 7596SOL     OW23686   3.961   5.433   3.112
 7596SOL    HW123687   3.937   5.359   3.175
 7596SOL    HW223688   4.005   5.507   3.163
 7597SOL     OW23689   2.606   5.917   2.201
 7597SOL    HW123690   2.681   5.859   2.169
 7597SOL    HW223691   2.634   5.967   2.283
 7598SOL     OW23692   0.048   1.575   2.795
 7598SOL    HW123693   0.029   1.510   2.721
 7598SOL    HW223694   0.081   1.525   2.875
 7599SOL     OW23695   5.472   1.822   3.208
 7599SOL    HW123696   5.386   1.809   3.256
 7599SOL    HW223697   5.453   1.836   3.110
 7600SOL     OW23698   1.721   1.321   2.407
 7600SOL    HW123699   1.702   1.316   2.505
 7600SOL    HW223700   1.678   1.244   2.361
 7601SOL     OW23701   1.958   5.884   2.489
 7601SOL    HW123702   1.982   5.832   2.407
 7601SOL    HW223703   1.962   5.824   2.569
 7602SOL     OW23704   1.422   4.426   6.553
 7602SOL    HW123705   1.327   4.422   6.525
 7602SOL    HW223706   1.478   4.370   6.492
 7603SOL     OW23707   1.068   5.522   5.840
 7603SOL    HW123708   1.135   5.447   5.844
 7603SOL    HW223709   0.981   5.487   5.806
 7604SOL     OW23710   2.063   4.236   4.370
 7604SOL    HW123711   2.007   4.205   4.447
 7604SOL    HW223712   2.159   4.216   4.388
 7605SOL     OW23713   0.736   6.713   0.580
 7605SOL    HW123714   0.765   6.624   0.616
 7605SOL    HW223715   0.813   6.776   0.581
 7606SOL     OW23716   6.857   3.062   3.854
 7606SOL    HW123717   6.845   2.973   3.897
 7606SOL    HW223718   6.909   3.051   3.769
 7607SOL     OW23719   4.755   6.019   0.417
 7607SOL    HW123720   4.833   5.971   0.457
 7607SOL    HW223721   4.683   5.954   0.394
 7608SOL     OW23722   3.161   3.990   2.577
 7608SOL    HW123723   3.189   4.028   2.666
 7608SOL    HW223724   3.094   3.917   2.591
 7609SOL     OW23725   7.014   4.001   3.799
 7609SOL    HW123726   0.055   4.075   3.830
 7609SOL    HW223727   6.931   3.999   3.854
 7610SOL     OW23728   6.079   0.158   6.717
 7610SOL    HW123729   6.065   0.109   6.803
 7610SOL    HW223730   6.067   0.096   6.640
 7611SOL     OW23731   0.807   1.945   0.161
 7611SOL    HW123732   0.754   2.004   0.100
 7611SOL    HW223733   0.785   1.849   0.141
 7612SOL     OW23734   5.180   2.935   4.718
 7612SOL    HW123735   5.103   2.871   4.728
 7612SOL    HW223736   5.187   2.991   4.800
 7613SOL     OW23737   5.812   3.099   1.592
 7613SOL    HW123738   5.835   3.145   1.677
 7613SOL    HW223739   5.712   3.092   1.583
 7614SOL     OW23740   5.238   3.214   1.574
 7614SOL    HW123741   5.205   3.141   1.514
 7614SOL    HW223742   5.255   3.178   1.665
 7615SOL     OW23743   4.430   3.934   6.359
 7615SOL    HW123744   4.460   3.882   6.279
 7615SOL    HW223745   4.500   3.929   6.430
 7616SOL     OW23746   6.896   4.471   4.537
 7616SOL    HW123747   6.929   4.467   4.443
 7616SOL    HW223748   6.848   4.386   4.559
 7617SOL     OW23749   2.976   5.254   3.014
 7617SOL    HW123750   2.885   5.230   3.049
 7617SOL    HW223751   2.968   5.329   2.948
 7618SOL     OW23752   0.674   2.289   6.579
 7618SOL    HW123753   0.683   2.366   6.517
 7618SOL    HW223754   0.751   2.227   6.566
 7619SOL     OW23755   5.512   3.487   5.586
 7619SOL    HW123756   5.452   3.500   5.666
 7619SOL    HW223757   5.463   3.512   5.503
 7620SOL     OW23758   3.404   5.247   0.120
 7620SOL    HW123759   3.320   5.302   0.122
 7620SOL    HW223760   3.398   5.181   0.045
 7621SOL     OW23761   0.265   1.699   0.462
 7621SOL    HW123762   0.200   1.743   0.524
 7621SOL    HW223763   0.333   1.649   0.516
 7622SOL     OW23764   5.018   5.574   1.888
 7622SOL    HW123765   4.989   5.608   1.799
 7622SOL    HW223766   4.983   5.481   1.901
 7623SOL     OW23767   4.555   4.589   6.638
 7623SOL    HW123768   4.544   4.540   6.552
 7623SOL    HW223769   4.545   4.687   6.623
 7624SOL     OW23770   6.964   2.442   4.798
 7624SOL    HW123771   6.958   2.509   4.724
 7624SOL    HW223772   6.872   2.414   4.826
 7625SOL     OW23773   4.606   0.530   1.580
 7625SOL    HW123774   4.513   0.563   1.591
 7625SOL    HW223775   4.610   0.464   1.504
 7626SOL     OW23776   6.857   6.509   4.384
 7626SOL    HW123777   6.819   6.417   4.398
 7626SOL    HW223778   6.809   6.554   4.309
 7627SOL     OW23779   5.330   3.115   6.669
 7627SOL    HW123780   5.279   3.031   6.648
 7627SOL    HW223781   5.422   3.109   6.629
 7628SOL     OW23782   3.620   0.618   2.008
 7628SOL    HW123783   3.660   0.535   1.970
 7628SOL    HW223784   3.524   0.624   1.980
 7629SOL     OW23785   6.936   0.199   2.869
 7629SOL    HW123786   6.911   0.187   2.965
 7629SOL    HW223787   6.890   0.129   2.814
 7630SOL     OW23788   6.087   6.944   1.590
 7630SOL    HW123789   5.996   6.969   1.559
 7630SOL    HW223790   6.138   0.008   1.616
 7631SOL     OW23791   0.549   1.073   5.468
 7631SOL    HW123792   0.544   1.085   5.567
 7631SOL    HW223793   0.551   0.976   5.445
 7632SOL     OW23794   3.534   2.617   1.768
 7632SOL    HW123795   3.493   2.617   1.677
 7632SOL    HW223796   3.582   2.530   1.783
 7633SOL     OW23797   4.476   2.506   0.481
 7633SOL    HW123798   4.396   2.512   0.541
 7633SOL    HW223799   4.452   2.540   0.390
 7634SOL     OW23800   0.748   1.735   2.398
 7634SOL    HW123801   0.717   1.813   2.452
 7634SOL    HW223802   0.696   1.731   2.312
 7635SOL     OW23803   2.709   5.905   5.179
 7635SOL    HW123804   2.746   5.961   5.105
 7635SOL    HW223805   2.611   5.924   5.190
 7636SOL     OW23806   1.665   2.255   3.498
 7636SOL    HW123807   1.616   2.291   3.418
 7636SOL    HW223808   1.600   2.231   3.569
 7637SOL     OW23809   2.653   6.422   2.969
 7637SOL    HW123810   2.666   6.510   2.924
 7637SOL    HW223811   2.733   6.364   2.954
 7638SOL     OW23812   4.089   5.891   1.678
 7638SOL    HW123813   4.019   5.954   1.646
 7638SOL    HW223814   4.074   5.869   1.774
 7639SOL     OW23815   1.765   2.085   0.692
 7639SOL    HW123816   1.697   2.016   0.719
 7639SOL    HW223817   1.798   2.133   0.773
 7640SOL     OW23818   3.340   1.833   0.190
 7640SOL    HW123819   3.341   1.854   0.092
 7640SOL    HW223820   3.267   1.767   0.209
 7641SOL     OW23821   0.964   4.246   1.766
 7641SOL    HW123822   0.936   4.305   1.842
 7641SOL    HW223823   0.882   4.212   1.719
 7642SOL     OW23824   2.501   1.508   2.142
 7642SOL    HW123825   2.504   1.583   2.209
 7642SOL    HW223826   2.476   1.545   2.053
 7643SOL     OW23827   4.782   2.945   4.180
 7643SOL    HW123828   4.782   2.934   4.080
 7643SOL    HW223829   4.832   3.027   4.205
 7644SOL     OW23830   5.818   2.524   2.076
 7644SOL    HW123831   5.890   2.544   2.144
 7644SOL    HW223832   5.849   2.555   1.986
 7645SOL     OW23833   4.378   3.946   5.408
 7645SOL    HW123834   4.331   4.023   5.367
 7645SOL    HW223835   4.324   3.910   5.484
 7646SOL     OW23836   2.347   2.486   2.556
 7646SOL    HW123837   2.282   2.448   2.490
 7646SOL    HW223838   2.395   2.411   2.603
 7647SOL     OW23839   0.175   3.423   2.417
 7647SOL    HW123840   0.219   3.415   2.327
 7647SOL    HW223841   0.244   3.449   2.485
 7648SOL     OW23842   3.367   1.452   3.340
 7648SOL    HW123843   3.362   1.384   3.266
 7648SOL    HW223844   3.444   1.429   3.400
 7649SOL     OW23845   0.848   1.258   2.794
 7649SOL    HW123846   0.944   1.278   2.774
 7649SOL    HW223847   0.826   1.166   2.761
 7650SOL     OW23848   5.119   2.539   1.313
 7650SOL    HW123849   5.153   2.569   1.402
 7650SOL    HW223850   5.196   2.514   1.254
 7651SOL     OW23851   2.450   6.758   5.261
 7651SOL    HW123852   2.401   6.826   5.206
 7651SOL    HW223853   2.386   6.711   5.321
 7652SOL     OW23854   6.815   3.900   4.321
 7652SOL    HW123855   6.784   3.837   4.250
 7652SOL    HW223856   6.747   3.904   4.394
 7653SOL     OW23857   2.993   1.362   0.246
 7653SOL    HW123858   2.927   1.412   0.302
 7653SOL    HW223859   3.044   1.427   0.189
 7654SOL     OW23860   5.453   3.359   3.864
 7654SOL    HW123861   5.534   3.351   3.806
 7654SOL    HW223862   5.423   3.454   3.868
 7655SOL     OW23863   3.295   0.523   3.693
 7655SOL    HW123864   3.272   0.531   3.596
 7655SOL    HW223865   3.325   0.430   3.712
 7656SOL     OW23866   1.859   4.981   6.323
 7656SOL    HW123867   1.917   5.019   6.251
 7656SOL    HW223868   1.913   4.919   6.380
 7657SOL     OW23869   2.774   2.361   3.309
 7657SOL    HW123870   2.715   2.320   3.378
 7657SOL    HW223871   2.868   2.362   3.341
 7658SOL     OW23872   3.549   6.927   5.736
 7658SOL    HW123873   3.505   6.861   5.797
 7658SOL    HW223874   3.562   7.014   5.785
 7659SOL     OW23875   5.805   5.482   6.716
 7659SOL    HW123876   5.737   5.409   6.718
 7659SOL    HW223877   5.764   5.566   6.680
 7660SOL     OW23878   0.046   6.610   4.152
 7660SOL    HW123879   0.104   6.595   4.231
 7660SOL    HW223880   0.080   6.555   4.075
 7661SOL     OW23881   5.308   2.614   4.573
 7661SOL    HW123882   5.251   2.580   4.497
 7661SOL    HW223883   5.250   2.631   4.652
 7662SOL     OW23884   0.722   2.439   2.485
 7662SOL    HW123885   0.630   2.408   2.460
 7662SOL    HW223886   0.730   2.441   2.585
 7663SOL     OW23887   0.367   6.873   6.167
 7663SOL    HW123888   0.383   6.971   6.179
 7663SOL    HW223889   0.295   6.843   6.231
 7664SOL     OW23890   3.970   0.418   2.393
 7664SOL    HW123891   3.918   0.336   2.418
 7664SOL    HW223892   3.915   0.474   2.331
 7665SOL     OW23893   4.571   0.033   5.023
 7665SOL    HW123894   4.488   0.078   4.988
 7665SOL    HW223895   4.552   7.013   5.113
 7666SOL     OW23896   1.012   6.627   1.845
 7666SOL    HW123897   1.013   6.683   1.928
 7666SOL    HW223898   1.070   6.546   1.859
 7667SOL     OW23899   4.608   6.109   1.990
 7667SOL    HW123900   4.557   6.169   1.929
 7667SOL    HW223901   4.557   6.098   2.076
 7668SOL     OW23902   3.120   4.208   1.122
 7668SOL    HW123903   3.028   4.173   1.142
 7668SOL    HW223904   3.168   4.225   1.208
 7669SOL     OW23905   5.603   1.710   6.005
 7669SOL    HW123906   5.682   1.737   6.061
 7669SOL    HW223907   5.586   1.780   5.936
 7670SOL     OW23908   0.644   4.670   6.321
 7670SOL    HW123909   0.678   4.626   6.238
 7670SOL    HW223910   0.721   4.696   6.379
 7671SOL     OW23911   4.584   0.753   4.285
 7671SOL    HW123912   4.651   0.679   4.289
 7671SOL    HW223913   4.627   0.836   4.249
 7672SOL     OW23914   6.068   6.870   3.473
 7672SOL    HW123915   6.000   6.818   3.420
 7672SOL    HW223916   6.124   6.807   3.527
 7673SOL     OW23917   1.789   5.095   6.933
 7673SOL    HW123918   1.705   5.041   6.938
 7673SOL    HW223919   1.813   5.111   6.837
 7674SOL     OW23920   6.110   2.274   3.475
 7674SOL    HW123921   6.054   2.352   3.449
 7674SOL    HW223922   6.200   2.305   3.506
 7675SOL     OW23923   4.999   6.807   2.787
 7675SOL    HW123924   4.982   6.764   2.698
 7675SOL    HW223925   5.076   6.869   2.780
 7676SOL     OW23926   1.785   1.887   0.321
 7676SOL    HW123927   1.789   1.949   0.242
 7676SOL    HW223928   1.846   1.921   0.392
 7677SOL     OW23929   0.279   3.970   2.353
 7677SOL    HW123930   0.351   3.954   2.422
 7677SOL    HW223931   0.206   3.903   2.367
 7678SOL     OW23932   2.361   1.677   5.048
 7678SOL    HW123933   2.400   1.585   5.044
 7678SOL    HW223934   2.419   1.735   5.105
 7679SOL     OW23935   2.295   6.071   6.070
 7679SOL    HW123936   2.367   6.012   6.107
 7679SOL    HW223937   2.277   6.045   5.975
 7680SOL     OW23938   1.625   1.689   0.389
 7680SOL    HW123939   1.538   1.715   0.346
 7680SOL    HW223940   1.698   1.749   0.356
 7681SOL     OW23941   2.900   6.774   0.144
 7681SOL    HW123942   2.976   6.715   0.116
 7681SOL    HW223943   2.906   6.791   0.242
 7682SOL     OW23944   3.322   0.576   1.933
 7682SOL    HW123945   3.311   0.484   1.896
 7682SOL    HW223946   3.338   0.570   2.032
 7683SOL     OW23947   6.790   2.084   3.564
 7683SOL    HW123948   6.773   1.997   3.518
 7683SOL    HW223949   6.872   2.127   3.525
 7684SOL     OW23950   4.259   2.137   1.374
 7684SOL    HW123951   4.187   2.070   1.359
 7684SOL    HW223952   4.344   2.103   1.334
 7685SOL     OW23953   3.075   3.342   6.683
 7685SOL    HW123954   3.050   3.254   6.723
 7685SOL    HW223955   3.009   3.412   6.711
 7686SOL     OW23956   5.389   0.094   2.994
 7686SOL    HW123957   5.452   0.045   3.054
 7686SOL    HW223958   5.431   0.181   2.966
 7687SOL     OW23959   5.906   4.951   5.164
 7687SOL    HW123960   5.988   4.942   5.221
 7687SOL    HW223961   5.910   5.037   5.113
 7688SOL     OW23962   0.215   6.756   5.599
 7688SOL    HW123963   0.116   6.741   5.597
 7688SOL    HW223964   0.234   6.843   5.644
 7689SOL     OW23965   5.169   6.207   2.731
 7689SOL    HW123966   5.198   6.241   2.821
 7689SOL    HW223967   5.239   6.227   2.663
 7690SOL     OW23968   6.293   4.984   1.246
 7690SOL    HW123969   6.204   5.000   1.288
 7690SOL    HW223970   6.293   5.018   1.152
 7691SOL     OW23971   5.363   3.011   4.095
 7691SOL    HW123972   5.356   3.106   4.123
 7691SOL    HW223973   5.276   2.964   4.114
 7692SOL     OW23974   1.215   6.414   1.891
 7692SOL    HW123975   1.299   6.459   1.861
 7692SOL    HW223976   1.237   6.343   1.958
 7693SOL     OW23977   3.665   0.303   1.430
 7693SOL    HW123978   3.568   0.315   1.408
 7693SOL    HW223979   3.686   0.206   1.439
 7694SOL     OW23980   6.986   4.388   3.887
 7694SOL    HW123981   6.897   4.433   3.884
 7694SOL    HW223982   0.007   4.397   3.978
 7695SOL     OW23983   4.055   6.245   0.254
 7695SOL    HW123984   3.998   6.239   0.337
 7695SOL    HW223985   4.088   6.339   0.243
 7696SOL     OW23986   6.951   1.637   4.466
 7696SOL    HW123987   6.981   1.675   4.378
 7696SOL    HW223988   7.017   1.569   4.497
 7697SOL     OW23989   3.013   0.132   1.669
 7697SOL    HW123990   2.962   0.131   1.755
 7697SOL    HW223991   2.953   0.102   1.595
 7698SOL     OW23992   6.846   1.902   4.007
 7698SOL    HW123993   6.776   1.939   3.946
 7698SOL    HW223994   6.929   1.956   3.998
 7699SOL     OW23995   3.624   5.857   0.394
 7699SOL    HW123996   3.542   5.850   0.336
 7699SOL    HW223997   3.687   5.924   0.354
 7700SOL     OW23998   4.773   6.524   4.660
 7700SOL    HW123999   4.814   6.599   4.712
 7700SOL    HW224000   4.820   6.439   4.682
 7701SOL     OW24001   6.949   1.383   6.927
 7701SOL    HW124002   6.970   1.458   6.990
 7701SOL    HW224003   0.015   1.354   6.881
 7702SOL     OW24004   2.724   6.517   6.084
 7702SOL    HW124005   2.630   6.549   6.071
 7702SOL    HW224006   2.722   6.425   6.123
 7703SOL     OW24007   6.340   0.816   5.207
 7703SOL    HW124008   6.283   0.812   5.125
 7703SOL    HW224009   6.281   0.818   5.289
 7704SOL     OW24010   5.468   4.689   5.504
 7704SOL    HW124011   5.527   4.766   5.481
 7704SOL    HW224012   5.525   4.610   5.528
 7705SOL     OW24013   3.764   4.915   6.079
 7705SOL    HW124014   3.717   4.884   5.996
 7705SOL    HW224015   3.846   4.966   6.053
 7706SOL     OW24016   4.822   2.276   4.933
 7706SOL    HW124017   4.732   2.265   4.974
 7706SOL    HW224018   4.845   2.373   4.929
 7707SOL     OW24019   0.990   5.730   6.315
 7707SOL    HW124020   0.964   5.634   6.325
 7707SOL    HW224021   0.950   5.784   6.390
 7708SOL     OW24022   5.711   6.911   5.232
 7708SOL    HW124023   5.732   6.941   5.139
 7708SOL    HW224024   5.662   6.824   5.229
 7709SOL     OW24025   6.049   4.398   1.418
 7709SOL    HW124026   5.961   4.355   1.434
 7709SOL    HW224027   6.050   4.489   1.461
 7710SOL     OW24028   4.155   0.600   0.889
 7710SOL    HW124029   4.095   0.600   0.808
 7710SOL    HW224030   4.116   0.660   0.958
 7711SOL     OW24031   6.136   6.035   5.178
 7711SOL    HW124032   6.146   6.109   5.113
 7711SOL    HW224033   6.226   6.004   5.209
 7712SOL     OW24034   5.595   4.969   2.307
 7712SOL    HW124035   5.669   4.979   2.241
 7712SOL    HW224036   5.631   4.980   2.400
 7713SOL     OW24037   1.294   5.081   0.555
 7713SOL    HW124038   1.354   5.042   0.626
 7713SOL    HW224039   1.338   5.162   0.515
 7714SOL     OW24040   6.802   4.624   5.500
 7714SOL    HW124041   6.874   4.622   5.431
 7714SOL    HW224042   6.809   4.707   5.555
 7715SOL     OW24043   4.557   1.920   0.003
 7715SOL    HW124044   4.516   2.008   0.029
 7715SOL    HW224045   4.601   1.929   6.932
 7716SOL     OW24046   6.270   4.466   4.019
 7716SOL    HW124047   6.304   4.533   3.953
 7716SOL    HW224048   6.332   4.388   4.023
 7717SOL     OW24049   1.585   1.120   4.912
 7717SOL    HW124050   1.632   1.104   4.825
 7717SOL    HW224051   1.547   1.034   4.946
 7718SOL     OW24052   1.783   2.019   3.389
 7718SOL    HW124053   1.748   2.101   3.434
 7718SOL    HW224054   1.722   1.995   3.313
 7719SOL     OW24055   6.935   3.241   4.287
 7719SOL    HW124056   6.990   3.163   4.317
 7719SOL    HW224057   6.867   3.262   4.357
 7720SOL     OW24058   0.144   0.104   0.426
 7720SOL    HW124059   0.123   0.024   0.370
 7720SOL    HW224060   0.223   0.152   0.388
 7721SOL     OW24061   1.254   5.046   2.360
 7721SOL    HW124062   1.203   4.968   2.397
 7721SOL    HW224063   1.255   5.120   2.427
 7722SOL     OW24064   0.505   5.775   2.948
 7722SOL    HW124065   0.516   5.677   2.962
 7722SOL    HW224066   0.431   5.809   3.005
 7723SOL     OW24067   6.546   3.957   6.798
 7723SOL    HW124068   6.582   3.923   6.712
 7723SOL    HW224069   6.446   3.957   6.795
 7724SOL     OW24070   2.400   4.258   1.824
 7724SOL    HW124071   2.477   4.318   1.802
 7724SOL    HW224072   2.397   4.182   1.759
 7725SOL     OW24073   5.371   3.145   3.423
 7725SOL    HW124074   5.324   3.171   3.338
 7725SOL    HW224075   5.322   3.069   3.466
 7726SOL     OW24076   1.249   6.269   4.800
 7726SOL    HW124077   1.219   6.206   4.728
 7726SOL    HW224078   1.282   6.354   4.759
 7727SOL     OW24079   0.200   0.613   2.697
 7727SOL    HW124080   0.249   0.538   2.742
 7727SOL    HW224081   0.206   0.695   2.755
 7728SOL     OW24082   0.879   5.750   3.640
 7728SOL    HW124083   0.837   5.668   3.680
 7728SOL    HW224084   0.977   5.736   3.630
 7729SOL     OW24085   5.899   2.814   0.608
 7729SOL    HW124086   5.954   2.749   0.660
 7729SOL    HW224087   5.924   2.907   0.633
 7730SOL     OW24088   6.030   5.995   1.900
 7730SOL    HW124089   6.078   6.054   1.835
 7730SOL    HW224090   6.009   6.047   1.983
 7731SOL     OW24091   6.876   1.098   1.045
 7731SOL    HW124092   6.802   1.118   1.108
 7731SOL    HW224093   6.861   1.145   0.958
 7732SOL     OW24094   4.423   6.337   0.941
 7732SOL    HW124095   4.490   6.365   0.872
 7732SOL    HW224096   4.468   6.281   1.010
 7733SOL     OW24097   4.038   0.079   2.498
 7733SOL    HW124098   3.974   0.051   2.570
 7733SOL    HW224099   4.111   0.134   2.538
 7734SOL     OW24100   2.333   4.897   3.458
 7734SOL    HW124101   2.327   4.808   3.414
 7734SOL    HW224102   2.242   4.926   3.489
 7735SOL     OW24103   4.512   6.193   6.292
 7735SOL    HW124104   4.531   6.201   6.390
 7735SOL    HW224105   4.433   6.250   6.269
 7736SOL     OW24106   3.938   3.835   6.981
 7736SOL    HW124107   3.938   3.895   6.901
 7736SOL    HW224108   3.971   3.885   0.042
 7737SOL     OW24109   4.056   0.692   2.339
 7737SOL    HW124110   4.006   0.734   2.263
 7737SOL    HW224111   4.036   0.594   2.343
 7738SOL     OW24112   2.017   5.499   6.683
 7738SOL    HW124113   1.938   5.452   6.644
 7738SOL    HW224114   2.070   5.540   6.609
 7739SOL     OW24115   0.876   1.889   2.028
 7739SOL    HW124116   0.953   1.840   2.069
 7739SOL    HW224117   0.909   1.944   1.951
 7740SOL     OW24118   1.711   0.870   3.183
 7740SOL    HW124119   1.744   0.837   3.271
 7740SOL    HW224120   1.631   0.817   3.154
 7741SOL     OW24121   0.941   5.708   4.671
 7741SOL    HW124122   0.929   5.659   4.584
 7741SOL    HW224123   0.933   5.643   4.746
 7742SOL     OW24124   5.810   2.272   3.292
 7742SOL    HW124125   5.864   2.195   3.324
 7742SOL    HW224126   5.735   2.289   3.356
 7743SOL     OW24127   4.648   1.571   6.807
 7743SOL    HW124128   4.727   1.587   6.867
 7743SOL    HW224129   4.609   1.481   6.827
 7744SOL     OW24130   1.161   6.333   3.553
 7744SOL    HW124131   1.089   6.285   3.603
 7744SOL    HW224132   1.189   6.277   3.474
 7745SOL     OW24133   2.799   1.085   5.726
 7745SOL    HW124134   2.826   1.033   5.645
 7745SOL    HW224135   2.878   1.134   5.762
 7746SOL     OW24136   2.221   6.617   0.321
 7746SOL    HW124137   2.271   6.580   0.399
 7746SOL    HW224138   2.259   6.578   0.237
 7747SOL     OW24139   4.431   5.676   1.789
 7747SOL    HW124140   4.504   5.608   1.781
 7747SOL    HW224141   4.470   5.763   1.817
 7748SOL     OW24142   3.573   2.945   5.277
 7748SOL    HW124143   3.656   2.918   5.228
 7748SOL    HW224144   3.586   3.036   5.316
 7749SOL     OW24145   2.762   2.809   5.464
 7749SOL    HW124146   2.769   2.714   5.435
 7749SOL    HW224147   2.817   2.867   5.403
 7750SOL     OW24148   6.638   6.310   1.671
 7750SOL    HW124149   6.577   6.241   1.632
 7750SOL    HW224150   6.696   6.267   1.741
 7751SOL     OW24151   1.573   1.909   2.364
 7751SOL    HW124152   1.585   1.828   2.306
 7751SOL    HW224153   1.646   1.975   2.345
 7752SOL     OW24154   4.923   6.655   5.694
 7752SOL    HW124155   5.015   6.615   5.698
 7752SOL    HW224156   4.906   6.690   5.602
 7753SOL     OW24157   2.512   1.218   4.710
 7753SOL    HW124158   2.605   1.252   4.725
 7753SOL    HW224159   2.470   1.197   4.798
 7754SOL     OW24160   3.658   6.310   1.399
 7754SOL    HW124161   3.734   6.362   1.362
 7754SOL    HW224162   3.589   6.296   1.328
 7755SOL     OW24163   1.484   2.389   6.073
 7755SOL    HW124164   1.418   2.318   6.099
 7755SOL    HW224165   1.465   2.473   6.124
 7756SOL     OW24166   3.086   6.808   1.988
 7756SOL    HW124167   3.102   6.745   2.064
 7756SOL    HW224168   3.050   6.895   2.023
 7757SOL     OW24169   6.574   4.856   1.602
 7757SOL    HW124170   6.567   4.783   1.535
 7757SOL    HW224171   6.491   4.912   1.599
 7758SOL     OW24172   1.478   6.698   5.979
 7758SOL    HW124173   1.540   6.776   5.990
 7758SOL    HW224174   1.486   6.638   6.058
 7759SOL     OW24175   2.512   1.464   5.467
 7759SOL    HW124176   2.413   1.451   5.459
 7759SOL    HW224177   2.554   1.379   5.500
 7760SOL     OW24178   5.173   2.346   2.465
 7760SOL    HW124179   5.215   2.434   2.445
 7760SOL    HW224180   5.079   2.345   2.432
 7761SOL     OW24181   7.010   6.084   4.823
 7761SOL    HW124182   6.965   6.031   4.752
 7761SOL    HW224183   0.084   6.047   4.839
 7762SOL     OW24184   2.031   0.052   3.739
 7762SOL    HW124185   2.077   0.065   3.651
 7762SOL    HW224186   1.949   7.016   3.726
 7763SOL     OW24187   2.282   6.978   6.714
 7763SOL    HW124188   2.218   0.037   6.711
 7763SOL    HW224189   2.376   7.013   6.714
 7764SOL     OW24190   3.335   3.913   5.850
 7764SOL    HW124191   3.397   3.902   5.927
 7764SOL    HW224192   3.301   4.008   5.849
 7765SOL     OW24193   6.205   2.886   5.316
 7765SOL    HW124194   6.198   2.874   5.217
 7765SOL    HW224195   6.130   2.837   5.361
 7766SOL     OW24196   6.804   3.774   0.836
 7766SOL    HW124197   6.706   3.757   0.831
 7766SOL    HW224198   6.849   3.701   0.887
 7767SOL     OW24199   4.743   6.544   2.440
 7767SOL    HW124200   4.653   6.571   2.406
 7767SOL    HW224201   4.768   6.454   2.404
 7768SOL     OW24202   4.823   4.532   4.068
 7768SOL    HW124203   4.796   4.480   3.987
 7768SOL    HW224204   4.808   4.477   4.149
 7769SOL     OW24205   4.302   1.516   5.066
 7769SOL    HW124206   4.280   1.613   5.062
 7769SOL    HW224207   4.255   1.474   5.144
 7770SOL     OW24208   7.018   3.404   4.606
 7770SOL    HW124209   0.093   3.440   4.618
 7770SOL    HW224210   7.017   3.307   4.628
 7771SOL     OW24211   2.578   1.226   5.614
 7771SOL    HW124212   2.490   1.179   5.618
 7771SOL    HW224213   2.650   1.166   5.650
 7772SOL     OW24214   5.593   6.573   0.728
 7772SOL    HW124215   5.654   6.536   0.659
 7772SOL    HW224216   5.611   6.671   0.741
 7773SOL     OW24217   2.125   5.924   5.886
 7773SOL    HW124218   2.075   5.964   5.963
 7773SOL    HW224219   2.131   5.825   5.900
 7774SOL     OW24220   4.707   2.815   4.621
 7774SOL    HW124221   4.656   2.813   4.535
 7774SOL    HW224222   4.781   2.882   4.615
 7775SOL     OW24223   4.186   6.490   0.270
 7775SOL    HW124224   4.205   6.570   0.328
 7775SOL    HW224225   4.155   6.521   0.180
 7776SOL     OW24226   1.038   6.488   6.768
 7776SOL    HW124227   1.004   6.467   6.677
 7776SOL    HW224228   1.063   6.585   6.773
 7777SOL     OW24229   6.407   5.545   5.066
 7777SOL    HW124230   6.455   5.475   5.014
 7777SOL    HW224231   6.430   5.536   5.163
 7778SOL     OW24232   5.675   4.166   2.137
 7778SOL    HW124233   5.656   4.139   2.043
 7778SOL    HW224234   5.734   4.247   2.138
 7779SOL     OW24235   2.601   1.191   3.009
 7779SOL    HW124236   2.618   1.141   2.924
 7779SOL    HW224237   2.580   1.286   2.989
 7780SOL     OW24238   1.052   5.241   5.682
 7780SOL    HW124239   0.983   5.241   5.755
 7780SOL    HW224240   1.115   5.166   5.696
 7781SOL     OW24241   0.706   3.466   0.712
 7781SOL    HW124242   0.805   3.461   0.709
 7781SOL    HW224243   0.677   3.512   0.797
 7782SOL     OW24244   5.477   5.605   3.963
 7782SOL    HW124245   5.464   5.583   3.867
 7782SOL    HW224246   5.548   5.674   3.973
 7783SOL     OW24247   0.344   0.271   5.955
 7783SOL    HW124248   0.403   0.201   5.914
 7783SOL    HW224249   0.252   0.235   5.966
 7784SOL     OW24250   2.975   2.634   1.749
 7784SOL    HW124251   2.937   2.569   1.815
 7784SOL    HW224252   3.045   2.589   1.694
 7785SOL     OW24253   1.673   6.404   3.973
 7785SOL    HW124254   1.678   6.494   4.017
 7785SOL    HW224255   1.766   6.367   3.965
 7786SOL     OW24256   4.206   0.653   6.304
 7786SOL    HW124257   4.135   0.640   6.235
 7786SOL    HW224258   4.176   0.616   6.391
 7787SOL     OW24259   1.696   3.163   0.345
 7787SOL    HW124260   1.782   3.194   0.305
 7787SOL    HW224261   1.709   3.072   0.385
 7788SOL     OW24262   0.743   5.655   1.952
 7788SOL    HW124263   0.717   5.693   1.863
 7788SOL    HW224264   0.841   5.664   1.964
 7789SOL     OW24265   2.990   6.668   6.525
 7789SOL    HW124266   3.001   6.569   6.534
 7789SOL    HW224267   3.039   6.714   6.599
 7790SOL     OW24268   5.967   4.920   2.733
 7790SOL    HW124269   5.982   4.957   2.824
 7790SOL    HW224270   6.001   4.826   2.729
 7791SOL     OW24271   2.314   5.641   2.548
 7791SOL    HW124272   2.402   5.594   2.550
 7791SOL    HW224273   2.290   5.672   2.640
 7792SOL     OW24274   1.146   6.988   3.631
 7792SOL    HW124275   1.150   0.068   3.615
 7792SOL    HW224276   1.069   6.949   3.582
 7793SOL     OW24277   4.700   0.674   0.217
 7793SOL    HW124278   4.698   0.608   0.142
 7793SOL    HW224279   4.654   0.636   0.296
 7794SOL     OW24280   0.492   4.951   1.921
 7794SOL    HW124281   0.407   4.918   1.963
 7794SOL    HW224282   0.470   4.997   1.835
 7795SOL     OW24283   3.210   5.485   5.641
 7795SOL    HW124284   3.277   5.418   5.610
 7795SOL    HW224285   3.152   5.511   5.564
 7796SOL     OW24286   3.061   2.633   5.541
 7796SOL    HW124287   3.131   2.580   5.492
 7796SOL    HW224288   2.970   2.608   5.508
 7797SOL     OW24289   0.789   5.627   1.455
 7797SOL    HW124290   0.796   5.723   1.481
 7797SOL    HW224291   0.767   5.621   1.357
 7798SOL     OW24292   1.592   1.298   2.720
 7798SOL    HW124293   1.657   1.226   2.745
 7798SOL    HW224294   1.583   1.363   2.795
 7799SOL     OW24295   2.027   5.572   3.197
 7799SOL    HW124296   2.035   5.509   3.120
 7799SOL    HW224297   1.938   5.617   3.195
 7800SOL     OW24298   0.230   5.914   3.080
 7800SOL    HW124299   0.220   5.987   3.013
 7800SOL    HW224300   0.256   5.953   3.168
 7801SOL     OW24301   1.643   1.137   3.168
 7801SOL    HW124302   1.720   1.200   3.172
 7801SOL    HW224303   1.676   1.043   3.162
 7802SOL     OW24304   6.975   3.374   0.021
 7802SOL    HW124305   6.884   3.372   0.063
 7802SOL    HW224306   6.970   3.429   6.955
 7803SOL     OW24307   4.508   1.630   0.054
 7803SOL    HW124308   4.487   1.728   0.058
 7803SOL    HW224309   4.576   1.614   7.001
 7804SOL     OW24310   3.949   2.104   5.143
 7804SOL    HW124311   3.891   2.103   5.061
 7804SOL    HW224312   3.974   2.198   5.164
 7805SOL     OW24313   4.963   3.691   2.702
 7805SOL    HW124314   5.043   3.724   2.653
 7805SOL    HW224315   4.929   3.608   2.657
 7806SOL     OW24316   6.389   1.522   6.410
 7806SOL    HW124317   6.382   1.617   6.377
 7806SOL    HW224318   6.366   1.519   6.507
 7807SOL     OW24319   0.947   4.030   5.315
 7807SOL    HW124320   0.910   3.961   5.377
 7807SOL    HW224321   0.873   4.084   5.276
 7808SOL     OW24322   5.202   3.813   3.052
 7808SOL    HW124323   5.249   3.765   3.125
 7808SOL    HW224324   5.260   3.816   2.970
 7809SOL     OW24325   5.659   5.094   4.458
 7809SOL    HW124326   5.729   5.135   4.517
 7809SOL    HW224327   5.618   5.016   4.506
 7810SOL     OW24328   3.078   6.297   5.073
 7810SOL    HW124329   2.982   6.325   5.078
 7810SOL    HW224330   3.091   6.213   5.126
 7811SOL     OW24331   1.355   5.444   2.648
 7811SOL    HW124332   1.388   5.538   2.640
 7811SOL    HW224333   1.312   5.417   2.562
 7812SOL     OW24334   2.205   3.208   5.301
 7812SOL    HW124335   2.165   3.194   5.392
 7812SOL    HW224336   2.257   3.126   5.275
 7813SOL     OW24337   4.457   2.705   1.335
 7813SOL    HW124338   4.521   2.776   1.305
 7813SOL    HW224339   4.469   2.623   1.279
 7814SOL     OW24340   7.009   3.681   2.942
 7814SOL    HW124341   6.911   3.675   2.962
 7814SOL    HW224342   0.024   3.592   2.911
 7815SOL     OW24343   5.748   1.997   4.990
 7815SOL    HW124344   5.672   2.058   4.966
 7815SOL    HW224345   5.749   1.983   5.089
 7816SOL     OW24346   0.404   2.726   5.951
 7816SOL    HW124347   0.447   2.658   6.010
 7816SOL    HW224348   0.337   2.682   5.891
 7817SOL     OW24349   4.409   3.580   5.594
 7817SOL    HW124350   4.318   3.585   5.554
 7817SOL    HW224351   4.411   3.507   5.663
 7818SOL     OW24352   4.608   1.072   2.722
 7818SOL    HW124353   4.556   1.057   2.637
 7818SOL    HW224354   4.563   1.144   2.776
 7819SOL     OW24355   0.073   3.590   3.681
 7819SOL    HW124356   0.013   3.585   3.761
 7819SOL    HW224357   0.023   3.630   3.604
 7820SOL     OW24358   1.756   0.910   5.714
 7820SOL    HW124359   1.657   0.899   5.707
 7820SOL    HW224360   1.786   0.983   5.653
 7821SOL     OW24361   5.544   5.560   0.619
 7821SOL    HW124362   5.495   5.595   0.700
 7821SOL    HW224363   5.479   5.544   0.545
 7822SOL     OW24364   1.313   1.698   6.319
 7822SOL    HW124365   1.272   1.665   6.234
 7822SOL    HW224366   1.371   1.627   6.358
 7823SOL     OW24367   2.009   4.285   6.389
 7823SOL    HW124368   2.092   4.248   6.346
 7823SOL    HW224369   2.016   4.384   6.395
 7824SOL     OW24370   6.162   0.750   4.870
 7824SOL    HW124371   6.188   0.736   4.774
 7824SOL    HW224372   6.098   0.826   4.876
 7825SOL     OW24373   2.153   3.035   1.332
 7825SOL    HW124374   2.208   3.118   1.335
 7825SOL    HW224375   2.148   3.001   1.238
 7826SOL     OW24376   5.007   2.036   6.304
 7826SOL    HW124377   4.970   2.055   6.395
 7826SOL    HW224378   5.034   1.939   6.299
 7827SOL     OW24379   2.965   5.229   1.510
 7827SOL    HW124380   3.047   5.214   1.455
 7827SOL    HW224381   2.951   5.327   1.524
 7828SOL     OW24382   0.402   5.201   0.463
 7828SOL    HW124383   0.437   5.113   0.430
 7828SOL    HW224384   0.303   5.195   0.475
 7829SOL     OW24385   2.114   3.481   1.167
 7829SOL    HW124386   2.087   3.403   1.111
 7829SOL    HW224387   2.164   3.547   1.111
 7830SOL     OW24388   5.558   3.833   6.240
 7830SOL    HW124389   5.584   3.929   6.244
 7830SOL    HW224390   5.613   3.780   6.305
 7831SOL     OW24391   1.311   5.237   0.312
 7831SOL    HW124392   1.370   5.280   0.244
 7831SOL    HW224393   1.288   5.144   0.282
 7832SOL     OW24394   3.421   1.001   4.477
 7832SOL    HW124395   3.488   1.014   4.550
 7832SOL    HW224396   3.436   0.912   4.433
 7833SOL     OW24397   0.213   0.810   0.575
 7833SOL    HW124398   0.268   0.808   0.491
 7833SOL    HW224399   0.214   0.718   0.616
 7834SOL     OW24400   0.709   1.463   2.411
 7834SOL    HW124401   0.735   1.559   2.424
 7834SOL    HW224402   0.789   1.409   2.386
 7835SOL     OW24403   2.154   2.505   5.411
 7835SOL    HW124404   2.117   2.551   5.492
 7835SOL    HW224405   2.243   2.545   5.388
 7836SOL     OW24406   3.488   1.307   6.171
 7836SOL    HW124407   3.480   1.405   6.189
 7836SOL    HW224408   3.506   1.292   6.074
 7837SOL     OW24409   6.668   6.262   1.316
 7837SOL    HW124410   6.745   6.216   1.360
 7837SOL    HW224411   6.687   6.360   1.310
 7838SOL     OW24412   4.336   6.444   6.469
 7838SOL    HW124413   4.360   6.405   6.558
 7838SOL    HW224414   4.289   6.375   6.414
 7839SOL     OW24415   6.374   4.307   5.444
 7839SOL    HW124416   6.436   4.380   5.471
 7839SOL    HW224417   6.329   4.270   5.525
 7840SOL     OW24418   4.850   3.917   3.751
 7840SOL    HW124419   4.786   3.952   3.820
 7840SOL    HW224420   4.817   3.943   3.660
 7841SOL     OW24421   5.726   1.556   6.447
 7841SOL    HW124422   5.653   1.615   6.481
 7841SOL    HW224423   5.716   1.545   6.348
 7842SOL     OW24424   1.525   0.827   3.419
 7842SOL    HW124425   1.556   0.922   3.426
 7842SOL    HW224426   1.512   0.803   3.323
 7843SOL     OW24427   5.596   4.720   1.944
 7843SOL    HW124428   5.598   4.657   1.866
 7843SOL    HW224429   5.503   4.723   1.982
 7844SOL     OW24430   4.340   0.630   4.008
 7844SOL    HW124431   4.356   0.729   4.004
 7844SOL    HW224432   4.307   0.605   4.099
 7845SOL     OW24433   0.578   1.112   4.116
 7845SOL    HW124434   0.498   1.065   4.079
 7845SOL    HW224435   0.569   1.211   4.101
 7846SOL     OW24436   2.024   0.313   1.508
 7846SOL    HW124437   1.969   0.378   1.455
 7846SOL    HW224438   1.975   0.227   1.515
 7847SOL     OW24439   6.937   2.135   1.537
 7847SOL    HW124440   6.889   2.095   1.459
 7847SOL    HW224441   0.012   2.156   1.510
 7848SOL     OW24442   3.228   4.392   0.954
 7848SOL    HW124443   3.209   4.485   0.984
 7848SOL    HW224444   3.190   4.327   1.019
 7849SOL     OW24445   5.117   3.836   4.373
 7849SOL    HW124446   5.025   3.869   4.349
 7849SOL    HW224447   5.181   3.862   4.301
 7850SOL     OW24448   0.714   0.962   3.418
 7850SOL    HW124449   0.626   0.961   3.466
 7850SOL    HW224450   0.701   0.930   3.324
 7851SOL     OW24451   6.905   6.791   0.552
 7851SOL    HW124452   6.977   6.859   0.567
 7851SOL    HW224453   6.944   6.699   0.557
 7852SOL     OW24454   3.268   6.817   6.099
 7852SOL    HW124455   3.349   6.865   6.134
 7852SOL    HW224456   3.231   6.759   6.171
 7853SOL     OW24457   4.076   1.553   1.513
 7853SOL    HW124458   4.054   1.643   1.475
 7853SOL    HW224459   4.168   1.556   1.554
 7854SOL     OW24460   3.710   4.750   0.771
 7854SOL    HW124461   3.652   4.828   0.745
 7854SOL    HW224462   3.713   4.742   0.870
 7855SOL     OW24463   4.147   5.374   5.902
 7855SOL    HW124464   4.224   5.364   5.964
 7855SOL    HW224465   4.061   5.369   5.954
 7856SOL     OW24466   6.147   5.101   3.813
 7856SOL    HW124467   6.204   5.160   3.871
 7856SOL    HW224468   6.201   5.069   3.736
 7857SOL     OW24469   6.725   2.570   5.629
 7857SOL    HW124470   6.728   2.503   5.555
 7857SOL    HW224471   6.803   2.556   5.690
 7858SOL     OW24472   5.106   5.340   3.605
 7858SOL    HW124473   5.050   5.272   3.652
 7858SOL    HW224474   5.072   5.432   3.627
 7859SOL     OW24475   6.624   4.108   5.848
 7859SOL    HW124476   6.706   4.056   5.870
 7859SOL    HW224477   6.595   4.087   5.754
 7860SOL     OW24478   4.068   5.868   2.674
 7860SOL    HW124479   4.008   5.852   2.595
 7860SOL    HW224480   4.047   5.801   2.745
 7861SOL     OW24481   4.225   5.582   2.346
 7861SOL    HW124482   4.309   5.607   2.395
 7861SOL    HW224483   4.189   5.662   2.299
 7862SOL     OW24484   3.036   4.647   1.663
 7862SOL    HW124485   2.994   4.624   1.751
 7862SOL    HW224486   2.980   4.610   1.589
 7863SOL     OW24487   6.883   5.735   3.719
 7863SOL    HW124488   6.960   5.683   3.680
 7863SOL    HW224489   6.879   5.717   3.817
 7864SOL     OW24490   6.817   6.293   5.765
 7864SOL    HW124491   6.893   6.326   5.709
 7864SOL    HW224492   6.852   6.264   5.854
 7865SOL     OW24493   4.640   6.718   4.197
 7865SOL    HW124494   4.600   6.673   4.117
 7865SOL    HW224495   4.679   6.649   4.258
 7866SOL     OW24496   2.471   2.163   1.090
 7866SOL    HW124497   2.511   2.149   1.180
 7866SOL    HW224498   2.538   2.205   1.029
 7867SOL     OW24499   5.652   5.147   2.744
 7867SOL    HW124500   5.702   5.068   2.777
 7867SOL    HW224501   5.555   5.140   2.770
 7868SOL     OW24502   5.553   6.998   2.750
 7868SOL    HW124503   5.526   6.902   2.746
 7868SOL    HW224504   5.509   0.023   2.829
 7869SOL     OW24505   6.489   3.571   0.624
 7869SOL    HW124506   6.457   3.665   0.637
 7869SOL    HW224507   6.552   3.568   0.547
 7870SOL     OW24508   5.265   6.174   3.993
 7870SOL    HW124509   5.232   6.091   4.037
 7870SOL    HW224510   5.365   6.176   3.996
 7871SOL     OW24511   6.115   3.640   2.756
 7871SOL    HW124512   6.104   3.725   2.808
 7871SOL    HW224513   6.067   3.566   2.803
 7872SOL     OW24514   0.926   4.398   2.013
 7872SOL    HW124515   0.848   4.451   2.047
 7872SOL    HW224516   1.009   4.430   2.059
 7873SOL     OW24517   5.525   0.303   5.246
 7873SOL    HW124518   5.622   0.282   5.253
 7873SOL    HW224519   5.476   0.258   5.321
 7874SOL     OW24520   6.246   1.399   6.959
 7874SOL    HW124521   6.225   1.483   7.009
 7874SOL    HW224522   6.171   1.378   6.896
 7875SOL     OW24523   3.760   3.559   6.822
 7875SOL    HW124524   3.675   3.517   6.791
 7875SOL    HW224525   3.757   3.571   6.921
 7876SOL     OW24526   0.143   6.662   4.916
 7876SOL    HW124527   0.194   6.577   4.915
 7876SOL    HW224528   0.203   6.737   4.887
 7877SOL     OW24529   0.613   3.189   2.531
 7877SOL    HW124530   0.703   3.150   2.552
 7877SOL    HW224531   0.622   3.252   2.453
 7878SOL     OW24532   4.692   4.905   3.854
 7878SOL    HW124533   4.777   4.898   3.908
 7878SOL    HW224534   4.703   4.976   3.785
 7879SOL     OW24535   4.333   6.387   3.254
 7879SOL    HW124536   4.378   6.449   3.318
 7879SOL    HW224537   4.382   6.388   3.167
 7880SOL     OW24538   0.122   5.669   1.488
 7880SOL    HW124539   0.055   5.595   1.489
 7880SOL    HW224540   0.209   5.633   1.454
 7881SOL     OW24541   6.479   3.287   4.760
 7881SOL    HW124542   6.449   3.328   4.846
 7881SOL    HW224543   6.511   3.359   4.698
 7882SOL     OW24544   2.145   2.529   3.535
 7882SOL    HW124545   2.185   2.615   3.503
 7882SOL    HW224546   2.106   2.479   3.458
 7883SOL     OW24547   2.093   6.940   0.879
 7883SOL    HW124548   2.024   6.884   0.834
 7883SOL    HW224549   2.154   6.881   0.933
 7884SOL     OW24550   1.539   4.228   3.974
 7884SOL    HW124551   1.572   4.319   4.000
 7884SOL    HW224552   1.491   4.233   3.886
 7885SOL     OW24553   5.724   6.045   2.676
 7885SOL    HW124554   5.790   6.118   2.693
 7885SOL    HW224555   5.728   5.979   2.752
 7886SOL     OW24556   4.823   3.781   1.215
 7886SOL    HW124557   4.817   3.880   1.211
 7886SOL    HW224558   4.814   3.750   1.309
 7887SOL     OW24559   3.487   2.655   5.303
 7887SOL    HW124560   3.470   2.687   5.397
 7887SOL    HW224561   3.409   2.677   5.246
 7888SOL     OW24562   0.045   0.283   4.738
 7888SOL    HW124563   0.121   0.324   4.689
 7888SOL    HW224564   0.066   0.277   4.835
 7889SOL     OW24565   0.606   5.319   6.443
 7889SOL    HW124566   0.532   5.284   6.500
 7889SOL    HW224567   0.586   5.301   6.347
 7890SOL     OW24568   0.648   3.339   4.015
 7890SOL    HW124569   0.628   3.335   3.917
 7890SOL    HW224570   0.745   3.360   4.028
 7891SOL     OW24571   1.259   4.017   4.446
 7891SOL    HW124572   1.181   4.034   4.385
 7891SOL    HW224573   1.249   4.072   4.528
 7892SOL     OW24574   1.178   2.278   4.544
 7892SOL    HW124575   1.231   2.298   4.462
 7892SOL    HW224576   1.188   2.182   4.568
 7893SOL     OW24577   5.490   5.930   2.287
 7893SOL    HW124578   5.578   5.962   2.324
 7893SOL    HW224579   5.500   5.913   2.189
 7894SOL     OW24580   3.337   0.997   0.694
 7894SOL    HW124581   3.342   0.897   0.700
 7894SOL    HW224582   3.242   1.025   0.682
 7895SOL     OW24583   3.863   6.254   4.794
 7895SOL    HW124584   3.931   6.276   4.863
 7895SOL    HW224585   3.781   6.217   4.838
 7896SOL     OW24586   5.583   3.333   1.731
 7896SOL    HW124587   5.580   3.396   1.655
 7896SOL    HW224588   5.673   3.338   1.775
 7897SOL     OW24589   3.121   3.025   0.042
 7897SOL    HW124590   3.122   2.976   0.129
 7897SOL    HW224591   3.030   3.064   0.027
 7898SOL     OW24592   4.032   0.193   4.107
 7898SOL    HW124593   4.081   0.194   4.020
 7898SOL    HW224594   4.014   0.098   4.134
 7899SOL     OW24595   5.616   6.629   1.936
 7899SOL    HW124596   5.538   6.575   1.905
 7899SOL    HW224597   5.642   6.693   1.863
 7900SOL     OW24598   0.485   4.270   0.847
 7900SOL    HW124599   0.413   4.257   0.915
 7900SOL    HW224600   0.571   4.234   0.883
 7901SOL     OW24601   5.058   0.933   5.735
 7901SOL    HW124602   5.095   0.999   5.670
 7901SOL    HW224603   5.091   0.955   5.827
 7902SOL     OW24604   6.718   5.769   3.509
 7902SOL    HW124605   6.758   5.743   3.598
 7902SOL    HW224606   6.619   5.763   3.514
 7903SOL     OW24607   4.631   2.152   3.220
 7903SOL    HW124608   4.602   2.128   3.127
 7903SOL    HW224609   4.562   2.121   3.285
 7904SOL     OW24610   5.270   0.668   3.336
 7904SOL    HW124611   5.174   0.681   3.311
 7904SOL    HW224612   5.327   0.682   3.255
 7905SOL     OW24613   6.052   1.851   0.889
 7905SOL    HW124614   6.079   1.930   0.833
 7905SOL    HW224615   6.046   1.770   0.831
 7906SOL     OW24616   1.226   5.544   0.563
 7906SOL    HW124617   1.304   5.565   0.504
 7906SOL    HW224618   1.225   5.607   0.641
 7907SOL     OW24619   6.403   1.219   2.908
 7907SOL    HW124620   6.353   1.205   2.823
 7907SOL    HW224621   6.501   1.212   2.891
 7908SOL     OW24622   1.244   1.315   6.211
 7908SOL    HW124623   1.146   1.314   6.191
 7908SOL    HW224624   1.292   1.256   6.147
 7909SOL     OW24625   4.664   4.237   3.630
 7909SOL    HW124626   4.693   4.160   3.573
 7909SOL    HW224627   4.584   4.281   3.589
 7910SOL     OW24628   1.831   3.678   1.134
 7910SOL    HW124629   1.748   3.624   1.117
 7910SOL    HW224630   1.828   3.714   1.227
 7911SOL     OW24631   0.880   3.718   1.523
 7911SOL    HW124632   0.894   3.817   1.515
 7911SOL    HW224633   0.783   3.697   1.511
 7912SOL     OW24634   5.156   4.312   0.550
 7912SOL    HW124635   5.083   4.367   0.591
 7912SOL    HW224636   5.215   4.371   0.495
 7913SOL     OW24637   1.401   4.632   0.995
 7913SOL    HW124638   1.307   4.598   1.000
 7913SOL    HW224639   1.457   4.586   1.064
 7914SOL     OW24640   0.289   4.508   0.616
 7914SOL    HW124641   0.300   4.428   0.675
 7914SOL    HW224642   0.335   4.492   0.529
 7915SOL     OW24643   4.601   2.058   2.960
 7915SOL    HW124644   4.515   2.030   2.918
 7915SOL    HW224645   4.677   2.010   2.917
 7916SOL     OW24646   0.569   6.956   5.208
 7916SOL    HW124647   0.627   7.000   5.276
 7916SOL    HW224648   0.560   6.858   5.229
 7917SOL     OW24649   4.224   2.996   5.351
 7917SOL    HW124650   4.275   3.082   5.344
 7917SOL    HW224651   4.287   2.919   5.341
 7918SOL     OW24652   0.131   0.674   5.021
 7918SOL    HW124653   0.115   0.595   5.081
 7918SOL    HW224654   0.225   0.672   4.988
 7919SOL     OW24655   1.080   4.760   2.111
 7919SOL    HW124656   1.037   4.713   2.034
 7919SOL    HW224657   1.047   4.720   2.197
 7920SOL     OW24658   5.592   0.600   1.834
 7920SOL    HW124659   5.621   0.570   1.926
 7920SOL    HW224660   5.522   0.670   1.843
 7921SOL     OW24661   5.288   0.219   1.901
 7921SOL    HW124662   5.257   0.126   1.885
 7921SOL    HW224663   5.351   0.221   1.979
 7922SOL     OW24664   0.569   6.091   0.192
 7922SOL    HW124665   0.604   6.153   0.122
 7922SOL    HW224666   0.486   6.047   0.158
 7923SOL     OW24667   3.185   1.619   6.245
 7923SOL    HW124668   3.200   1.590   6.151
 7923SOL    HW224669   3.162   1.540   6.301
 7924SOL     OW24670   4.603   0.299   1.384
 7924SOL    HW124671   4.597   0.199   1.388
 7924SOL    HW224672   4.543   0.332   1.311
 7925SOL     OW24673   1.210   0.240   0.933
 7925SOL    HW124674   1.128   0.294   0.914
 7925SOL    HW224675   1.214   0.217   1.030
 7926SOL     OW24676   4.828   1.901   6.876
 7926SOL    HW124677   4.816   1.886   6.778
 7926SOL    HW224678   4.816   1.814   6.925
 7927SOL     OW24679   4.966   6.839   1.864
 7927SOL    HW124680   4.879   6.799   1.892
 7927SOL    HW224681   4.975   6.931   1.904
 7928SOL     OW24682   0.171   1.594   3.799
 7928SOL    HW124683   0.210   1.686   3.804
 7928SOL    HW224684   0.073   1.598   3.814
 7929SOL     OW24685   3.585   4.117   5.920
 7929SOL    HW124686   3.604   4.093   5.825
 7929SOL    HW224687   3.543   4.039   5.967
 7930SOL     OW24688   3.681   5.247   6.459
 7930SOL    HW124689   3.676   5.273   6.556
 7930SOL    HW224690   3.691   5.147   6.452
 7931SOL     OW24691   4.055   3.093   0.492
 7931SOL    HW124692   4.112   3.152   0.547
 7931SOL    HW224693   4.111   3.047   0.423
 7932SOL     OW24694   0.947   5.122   0.544
 7932SOL    HW124695   1.008   5.043   0.554
 7932SOL    HW224696   1.001   5.203   0.519
 7933SOL     OW24697   6.492   0.035   6.064
 7933SOL    HW124698   6.584   0.059   6.095
 7933SOL    HW224699   6.497   7.012   5.974
 7934SOL     OW24700   1.385   5.025   6.978
 7934SOL    HW124701   1.380   5.120   6.948
 7934SOL    HW224702   1.295   4.995   7.009
 7935SOL     OW24703   5.514   5.523   2.022
 7935SOL    HW124704   5.431   5.492   1.977
 7935SOL    HW224705   5.509   5.505   2.120
 7936SOL     OW24706   3.150   5.205   3.411
 7936SOL    HW124707   3.159   5.249   3.321
 7936SOL    HW224708   3.210   5.125   3.415
 7937SOL     OW24709   1.561   5.874   4.327
 7937SOL    HW124710   1.657   5.904   4.324
 7937SOL    HW224711   1.535   5.837   4.238
 7938SOL     OW24712   5.539   6.102   5.186
 7938SOL    HW124713   5.450   6.137   5.215
 7938SOL    HW224714   5.536   6.081   5.088
 7939SOL     OW24715   1.219   1.643   6.067
 7939SOL    HW124716   1.237   1.546   6.078
 7939SOL    HW224717   1.182   1.661   5.976
 7940SOL     OW24718   3.302   1.896   2.848
 7940SOL    HW124719   3.343   1.854   2.929
 7940SOL    HW224720   3.352   1.868   2.767
 7941SOL     OW24721   5.109   6.549   2.968
 7941SOL    HW124722   5.051   6.599   3.031
 7941SOL    HW224723   5.193   6.601   2.951
 7942SOL     OW24724   1.295   3.067   3.163
 7942SOL    HW124725   1.373   3.005   3.167
 7942SOL    HW224726   1.305   3.130   3.086
 7943SOL     OW24727   0.806   4.168   5.784
 7943SOL    HW124728   0.804   4.069   5.774
 7943SOL    HW224729   0.840   4.210   5.700
 7944SOL     OW24730   0.764   2.784   1.906
 7944SOL    HW124731   0.829   2.750   1.838
 7944SOL    HW224732   0.763   2.884   1.906
 7945SOL     OW24733   6.371   5.600   2.418
 7945SOL    HW124734   6.448   5.592   2.482
 7945SOL    HW224735   6.374   5.523   2.354
 7946SOL     OW24736   3.539   0.106   5.909
 7946SOL    HW124737   3.462   0.111   5.973
 7946SOL    HW224738   3.579   0.197   5.898
 7947SOL     OW24739   2.352   1.866   5.647
 7947SOL    HW124740   2.405   1.929   5.702
 7947SOL    HW224741   2.337   1.905   5.556
 7948SOL     OW24742   0.735   5.535   0.953
 7948SOL    HW124743   0.801   5.607   0.974
 7948SOL    HW224744   0.782   5.454   0.919
 7949SOL     OW24745   4.484   4.080   6.002
 7949SOL    HW124746   4.429   4.069   5.919
 7949SOL    HW224747   4.550   4.154   5.989
 7950SOL     OW24748   4.562   5.784   4.570
 7950SOL    HW124749   4.533   5.695   4.535
 7950SOL    HW224750   4.650   5.774   4.617
 7951SOL     OW24751   2.178   5.017   2.259
 7951SOL    HW124752   2.262   5.052   2.301
 7951SOL    HW224753   2.201   4.953   2.186
 7952SOL     OW24754   0.195   3.513   0.401
 7952SOL    HW124755   0.242   3.542   0.318
 7952SOL    HW224756   0.204   3.584   0.471
 7953SOL     OW24757   4.740   2.354   1.992
 7953SOL    HW124758   4.645   2.322   2.001
 7953SOL    HW224759   4.743   2.435   1.934
 7954SOL     OW24760   3.565   4.504   6.137
 7954SOL    HW124761   3.562   4.404   6.141
 7954SOL    HW224762   3.556   4.541   6.229
 7955SOL     OW24763   2.307   1.486   6.988
 7955SOL    HW124764   2.357   1.482   6.901
 7955SOL    HW224765   2.209   1.475   6.970
 7956SOL     OW24766   5.242   1.250   1.534
 7956SOL    HW124767   5.265   1.304   1.452
 7956SOL    HW224768   5.150   1.272   1.563
 7957SOL     OW24769   1.965   1.238   0.181
 7957SOL    HW124770   1.902   1.313   0.160
 7957SOL    HW224771   2.001   1.249   0.273
 7958SOL     OW24772   5.310   4.028   5.902
 7958SOL    HW124773   5.283   4.118   5.936
 7958SOL    HW224774   5.336   3.970   5.979
 7959SOL     OW24775   5.328   0.189   6.801
 7959SOL    HW124776   5.232   0.182   6.829
 7959SOL    HW224777   5.356   0.285   6.802
 7960SOL     OW24778   1.405   1.206   5.992
 7960SOL    HW124779   1.445   1.117   6.013
 7960SOL    HW224780   1.331   1.195   5.926
 7961SOL     OW24781   6.532   0.111   0.925
 7961SOL    HW124782   6.601   0.103   0.854
 7961SOL    HW224783   6.543   0.036   0.991
 7962SOL     OW24784   0.533   1.589   5.734
 7962SOL    HW124785   0.610   1.533   5.705
 7962SOL    HW224786   0.566   1.660   5.797
 7963SOL     OW24787   6.355   5.670   4.328
 7963SOL    HW124788   6.278   5.682   4.390
 7963SOL    HW224789   6.430   5.624   4.377
 7964SOL     OW24790   5.928   2.915   2.435
 7964SOL    HW124791   6.009   2.856   2.430
 7964SOL    HW224792   5.894   2.917   2.529
 7965SOL     OW24793   3.976   2.072   6.233
 7965SOL    HW124794   3.888   2.118   6.246
 7965SOL    HW224795   4.006   2.083   6.138
 7966SOL     OW24796   3.463   2.756   5.902
 7966SOL    HW124797   3.524   2.822   5.859
 7966SOL    HW224798   3.368   2.787   5.891
 7967SOL     OW24799   2.146   5.720   1.895
 7967SOL    HW124800   2.051   5.746   1.883
 7967SOL    HW224801   2.204   5.802   1.892
 7968SOL     OW24802   6.294   2.157   4.528
 7968SOL    HW124803   6.351   2.207   4.594
 7968SOL    HW224804   6.350   2.088   4.482
 7969SOL     OW24805   5.825   6.279   1.067
 7969SOL    HW124806   5.797   6.332   0.987
 7969SOL    HW224807   5.866   6.340   1.135
 7970SOL     OW24808   6.381   3.579   2.362
 7970SOL    HW124809   6.302   3.543   2.411
 7970SOL    HW224810   6.402   3.519   2.284
 7971SOL     OW24811   3.183   1.504   1.130
 7971SOL    HW124812   3.201   1.545   1.219
 7971SOL    HW224813   3.237   1.549   1.060
 7972SOL     OW24814   3.463   3.162   1.357
 7972SOL    HW124815   3.409   3.233   1.401
 7972SOL    HW224816   3.529   3.205   1.294
 7973SOL     OW24817   5.029   4.445   4.508
 7973SOL    HW124818   5.107   4.469   4.449
 7973SOL    HW224819   5.040   4.491   4.596
 7974SOL     OW24820   6.067   0.918   6.095
 7974SOL    HW124821   6.018   1.004   6.105
 7974SOL    HW224822   6.006   0.842   6.119
 7975SOL     OW24823   5.478   7.015   1.131
 7975SOL    HW124824   5.469   6.923   1.093
 7975SOL    HW224825   5.387   0.039   1.136
 7976SOL     OW24826   1.217   0.191   6.059
 7976SOL    HW124827   1.233   0.094   6.046
 7976SOL    HW224828   1.195   0.234   5.972
 7977SOL     OW24829   4.280   5.942   2.330
 7977SOL    HW124830   4.315   5.920   2.422
 7977SOL    HW224831   4.253   6.038   2.327
 7978SOL     OW24832   0.174   2.519   6.121
 7978SOL    HW124833   0.155   2.604   6.071
 7978SOL    HW224834   0.220   2.541   6.207
 7979SOL     OW24835   2.144   5.045   5.752
 7979SOL    HW124836   2.165   5.052   5.655
 7979SOL    HW224837   2.157   4.951   5.783
 7980SOL     OW24838   2.954   5.215   6.486
 7980SOL    HW124839   3.046   5.253   6.475
 7980SOL    HW224840   2.904   5.268   6.555
 7981SOL     OW24841   0.909   4.924   1.833
 7981SOL    HW124842   0.971   4.940   1.909
 7981SOL    HW224843   0.824   4.883   1.867
 7982SOL     OW24844   1.681   1.641   6.346
 7982SOL    HW124845   1.669   1.577   6.270
 7982SOL    HW224846   1.764   1.694   6.332
 7983SOL     OW24847   6.521   2.369   0.991
 7983SOL    HW124848   6.583   2.448   0.992
 7983SOL    HW224849   6.482   2.357   1.082
 7984SOL     OW24850   0.189   1.360   0.422
 7984SOL    HW124851   0.143   1.431   0.474
 7984SOL    HW224852   0.285   1.354   0.450
 7985SOL     OW24853   2.637   1.764   4.758
 7985SOL    HW124854   2.573   1.698   4.798
 7985SOL    HW224855   2.611   1.783   4.663
 7986SOL     OW24856   2.817   0.621   6.269
 7986SOL    HW124857   2.913   0.645   6.284
 7986SOL    HW224858   2.798   0.616   6.170
 7987SOL     OW24859   1.889   2.951   0.437
 7987SOL    HW124860   1.865   2.876   0.498
 7987SOL    HW224861   1.970   2.926   0.384
 7988SOL     OW24862   1.211   0.977   2.573
 7988SOL    HW124863   1.274   0.906   2.542
 7988SOL    HW224864   1.258   1.039   2.635
 7989SOL     OW24865   2.533   3.154   0.034
 7989SOL    HW124866   2.535   3.211   6.970
 7989SOL    HW224867   2.466   3.191   0.098
 7990SOL     OW24868   2.454   5.163   4.606
 7990SOL    HW124869   2.441   5.255   4.645
 7990SOL    HW224870   2.410   5.158   4.517
 7991SOL     OW24871   6.031   1.910   3.861
 7991SOL    HW124872   6.048   1.971   3.784
 7991SOL    HW224873   6.118   1.873   3.894
 7992SOL     OW24874   1.537   0.596   0.428
 7992SOL    HW124875   1.545   0.497   0.432
 7992SOL    HW224876   1.513   0.631   0.519
 7993SOL     OW24877   0.283   0.017   1.414
 7993SOL    HW124878   0.257   0.041   1.508
 7993SOL    HW224879   0.371   6.986   1.416
 7994SOL     OW24880   4.365   0.580   3.433
 7994SOL    HW124881   4.362   0.644   3.357
 7994SOL    HW224882   4.338   0.626   3.518
 7995SOL     OW24883   6.025   5.339   3.182
 7995SOL    HW124884   6.096   5.409   3.181
 7995SOL    HW224885   5.999   5.319   3.277
 7996SOL     OW24886   3.882   6.033   4.620
 7996SOL    HW124887   3.893   6.117   4.674
 7996SOL    HW224888   3.785   6.020   4.600
 7997SOL     OW24889   6.822   1.635   0.125
 7997SOL    HW124890   6.807   1.709   0.191
 7997SOL    HW224891   6.896   1.576   0.156
 7998SOL     OW24892   3.543   6.954   6.930
 7998SOL    HW124893   3.576   6.862   6.954
 7998SOL    HW224894   3.444   6.957   6.943
 7999SOL     OW24895   0.698   1.289   5.955
 7999SOL    HW124896   0.609   1.335   5.963
 7999SOL    HW224897   0.713   1.233   6.036
 8000SOL     OW24898   5.527   6.082   6.373
 8000SOL    HW124899   5.451   6.145   6.355
 8000SOL    HW224900   5.595   6.090   6.300
 8001SOL     OW24901   4.214   6.087   1.864
 8001SOL    HW124902   4.276   6.128   1.798
 8001SOL    HW224903   4.263   6.017   1.917
 8002SOL     OW24904   0.709   0.664   6.296
 8002SOL    HW124905   0.629   0.724   6.294
 8002SOL    HW224906   0.706   0.601   6.219
 8003SOL     OW24907   2.176   5.522   1.727
 8003SOL    HW124908   2.228   5.577   1.662
 8003SOL    HW224909   2.167   5.571   1.814
 8004SOL     OW24910   1.605   4.001   3.598
 8004SOL    HW124911   1.554   3.917   3.615
 8004SOL    HW224912   1.625   4.009   3.500
 8005SOL     OW24913   2.148   0.384   3.336
 8005SOL    HW124914   2.231   0.328   3.334
 8005SOL    HW224915   2.149   0.449   3.260
 8006SOL     OW24916   2.233   5.978   5.462
 8006SOL    HW124917   2.163   5.954   5.395
 8006SOL    HW224918   2.190   6.023   5.540
 8007SOL     OW24919   5.971   1.781   6.340
 8007SOL    HW124920   5.952   1.843   6.415
 8007SOL    HW224921   6.035   1.710   6.370
 8008SOL     OW24922   3.589   5.940   6.669
 8008SOL    HW124923   3.525   5.871   6.701
 8008SOL    HW224924   3.647   5.902   6.597
 8009SOL     OW24925   4.791   0.590   0.615
 8009SOL    HW124926   4.811   0.500   0.654
 8009SOL    HW224927   4.863   0.616   0.551
 8010SOL     OW24928   2.316   2.347   5.070
 8010SOL    HW124929   2.400   2.392   5.099
 8010SOL    HW224930   2.246   2.416   5.051
 8011SOL     OW24931   3.856   1.994   1.094
 8011SOL    HW124932   3.769   1.958   1.127
 8011SOL    HW224933   3.852   2.094   1.090
 8012SOL     OW24934   1.518   2.883   0.085
 8012SOL    HW124935   1.553   2.977   0.084
 8012SOL    HW224936   1.419   2.885   0.067
 8013SOL     OW24937   1.205   4.484   3.740
 8013SOL    HW124938   1.168   4.470   3.647
 8013SOL    HW224939   1.139   4.452   3.807
 8014SOL     OW24940   1.646   0.243   4.648
 8014SOL    HW124941   1.648   0.145   4.628
 8014SOL    HW224942   1.556   0.267   4.685
 8015SOL     OW24943   1.969   0.358   6.171
 8015SOL    HW124944   1.966   0.442   6.117
 8015SOL    HW224945   1.971   0.279   6.110
 8016SOL     OW24946   3.997   1.295   4.940
 8016SOL    HW124947   4.044   1.374   4.979
 8016SOL    HW224948   3.901   1.317   4.925
 8017SOL     OW24949   6.369   0.228   6.778
 8017SOL    HW124950   6.461   0.264   6.767
 8017SOL    HW224951   6.304   0.287   6.730
 8018SOL     OW24952   3.265   2.755   0.086
 8018SOL    HW124953   3.224   2.752   0.177
 8018SOL    HW224954   3.363   2.774   0.094
 8019SOL     OW24955   2.061   4.518   1.326
 8019SOL    HW124956   2.087   4.605   1.368
 8019SOL    HW224957   2.142   4.476   1.286
 8020SOL     OW24958   6.588   0.071   6.514
 8020SOL    HW124959   6.612   0.168   6.512
 8020SOL    HW224960   6.496   0.060   6.551
 8021SOL     OW24961   1.805   3.192   1.771
 8021SOL    HW124962   1.841   3.106   1.736
 8021SOL    HW224963   1.863   3.226   1.844
 8022SOL     OW24964   6.144   0.585   1.982
 8022SOL    HW124965   6.062   0.571   1.925
 8022SOL    HW224966   6.225   0.556   1.931
 8023SOL     OW24967   5.836   4.437   2.561
 8023SOL    HW124968   5.811   4.342   2.544
 8023SOL    HW224969   5.904   4.441   2.635
 8024SOL     OW24970   1.256   5.293   6.457
 8024SOL    HW124971   1.217   5.344   6.534
 8024SOL    HW224972   1.338   5.245   6.487
 8025SOL     OW24973   1.782   5.796   1.149
 8025SOL    HW124974   1.867   5.765   1.192
 8025SOL    HW224975   1.707   5.736   1.177
 8026SOL     OW24976   6.932   4.176   1.142
 8026SOL    HW124977   6.891   4.096   1.098
 8026SOL    HW224978   0.006   4.152   1.173
 8027SOL     OW24979   3.325   0.087   5.630
 8027SOL    HW124980   3.396   0.057   5.694
 8027SOL    HW224981   3.257   0.014   5.620
 8028SOL     OW24982   3.640   5.007   4.881
 8028SOL    HW124983   3.580   4.982   4.805
 8028SOL    HW224984   3.584   5.040   4.957
 8029SOL     OW24985   5.346   2.669   2.049
 8029SOL    HW124986   5.389   2.580   2.036
 8029SOL    HW224987   5.384   2.714   2.130
 8030SOL     OW24988   5.940   5.759   0.826
 8030SOL    HW124989   6.037   5.739   0.812
 8030SOL    HW224990   5.912   5.831   0.762
 8031SOL     OW24991   0.061   6.376   3.081
 8031SOL    HW124992   0.060   6.313   3.160
 8031SOL    HW224993   0.137   6.440   3.091
 8032SOL     OW24994   5.512   4.045   1.619
 8032SOL    HW124995   5.560   3.995   1.547
 8032SOL    HW224996   5.487   4.136   1.586
 8033SOL     OW24997   4.520   2.763   6.755
 8033SOL    HW124998   4.534   2.854   6.794
 8033SOL    HW224999   4.587   2.700   6.793
 8034SOL     OW25000   4.750   6.865   6.099
 8034SOL    HW125001   4.688   6.936   6.133
 8034SOL    HW225002   4.793   6.897   6.015
 8035SOL     OW25003   4.982   1.900   1.888
 8035SOL    HW125004   4.909   1.956   1.927
 8035SOL    HW225005   4.987   1.813   1.937
 8036SOL     OW25006   6.455   3.686   3.910
 8036SOL    HW125007   6.434   3.700   4.007
 8036SOL    HW225008   6.448   3.774   3.862
 8037SOL     OW25009   1.798   3.255   6.896
 8037SOL    HW125010   1.773   3.352   6.896
 8037SOL    HW225011   1.889   3.244   6.936
 8038SOL     OW25012   4.304   6.919   3.084
 8038SOL    HW125013   4.344   6.893   2.996
 8038SOL    HW225014   4.204   6.917   3.076
 8039SOL     OW25015   6.744   1.814   4.509
 8039SOL    HW125016   6.754   1.872   4.429
 8039SOL    HW225017   6.821   1.750   4.513
 8040SOL     OW25018   1.441   6.073   6.686
 8040SOL    HW125019   1.479   5.990   6.727
 8040SOL    HW225020   1.402   6.051   6.597
 8041SOL     OW25021   3.041   0.875   2.542
 8041SOL    HW125022   3.140   0.871   2.531
 8041SOL    HW225023   3.003   0.783   2.538
 8042SOL     OW25024   4.238   3.839   5.653
 8042SOL    HW125025   4.179   3.799   5.583
 8042SOL    HW225026   4.256   3.771   5.724
 8043SOL     OW25027   3.650   5.194   0.585
 8043SOL    HW125028   3.646   5.292   0.606
 8043SOL    HW225029   3.635   5.181   0.486
 8044SOL     OW25030   3.978   3.612   0.601
 8044SOL    HW125031   4.061   3.557   0.598
 8044SOL    HW225032   4.000   3.706   0.625
 8045SOL     OW25033   6.091   2.339   2.380
 8045SOL    HW125034   6.128   2.246   2.380
 8045SOL    HW225035   6.009   2.341   2.438
 8046SOL     OW25036   0.781   3.942   2.358
 8046SOL    HW125037   0.767   4.033   2.320
 8046SOL    HW225038   0.741   3.874   2.296
 8047SOL     OW25039   3.306   6.211   6.246
 8047SOL    HW125040   3.261   6.122   6.236
 8047SOL    HW225041   3.342   6.220   6.339
 8048SOL     OW25042   3.444   2.138   0.309
 8048SOL    HW125043   3.407   2.052   0.273
 8048SOL    HW225044   3.409   2.214   0.255
 8049SOL     OW25045   0.829   0.119   0.386
 8049SOL    HW125046   0.747   0.114   0.443
 8049SOL    HW225047   0.803   0.122   0.290
 8050SOL     OW25048   1.701   3.476   3.891
 8050SOL    HW125049   1.655   3.420   3.822
 8050SOL    HW225050   1.688   3.573   3.870
 8051SOL     OW25051   4.921   6.303   4.707
 8051SOL    HW125052   4.987   6.339   4.774
 8051SOL    HW225053   4.939   6.205   4.692
 8052SOL     OW25054   2.799   1.775   1.518
 8052SOL    HW125055   2.886   1.727   1.505
 8052SOL    HW225056   2.774   1.821   1.433
 8053SOL     OW25057   3.266   2.932   4.967
 8053SOL    HW125058   3.253   2.885   5.054
 8053SOL    HW225059   3.253   2.867   4.891
 8054SOL     OW25060   6.931   4.103   5.035
 8054SOL    HW125061   6.874   4.143   4.963
 8054SOL    HW225062   7.018   4.073   4.996
 8055SOL     OW25063   6.601   0.377   5.688
 8055SOL    HW125064   6.531   0.329   5.741
 8055SOL    HW225065   6.557   0.448   5.633
 8056SOL     OW25066   2.944   0.731   5.026
 8056SOL    HW125067   2.872   0.678   4.981
 8056SOL    HW225068   3.020   0.744   4.962
 8057SOL     OW25069   2.765   2.292   2.770
 8057SOL    HW125070   2.694   2.224   2.750
 8057SOL    HW225071   2.799   2.279   2.863
 8058SOL     OW25072   3.102   6.971   2.879
 8058SOL    HW125073   3.052   0.003   2.810
 8058SOL    HW225074   3.094   7.017   2.968
 8059SOL     OW25075   2.355   1.194   5.133
 8059SOL    HW125076   2.275   1.201   5.193
 8059SOL    HW225077   2.438   1.210   5.187
 8060SOL     OW25078   0.311   2.146   6.165
 8060SOL    HW125079   0.248   2.174   6.238
 8060SOL    HW225080   0.404   2.143   6.201
 8061SOL     OW25081   0.548   0.041   2.136
 8061SOL    HW125082   0.645   0.064   2.137
 8061SOL    HW225083   0.527   7.000   2.214
 8062SOL     OW25084   3.957   5.282   4.033
 8062SOL    HW125085   3.876   5.342   4.037
 8062SOL    HW225086   4.023   5.321   3.969
 8063SOL     OW25087   2.487   1.142   3.489
 8063SOL    HW125088   2.558   1.189   3.542
 8063SOL    HW225089   2.415   1.110   3.550
 8064SOL     OW25090   5.876   2.217   0.304
 8064SOL    HW125091   5.809   2.143   0.299
 8064SOL    HW225092   5.894   2.252   0.212
 8065SOL     OW25093   2.861   6.419   4.328
 8065SOL    HW125094   2.844   6.489   4.259
 8065SOL    HW225095   2.789   6.349   4.322
 8066SOL     OW25096   6.606   6.905   5.580
 8066SOL    HW125097   6.525   6.925   5.526
 8066SOL    HW225098   6.687   6.904   5.520
 8067SOL     OW25099   5.235   2.731   2.875
 8067SOL    HW125100   5.308   2.682   2.922
 8067SOL    HW225101   5.147   2.709   2.918
 8068SOL     OW25102   0.048   4.710   1.301
 8068SOL    HW125103   0.020   4.804   1.279
 8068SOL    HW225104   0.140   4.694   1.267
 8069SOL     OW25105   2.015   4.934   1.163
 8069SOL    HW125106   1.980   4.894   1.078
 8069SOL    HW225107   2.035   4.860   1.228
 8070SOL     OW25108   3.887   3.060   0.251
 8070SOL    HW125109   3.943   3.068   0.169
 8070SOL    HW225110   3.936   3.099   0.329
 8071SOL     OW25111   2.948   6.825   5.389
 8071SOL    HW125112   2.858   6.784   5.404
 8071SOL    HW225113   3.002   6.766   5.329
 8072SOL     OW25114   3.441   1.698   1.007
 8072SOL    HW125115   3.489   1.626   1.058
 8072SOL    HW225116   3.410   1.662   0.919
 8073SOL     OW25117   3.300   5.937   5.045
 8073SOL    HW125118   3.362   6.012   5.024
 8073SOL    HW225119   3.311   5.909   5.141
 8074SOL     OW25120   3.027   1.852   0.430
 8074SOL    HW125121   2.959   1.840   0.502
 8074SOL    HW225122   3.039   1.949   0.411
 8075SOL     OW25123   6.453   6.903   0.617
 8075SOL    HW125124   6.509   6.828   0.653
 8075SOL    HW225125   6.404   6.946   0.692
 8076SOL     OW25126   6.175   6.938   5.077
 8076SOL    HW125127   6.154   6.864   5.140
 8076SOL    HW225128   6.117   6.931   4.996
 8077SOL     OW25129   3.187   5.711   2.836
 8077SOL    HW125130   3.234   5.623   2.823
 8077SOL    HW225131   3.135   5.734   2.754
 8078SOL     OW25132   0.641   2.033   1.206
 8078SOL    HW125133   0.722   2.013   1.152
 8078SOL    HW225134   0.571   1.963   1.189
 8079SOL     OW25135   6.567   1.534   3.195
 8079SOL    HW125136   6.505   1.512   3.270
 8079SOL    HW225137   6.513   1.562   3.115
 8080SOL     OW25138   1.125   1.877   2.617
 8080SOL    HW125139   1.184   1.848   2.692
 8080SOL    HW225140   1.051   1.934   2.652
 8081SOL     OW25141   6.207   5.671   5.754
 8081SOL    HW125142   6.224   5.594   5.693
 8081SOL    HW225143   6.294   5.716   5.776
 8082SOL     OW25144   3.313   0.766   2.547
 8082SOL    HW125145   3.352   0.796   2.460
 8082SOL    HW225146   3.273   0.675   2.537
 8083SOL     OW25147   5.164   2.869   3.827
 8083SOL    HW125148   5.120   2.958   3.818
 8083SOL    HW225149   5.127   2.822   3.906
 8084SOL     OW25150   3.107   0.019   6.553
 8084SOL    HW125151   3.088   6.976   6.477
 8084SOL    HW225152   3.206   0.034   6.560
 8085SOL     OW25153   5.878   5.668   2.496
 8085SOL    HW125154   5.876   5.723   2.413
 8085SOL    HW225155   5.784   5.648   2.526
 8086SOL     OW25156   6.840   0.668   2.039
 8086SOL    HW125157   6.760   0.632   2.086
 8086SOL    HW225158   6.847   0.767   2.056
 8087SOL     OW25159   1.658   0.132   0.207
 8087SOL    HW125160   1.652   0.044   0.161
 8087SOL    HW225161   1.734   0.132   0.272
 8088SOL     OW25162   6.012   0.750   0.995
 8088SOL    HW125163   5.969   0.760   1.085
 8088SOL    HW225164   6.066   0.831   0.974
 8089SOL     OW25165   5.303   2.754   0.050
 8089SOL    HW125166   5.396   2.793   0.048
 8089SOL    HW225167   5.303   2.665   0.004
 8090SOL     OW25168   3.996   1.156   5.934
 8090SOL    HW125169   4.043   1.244   5.935
 8090SOL    HW225170   4.057   1.086   5.973
 8091SOL     OW25171   1.646   3.639   4.975
 8091SOL    HW125172   1.572   3.628   4.908
 8091SOL    HW225173   1.619   3.595   5.061
 8092SOL     OW25174   5.242   1.764   4.908
 8092SOL    HW125175   5.163   1.824   4.897
 8092SOL    HW225176   5.325   1.819   4.912
 8093SOL     OW25177   2.624   5.193   3.554
 8093SOL    HW125178   2.605   5.221   3.648
 8093SOL    HW225179   2.718   5.216   3.530
 8094SOL     OW25180   0.017   3.020   4.660
 8094SOL    HW125181   7.000   3.012   4.753
 8094SOL    HW225182   0.010   2.931   4.614
 8095SOL     OW25183   0.537   4.647   5.153
 8095SOL    HW125184   0.471   4.586   5.198
 8095SOL    HW225185   0.568   4.717   5.217
 8096SOL     OW25186   2.285   0.724   2.264
 8096SOL    HW125187   2.357   0.671   2.219
 8096SOL    HW225188   2.309   0.739   2.360
 8097SOL     OW25189   4.517   6.903   5.268
 8097SOL    HW125190   4.595   6.851   5.304
 8097SOL    HW225191   4.443   6.903   5.335
 8098SOL     OW25192   2.123   6.569   3.642
 8098SOL    HW125193   2.144   6.481   3.598
 8098SOL    HW225194   2.078   6.552   3.730
 8099SOL     OW25195   4.449   6.426   4.151
 8099SOL    HW125196   4.374   6.418   4.217
 8099SOL    HW225197   4.522   6.362   4.175
 8100SOL     OW25198   6.837   0.605   0.025
 8100SOL    HW125199   6.936   0.622   0.022
 8100SOL    HW225200   6.813   0.570   0.116
 8101SOL     OW25201   1.633   5.892   1.442
 8101SOL    HW125202   1.646   5.835   1.361
 8101SOL    HW225203   1.539   5.883   1.475
 8102SOL     OW25204   0.625   3.528   3.705
 8102SOL    HW125205   0.525   3.530   3.694
 8102SOL    HW225206   0.668   3.577   3.630
 8103SOL     OW25207   3.389   0.260   1.405
 8103SOL    HW125208   3.416   0.172   1.367
 8103SOL    HW225209   3.345   0.247   1.494
 8104SOL     OW25210   1.613   0.857   6.444
 8104SOL    HW125211   1.562   0.943   6.453
 8104SOL    HW225212   1.682   0.851   6.516
 8105SOL     OW25213   6.962   3.176   3.157
 8105SOL    HW125214   6.984   3.219   3.244
 8105SOL    HW225215   6.935   3.246   3.091
 8106SOL     OW25216   3.179   5.658   3.700
 8106SOL    HW125217   3.202   5.588   3.634
 8106SOL    HW225218   3.097   5.708   3.669
 8107SOL     OW25219   0.824   5.511   3.796
 8107SOL    HW125220   0.823   5.568   3.878
 8107SOL    HW225221   0.919   5.486   3.774
 8108SOL     OW25222   6.590   2.740   6.592
 8108SOL    HW125223   6.574   2.641   6.595
 8108SOL    HW225224   6.674   2.761   6.643
 8109SOL     OW25225   6.850   3.597   6.222
 8109SOL    HW125226   6.792   3.586   6.141
 8109SOL    HW225227   6.875   3.507   6.257
 8110SOL     OW25228   3.883   5.500   2.480
 8110SOL    HW125229   3.956   5.438   2.451
 8110SOL    HW225230   3.873   5.495   2.580
 8111SOL     OW25231   5.179   1.290   4.558
 8111SOL    HW125232   5.191   1.244   4.471
 8111SOL    HW225233   5.086   1.278   4.591
 8112SOL     OW25234   2.121   3.160   4.370
 8112SOL    HW125235   2.182   3.097   4.323
 8112SOL    HW225236   2.133   3.150   4.469
 8113SOL     OW25237   0.694   3.897   1.126
 8113SOL    HW125238   0.789   3.873   1.148
 8113SOL    HW225239   0.635   3.817   1.140
 8114SOL     OW25240   1.890   3.586   2.460
 8114SOL    HW125241   1.833   3.668   2.450
 8114SOL    HW225242   1.951   3.598   2.538
 8115SOL     OW25243   3.674   6.772   6.678
 8115SOL    HW125244   3.589   6.756   6.628
 8115SOL    HW225245   3.658   6.764   6.776
 8116SOL     OW25246   4.281   4.911   0.457
 8116SOL    HW125247   4.318   4.888   0.547
 8116SOL    HW225248   4.234   5.000   0.463
 8117SOL     OW25249   1.498   0.223   3.316
 8117SOL    HW125250   1.532   0.251   3.226
 8117SOL    HW225251   1.451   0.300   3.359
 8118SOL     OW25252   4.891   4.155   6.074
 8118SOL    HW125253   4.966   4.154   6.140
 8118SOL    HW225254   4.926   4.136   5.983
 8119SOL     OW25255   5.372   5.694   6.245
 8119SOL    HW125256   5.404   5.726   6.334
 8119SOL    HW225257   5.398   5.760   6.175
 8120SOL     OW25258   3.427   4.549   1.131
 8120SOL    HW125259   3.410   4.474   1.066
 8120SOL    HW225260   3.386   4.633   1.096
 8121SOL     OW25261   0.760   5.046   1.657
 8121SOL    HW125262   0.679   5.091   1.695
 8121SOL    HW225263   0.813   5.006   1.732
 8122SOL     OW25264   0.185   4.385   2.883
 8122SOL    HW125265   0.206   4.359   2.977
 8122SOL    HW225266   0.101   4.340   2.854
 8123SOL     OW25267   6.714   1.829   6.472
 8123SOL    HW125268   6.739   1.808   6.566
 8123SOL    HW225269   6.764   1.911   6.442
 8124SOL     OW25270   4.961   5.897   2.144
 8124SOL    HW125271   5.056   5.909   2.173
 8124SOL    HW225272   4.916   5.832   2.205
 8125SOL     OW25273   1.675   1.740   3.511
 8125SOL    HW125274   1.684   1.691   3.598
 8125SOL    HW225275   1.766   1.771   3.482
 8126SOL     OW25276   5.356   4.622   3.243
 8126SOL    HW125277   5.421   4.582   3.179
 8126SOL    HW225278   5.274   4.651   3.193
 8127SOL     OW25279   2.718   3.400   6.083
 8127SOL    HW125280   2.818   3.398   6.077
 8127SOL    HW225281   2.688   3.350   6.164
 8128SOL     OW25282   2.964   2.202   2.288
 8128SOL    HW125283   2.929   2.241   2.202
 8128SOL    HW225284   2.943   2.264   2.363
 8129SOL     OW25285   3.829   1.430   6.009
 8129SOL    HW125286   3.763   1.409   5.938
 8129SOL    HW225287   3.795   1.505   6.066
 8130SOL     OW25288   0.686   4.428   6.644
 8130SOL    HW125289   0.655   4.404   6.736
 8130SOL    HW225290   0.780   4.398   6.631
 8131SOL     OW25291   2.491   2.039   1.418
 8131SOL    HW125292   2.396   2.011   1.406
 8131SOL    HW225293   2.497   2.109   1.490
 8132SOL     OW25294   5.284   6.936   5.110
 8132SOL    HW125295   5.362   6.959   5.052
 8132SOL    HW225296   5.199   6.943   5.058
 8133SOL     OW25297   3.294   5.223   2.641
 8133SOL    HW125298   3.266   5.132   2.671
 8133SOL    HW225299   3.383   5.217   2.595
 8134SOL     OW25300   6.831   2.046   6.323
 8134SOL    HW125301   6.910   2.092   6.282
 8134SOL    HW225302   6.831   2.063   6.422
 8135SOL     OW25303   2.872   0.163   1.377
 8135SOL    HW125304   2.883   0.256   1.342
 8135SOL    HW225305   2.833   0.105   1.307
 8136SOL     OW25306   4.698   5.672   3.054
 8136SOL    HW125307   4.704   5.586   3.003
 8136SOL    HW225308   4.773   5.677   3.119
 8137SOL     OW25309   3.166   1.515   5.274
 8137SOL    HW125310   3.074   1.551   5.258
 8137SOL    HW225311   3.221   1.524   5.191
 8138SOL     OW25312   5.303   1.166   0.753
 8138SOL    HW125313   5.216   1.136   0.712
 8138SOL    HW225314   5.296   1.262   0.778
 8139SOL     OW25315   0.101   0.653   1.830
 8139SOL    HW125316   0.085   0.740   1.783
 8139SOL    HW225317   0.171   0.666   1.900
 8140SOL     OW25318   5.637   0.717   6.062
 8140SOL    HW125319   5.551   0.755   6.029
 8140SOL    HW225320   5.618   0.641   6.124
 8141SOL     OW25321   4.342   5.223   4.630
 8141SOL    HW125322   4.259   5.169   4.619
 8141SOL    HW225323   4.324   5.299   4.693
 8142SOL     OW25324   0.227   5.221   6.752
 8142SOL    HW125325   0.151   5.182   6.699
 8142SOL    HW225326   0.191   5.261   6.837
 8143SOL     OW25327   5.744   4.001   0.776
 8143SOL    HW125328   5.764   3.908   0.747
 8143SOL    HW225329   5.778   4.066   0.708
 8144SOL     OW25330   5.993   6.439   6.420
 8144SOL    HW125331   5.946   6.365   6.467
 8144SOL    HW225332   6.068   6.473   6.477
 8145SOL     OW25333   5.651   6.067   1.130
 8145SOL    HW125334   5.666   5.972   1.101
 8145SOL    HW225335   5.719   6.126   1.086
 8146SOL     OW25336   3.664   0.943   4.621
 8146SOL    HW125337   3.681   0.862   4.566
 8146SOL    HW225338   3.750   0.993   4.634
 8147SOL     OW25339   5.877   2.047   1.567
 8147SOL    HW125340   5.900   2.144   1.579
 8147SOL    HW225341   5.927   1.992   1.633
 8148SOL     OW25342   5.430   4.659   1.196
 8148SOL    HW125343   5.400   4.747   1.159
 8148SOL    HW225344   5.354   4.594   1.194
 8149SOL     OW25345   2.650   6.113   2.015
 8149SOL    HW125346   2.648   6.040   2.083
 8149SOL    HW225347   2.606   6.195   2.053
 8150SOL     OW25348   0.334   4.780   0.250
 8150SOL    HW125349   0.239   4.748   0.263
 8150SOL    HW225350   0.390   4.704   0.218
 8151SOL     OW25351   6.335   2.148   1.643
 8151SOL    HW125352   6.426   2.117   1.616
 8151SOL    HW225353   6.279   2.161   1.562
 8152SOL     OW25354   0.460   1.686   2.678
 8152SOL    HW125355   0.560   1.680   2.685
 8152SOL    HW225356   0.422   1.703   2.769
 8153SOL     OW25357   3.274   0.367   2.978
 8153SOL    HW125358   3.226   0.294   3.024
 8153SOL    HW225359   3.366   0.377   3.016
 8154SOL     OW25360   2.961   5.766   3.582
 8154SOL    HW125361   2.874   5.717   3.597
 8154SOL    HW225362   2.945   5.864   3.591
 8155SOL     OW25363   2.531   3.859   1.509
 8155SOL    HW125364   2.504   3.939   1.457
 8155SOL    HW225365   2.497   3.867   1.603
 8156SOL     OW25366   5.142   6.835   6.406
 8156SOL    HW125367   5.061   6.778   6.400
 8156SOL    HW225368   5.141   6.886   6.492
 8157SOL     OW25369   5.913   5.056   6.720
 8157SOL    HW125370   5.991   5.002   6.690
 8157SOL    HW225371   5.899   5.043   6.819
 8158SOL     OW25372   0.093   4.957   1.677
 8158SOL    HW125373   0.126   4.863   1.671
 8158SOL    HW225374   0.001   4.963   1.638
 8159SOL     OW25375   2.792   6.003   3.004
 8159SOL    HW125376   2.779   6.069   2.931
 8159SOL    HW225377   2.878   5.954   2.992
 8160SOL     OW25378   4.630   1.448   2.542
 8160SOL    HW125379   4.551   1.475   2.488
 8160SOL    HW225380   4.602   1.430   2.637
 8161SOL     OW25381   4.911   1.267   6.764
 8161SOL    HW125382   4.827   1.308   6.798
 8161SOL    HW225383   4.916   1.278   6.665
 8162SOL     OW25384   6.356   6.634   5.891
 8162SOL    HW125385   6.363   6.547   5.842
 8162SOL    HW225386   6.413   6.631   5.973
 8163SOL     OW25387   2.737   3.626   5.404
 8163SOL    HW125388   2.740   3.526   5.402
 8163SOL    HW225389   2.830   3.662   5.405
 8164SOL     OW25390   5.947   3.083   0.607
 8164SOL    HW125391   5.881   3.099   0.680
 8164SOL    HW225392   6.035   3.123   0.633
 8165SOL     OW25393   1.012   5.175   6.407
 8165SOL    HW125394   0.951   5.205   6.480
 8165SOL    HW225395   1.105   5.208   6.426
 8166SOL     OW25396   2.483   0.953   2.170
 8166SOL    HW125397   2.506   1.017   2.244
 8166SOL    HW225398   2.560   0.891   2.156
 8167SOL     OW25399   6.134   1.001   4.256
 8167SOL    HW125400   6.223   0.983   4.214
 8167SOL    HW225401   6.092   1.080   4.213
 8168SOL     OW25402   3.137   1.598   3.445
 8168SOL    HW125403   3.193   1.523   3.409
 8168SOL    HW225404   3.141   1.597   3.545
 8169SOL     OW25405   5.189   3.040   1.350
 8169SOL    HW125406   5.137   2.955   1.358
 8169SOL    HW225407   5.184   3.074   1.256
 8170SOL     OW25408   1.465   5.847   2.642
 8170SOL    HW125409   1.429   5.834   2.550
 8170SOL    HW225410   1.553   5.894   2.637
 8171SOL     OW25411   1.103   1.599   0.193
 8171SOL    HW125412   1.010   1.580   0.161
 8171SOL    HW225413   1.134   1.524   0.252
 8172SOL     OW25414   0.965   1.065   1.887
 8172SOL    HW125415   1.037   1.099   1.947
 8172SOL    HW225416   0.876   1.086   1.927
 8173SOL     OW25417   3.496   1.623   0.539
 8173SOL    HW125418   3.536   1.669   0.618
 8173SOL    HW225419   3.418   1.677   0.505
 8174SOL     OW25420   4.957   2.004   0.602
 8174SOL    HW125421   4.953   1.984   0.504
 8174SOL    HW225422   5.010   2.087   0.617
 8175SOL     OW25423   0.001   2.534   5.715
 8175SOL    HW125424   0.064   2.605   5.749
 8175SOL    HW225425   0.042   2.489   5.636
 8176SOL     OW25426   2.447   5.341   2.534
 8176SOL    HW125427   2.352   5.309   2.531
 8176SOL    HW225428   2.508   5.266   2.507
 8177SOL     OW25429   2.330   6.573   4.203
 8177SOL    HW125430   2.241   6.577   4.157
 8177SOL    HW225431   2.316   6.564   4.302
 8178SOL     OW25432   2.041   6.867   6.845
 8178SOL    HW125433   2.137   6.892   6.842
 8178SOL    HW225434   1.989   6.937   6.895
 8179SOL     OW25435   3.722   2.670   6.960
 8179SOL    HW125436   3.663   2.671   6.879
 8179SOL    HW225437   3.680   2.722   0.015
 8180SOL     OW25438   6.478   0.189   4.519
 8180SOL    HW125439   6.503   0.270   4.467
 8180SOL    HW225440   6.523   0.109   4.480
 8181SOL     OW25441   1.974   1.635   2.488
 8181SOL    HW125442   2.053   1.584   2.522
 8181SOL    HW225443   1.890   1.600   2.531
 8182SOL     OW25444   3.954   1.330   6.908
 8182SOL    HW125445   3.881   1.385   6.867
 8182SOL    HW225446   4.011   1.292   6.835
 8183SOL     OW25447   0.479   2.396   4.808
 8183SOL    HW125448   0.544   2.456   4.855
 8183SOL    HW225449   0.488   2.407   4.709
 8184SOL     OW25450   5.431   1.525   6.024
 8184SOL    HW125451   5.490   1.604   6.006
 8184SOL    HW225452   5.338   1.546   5.993
 8185SOL     OW25453   3.302   0.235   0.379
 8185SOL    HW125454   3.390   0.220   0.334
 8185SOL    HW225455   3.238   0.162   0.354
 8186SOL     OW25456   3.099   5.996   6.272
 8186SOL    HW125457   3.076   5.899   6.266
 8186SOL    HW225458   3.103   6.024   6.368
 8187SOL     OW25459   1.702   2.450   5.013
 8187SOL    HW125460   1.770   2.395   5.061
 8187SOL    HW225461   1.747   2.524   4.963
 8188SOL     OW25462   5.584   1.907   2.504
 8188SOL    HW125463   5.521   1.835   2.532
 8188SOL    HW225464   5.534   1.979   2.456
 8189SOL     OW25465   5.174   4.268   2.033
 8189SOL    HW125466   5.272   4.254   2.015
 8189SOL    HW225467   5.162   4.291   2.130
 8190SOL     OW25468   4.808   5.586   4.488
 8190SOL    HW125469   4.907   5.584   4.474
 8190SOL    HW225470   4.775   5.493   4.501
 8191SOL     OW25471   2.658   5.322   3.803
 8191SOL    HW125472   2.572   5.309   3.852
 8191SOL    HW225473   2.735   5.301   3.864
 8192SOL     OW25474   3.054   5.774   6.986
 8192SOL    HW125475   3.007   5.694   0.005
 8192SOL    HW225476   3.122   5.807   0.034
 8193SOL     OW25477   6.687   0.098   4.002
 8193SOL    HW125478   6.766   0.160   4.003
 8193SOL    HW225479   6.603   0.152   4.003
 8194SOL     OW25480   6.167   2.639   0.370
 8194SOL    HW125481   6.130   2.554   0.407
 8194SOL    HW225482   6.242   2.618   0.307
 8195SOL     OW25483   0.618   0.709   0.817
 8195SOL    HW125484   0.539   0.691   0.876
 8195SOL    HW225485   0.606   0.664   0.729
 8196SOL     OW25486   3.520   0.301   5.485
 8196SOL    HW125487   3.465   0.267   5.562
 8196SOL    HW225488   3.463   0.360   5.427
 8197SOL     OW25489   4.956   1.640   6.022
 8197SOL    HW125490   4.857   1.641   6.009
 8197SOL    HW225491   4.978   1.677   6.112
 8198SOL     OW25492   3.086   6.958   2.286
 8198SOL    HW125493   3.163   6.927   2.341
 8198SOL    HW225494   3.023   7.010   2.343
 8199SOL     OW25495   6.767   4.098   0.730
 8199SOL    HW125496   6.775   4.028   0.802
 8199SOL    HW225497   6.746   4.054   0.643
 8200SOL     OW25498   4.538   4.195   1.034
 8200SOL    HW125499   4.508   4.117   1.089
 8200SOL    HW225500   4.465   4.223   0.973
 8201SOL     OW25501   5.393   0.827   4.500
 8201SOL    HW125502   5.432   0.900   4.444
 8201SOL    HW225503   5.436   0.828   4.591
 8202SOL     OW25504   1.021   5.522   4.092
 8202SOL    HW125505   1.082   5.590   4.050
 8202SOL    HW225506   1.073   5.463   4.153
 8203SOL     OW25507   4.726   3.384   0.362
 8203SOL    HW125508   4.750   3.287   0.357
 8203SOL    HW225509   4.687   3.413   0.275
 8204SOL     OW25510   3.525   5.219   1.295
 8204SOL    HW125511   3.519   5.164   1.211
 8204SOL    HW225512   3.605   5.278   1.291
 8205SOL     OW25513   6.467   4.637   2.438
 8205SOL    HW125514   6.455   4.592   2.526
 8205SOL    HW225515   6.529   4.584   2.381
 8206SOL     OW25516   3.011   2.141   5.486
 8206SOL    HW125517   2.926   2.157   5.536
 8206SOL    HW225518   3.011   2.194   5.401
 8207SOL     OW25519   3.452   4.755   5.249
 8207SOL    HW125520   3.522   4.784   5.315
 8207SOL    HW225521   3.440   4.656   5.254
 8208SOL     OW25522   2.644   6.397   1.640
 8208SOL    HW125523   2.663   6.496   1.642
 8208SOL    HW225524   2.722   6.349   1.599
 8209SOL     OW25525   0.668   1.381   5.358
 8209SOL    HW125526   0.695   1.461   5.303
 8209SOL    HW225527   0.737   1.309   5.347
 8210SOL     OW25528   3.291   0.267   6.998
 8210SOL    HW125529   3.225   0.325   0.029
 8210SOL    HW225530   3.355   0.326   6.948
 8211SOL     OW25531   3.644   4.136   4.033
 8211SOL    HW125532   3.669   4.039   4.036
 8211SOL    HW225533   3.724   4.191   4.058
 8212SOL     OW25534   3.267   0.723   0.717
 8212SOL    HW125535   3.184   0.777   0.704
 8212SOL    HW225536   3.245   0.643   0.774
 8213SOL     OW25537   4.772   5.290   3.233
 8213SOL    HW125538   4.713   5.285   3.313
 8213SOL    HW225539   4.837   5.364   3.244
 8214SOL     OW25540   1.992   6.036   3.782
 8214SOL    HW125541   1.970   5.944   3.813
 8214SOL    HW225542   2.086   6.058   3.806
 8215SOL     OW25543   4.117   5.147   0.431
 8215SOL    HW125544   4.149   5.198   0.352
 8215SOL    HW225545   4.099   5.210   0.506
 8216SOL     OW25546   5.178   6.983   3.273
 8216SOL    HW125547   5.132   6.994   3.185
 8216SOL    HW225548   5.207   6.888   3.285
 8217SOL     OW25549   2.283   4.273   2.086
 8217SOL    HW125550   2.243   4.182   2.099
 8217SOL    HW225551   2.303   4.287   1.989
 8218SOL     OW25552   1.413   0.363   4.734
 8218SOL    HW125553   1.332   0.317   4.771
 8218SOL    HW225554   1.469   0.399   4.809
 8219SOL     OW25555   2.776   4.560   1.111
 8219SOL    HW125556   2.746   4.506   1.189
 8219SOL    HW225557   2.715   4.637   1.098
 8220SOL     OW25558   3.567   4.075   5.013
 8220SOL    HW125559   3.579   4.113   4.921
 8220SOL    HW225560   3.545   3.978   5.006
 8221SOL     OW25561   6.126   4.201   3.377
 8221SOL    HW125562   6.136   4.258   3.295
 8221SOL    HW225563   6.131   4.105   3.351
 8222SOL     OW25564   5.469   2.084   0.520
 8222SOL    HW125565   5.411   2.161   0.495
 8222SOL    HW225566   5.537   2.113   0.588
 8223SOL     OW25567   0.039   4.977   5.709
 8223SOL    HW125568   7.013   5.059   5.744
 8223SOL    HW225569   0.136   4.996   5.693
 8224SOL     OW25570   4.411   2.005   1.192
 8224SOL    HW125571   4.406   2.064   1.111
 8224SOL    HW225572   4.465   1.923   1.169
 8225SOL     OW25573   4.237   0.020   1.136
 8225SOL    HW125574   4.301   0.009   1.059
 8225SOL    HW225575   4.206   6.948   1.165
 8226SOL     OW25576   3.338   0.038   0.597
 8226SOL    HW125577   3.343   0.118   0.538
 8226SOL    HW225578   3.297   0.063   0.684
 8227SOL     OW25579   6.429   1.518   2.442
 8227SOL    HW125580   6.508   1.462   2.466
 8227SOL    HW225581   6.447   1.613   2.463
 8228SOL     OW25582   0.392   1.337   5.675
 8228SOL    HW125583   0.446   1.406   5.723
 8228SOL    HW225584   0.394   1.356   5.577
 8229SOL     OW25585   4.727   4.516   1.275
 8229SOL    HW125586   4.721   4.485   1.180
 8229SOL    HW225587   4.771   4.445   1.330
 8230SOL     OW25588   3.767   6.621   5.690
 8230SOL    HW125589   3.695   6.640   5.623
 8230SOL    HW225590   3.824   6.702   5.703
 8231SOL     OW25591   3.365   1.700   2.303
 8231SOL    HW125592   3.267   1.697   2.283
 8231SOL    HW225593   3.380   1.682   2.400
 8232SOL     OW25594   5.232   1.330   2.210
 8232SOL    HW125595   5.258   1.307   2.116
 8232SOL    HW225596   5.288   1.406   2.243
 8233SOL     OW25597   0.811   0.435   5.833
 8233SOL    HW125598   0.846   0.492   5.907
 8233SOL    HW225599   0.784   0.492   5.756
 8234SOL     OW25600   3.403   3.017   0.007
 8234SOL    HW125601   3.447   3.103   0.034
 8234SOL    HW225602   3.306   3.021   0.031
 8235SOL     OW25603   0.300   4.407   0.055
 8235SOL    HW125604   0.260   4.483   0.107
 8235SOL    HW225605   0.249   4.396   6.988
 8236SOL     OW25606   0.311   5.917   5.963
 8236SOL    HW125607   0.225   5.875   5.935
 8236SOL    HW225608   0.293   5.985   6.034
 8237SOL     OW25609   4.394   5.283   6.068
 8237SOL    HW125610   4.437   5.237   5.990
 8237SOL    HW225611   4.369   5.215   6.137
 8238SOL     OW25612   0.934   5.655   6.621
 8238SOL    HW125613   0.916   5.556   6.616
 8238SOL    HW225614   0.960   5.680   6.714
 8239SOL     OW25615   0.329   1.018   4.586
 8239SOL    HW125616   0.238   1.021   4.628
 8239SOL    HW225617   0.395   0.982   4.651
 8240SOL     OW25618   2.971   3.274   2.660
 8240SOL    HW125619   3.048   3.257   2.598
 8240SOL    HW225620   2.886   3.271   2.609
 8241SOL     OW25621   1.219   3.603   6.980
 8241SOL    HW125622   1.214   3.542   0.041
 8241SOL    HW225623   1.197   3.551   6.897
 8242SOL     OW25624   1.202   3.716   4.501
 8242SOL    HW125625   1.234   3.810   4.515
 8242SOL    HW225626   1.281   3.656   4.492
 8243SOL     OW25627   0.674   4.357   6.332
 8243SOL    HW125628   0.647   4.453   6.344
 8243SOL    HW225629   0.773   4.349   6.345
 8244SOL     OW25630   1.137   0.356   3.749
 8244SOL    HW125631   1.195   0.294   3.802
 8244SOL    HW225632   1.165   0.450   3.765
 8245SOL     OW25633   4.508   1.834   3.626
 8245SOL    HW125634   4.496   1.816   3.723
 8245SOL    HW225635   4.587   1.893   3.613
 8246SOL     OW25636   1.240   4.199   6.075
 8246SOL    HW125637   1.336   4.221   6.092
 8246SOL    HW225638   1.205   4.257   6.002
 8247SOL     OW25639   3.160   5.252   3.823
 8247SOL    HW125640   3.091   5.211   3.764
 8247SOL    HW225641   3.130   5.344   3.850
 8248SOL     OW25642   1.046   5.783   4.326
 8248SOL    HW125643   0.994   5.705   4.361
 8248SOL    HW225644   1.067   5.768   4.230
 8249SOL     OW25645   2.525   1.813   5.240
 8249SOL    HW125646   2.570   1.767   5.317
 8249SOL    HW225647   2.587   1.881   5.202
 8250SOL     OW25648   3.210   1.831   0.821
 8250SOL    HW125649   3.220   1.829   0.921
 8250SOL    HW225650   3.153   1.909   0.795
 8251SOL     OW25651   6.260   2.031   4.020
 8251SOL    HW125652   6.258   2.021   4.120
 8251SOL    HW225653   6.170   2.061   3.988
 8252SOL     OW25654   2.750   2.115   6.501
 8252SOL    HW125655   2.675   2.155   6.553
 8252SOL    HW225656   2.763   2.167   6.416
 8253SOL     OW25657   4.031   5.643   6.545
 8253SOL    HW125658   4.105   5.630   6.479
 8253SOL    HW225659   3.951   5.590   6.517
 8254SOL     OW25660   5.913   4.982   5.849
 8254SOL    HW125661   5.912   4.893   5.895
 8254SOL    HW225662   5.824   5.026   5.859
 8255SOL     OW25663   0.917   0.034   5.965
 8255SOL    HW125664   0.922   6.953   5.975
 8255SOL    HW225665   0.940   0.078   6.052
 8256SOL     OW25666   6.951   0.064   3.247
 8256SOL    HW125667   6.938   0.162   3.230
 8256SOL    HW225668   0.023   0.036   3.215
 8257SOL     OW25669   5.648   4.146   4.214
 8257SOL    HW125670   5.637   4.107   4.305
 8257SOL    HW225671   5.684   4.239   4.221
 8258SOL     OW25672   5.672   2.461   0.992
 8258SOL    HW125673   5.751   2.401   1.002
 8258SOL    HW225674   5.703   2.555   0.979
 8259SOL     OW25675   3.810   1.881   5.208
 8259SOL    HW125676   3.826   1.813   5.137
 8259SOL    HW225677   3.873   1.958   5.196
 8260SOL     OW25678   2.073   6.416   0.786
 8260SOL    HW125679   2.000   6.418   0.854
 8260SOL    HW225680   2.157   6.384   0.829
 8261SOL     OW25681   5.587   6.765   3.367
 8261SOL    HW125682   5.549   6.857   3.356
 8261SOL    HW225683   5.585   6.740   3.464
 8262SOL     OW25684   0.494   4.952   0.384
 8262SOL    HW125685   0.474   4.879   0.319
 8262SOL    HW225686   0.556   4.917   0.455
 8263SOL     OW25687   6.841   2.812   6.688
 8263SOL    HW125688   6.857   2.785   6.783
 8263SOL    HW225689   6.885   2.900   6.671
 8264SOL     OW25690   1.402   6.724   1.330
 8264SOL    HW125691   1.351   6.694   1.250
 8264SOL    HW225692   1.474   6.657   1.350
 8265SOL     OW25693   4.033   0.085   1.587
 8265SOL    HW125694   4.048   0.184   1.598
 8265SOL    HW225695   4.115   0.044   1.547
 8266SOL     OW25696   2.764   0.248   4.465
 8266SOL    HW125697   2.671   0.211   4.469
 8266SOL    HW225698   2.826   0.178   4.429
 8267SOL     OW25699   1.501   5.056   2.072
 8267SOL    HW125700   1.515   4.961   2.044
 8267SOL    HW225701   1.511   5.064   2.171
 8268SOL     OW25702   2.010   3.892   6.963
 8268SOL    HW125703   1.975   3.919   6.874
 8268SOL    HW225704   2.107   3.919   6.970
 8269SOL     OW25705   4.941   2.868   2.920
 8269SOL    HW125706   4.911   2.841   2.828
 8269SOL    HW225707   4.959   2.966   2.921
 8270SOL     OW25708   2.526   6.438   5.676
 8270SOL    HW125709   2.575   6.488   5.605
 8270SOL    HW225710   2.553   6.342   5.675
 8271SOL     OW25711   6.185   6.622   4.482
 8271SOL    HW125712   6.093   6.653   4.460
 8271SOL    HW225713   6.191   6.523   4.472
 8272SOL     OW25714   0.534   0.451   2.158
 8272SOL    HW125715   0.502   0.544   2.139
 8272SOL    HW225716   0.566   0.409   2.073
 8273SOL     OW25717   3.256   6.835   0.013
 8273SOL    HW125718   3.193   6.764   7.001
 8273SOL    HW225719   3.305   6.803   0.095
 8274SOL     OW25720   3.967   4.225   6.601
 8274SOL    HW125721   3.966   4.265   6.693
 8274SOL    HW225722   4.059   4.231   6.563
 8275SOL     OW25723   6.031   0.441   4.746
 8275SOL    HW125724   6.099   0.406   4.681
 8275SOL    HW225725   6.013   0.538   4.726
 8276SOL     OW25726   6.792   2.675   5.919
 8276SOL    HW125727   6.763   2.751   5.862
 8276SOL    HW225728   6.716   2.611   5.931
 8277SOL     OW25729   2.449   5.618   5.258
 8277SOL    HW125730   2.521   5.569   5.308
 8277SOL    HW225731   2.396   5.673   5.322
 8278SOL     OW25732   3.203   1.337   6.437
 8278SOL    HW125733   3.196   1.333   6.337
 8278SOL    HW225734   3.132   1.396   6.474
 8279SOL     OW25735   5.331   5.185   6.807
 8279SOL    HW125736   5.292   5.271   6.839
 8279SOL    HW225737   5.414   5.203   6.754
 8280SOL     OW25738   4.457   2.480   6.984
 8280SOL    HW125739   4.454   2.381   6.977
 8280SOL    HW225740   4.539   2.514   6.939
 8281SOL     OW25741   2.072   4.451   0.435
 8281SOL    HW125742   2.053   4.358   0.466
 8281SOL    HW225743   2.170   4.469   0.444
 8282SOL     OW25744   3.110   2.271   1.031
 8282SOL    HW125745   3.025   2.319   1.007
 8282SOL    HW225746   3.097   2.224   1.119
 8283SOL     OW25747   0.273   5.357   3.550
 8283SOL    HW125748   0.257   5.269   3.596
 8283SOL    HW225749   0.244   5.350   3.454
 8284SOL     OW25750   1.833   2.783   2.526
 8284SOL    HW125751   1.922   2.810   2.563
 8284SOL    HW225752   1.845   2.751   2.432
 8285SOL     OW25753   3.453   3.672   5.719
 8285SOL    HW125754   3.510   3.665   5.637
 8285SOL    HW225755   3.409   3.762   5.721
 8286SOL     OW25756   5.597   1.244   4.544
 8286SOL    HW125757   5.539   1.317   4.511
 8286SOL    HW225758   5.576   1.225   4.640
 8287SOL     OW25759   1.602   0.003   4.461
 8287SOL    HW125760   1.600   6.922   4.450
 8287SOL    HW225761   1.534   0.044   4.399
 8288SOL     OW25762   1.868   2.469   2.314
 8288SOL    HW125763   1.888   2.425   2.401
 8288SOL    HW225764   1.909   2.416   2.239
 8289SOL     OW25765   6.001   0.680   5.897
 8289SOL    HW125766   6.084   0.683   5.841
 8289SOL    HW225767   5.924   0.647   5.842
 8290SOL     OW25768   4.123   3.375   1.605
 8290SOL    HW125769   4.127   3.299   1.541
 8290SOL    HW225770   4.050   3.359   1.672
 8291SOL     OW25771   5.720   6.512   6.402
 8291SOL    HW125772   5.818   6.494   6.393
 8291SOL    HW225773   5.686   6.552   6.317
 8292SOL     OW25774   2.185   5.320   5.807
 8292SOL    HW125775   2.152   5.229   5.784
 8292SOL    HW225776   2.139   5.352   5.890
 8293SOL     OW25777   2.168   4.779   1.763
 8293SOL    HW125778   2.156   4.869   1.721
 8293SOL    HW225779   2.227   4.723   1.705
 8294SOL     OW25780   6.460   3.435   5.457
 8294SOL    HW125781   6.556   3.463   5.468
 8294SOL    HW225782   6.401   3.515   5.468
 8295SOL     OW25783   4.865   3.924   2.837
 8295SOL    HW125784   4.861   4.000   2.772
 8295SOL    HW225785   4.896   3.842   2.789
 8296SOL     OW25786   3.692   5.585   6.863
 8296SOL    HW125787   3.689   5.502   6.918
 8296SOL    HW225788   3.604   5.632   6.869
 8297SOL     OW25789   6.120   3.886   1.573
 8297SOL    HW125790   6.113   3.811   1.507
 8297SOL    HW225791   6.216   3.900   1.597
 8298SOL     OW25792   0.748   1.166   6.287
 8298SOL    HW125793   0.751   1.240   6.355
 8298SOL    HW225794   0.654   1.151   6.257
 8299SOL     OW25795   0.038   3.866   1.334
 8299SOL    HW125796   6.984   3.806   1.300
 8299SOL    HW225797   0.089   3.819   1.406
 8300SOL     OW25798   5.980   6.087   4.708
 8300SOL    HW125799   5.910   6.036   4.758
 8300SOL    HW225800   5.955   6.183   4.705
 8301SOL     OW25801   4.259   6.970   6.656
 8301SOL    HW125802   4.346   7.016   6.635
 8301SOL    HW225803   4.230   6.916   6.578
 8302SOL     OW25804   3.123   6.686   5.227
 8302SOL    HW125805   3.167   6.633   5.154
 8302SOL    HW225806   3.193   6.726   5.286
 8303SOL     OW25807   7.005   0.479   2.554
 8303SOL    HW125808   0.052   0.517   2.619
 8303SOL    HW225809   6.921   0.454   2.601
 8304SOL     OW25810   5.851   4.233   3.128
 8304SOL    HW125811   5.923   4.292   3.091
 8304SOL    HW225812   5.858   4.231   3.228
 8305SOL     OW25813   4.622   5.281   3.851
 8305SOL    HW125814   4.530   5.316   3.840
 8305SOL    HW225815   4.644   5.276   3.949
 8306SOL     OW25816   6.428   1.186   2.421
 8306SOL    HW125817   6.502   1.247   2.448
 8306SOL    HW225818   6.441   1.096   2.462
 8307SOL     OW25819   1.382   5.390   1.275
 8307SOL    HW125820   1.299   5.442   1.253
 8307SOL    HW225821   1.376   5.357   1.369
 8308SOL     OW25822   1.639   4.212   6.939
 8308SOL    HW125823   1.570   4.254   6.998
 8308SOL    HW225824   1.637   4.255   6.849
 8309SOL     OW25825   6.448   4.829   4.955
 8309SOL    HW125826   6.404   4.819   5.045
 8309SOL    HW225827   6.518   4.901   4.961
 8310SOL     OW25828   0.854   6.283   1.288
 8310SOL    HW125829   0.858   6.375   1.326
 8310SOL    HW225830   0.792   6.282   1.209
 8311SOL     OW25831   5.182   0.143   4.528
 8311SOL    HW125832   5.258   0.165   4.466
 8311SOL    HW225833   5.195   0.051   4.565
 8312SOL     OW25834   5.510   0.059   0.689
 8312SOL    HW125835   5.513   0.116   0.772
 8312SOL    HW225836   5.515   0.119   0.609
 8313SOL     OW25837   3.773   0.149   5.351
 8313SOL    HW125838   3.687   0.192   5.379
 8313SOL    HW225839   3.810   0.197   5.271
 8314SOL     OW25840   5.623   6.090   6.634
 8314SOL    HW125841   5.562   6.087   6.554
 8314SOL    HW225842   5.570   6.075   6.717
 8315SOL     OW25843   3.748   3.656   3.658
 8315SOL    HW125844   3.734   3.686   3.563
 8315SOL    HW225845   3.702   3.569   3.672
 8316SOL     OW25846   0.921   3.275   6.514
 8316SOL    HW125847   1.013   3.272   6.553
 8316SOL    HW225848   0.857   3.230   6.576
 8317SOL     OW25849   2.100   2.056   4.795
 8317SOL    HW125850   2.145   2.145   4.800
 8317SOL    HW225851   2.145   1.999   4.728
 8318SOL     OW25852   4.395   1.166   5.956
 8318SOL    HW125853   4.316   1.124   6.001
 8318SOL    HW225854   4.405   1.127   5.864
 8319SOL     OW25855   1.161   0.457   5.893
 8319SOL    HW125856   1.089   0.506   5.943
 8319SOL    HW225857   1.245   0.458   5.946
 8320SOL     OW25858   3.515   4.090   3.658
 8320SOL    HW125859   3.549   3.999   3.683
 8320SOL    HW225860   3.482   4.136   3.741
 8321SOL     OW25861   0.071   0.370   6.355
 8321SOL    HW125862   7.004   0.420   6.338
 8321SOL    HW225863   0.079   0.296   6.288
 8322SOL     OW25864   6.961   1.209   0.659
 8322SOL    HW125865   6.993   1.261   0.738
 8322SOL    HW225866   6.997   1.116   0.663
 8323SOL     OW25867   4.582   4.749   1.309
 8323SOL    HW125868   4.654   4.684   1.285
 8323SOL    HW225869   4.527   4.769   1.228
 8324SOL     OW25870   5.831   0.379   0.237
 8324SOL    HW125871   5.745   0.426   0.254
 8324SOL    HW225872   5.888   0.383   0.320
 8325SOL     OW25873   1.273   5.206   5.241
 8325SOL    HW125874   1.264   5.156   5.327
 8325SOL    HW225875   1.235   5.298   5.252
 8326SOL     OW25876   3.570   3.824   0.016
 8326SOL    HW125877   3.539   3.901   0.070
 8326SOL    HW225878   3.653   3.785   0.057
 8327SOL     OW25879   0.478   0.825   5.338
 8327SOL    HW125880   0.555   0.769   5.306
 8327SOL    HW225881   0.430   0.776   5.411
 8328SOL     OW25882   0.943   6.664   5.669
 8328SOL    HW125883   0.915   6.707   5.583
 8328SOL    HW225884   0.862   6.626   5.715
 8329SOL     OW25885   0.802   2.941   5.368
 8329SOL    HW125886   0.824   2.860   5.313
 8329SOL    HW225887   0.883   2.969   5.420
 8330SOL     OW25888   3.942   0.966   6.256
 8330SOL    HW125889   3.920   0.891   6.194
 8330SOL    HW225890   3.948   0.931   6.350
 8331SOL     OW25891   2.728   2.087   0.336
 8331SOL    HW125892   2.764   2.132   0.254
 8331SOL    HW225893   2.647   2.034   0.312
 8332SOL     OW25894   5.309   5.451   1.882
 8332SOL    HW125895   5.251   5.432   1.961
 8332SOL    HW225896   5.319   5.369   1.826
 8333SOL     OW25897   1.706   5.323   0.767
 8333SOL    HW125898   1.784   5.367   0.723
 8333SOL    HW225899   1.630   5.388   0.773
 8334SOL     OW25900   2.996   1.510   6.543
 8334SOL    HW125901   3.014   1.606   6.564
 8334SOL    HW225902   2.949   1.503   6.456
 8335SOL     OW25903   4.128   2.473   6.644
 8335SOL    HW125904   4.177   2.389   6.667
 8335SOL    HW225905   4.170   2.550   6.692
 8336SOL     OW25906   1.477   3.811   2.412
 8336SOL    HW125907   1.416   3.825   2.490
 8336SOL    HW225908   1.441   3.859   2.332
 8337SOL     OW25909   0.881   0.678   5.085
 8337SOL    HW125910   0.931   0.719   5.008
 8337SOL    HW225911   0.826   0.602   5.051
 8338SOL     OW25912   3.973   4.822   2.329
 8338SOL    HW125913   3.893   4.879   2.313
 8338SOL    HW225914   4.023   4.811   2.243
 8339SOL     OW25915   6.792   0.755   0.660
 8339SOL    HW125916   6.727   0.795   0.594
 8339SOL    HW225917   6.766   0.782   0.753
 8340SOL     OW25918   5.103   3.239   0.505
 8340SOL    HW125919   5.158   3.209   0.583
 8340SOL    HW225920   5.073   3.334   0.520
 8341SOL     OW25921   3.124   0.574   6.281
 8341SOL    HW125922   3.108   0.475   6.284
 8341SOL    HW225923   3.110   0.612   6.372
 8342SOL     OW25924   3.367   6.235   0.388
 8342SOL    HW125925   3.412   6.146   0.386
 8342SOL    HW225926   3.387   6.286   0.305
 8343SOL     OW25927   6.664   5.436   4.045
 8343SOL    HW125928   6.738   5.376   4.016
 8343SOL    HW225929   6.576   5.390   4.031
 8344SOL     OW25930   0.137   4.425   4.098
 8344SOL    HW125931   0.197   4.505   4.104
 8344SOL    HW225932   0.183   4.345   4.136
 8345SOL     OW25933   5.356   1.384   3.362
 8345SOL    HW125934   5.359   1.436   3.448
 8345SOL    HW225935   5.373   1.445   3.285
 8346SOL     OW25936   4.244   2.866   6.147
 8346SOL    HW125937   4.170   2.934   6.149
 8346SOL    HW225938   4.321   2.902   6.096
 8347SOL     OW25939   2.385   6.597   6.374
 8347SOL    HW125940   2.446   6.563   6.446
 8347SOL    HW225941   2.315   6.656   6.414
 8348SOL     OW25942   3.034   6.798   1.311
 8348SOL    HW125943   3.118   6.807   1.364
 8348SOL    HW225944   3.012   6.886   1.268
 8349SOL     OW25945   0.773   6.552   1.759
 8349SOL    HW125946   0.873   6.560   1.765
 8349SOL    HW225947   0.747   6.455   1.761
 8350SOL     OW25948   2.552   6.859   6.484
 8350SOL    HW125949   2.641   6.822   6.455
 8350SOL    HW225950   2.517   6.805   6.560
 8351SOL     OW25951   5.834   5.808   3.613
 8351SOL    HW125952   5.751   5.834   3.662
 8351SOL    HW225953   5.905   5.783   3.679
 8352SOL     OW25954   2.661   6.178   2.804
 8352SOL    HW125955   2.675   6.215   2.712
 8352SOL    HW225956   2.603   6.240   2.856
 8353SOL     OW25957   1.753   4.104   1.481
 8353SOL    HW125958   1.765   4.038   1.556
 8353SOL    HW225959   1.763   4.197   1.516
 8354SOL     OW25960   3.456   6.815   4.196
 8354SOL    HW125961   3.546   6.854   4.218
 8354SOL    HW225962   3.439   6.735   4.255
 8355SOL     OW25963   1.678   0.794   6.190
 8355SOL    HW125964   1.678   0.822   6.286
 8355SOL    HW225965   1.681   0.694   6.184
 8356SOL     OW25966   1.377   5.166   1.863
 8356SOL    HW125967   1.439   5.135   1.935
 8356SOL    HW225968   1.422   5.154   1.774
 8357SOL     OW25969   3.570   5.508   6.015
 8357SOL    HW125970   3.587   5.524   5.918
 8357SOL    HW225971   3.648   5.460   6.055
 8358SOL     OW25972   1.077   2.871   5.756
 8358SOL    HW125973   1.080   2.950   5.817
 8358SOL    HW225974   1.002   2.811   5.784
 8359SOL     OW25975   1.961   1.426   4.706
 8359SOL    HW125976   2.041   1.448   4.650
 8359SOL    HW225977   1.983   1.437   4.802
 8360SOL     OW25978   5.077   6.678   0.662
 8360SOL    HW125979   4.988   6.700   0.704
 8360SOL    HW225980   5.067   6.600   0.602
 8361SOL     OW25981   2.517   6.648   6.683
 8361SOL    HW125982   2.506   6.559   6.728
 8361SOL    HW225983   2.501   6.721   6.750
 8362SOL     OW25984   6.244   2.064   0.545
 8362SOL    HW125985   6.307   2.138   0.567
 8362SOL    HW225986   6.188   2.043   0.625
 8363SOL     OW25987   4.315   1.812   0.635
 8363SOL    HW125988   4.241   1.759   0.594
 8363SOL    HW225989   4.321   1.791   0.733
 8364SOL     OW25990   1.110   2.873   3.935
 8364SOL    HW125991   1.062   2.953   3.971
 8364SOL    HW225992   1.107   2.874   3.835
 8365SOL     OW25993   1.892   2.373   3.096
 8365SOL    HW125994   1.813   2.430   3.071
 8365SOL    HW225995   1.899   2.297   3.032
 8366SOL     OW25996   3.993   5.333   1.346
 8366SOL    HW125997   3.976   5.285   1.432
 8366SOL    HW225998   4.085   5.312   1.314
 8367SOL     OW25999   3.068   5.043   5.047
 8367SOL    HW126000   3.103   5.116   5.106
 8367SOL    HW226001   3.052   4.961   5.102
 8368SOL     OW26002   1.097   5.972   6.848
 8368SOL    HW126003   1.163   5.954   6.921
 8368SOL    HW226004   1.061   6.065   6.857
 8369SOL     OW26005   0.780   1.147   0.750
 8369SOL    HW126006   0.686   1.133   0.720
 8369SOL    HW226007   0.820   1.224   0.701
 8370SOL     OW26008   2.576   1.553   6.529
 8370SOL    HW126009   2.520   1.540   6.446
 8370SOL    HW226010   2.639   1.476   6.538
 8371SOL     OW26011   1.844   3.408   5.990
 8371SOL    HW126012   1.837   3.425   5.892
 8371SOL    HW226013   1.801   3.483   6.040
 8372SOL     OW26014   2.247   6.215   1.960
 8372SOL    HW126015   2.295   6.270   2.028
 8372SOL    HW226016   2.213   6.274   1.887
 8373SOL     OW26017   1.382   1.745   4.852
 8373SOL    HW126018   1.317   1.776   4.782
 8373SOL    HW226019   1.332   1.721   4.935
 8374SOL     OW26020   0.811   0.822   4.402
 8374SOL    HW126021   0.863   0.757   4.346
 8374SOL    HW226022   0.728   0.850   4.353
 8375SOL     OW26023   3.363   0.560   5.752
 8375SOL    HW126024   3.325   0.474   5.787
 8375SOL    HW226025   3.458   0.546   5.726
 8376SOL     OW26026   1.766   1.207   4.084
 8376SOL    HW126027   1.676   1.164   4.075
 8376SOL    HW226028   1.785   1.224   4.181
 8377SOL     OW26029   5.450   5.269   0.644
 8377SOL    HW126030   5.381   5.290   0.575
 8377SOL    HW226031   5.539   5.255   0.600
 8378SOL     OW26032   5.371   5.268   3.142
 8378SOL    HW126033   5.352   5.171   3.126
 8378SOL    HW226034   5.407   5.281   3.234
 8379SOL     OW26035   4.832   2.546   1.278
 8379SOL    HW126036   4.931   2.532   1.277
 8379SOL    HW226037   4.786   2.457   1.278
 8380SOL     OW26038   0.205   6.881   6.589
 8380SOL    HW126039   0.257   6.932   6.658
 8380SOL    HW226040   0.186   6.789   6.623
 8381SOL     OW26041   0.443   2.530   3.428
 8381SOL    HW126042   0.438   2.513   3.330
 8381SOL    HW226043   0.359   2.576   3.458
 8382SOL     OW26044   2.508   0.506   1.071
 8382SOL    HW126045   2.440   0.432   1.067
 8382SOL    HW226046   2.476   0.577   1.134
 8383SOL     OW26047   2.270   0.584   5.424
 8383SOL    HW126048   2.196   0.531   5.381
 8383SOL    HW226049   2.259   0.681   5.402
 8384SOL     OW26050   6.760   1.512   0.742
 8384SOL    HW126051   6.789   1.423   0.778
 8384SOL    HW226052   6.741   1.504   0.644
 8385SOL     OW26053   4.773   2.883   0.466
 8385SOL    HW126054   4.822   2.910   0.548
 8385SOL    HW226055   4.742   2.788   0.475
 8386SOL     OW26056   2.133   5.497   1.254
 8386SOL    HW126057   2.062   5.460   1.314
 8386SOL    HW226058   2.220   5.454   1.275
 8387SOL     OW26059   1.672   1.483   1.694
 8387SOL    HW126060   1.585   1.525   1.665
 8387SOL    HW226061   1.732   1.554   1.730
 8388SOL     OW26062   1.689   0.296   0.835
 8388SOL    HW126063   1.740   0.260   0.914
 8388SOL    HW226064   1.617   0.231   0.811
 8389SOL     OW26065   0.916   3.418   4.022
 8389SOL    HW126066   0.884   3.493   4.080
 8389SOL    HW226067   0.940   3.453   3.932
 8390SOL     OW26068   3.370   0.029   6.583
 8390SOL    HW126069   3.379   0.031   6.484
 8390SOL    HW226070   3.456   0.054   6.626
 8391SOL     OW26071   5.299   4.971   0.935
 8391SOL    HW126072   5.257   4.950   0.846
 8391SOL    HW226073   5.275   5.064   0.962
 8392SOL     OW26074   6.515   5.842   5.400
 8392SOL    HW126075   6.454   5.921   5.411
 8392SOL    HW226076   6.596   5.869   5.348
 8393SOL     OW26077   0.132   0.474   3.909
 8393SOL    HW126078   0.115   0.435   3.819
 8393SOL    HW226079   0.154   0.571   3.899
 8394SOL     OW26080   0.711   2.112   2.092
 8394SOL    HW126081   0.739   2.166   2.171
 8394SOL    HW226082   0.750   2.020   2.099
 8395SOL     OW26083   1.181   6.599   3.914
 8395SOL    HW126084   1.101   6.635   3.866
 8395SOL    HW226085   1.193   6.502   3.891
 8396SOL     OW26086   4.680   4.198   2.409
 8396SOL    HW126087   4.625   4.271   2.368
 8396SOL    HW226088   4.675   4.116   2.351
 8397SOL     OW26089   2.291   0.057   2.830
 8397SOL    HW126090   2.330   0.137   2.783
 8397SOL    HW226091   2.350   6.996   2.813
 8398SOL     OW26092   3.483   1.570   0.087
 8398SOL    HW126093   3.560   1.512   0.061
 8398SOL    HW226094   3.429   1.525   0.158
 8399SOL     OW26095   6.742   6.554   6.968
 8399SOL    HW126096   6.837   6.586   6.965
 8399SOL    HW226097   6.682   6.630   6.990
 8400SOL     OW26098   1.224   0.963   3.382
 8400SOL    HW126099   1.280   1.001   3.308
 8400SOL    HW226100   1.258   0.872   3.406
 8401SOL     OW26101   4.212   3.062   5.807
 8401SOL    HW126102   4.242   3.084   5.715
 8401SOL    HW226103   4.127   3.010   5.803
 8402SOL     OW26104   2.922   1.462   5.445
 8402SOL    HW126105   2.924   1.429   5.539
 8402SOL    HW226106   2.967   1.551   5.440
 8403SOL     OW26107   0.424   1.361   3.278
 8403SOL    HW126108   0.460   1.411   3.357
 8403SOL    HW226109   0.497   1.306   3.237
 8404SOL     OW26110   5.866   6.223   6.547
 8404SOL    HW126111   5.784   6.180   6.586
 8404SOL    HW226112   5.921   6.154   6.501
 8405SOL     OW26113   1.761   1.458   0.042
 8405SOL    HW126114   1.686   1.522   0.061
 8405SOL    HW226115   1.735   1.397   6.986
 8406SOL     OW26116   3.690   0.809   1.150
 8406SOL    HW126117   3.763   0.746   1.124
 8406SOL    HW226118   3.612   0.797   1.088
 8407SOL     OW26119   5.230   5.893   4.388
 8407SOL    HW126120   5.325   5.924   4.396
 8407SOL    HW226121   5.199   5.859   4.477
 8408SOL     OW26122   4.606   1.449   3.303
 8408SOL    HW126123   4.684   1.497   3.262
 8408SOL    HW226124   4.639   1.384   3.371
 8409SOL     OW26125   6.670   2.643   3.759
 8409SOL    HW126126   6.683   2.648   3.660
 8409SOL    HW226127   6.590   2.587   3.779
 8410SOL     OW26128   4.406   0.565   1.857
 8410SOL    HW126129   4.364   0.585   1.946
 8410SOL    HW226130   4.420   0.651   1.807
 8411SOL     OW26131   1.688   5.500   4.097
 8411SOL    HW126132   1.717   5.583   4.143
 8411SOL    HW226133   1.704   5.421   4.157
 8412SOL     OW26134   4.029   1.976   1.299
 8412SOL    HW126135   4.020   1.877   1.306
 8412SOL    HW226136   3.970   2.010   1.225
 8413SOL     OW26137   4.812   4.337   7.018
 8413SOL    HW126138   4.738   4.270   7.014
 8413SOL    HW226139   4.833   4.370   6.926
 8414SOL     OW26140   3.930   0.058   2.240
 8414SOL    HW126141   3.981   0.065   2.326
 8414SOL    HW226142   3.972   7.006   2.183
 8415SOL     OW26143   0.137   5.127   4.163
 8415SOL    HW126144   0.141   5.064   4.085
 8415SOL    HW226145   0.177   5.215   4.137
 8416SOL     OW26146   4.881   5.033   3.247
 8416SOL    HW126147   4.860   5.007   3.341
 8416SOL    HW226148   4.860   5.130   3.234
 8417SOL     OW26149   1.379   5.549   5.457
 8417SOL    HW126150   1.366   5.616   5.384
 8417SOL    HW226151   1.295   5.498   5.471
 8418SOL     OW26152   5.924   5.557   1.321
 8418SOL    HW126153   5.977   5.612   1.257
 8418SOL    HW226154   5.940   5.460   1.303
 8419SOL     OW26155   4.649   0.804   2.011
 8419SOL    HW126156   4.663   0.725   2.071
 8419SOL    HW226157   4.564   0.850   2.036
 8420SOL     OW26158   3.829   6.270   0.902
 8420SOL    HW126159   3.926   6.269   0.877
 8420SOL    HW226160   3.777   6.321   0.833
 8421SOL     OW26161   2.955   6.337   1.400
 8421SOL    HW126162   2.985   6.341   1.496
 8421SOL    HW226163   2.900   6.418   1.380
 8422SOL     OW26164   4.849   6.267   1.562
 8422SOL    HW126165   4.823   6.351   1.611
 8422SOL    HW226166   4.883   6.291   1.471
 8423SOL     OW26167   3.811   3.667   6.099
 8423SOL    HW126168   3.828   3.569   6.109
 8423SOL    HW226169   3.833   3.713   6.185
 8424SOL     OW26170   2.438   2.635   3.029
 8424SOL    HW126171   2.385   2.707   2.985
 8424SOL    HW226172   2.493   2.587   2.960
 8425SOL     OW26173   6.482   5.295   0.878
 8425SOL    HW126174   6.417   5.349   0.826
 8425SOL    HW226175   6.567   5.284   0.825
 8426SOL     OW26176   3.813   2.986   4.127
 8426SOL    HW126177   3.882   3.050   4.161
 8426SOL    HW226178   3.751   2.961   4.202
 8427SOL     OW26179   1.687   4.094   5.972
 8427SOL    HW126180   1.701   4.051   5.883
 8427SOL    HW226181   1.598   4.140   5.974
 8428SOL     OW26182   6.499   4.499   1.963
 8428SOL    HW126183   6.552   4.571   1.919
 8428SOL    HW226184   6.492   4.420   1.901
 8429SOL     OW26185   1.885   4.639   4.256
 8429SOL    HW126186   1.884   4.545   4.222
 8429SOL    HW226187   1.867   4.639   4.354
 8430SOL     OW26188   4.265   5.393   3.124
 8430SOL    HW126189   4.355   5.361   3.093
 8430SOL    HW226190   4.197   5.375   3.053
 8431SOL     OW26191   1.981   5.104   1.390
 8431SOL    HW126192   1.940   5.195   1.382
 8431SOL    HW226193   1.983   5.060   1.301
 8432SOL     OW26194   4.310   5.916   5.620
 8432SOL    HW126195   4.272   5.851   5.555
 8432SOL    HW226196   4.363   5.868   5.690
 8433SOL     OW26197   6.717   2.546   6.254
 8433SOL    HW126198   6.732   2.642   6.232
 8433SOL    HW226199   6.621   2.522   6.236
 8434SOL     OW26200   2.889   0.397   4.660
 8434SOL    HW126201   2.843   0.321   4.615
 8434SOL    HW226202   2.871   0.393   4.759
 8435SOL     OW26203   4.760   1.549   1.210
 8435SOL    HW126204   4.809   1.485   1.269
 8435SOL    HW226205   4.814   1.568   1.129
 8436SOL     OW26206   3.433   6.355   4.208
 8436SOL    HW126207   3.500   6.396   4.146
 8436SOL    HW226208   3.368   6.300   4.155
 8437SOL     OW26209   1.914   0.159   2.486
 8437SOL    HW126210   1.906   0.195   2.580
 8437SOL    HW226211   1.841   0.197   2.430
 8438SOL     OW26212   3.262   4.853   2.258
 8438SOL    HW126213   3.178   4.815   2.219
 8438SOL    HW226214   3.246   4.875   2.355
 8439SOL     OW26215   6.538   5.916   1.315
 8439SOL    HW126216   6.557   5.890   1.410
 8439SOL    HW226217   6.625   5.924   1.265
 8440SOL     OW26218   0.444   0.950   3.003
 8440SOL    HW126219   0.427   1.019   2.933
 8440SOL    HW226220   0.387   0.870   2.985
 8441SOL     OW26221   6.820   6.148   0.436
 8441SOL    HW126222   6.911   6.187   0.423
 8441SOL    HW226223   6.756   6.222   0.457
 8442SOL     OW26224   3.482   3.280   6.045
 8442SOL    HW126225   3.562   3.329   6.011
 8442SOL    HW226226   3.404   3.342   6.052
 8443SOL     OW26227   1.325   6.844   2.799
 8443SOL    HW126228   1.299   6.878   2.708
 8443SOL    HW226229   1.244   6.841   2.858
 8444SOL     OW26230   2.974   6.277   3.716
 8444SOL    HW126231   2.994   6.330   3.634
 8444SOL    HW226232   3.026   6.314   3.793
 8445SOL     OW26233   3.476   5.221   2.054
 8445SOL    HW126234   3.494   5.123   2.066
 8445SOL    HW226235   3.563   5.271   2.055
 8446SOL     OW26236   5.461   5.647   1.106
 8446SOL    HW126237   5.472   5.550   1.130
 8446SOL    HW226238   5.516   5.703   1.167
 8447SOL     OW26239   5.846   2.238   2.177
 8447SOL    HW126240   5.827   2.234   2.275
 8447SOL    HW226241   5.822   2.329   2.142
 8448SOL     OW26242   6.543   3.340   5.211
 8448SOL    HW126243   6.553   3.241   5.222
 8448SOL    HW226244   6.507   3.379   5.296
 8449SOL     OW26245   0.031   2.743   4.370
 8449SOL    HW126246   0.107   2.768   4.311
 8449SOL    HW226247   6.964   2.746   4.318
 8450SOL     OW26248   2.004   6.106   1.936
 8450SOL    HW126249   1.999   6.010   1.910
 8450SOL    HW226250   2.097   6.140   1.921
 8451SOL     OW26251   4.582   2.956   6.954
 8451SOL    HW126252   4.529   3.038   6.978
 8451SOL    HW226253   4.611   2.909   0.019
 8452SOL     OW26254   0.160   0.289   1.373
 8452SOL    HW126255   0.189   0.194   1.368
 8452SOL    HW226256   0.106   0.304   1.456
 8453SOL     OW26257   6.272   4.433   6.037
 8453SOL    HW126258   6.354   4.377   6.033
 8453SOL    HW226259   6.227   4.420   6.126
 8454SOL     OW26260   1.178   5.688   1.539
 8454SOL    HW126261   1.255   5.651   1.590
 8454SOL    HW226262   1.133   5.615   1.487
 8455SOL     OW26263   4.763   2.661   0.786
 8455SOL    HW126264   4.772   2.620   0.695
 8455SOL    HW226265   4.745   2.758   0.776
 8456SOL     OW26266   5.444   4.875   3.405
 8456SOL    HW126267   5.403   4.842   3.490
 8456SOL    HW226268   5.448   4.800   3.339
 8457SOL     OW26269   6.281   6.370   5.511
 8457SOL    HW126270   6.217   6.413   5.575
 8457SOL    HW226271   6.326   6.441   5.456
 8458SOL     OW26272   2.430   1.216   6.977
 8458SOL    HW126273   2.409   1.304   6.936
 8458SOL    HW226274   2.345   1.173   7.009
 8459SOL     OW26275   3.317   6.803   1.389
 8459SOL    HW126276   3.370   6.719   1.403
 8459SOL    HW226277   3.377   6.882   1.400
 8460SOL     OW26278   4.359   2.014   5.643
 8460SOL    HW126279   4.267   2.035   5.611
 8460SOL    HW226280   4.383   2.076   5.718
 8461SOL     OW26281   1.020   3.970   1.850
 8461SOL    HW126282   1.009   3.970   1.751
 8461SOL    HW226283   0.946   3.917   1.891
 8462SOL     OW26284   3.083   2.531   0.388
 8462SOL    HW126285   2.994   2.491   0.408
 8462SOL    HW226286   3.071   2.627   0.361
 8463SOL     OW26287   6.695   1.125   0.507
 8463SOL    HW126288   6.792   1.134   0.528
 8463SOL    HW226289   6.675   1.168   0.420
 8464SOL     OW26290   0.311   4.424   5.166
 8464SOL    HW126291   0.267   4.492   5.108
 8464SOL    HW226292   0.263   4.336   5.155
 8465SOL     OW26293   3.367   2.098   0.702
 8465SOL    HW126294   3.399   2.024   0.642
 8465SOL    HW226295   3.330   2.172   0.646
 8466SOL     OW26296   5.703   6.696   4.867
 8466SOL    HW126297   5.622   6.725   4.817
 8466SOL    HW226298   5.783   6.699   4.807
 8467SOL     OW26299   4.332   0.888   1.022
 8467SOL    HW126300   4.432   0.891   1.022
 8467SOL    HW226301   4.301   0.811   1.079
 8468SOL     OW26302   5.210   3.163   0.030
 8468SOL    HW126303   5.310   3.153   0.034
 8468SOL    HW226304   5.168   3.073   0.019
 8469SOL     OW26305   2.726   1.897   5.631
 8469SOL    HW126306   2.681   1.980   5.600
 8469SOL    HW226307   2.702   1.822   5.569
 8470SOL     OW26308   1.159   4.599   0.408
 8470SOL    HW126309   1.128   4.693   0.427
 8470SOL    HW226310   1.079   4.540   0.397
 8471SOL     OW26311   3.956   0.731   5.714
 8471SOL    HW126312   3.934   0.644   5.671
 8471SOL    HW226313   3.952   0.804   5.647
 8472SOL     OW26314   5.684   0.570   5.195
 8472SOL    HW126315   5.708   0.484   5.239
 8472SOL    HW226316   5.619   0.620   5.253
 8473SOL     OW26317   6.358   5.070   0.431
 8473SOL    HW126318   6.421   5.014   0.484
 8473SOL    HW226319   6.375   5.057   0.334
 8474SOL     OW26320   3.581   3.916   1.793
 8474SOL    HW126321   3.553   3.861   1.872
 8474SOL    HW226322   3.503   3.969   1.760
 8475SOL     OW26323   0.164   2.845   2.830
 8475SOL    HW126324   0.170   2.757   2.783
 8475SOL    HW226325   0.101   2.905   2.780
 8476SOL     OW26326   0.094   1.766   1.209
 8476SOL    HW126327   0.049   1.794   1.124
 8476SOL    HW226328   0.172   1.707   1.187
 8477SOL     OW26329   4.248   6.576   2.864
 8477SOL    HW126330   4.204   6.607   2.949
 8477SOL    HW226331   4.347   6.581   2.874
 8478SOL     OW26332   0.795   0.828   5.906
 8478SOL    HW126333   0.763   0.820   5.812
 8478SOL    HW226334   0.757   0.753   5.960
 8479SOL     OW26335   1.221   3.801   0.991
 8479SOL    HW126336   1.319   3.804   1.009
 8479SOL    HW226337   1.194   3.882   0.939
 8480SOL     OW26338   5.473   3.333   6.878
 8480SOL    HW126339   5.374   3.320   6.871
 8480SOL    HW226340   5.493   3.431   6.875
 8481SOL     OW26341   4.836   2.542   4.735
 8481SOL    HW126342   4.851   2.576   4.642
 8481SOL    HW226343   4.741   2.513   4.746
 8482SOL     OW26344   5.140   0.339   2.227
 8482SOL    HW126345   5.060   0.398   2.226
 8482SOL    HW226346   5.187   0.348   2.315
 8483SOL     OW26347   3.110   5.701   3.374
 8483SOL    HW126348   3.177   5.770   3.346
 8483SOL    HW226349   3.045   5.741   3.438
 8484SOL     OW26350   6.723   6.268   4.472
 8484SOL    HW126351   6.788   6.290   4.545
 8484SOL    HW226352   6.648   6.214   4.510
 8485SOL     OW26353   3.713   2.861   0.359
 8485SOL    HW126354   3.760   2.773   0.365
 8485SOL    HW226355   3.776   2.929   0.321
 8486SOL     OW26356   1.925   1.113   2.959
 8486SOL    HW126357   1.928   1.211   2.979
 8486SOL    HW226358   2.015   1.082   2.931
 8487SOL     OW26359   5.812   2.101   6.185
 8487SOL    HW126360   5.755   2.126   6.263
 8487SOL    HW226361   5.782   2.151   6.104
 8488SOL     OW26362   5.433   6.203   2.428
 8488SOL    HW126363   5.337   6.177   2.439
 8488SOL    HW226364   5.461   6.261   2.504
 8489SOL     OW26365   6.115   1.197   1.570
 8489SOL    HW126366   6.194   1.205   1.631
 8489SOL    HW226367   6.129   1.254   1.489
 8490SOL     OW26368   3.150   6.904   5.655
 8490SOL    HW126369   3.132   6.850   5.737
 8490SOL    HW226370   3.200   6.848   5.588
 8491SOL     OW26371   1.500   6.141   2.408
 8491SOL    HW126372   1.493   6.159   2.506
 8491SOL    HW226373   1.555   6.212   2.365
 8492SOL     OW26374   5.722   4.809   4.460
 8492SOL    HW126375   5.703   4.795   4.363
 8492SOL    HW226376   5.814   4.777   4.482
 8493SOL     OW26377   1.811   2.389   6.763
 8493SOL    HW126378   1.716   2.420   6.765
 8493SOL    HW226379   1.850   2.408   6.673
 8494SOL     OW26380   4.455   5.299   1.946
 8494SOL    HW126381   4.403   5.378   1.978
 8494SOL    HW226382   4.524   5.273   2.014
 8495SOL     OW26383   0.205   4.988   1.007
 8495SOL    HW126384   0.287   5.002   0.950
 8495SOL    HW226385   0.128   5.037   0.967
 8496SOL     OW26386   0.006   1.262   2.750
 8496SOL    HW126387   6.948   1.202   2.726
 8496SOL    HW226388   0.092   1.222   2.717
 8497SOL     OW26389   6.953   1.343   3.161
 8497SOL    HW126390   7.006   1.391   3.230
 8497SOL    HW226391   6.875   1.399   3.133
 8498SOL     OW26392   6.684   6.988   3.251
 8498SOL    HW126393   6.650   7.008   3.159
 8498SOL    HW226394   6.782   7.003   3.254
 8499SOL     OW26395   1.134   3.859   6.906
 8499SOL    HW126396   1.057   3.836   6.847
 8499SOL    HW226397   1.205   3.790   6.897
 8500SOL     OW26398   1.579   6.512   6.201
 8500SOL    HW126399   1.598   6.564   6.284
 8500SOL    HW226400   1.665   6.473   6.166
 8501SOL     OW26401   0.399   2.784   6.279
 8501SOL    HW126402   0.457   2.739   6.211
 8501SOL    HW226403   0.321   2.827   6.234
 8502SOL     OW26404   0.402   2.960   1.597
 8502SOL    HW126405   0.330   3.019   1.561
 8502SOL    HW226406   0.471   2.945   1.526
 8503SOL     OW26407   0.211   5.614   5.140
 8503SOL    HW126408   0.258   5.623   5.052
 8503SOL    HW226409   0.259   5.670   5.208
 8504SOL     OW26410   1.815   5.627   2.016
 8504SOL    HW126411   1.878   5.613   2.092
 8504SOL    HW226412   1.738   5.683   2.046
 8505SOL     OW26413   6.321   3.261   2.778
 8505SOL    HW126414   6.268   3.208   2.712
 8505SOL    HW226415   6.353   3.200   2.851
 8506SOL     OW26416   1.366   1.142   6.701
 8506SOL    HW126417   1.308   1.098   6.769
 8506SOL    HW226418   1.320   1.223   6.664
 8507SOL     OW26419   3.516   6.574   4.853
 8507SOL    HW126420   3.579   6.504   4.886
 8507SOL    HW226421   3.539   6.662   4.896
 8508SOL     OW26422   4.382   1.662   5.699
 8508SOL    HW126423   4.306   1.709   5.745
 8508SOL    HW226424   4.360   1.649   5.603
 8509SOL     OW26425   5.677   0.490   3.275
 8509SOL    HW126426   5.723   0.513   3.190
 8509SOL    HW226427   5.705   0.553   3.347
 8510SOL     OW26428   5.794   4.147   2.660
 8510SOL    HW126429   5.890   4.166   2.681
 8510SOL    HW226430   5.783   4.050   2.639
 8511SOL     OW26431   6.174   3.118   2.595
 8511SOL    HW126432   6.245   3.086   2.533
 8511SOL    HW226433   6.084   3.099   2.556
 8512SOL     OW26434   2.862   0.618   2.557
 8512SOL    HW126435   2.798   0.579   2.491
 8512SOL    HW226436   2.818   0.623   2.647
 8513SOL     OW26437   0.411   5.406   0.667
 8513SOL    HW126438   0.414   5.373   0.573
 8513SOL    HW226439   0.325   5.378   0.710
 8514SOL     OW26440   2.236   0.434   3.610
 8514SOL    HW126441   2.312   0.496   3.629
 8514SOL    HW226442   2.245   0.399   3.516
 8515SOL     OW26443   5.023   2.612   0.918
 8515SOL    HW126444   5.005   2.527   0.968
 8515SOL    HW226445   4.953   2.626   0.848
 8516SOL     OW26446   0.079   1.989   2.250
 8516SOL    HW126447   0.002   1.930   2.275
 8516SOL    HW226448   0.054   2.044   2.170
 8517SOL     OW26449   0.609   3.013   5.695
 8517SOL    HW126450   0.681   3.076   5.665
 8517SOL    HW226451   0.630   2.981   5.787
 8518SOL     OW26452   4.239   3.927   6.556
 8518SOL    HW126453   4.268   3.965   6.644
 8518SOL    HW226454   4.312   3.941   6.489
 8519SOL     OW26455   2.098   5.355   2.221
 8519SOL    HW126456   2.099   5.354   2.121
 8519SOL    HW226457   2.185   5.392   2.254
 8520SOL     OW26458   3.893   0.959   0.442
 8520SOL    HW126459   3.958   0.988   0.372
 8520SOL    HW226460   3.941   0.947   0.529
 8521SOL     OW26461   1.861   5.852   5.728
 8521SOL    HW126462   1.868   5.764   5.680
 8521SOL    HW226463   1.952   5.878   5.762
 8522SOL     OW26464   1.324   5.400   2.216
 8522SOL    HW126465   1.405   5.351   2.184
 8522SOL    HW226466   1.244   5.340   2.209
 8523SOL     OW26467   2.912   6.359   6.560
 8523SOL    HW126468   2.830   6.416   6.551
 8523SOL    HW226469   2.901   6.277   6.505
 8524SOL     OW26470   1.535   2.829   4.671
 8524SOL    HW126471   1.602   2.896   4.703
 8524SOL    HW226472   1.576   2.772   4.600
 8525SOL     OW26473   6.160   3.906   3.617
 8525SOL    HW126474   6.139   3.995   3.657
 8525SOL    HW226475   6.143   3.834   3.684
 8526SOL     OW26476   2.683   3.936   1.097
 8526SOL    HW126477   2.589   3.904   1.111
 8526SOL    HW226478   2.689   3.988   1.012
 8527SOL     OW26479   3.403   6.842   5.029
 8527SOL    HW126480   3.314   6.795   5.030
 8527SOL    HW226481   3.389   6.938   5.004
 8528SOL     OW26482   5.420   3.267   6.272
 8528SOL    HW126483   5.333   3.219   6.262
 8528SOL    HW226484   5.481   3.214   6.331
 8529SOL     OW26485   1.153   0.180   0.108
 8529SOL    HW126486   1.210   0.104   0.076
 8529SOL    HW226487   1.088   0.205   0.036
 8530SOL     OW26488   1.251   5.164   6.083
 8530SOL    HW126489   1.160   5.203   6.096
 8530SOL    HW226490   1.245   5.064   6.082
 8531SOL     OW26491   5.685   4.464   2.934
 8531SOL    HW126492   5.671   4.365   2.923
 8531SOL    HW226493   5.657   4.511   2.850
 8532SOL     OW26494   4.466   4.744   4.972
 8532SOL    HW126495   4.393   4.801   5.011
 8532SOL    HW226496   4.444   4.648   4.986
 8533SOL     OW26497   1.752   0.806   5.213
 8533SOL    HW126498   1.705   0.749   5.281
 8533SOL    HW226499   1.840   0.766   5.191
 8534SOL     OW26500   0.447   3.954   3.459
 8534SOL    HW126501   0.420   4.031   3.517
 8534SOL    HW226502   0.546   3.952   3.451
 8535SOL     OW26503   0.847   2.013   5.044
 8535SOL    HW126504   0.841   1.997   4.946
 8535SOL    HW226505   0.784   1.952   5.092
 8536SOL     OW26506   6.324   2.198   5.048
 8536SOL    HW126507   6.343   2.279   4.992
 8536SOL    HW226508   6.225   2.185   5.055
 8537SOL     OW26509   6.422   1.619   0.966
 8537SOL    HW126510   6.436   1.568   0.881
 8537SOL    HW226511   6.480   1.701   0.965
 8538SOL     OW26512   0.505   0.501   5.037
 8538SOL    HW126513   0.536   0.549   5.119
 8538SOL    HW226514   0.577   0.503   4.968
 8539SOL     OW26515   6.175   2.015   2.258
 8539SOL    HW126516   6.148   2.077   2.185
 8539SOL    HW226517   6.184   1.922   2.222
 8540SOL     OW26518   3.741   1.407   0.282
 8540SOL    HW126519   3.710   1.351   0.359
 8540SOL    HW226520   3.739   1.504   0.309
 8541SOL     OW26521   2.764   2.299   5.104
 8541SOL    HW126522   2.793   2.332   5.015
 8541SOL    HW226523   2.727   2.206   5.094
 8542SOL     OW26524   2.904   4.396   6.840
 8542SOL    HW126525   2.949   4.412   6.927
 8542SOL    HW226526   2.817   4.350   6.856
 8543SOL     OW26527   2.897   1.338   5.191
 8543SOL    HW126528   2.935   1.366   5.279
 8543SOL    HW226529   2.868   1.242   5.197
 8544SOL     OW26530   5.252   2.842   5.218
 8544SOL    HW126531   5.341   2.863   5.261
 8544SOL    HW226532   5.192   2.800   5.286
 8545SOL     OW26533   2.948   6.528   4.729
 8545SOL    HW126534   2.966   6.462   4.656
 8545SOL    HW226535   2.908   6.611   4.689
 8546SOL     OW26536   5.883   0.398   1.252
 8546SOL    HW126537   5.979   0.377   1.234
 8546SOL    HW226538   5.827   0.317   1.233
 8547SOL     OW26539   6.785   0.602   5.434
 8547SOL    HW126540   6.686   0.600   5.438
 8547SOL    HW226541   6.814   0.648   5.350
 8548SOL     OW26542   0.237   2.934   5.326
 8548SOL    HW126543   0.308   2.905   5.262
 8548SOL    HW226544   0.221   3.032   5.316
 8549SOL     OW26545   0.846   2.377   4.207
 8549SOL    HW126546   0.929   2.416   4.167
 8549SOL    HW226547   0.868   2.334   4.294
 8550SOL     OW26548   0.967   3.460   6.277
 8550SOL    HW126549   0.977   3.512   6.362
 8550SOL    HW226550   0.934   3.368   6.298
 8551SOL     OW26551   2.621   2.479   6.999
 8551SOL    HW126552   2.699   2.494   0.042
 8551SOL    HW226553   2.536   2.499   0.030
 8552SOL     OW26554   3.075   0.396   1.883
 8552SOL    HW126555   3.054   0.486   1.923
 8552SOL    HW226556   3.014   0.378   1.806
 8553SOL     OW26557   4.305   4.153   0.427
 8553SOL    HW126558   4.229   4.089   0.417
 8553SOL    HW226559   4.355   4.132   0.512
 8554SOL     OW26560   0.936   6.160   1.914
 8554SOL    HW126561   0.869   6.088   1.933
 8554SOL    HW226562   0.917   6.200   1.825
 8555SOL     OW26563   4.323   1.877   3.120
 8555SOL    HW126564   4.366   1.787   3.135
 8555SOL    HW226565   4.350   1.939   3.193
 8556SOL     OW26566   1.701   6.315   5.802
 8556SOL    HW126567   1.660   6.230   5.767
 8556SOL    HW226568   1.714   6.306   5.901
 8557SOL     OW26569   6.316   1.078   1.122
 8557SOL    HW126570   6.345   1.174   1.123
 8557SOL    HW226571   6.305   1.046   1.216
 8558SOL     OW26572   2.075   4.993   2.892
 8558SOL    HW126573   2.033   4.961   2.977
 8558SOL    HW226574   2.006   5.039   2.836
 8559SOL     OW26575   1.727   6.639   2.897
 8559SOL    HW126576   1.704   6.545   2.923
 8559SOL    HW226577   1.810   6.667   2.945
 8560SOL     OW26578   1.506   5.670   1.980
 8560SOL    HW126579   1.408   5.689   1.979
 8560SOL    HW226580   1.520   5.572   1.964
 8561SOL     OW26581   4.141   0.010   3.482
 8561SOL    HW126582   4.206   6.985   3.419
 8561SOL    HW226583   4.191   0.051   3.558
 8562SOL     OW26584   3.987   0.035   0.084
 8562SOL    HW126585   4.045   0.044   0.003
 8562SOL    HW226586   3.931   0.118   0.094
 8563SOL     OW26587   0.673   5.099   2.341
 8563SOL    HW126588   0.754   5.052   2.377
 8563SOL    HW226589   0.675   5.095   2.241
 8564SOL     OW26590   3.554   6.174   5.777
 8564SOL    HW126591   3.502   6.161   5.693
 8564SOL    HW226592   3.652   6.166   5.758
 8565SOL     OW26593   3.766   5.248   1.903
 8565SOL    HW126594   3.732   5.160   1.870
 8565SOL    HW226595   3.859   5.262   1.870
 8566SOL     OW26596   2.122   1.131   2.374
 8566SOL    HW126597   2.198   1.186   2.341
 8566SOL    HW226598   2.037   1.164   2.334
 8567SOL     OW26599   1.310   1.827   2.129
 8567SOL    HW126600   1.327   1.881   2.046
 8567SOL    HW226601   1.268   1.885   2.198
 8568SOL     OW26602   5.972   1.122   0.721
 8568SOL    HW126603   6.040   1.062   0.762
 8568SOL    HW226604   5.892   1.127   0.780
 8569SOL     OW26605   5.164   1.938   5.985
 8569SOL    HW126606   5.132   1.913   5.894
 8569SOL    HW226607   5.189   1.855   6.035
 8570SOL     OW26608   1.762   2.000   4.422
 8570SOL    HW126609   1.787   1.951   4.506
 8570SOL    HW226610   1.670   1.973   4.394
 8571SOL     OW26611   0.797   0.248   4.690
 8571SOL    HW126612   0.864   0.192   4.640
 8571SOL    HW226613   0.787   0.336   4.644
 8572SOL     OW26614   1.904   4.106   5.694
 8572SOL    HW126615   1.847   4.024   5.686
 8572SOL    HW226616   1.864   4.179   5.638
 8573SOL     OW26617   2.941   5.882   6.519
 8573SOL    HW126618   3.016   5.938   6.555
 8573SOL    HW226619   2.854   5.919   6.551
 8574SOL     OW26620   5.964   6.672   5.817
 8574SOL    HW126621   6.036   6.688   5.885
 8574SOL    HW226622   6.003   6.623   5.739
 8575SOL     OW26623   3.326   1.070   2.757
 8575SOL    HW126624   3.366   1.058   2.666
 8575SOL    HW226625   3.292   0.982   2.790
 8576SOL     OW26626   1.813   5.046   4.245
 8576SOL    HW126627   1.802   5.005   4.335
 8576SOL    HW226628   1.809   4.974   4.175
 8577SOL     OW26629   1.134   0.675   6.132
 8577SOL    HW126630   1.127   0.768   6.170
 8577SOL    HW226631   1.180   0.616   6.197
 8578SOL     OW26632   6.466   5.362   5.794
 8578SOL    HW126633   6.548   5.352   5.850
 8578SOL    HW226634   6.462   5.288   5.727
 8579SOL     OW26635   1.264   6.276   2.138
 8579SOL    HW126636   1.363   6.285   2.123
 8579SOL    HW226637   1.245   6.191   2.187
 8580SOL     OW26638   2.063   5.787   1.250
 8580SOL    HW126639   2.077   5.855   1.321
 8580SOL    HW226640   2.081   5.696   1.287
 8581SOL     OW26641   4.011   4.697   1.801
 8581SOL    HW126642   4.091   4.648   1.835
 8581SOL    HW226643   3.934   4.633   1.793
 8582SOL     OW26644   4.934   4.661   5.488
 8582SOL    HW126645   4.847   4.701   5.460
 8582SOL    HW226646   4.971   4.605   5.414
 8583SOL     OW26647   3.264   6.804   2.761
 8583SOL    HW126648   3.285   6.721   2.814
 8583SOL    HW226649   3.193   6.856   2.807
 8584SOL     OW26650   0.291   0.323   5.063
 8584SOL    HW126651   0.306   0.256   5.136
 8584SOL    HW226652   0.378   0.364   5.037
 8585SOL     OW26653   6.216   1.525   1.164
 8585SOL    HW126654   6.160   1.494   1.087
 8585SOL    HW226655   6.294   1.578   1.129
 8586SOL     OW26656   4.479   6.675   1.752
 8586SOL    HW126657   4.482   6.775   1.743
 8586SOL    HW226658   4.387   6.647   1.781
 8587SOL     OW26659   1.228   1.289   4.948
 8587SOL    HW126660   1.285   1.318   5.025
 8587SOL    HW226661   1.134   1.319   4.963
 8588SOL     OW26662   4.896   0.825   0.039
 8588SOL    HW126663   4.902   0.862   0.132
 8588SOL    HW226664   4.950   0.741   0.033
 8589SOL     OW26665   6.709   2.502   5.311
 8589SOL    HW126666   6.744   2.421   5.358
 8589SOL    HW226667   6.613   2.516   5.334
 8590SOL     OW26668   0.585   0.799   2.333
 8590SOL    HW126669   0.569   0.757   2.244
 8590SOL    HW226670   0.504   0.853   2.359
 8591SOL     OW26671   0.017   4.398   0.376
 8591SOL    HW126672   0.010   4.322   0.311
 8591SOL    HW226673   0.014   4.363   0.469
 8592SOL     OW26674   0.287   2.707   6.929
 8592SOL    HW126675   0.297   2.735   0.006
 8592SOL    HW226676   0.190   2.691   6.910
 8593SOL     OW26677   3.442   0.665   6.636
 8593SOL    HW126678   3.343   0.671   6.625
 8593SOL    HW226679   3.475   0.742   6.690
 8594SOL     OW26680   6.089   2.116   6.241
 8594SOL    HW126681   6.127   2.032   6.202
 8594SOL    HW226682   5.990   2.113   6.237
 8595SOL     OW26683   6.344   0.909   3.734
 8595SOL    HW126684   6.358   0.827   3.678
 8595SOL    HW226685   6.259   0.954   3.707
 8596SOL     OW26686   1.191   4.468   2.938
 8596SOL    HW126687   1.247   4.393   2.905
 8596SOL    HW226688   1.179   4.535   2.864
 8597SOL     OW26689   5.450   1.848   1.121
 8597SOL    HW126690   5.532   1.799   1.149
 8597SOL    HW226691   5.435   1.834   1.023
 8598SOL     OW26692   5.101   0.128   5.734
 8598SOL    HW126693   5.116   0.039   5.777
 8598SOL    HW226694   5.054   0.188   5.799
 8599SOL     OW26695   1.273   2.616   4.153
 8599SOL    HW126696   1.332   2.601   4.233
 8599SOL    HW226697   1.245   2.712   4.150
 8600SOL     OW26698   5.310   3.670   0.284
 8600SOL    HW126699   5.308   3.709   0.376
 8600SOL    HW226700   5.271   3.578   0.285
 8601SOL     OW26701   0.051   1.828   3.519
 8601SOL    HW126702   0.066   1.775   3.603
 8601SOL    HW226703   6.980   1.807   3.481
 8602SOL     OW26704   2.476   6.477   2.662
 8602SOL    HW126705   2.539   6.538   2.709
 8602SOL    HW226706   2.470   6.390   2.712
 8603SOL     OW26707   5.394   6.903   6.948
 8603SOL    HW126708   5.348   6.851   6.876
 8603SOL    HW226709   5.391   7.000   6.926
 8604SOL     OW26710   0.868   2.953   6.212
 8604SOL    HW126711   0.945   2.935   6.150
 8604SOL    HW226712   0.903   2.975   6.303
 8605SOL     OW26713   0.935   4.753   3.905
 8605SOL    HW126714   1.027   4.785   3.931
 8605SOL    HW226715   0.867   4.797   3.963
 8606SOL     OW26716   2.810   2.211   0.114
 8606SOL    HW126717   2.765   2.164   0.039
 8606SOL    HW226718   2.909   2.214   0.098
 8607SOL     OW26719   2.344   4.149   6.738
 8607SOL    HW126720   2.352   4.071   6.675
 8607SOL    HW226721   2.411   4.139   6.812
 8608SOL     OW26722   2.000   4.794   2.335
 8608SOL    HW126723   2.084   4.753   2.370
 8608SOL    HW226724   2.011   4.816   2.238
 8609SOL     OW26725   5.060   0.659   3.919
 8609SOL    HW126726   4.986   0.712   3.960
 8609SOL    HW226727   5.032   0.628   3.828
 8610SOL     OW26728   6.679   0.425   3.079
 8610SOL    HW126729   6.630   0.437   2.993
 8610SOL    HW226730   6.621   0.374   3.143
 8611SOL     OW26731   2.933   1.131   4.340
 8611SOL    HW126732   3.004   1.101   4.276
 8611SOL    HW226733   2.844   1.128   4.295
 8612SOL     OW26734   2.826   3.536   1.819
 8612SOL    HW126735   2.907   3.531   1.759
 8612SOL    HW226736   2.746   3.506   1.768
 8613SOL     OW26737   3.059   2.290   1.692
 8613SOL    HW126738   3.025   2.353   1.762
 8613SOL    HW226739   3.091   2.206   1.736
 8614SOL     OW26740   1.832   2.473   3.508
 8614SOL    HW126741   1.887   2.507   3.585
 8614SOL    HW226742   1.740   2.449   3.541
 8615SOL     OW26743   4.676   2.024   5.260
 8615SOL    HW126744   4.612   2.032   5.336
 8615SOL    HW226745   4.744   2.097   5.266
 8616SOL     OW26746   2.783   4.773   1.762
 8616SOL    HW126747   2.877   4.800   1.741
 8616SOL    HW226748   2.784   4.701   1.832
 8617SOL     OW26749   6.023   1.521   3.852
 8617SOL    HW126750   5.995   1.524   3.949
 8617SOL    HW226751   5.942   1.506   3.795
 8618SOL     OW26752   6.186   4.595   1.138
 8618SOL    HW126753   6.114   4.539   1.177
 8618SOL    HW226754   6.237   4.640   1.211
 8619SOL     OW26755   3.614   5.124   3.338
 8619SOL    HW126756   3.538   5.151   3.278
 8619SOL    HW226757   3.654   5.039   3.305
 8620SOL     OW26758   2.036   6.952   4.516
 8620SOL    HW126759   2.127   6.972   4.551
 8620SOL    HW226760   2.040   6.939   4.417
 8621SOL     OW26761   4.912   3.274   2.167
 8621SOL    HW126762   4.883   3.264   2.262
 8621SOL    HW226763   4.846   3.230   2.107
 8622SOL     OW26764   5.364   4.823   1.623
 8622SOL    HW126765   5.375   4.824   1.523
 8622SOL    HW226766   5.437   4.877   1.665
 8623SOL     OW26767   0.717   4.151   5.205
 8623SOL    HW126768   0.653   4.103   5.266
 8623SOL    HW226769   0.681   4.242   5.185
 8624SOL     OW26770   3.585   3.899   5.430
 8624SOL    HW126771   3.579   3.996   5.407
 8624SOL    HW226772   3.652   3.887   5.503
 8625SOL     OW26773   4.481   0.588   5.640
 8625SOL    HW126774   4.463   0.582   5.541
 8625SOL    HW226775   4.431   0.666   5.678
 8626SOL     OW26776   3.907   3.042   6.733
 8626SOL    HW126777   3.854   3.074   6.655
 8626SOL    HW226778   3.937   2.948   6.717
 8627SOL     OW26779   2.359   1.905   2.204
 8627SOL    HW126780   2.395   1.830   2.259
 8627SOL    HW226781   2.324   1.870   2.117
 8628SOL     OW26782   6.435   6.701   6.769
 8628SOL    HW126783   6.520   6.748   6.746
 8628SOL    HW226784   6.428   6.616   6.716
 8629SOL     OW26785   1.436   6.248   5.294
 8629SOL    HW126786   1.409   6.308   5.218
 8629SOL    HW226787   1.382   6.272   5.375
 8630SOL     OW26788   4.826   3.884   4.188
 8630SOL    HW126789   4.802   3.946   4.113
 8630SOL    HW226790   4.846   3.793   4.150
 8631SOL     OW26791   1.499   6.146   6.348
 8631SOL    HW126792   1.427   6.080   6.325
 8631SOL    HW226793   1.461   6.238   6.348
 8632SOL     OW26794   3.870   3.937   4.961
 8632SOL    HW126795   3.854   3.990   4.878
 8632SOL    HW226796   3.906   3.998   5.032
 8633SOL     OW26797   5.707   2.960   5.759
 8633SOL    HW126798   5.644   3.012   5.701
 8633SOL    HW226799   5.751   3.022   5.824
 8634SOL     OW26800   4.859   3.992   0.057
 8634SOL    HW126801   4.924   3.918   0.071
 8634SOL    HW226802   4.888   4.071   0.111
 8635SOL     OW26803   5.506   2.871   6.773
 8635SOL    HW126804   5.459   2.898   6.857
 8635SOL    HW226805   5.459   2.792   6.733
 8636SOL     OW26806   4.971   5.828   1.190
 8636SOL    HW126807   4.886   5.786   1.158
 8636SOL    HW226808   5.046   5.761   1.185
 8637SOL     OW26809   1.764   1.472   6.563
 8637SOL    HW126810   1.749   1.515   6.474
 8637SOL    HW226811   1.778   1.374   6.551
 8638SOL     OW26812   4.067   2.288   5.316
 8638SOL    HW126813   4.079   2.385   5.296
 8638SOL    HW226814   4.034   2.278   5.410
 8639SOL     OW26815   4.423   3.280   6.707
 8639SOL    HW126816   4.339   3.251   6.753
 8639SOL    HW226817   4.403   3.357   6.647
 8640SOL     OW26818   4.329   3.597   0.854
 8640SOL    HW126819   4.345   3.503   0.886
 8640SOL    HW226820   4.322   3.658   0.933
 8641SOL     OW26821   4.043   4.796   4.124
 8641SOL    HW126822   4.013   4.815   4.030
 8641SOL    HW226823   4.001   4.863   4.186
 8642SOL     OW26824   0.951   0.179   3.444
 8642SOL    HW126825   0.890   0.101   3.430
 8642SOL    HW226826   0.908   0.244   3.507
 8643SOL     OW26827   2.045   0.302   6.997
 8643SOL    HW126828   1.979   0.351   0.035
 8643SOL    HW226829   2.105   0.248   0.037
 8644SOL     OW26830   5.631   2.722   6.458
 8644SOL    HW126831   5.664   2.662   6.386
 8644SOL    HW226832   5.688   2.804   6.463
 8645SOL     OW26833   4.341   4.902   1.653
 8645SOL    HW126834   4.365   4.966   1.727
 8645SOL    HW226835   4.303   4.953   1.576
 8646SOL     OW26836   0.622   1.970   6.780
 8646SOL    HW126837   0.535   2.007   6.748
 8646SOL    HW226838   0.623   1.871   6.768
 8647SOL     OW26839   1.963   5.100   0.134
 8647SOL    HW126840   1.922   5.140   0.216
 8647SOL    HW226841   1.891   5.073   0.071
 8648SOL     OW26842   6.158   6.732   0.658
 8648SOL    HW126843   6.185   6.739   0.562
 8648SOL    HW226844   6.218   6.790   0.713
 8649SOL     OW26845   5.785   6.272   0.445
 8649SOL    HW126846   5.767   6.366   0.413
 8649SOL    HW226847   5.755   6.207   0.375
 8650SOL     OW26848   1.630   6.588   4.996
 8650SOL    HW126849   1.537   6.563   5.023
 8650SOL    HW226850   1.649   6.553   4.904
 8651SOL     OW26851   3.888   1.433   0.605
 8651SOL    HW126852   3.825   1.359   0.581
 8651SOL    HW226853   3.970   1.394   0.648
 8652SOL     OW26854   0.815   5.024   3.637
 8652SOL    HW126855   0.892   5.085   3.618
 8652SOL    HW226856   0.833   4.934   3.597
 8653SOL     OW26857   6.431   1.367   5.843
 8653SOL    HW126858   6.399   1.407   5.929
 8653SOL    HW226859   6.368   1.391   5.770
 8654SOL     OW26860   0.196   4.669   1.034
 8654SOL    HW126861   0.144   4.657   0.949
 8654SOL    HW226862   0.224   4.764   1.042
 8655SOL     OW26863   5.290   0.633   4.084
 8655SOL    HW126864   5.208   0.640   4.028
 8655SOL    HW226865   5.264   0.614   4.179
 8656SOL     OW26866   5.561   1.060   2.037
 8656SOL    HW126867   5.543   1.016   2.125
 8656SOL    HW226868   5.506   1.144   2.030
 8657SOL     OW26869   5.769   6.035   7.016
 8657SOL    HW126870   5.832   6.048   6.939
 8657SOL    HW226871   5.779   5.942   0.034
 8658SOL     OW26872   6.270   5.623   0.546
 8658SOL    HW126873   6.275   5.650   0.643
 8658SOL    HW226874   6.271   5.524   0.539
 8659SOL     OW26875   4.744   2.318   2.751
 8659SOL    HW126876   4.736   2.279   2.659
 8659SOL    HW226877   4.811   2.393   2.749
 8660SOL     OW26878   0.358   3.102   2.634
 8660SOL    HW126879   0.446   3.121   2.591
 8660SOL    HW226880   0.302   3.047   2.572
 8661SOL     OW26881   6.007   4.100   1.409
 8661SOL    HW126882   6.054   4.048   1.481
 8661SOL    HW226883   6.067   4.107   1.329
 8662SOL     OW26884   4.108   5.780   2.202
 8662SOL    HW126885   4.081   5.831   2.121
 8662SOL    HW226886   4.154   5.841   2.267
 8663SOL     OW26887   2.715   5.050   2.424
 8663SOL    HW126888   2.706   4.962   2.471
 8663SOL    HW226889   2.781   5.040   2.349
 8664SOL     OW26890   2.462   5.087   2.321
 8664SOL    HW126891   2.469   5.167   2.262
 8664SOL    HW226892   2.552   5.063   2.356
 8665SOL     OW26893   6.111   5.655   4.434
 8665SOL    HW126894   6.064   5.640   4.347
 8665SOL    HW226895   6.062   5.606   4.507
 8666SOL     OW26896   4.982   0.659   4.281
 8666SOL    HW126897   4.899   0.637   4.230
 8666SOL    HW226898   5.008   0.582   4.338
 8667SOL     OW26899   5.284   1.762   3.800
 8667SOL    HW126900   5.330   1.742   3.887
 8667SOL    HW226901   5.212   1.695   3.785
 8668SOL     OW26902   5.327   3.340   4.962
 8668SOL    HW126903   5.420   3.366   4.936
 8668SOL    HW226904   5.317   3.240   4.954
 8669SOL     OW26905   0.404   6.117   6.484
 8669SOL    HW126906   0.381   6.104   6.580
 8669SOL    HW226907   0.500   6.144   6.476
 8670SOL     OW26908   4.691   5.001   5.894
 8670SOL    HW126909   4.761   5.047   5.948
 8670SOL    HW226910   4.620   4.965   5.954
 8671SOL     OW26911   0.140   1.671   2.350
 8671SOL    HW126912   0.130   1.737   2.425
 8671SOL    HW226913   0.126   1.579   2.385
 8672SOL     OW26914   0.599   0.123   3.501
 8672SOL    HW126915   0.559   0.036   3.471
 8672SOL    HW226916   0.615   0.120   3.599
 8673SOL     OW26917   6.696   1.552   0.454
 8673SOL    HW126918   6.650   1.493   0.387
 8673SOL    HW226919   6.697   1.646   0.421
 8674SOL     OW26920   6.776   4.687   2.558
 8674SOL    HW126921   6.837   4.765   2.565
 8674SOL    HW226922   6.694   4.704   2.613
 8675SOL     OW26923   4.494   0.829   5.481
 8675SOL    HW126924   4.505   0.817   5.383
 8675SOL    HW226925   4.541   0.913   5.510
 8676SOL     OW26926   5.147   0.014   1.598
 8676SOL    HW126927   5.104   6.985   1.521
 8676SOL    HW226928   5.176   0.105   1.569
 8677SOL     OW26929   1.656   6.103   5.962
 8677SOL    HW126930   1.579   6.162   5.988
 8677SOL    HW226931   1.666   6.103   5.863
 8678SOL     OW26932   1.058   0.435   0.815
 8678SOL    HW126933   1.055   0.450   0.717
 8678SOL    HW226934   0.982   0.484   0.858
 8679SOL     OW26935   1.852   1.170   3.689
 8679SOL    HW126936   1.925   1.198   3.627
 8679SOL    HW226937   1.831   1.245   3.752
 8680SOL     OW26938   6.138   2.573   6.501
 8680SOL    HW126939   6.173   2.534   6.586
 8680SOL    HW226940   6.196   2.651   6.475
 8681SOL     OW26941   4.667   5.086   1.191
 8681SOL    HW126942   4.742   5.146   1.220
 8681SOL    HW226943   4.604   5.073   1.267
 8682SOL     OW26944   6.805   0.708   1.509
 8682SOL    HW126945   6.781   0.711   1.605
 8682SOL    HW226946   6.726   0.733   1.453
 8683SOL     OW26947   1.851   2.811   4.880
 8683SOL    HW126948   1.900   2.844   4.799
 8683SOL    HW226949   1.768   2.865   4.893
 8684SOL     OW26950   6.776   2.820   4.743
 8684SOL    HW126951   6.839   2.856   4.812
 8684SOL    HW226952   6.683   2.852   4.763
 8685SOL     OW26953   5.877   2.945   6.397
 8685SOL    HW126954   5.850   2.938   6.301
 8685SOL    HW226955   5.976   2.934   6.404
 8686SOL     OW26956   6.231   0.097   2.244
 8686SOL    HW126957   6.211   0.003   2.216
 8686SOL    HW226958   6.236   0.100   2.344
 8687SOL     OW26959   6.024   5.190   2.957
 8687SOL    HW126960   6.016   5.258   3.030
 8687SOL    HW226961   6.120   5.163   2.946
 8688SOL     OW26962   1.344   4.093   6.683
 8688SOL    HW126963   1.359   4.002   6.724
 8688SOL    HW226964   1.431   4.127   6.647
 8689SOL     OW26965   4.185   3.176   6.826
 8689SOL    HW126966   4.137   3.256   6.863
 8689SOL    HW226967   4.121   3.121   6.772
 8690SOL     OW26968   1.017   3.222   2.862
 8690SOL    HW126969   1.088   3.198   2.796
 8690SOL    HW226970   0.968   3.139   2.890
 8691SOL     OW26971   2.949   1.924   5.310
 8691SOL    HW126972   2.985   1.991   5.375
 8691SOL    HW226973   2.935   1.837   5.356
 8692SOL     OW26974   3.568   1.105   4.821
 8692SOL    HW126975   3.517   1.179   4.779
 8692SOL    HW226976   3.600   1.042   4.751
 8693SOL     OW26977   6.108   0.690   6.355
 8693SOL    HW126978   6.191   0.725   6.313
 8693SOL    HW226979   6.028   0.731   6.310
 8694SOL     OW26980   6.058   2.044   4.685
 8694SOL    HW126981   6.105   2.120   4.639
 8694SOL    HW226982   6.125   1.986   4.730
 8695SOL     OW26983   4.018   2.889   5.730
 8695SOL    HW126984   4.030   2.813   5.666
 8695SOL    HW226985   3.932   2.878   5.779
 8696SOL     OW26986   2.770   5.655   5.040
 8696SOL    HW126987   2.821   5.590   5.096
 8696SOL    HW226988   2.730   5.725   5.098
 8697SOL     OW26989   0.444   4.104   6.317
 8697SOL    HW126990   0.482   4.148   6.235
 8697SOL    HW226991   0.375   4.037   6.290
 8698SOL     OW26992   4.882   6.345   5.490
 8698SOL    HW126993   4.896   6.402   5.409
 8698SOL    HW226994   4.960   6.283   5.502
 8699SOL     OW26995   1.874   3.140   5.941
 8699SOL    HW126996   1.866   3.239   5.952
 8699SOL    HW226997   1.869   3.118   5.843
 8700SOL     OW26998   1.362   0.947   5.133
 8700SOL    HW126999   1.339   0.868   5.191
 8700SOL    HW227000   1.296   0.953   5.059
 8701SOL     OW27001   1.778   1.050   0.194
 8701SOL    HW127002   1.860   1.107   0.191
 8701SOL    HW227003   1.746   1.043   0.288
 8702SOL     OW27004   5.368   5.030   1.935
 8702SOL    HW127005   5.293   4.972   1.968
 8702SOL    HW227006   5.386   5.103   2.001
 8703SOL     OW27007   3.176   4.669   6.634
 8703SOL    HW127008   3.138   4.622   6.555
 8703SOL    HW227009   3.106   4.678   6.705
 8704SOL     OW27010   6.419   3.875   3.492
 8704SOL    HW127011   6.323   3.862   3.519
 8704SOL    HW227012   6.479   3.838   3.563
 8705SOL     OW27013   4.184   1.742   6.347
 8705SOL    HW127014   4.250   1.714   6.417
 8705SOL    HW227015   4.128   1.664   6.321
 8706SOL     OW27016   4.965   2.098   0.012
 8706SOL    HW127017   4.933   2.009   6.998
 8706SOL    HW227018   4.926   2.170   6.974
 8707SOL     OW27019   1.284   2.904   4.230
 8707SOL    HW127020   1.255   2.991   4.191
 8707SOL    HW227021   1.309   2.918   4.326
 8708SOL     OW27022   4.036   1.920   3.919
 8708SOL    HW127023   4.024   2.007   3.871
 8708SOL    HW227024   3.981   1.850   3.874
 8709SOL     OW27025   6.812   6.444   6.660
 8709SOL    HW127026   6.832   6.542   6.654
 8709SOL    HW227027   6.743   6.428   6.731
 8710SOL     OW27028   2.286   2.723   3.370
 8710SOL    HW127029   2.303   2.684   3.280
 8710SOL    HW227030   2.263   2.820   3.361
 8711SOL     OW27031   1.722   6.608   2.470
 8711SOL    HW127032   1.649   6.645   2.528
 8711SOL    HW227033   1.809   6.649   2.497
 8712SOL     OW27034   3.437   1.621   4.281
 8712SOL    HW127035   3.397   1.545   4.230
 8712SOL    HW227036   3.527   1.594   4.317
 8713SOL     OW27037   0.083   4.372   1.394
 8713SOL    HW127038   7.009   4.403   1.369
 8713SOL    HW227039   0.144   4.381   1.315
 8714SOL     OW27040   0.985   0.031   6.264
 8714SOL    HW127041   0.982   0.049   6.362
 8714SOL    HW227042   0.898   0.058   6.222
 8715SOL     OW27043   3.953   1.327   0.153
 8715SOL    HW127044   3.950   1.338   0.053
 8715SOL    HW227045   3.869   1.362   0.193
 8716SOL     OW27046   0.584   6.500   0.945
 8716SOL    HW127047   0.517   6.470   1.013
 8716SOL    HW227048   0.574   6.599   0.930
 8717SOL     OW27049   2.504   3.577   5.748
 8717SOL    HW127050   2.601   3.598   5.760
 8717SOL    HW227051   2.453   3.660   5.726
 8718SOL     OW27052   2.048   2.942   6.027
 8718SOL    HW127053   1.983   3.018   6.019
 8718SOL    HW227054   2.139   2.973   6.001
 8719SOL     OW27055   3.788   0.098   0.621
 8719SOL    HW127056   3.888   0.096   0.622
 8719SOL    HW227057   3.755   0.161   0.691
 8720SOL     OW27058   0.193   6.354   6.259
 8720SOL    HW127059   0.159   6.343   6.352
 8720SOL    HW227060   0.257   6.430   6.255
 8721SOL     OW27061   6.250   0.424   0.212
 8721SOL    HW127062   6.191   0.343   0.221
 8721SOL    HW227063   6.345   0.397   0.226
 8722SOL     OW27064   3.779   0.988   6.942
 8722SOL    HW127065   3.827   0.907   6.978
 8722SOL    HW227066   3.718   1.024   7.012
 8723SOL     OW27067   5.434   0.074   2.379
 8723SOL    HW127068   5.489   7.010   2.364
 8723SOL    HW227069   5.337   0.050   2.383
 8724SOL     OW27070   5.946   0.585   3.992
 8724SOL    HW127071   5.931   0.683   3.991
 8724SOL    HW227072   6.028   0.563   3.939
 8725SOL     OW27073   0.896   6.221   5.310
 8725SOL    HW127074   0.828   6.150   5.293
 8725SOL    HW227075   0.966   6.185   5.372
 8726SOL     OW27076   6.699   0.698   0.918
 8726SOL    HW127077   6.613   0.734   0.955
 8726SOL    HW227078   6.776   0.737   0.970
 8727SOL     OW27079   5.876   6.571   6.860
 8727SOL    HW127080   5.904   6.626   6.781
 8727SOL    HW227081   5.843   6.631   6.933
 8728SOL     OW27082   5.258   1.701   1.979
 8728SOL    HW127083   5.267   1.693   2.079
 8728SOL    HW227084   5.218   1.617   1.942
 8729SOL     OW27085   3.045   5.317   5.379
 8729SOL    HW127086   3.060   5.264   5.462
 8729SOL    HW227087   2.968   5.280   5.328
 8730SOL     OW27088   4.905   4.507   3.295
 8730SOL    HW127089   4.917   4.450   3.376
 8730SOL    HW227090   4.953   4.466   3.218
 8731SOL     OW27091   0.793   3.169   3.224
 8731SOL    HW127092   0.838   3.232   3.161
 8731SOL    HW227093   0.742   3.101   3.173
 8732SOL     OW27094   5.880   4.379   2.120
 8732SOL    HW127095   5.931   4.453   2.162
 8732SOL    HW227096   5.922   4.354   2.033
 8733SOL     OW27097   0.979   6.089   0.108
 8733SOL    HW127098   0.954   6.092   0.011
 8733SOL    HW227099   1.054   6.023   0.121
 8734SOL     OW27100   6.683   3.194   2.943
 8734SOL    HW127101   6.766   3.142   2.922
 8734SOL    HW227102   6.708   3.281   2.986
 8735SOL     OW27103   1.110   3.413   5.208
 8735SOL    HW127104   1.139   3.319   5.227
 8735SOL    HW227105   1.026   3.432   5.258
 8736SOL     OW27106   0.125   5.115   2.325
 8736SOL    HW127107   0.206   5.138   2.272
 8736SOL    HW227108   0.143   5.033   2.380
 8737SOL     OW27109   2.650   6.178   6.851
 8737SOL    HW127110   2.727   6.196   6.912
 8737SOL    HW227111   2.592   6.107   6.892
 8738SOL     OW27112   2.073   5.456   3.440
 8738SOL    HW127113   2.021   5.381   3.399
 8738SOL    HW227114   2.098   5.522   3.370
 8739SOL     OW27115   5.387   4.470   6.002
 8739SOL    HW127116   5.467   4.531   5.999
 8739SOL    HW227117   5.303   4.526   6.000
 8740SOL     OW27118   3.618   2.038   2.701
 8740SOL    HW127119   3.629   1.978   2.780
 8740SOL    HW227120   3.533   2.015   2.653
 8741SOL     OW27121   2.156   0.553   2.788
 8741SOL    HW127122   2.220   0.619   2.826
 8741SOL    HW227123   2.082   0.601   2.740
 8742SOL     OW27124   4.334   0.126   1.807
 8742SOL    HW127125   4.356   0.077   1.722
 8742SOL    HW227126   4.413   0.179   1.836
 8743SOL     OW27127   2.080   0.906   1.322
 8743SOL    HW127128   2.160   0.887   1.379
 8743SOL    HW227129   2.109   0.920   1.228
 8744SOL     OW27130   4.247   2.911   0.413
 8744SOL    HW127131   4.342   2.940   0.402
 8744SOL    HW227132   4.220   2.854   0.335
 8745SOL     OW27133   6.401   2.204   6.468
 8745SOL    HW127134   6.471   2.156   6.416
 8745SOL    HW227135   6.410   2.181   6.565
 8746SOL     OW27136   4.956   5.698   4.728
 8746SOL    HW127137   4.914   5.764   4.790
 8746SOL    HW227138   4.887   5.665   4.663
 8747SOL     OW27139   0.427   1.000   2.412
 8747SOL    HW127140   0.450   1.095   2.431
 8747SOL    HW227141   0.330   0.992   2.388
 8748SOL     OW27142   0.896   1.969   4.772
 8748SOL    HW127143   0.895   2.069   4.770
 8748SOL    HW227144   0.807   1.934   4.743
 8749SOL     OW27145   1.827   1.051   5.460
 8749SOL    HW127146   1.799   1.128   5.403
 8749SOL    HW227147   1.808   0.965   5.412
 8750SOL     OW27148   3.810   3.537   5.702
 8750SOL    HW127149   3.887   3.473   5.700
 8750SOL    HW227150   3.834   3.620   5.652
 8751SOL     OW27151   0.005   1.022   1.624
 8751SOL    HW127152   0.058   1.080   1.562
 8751SOL    HW227153   0.028   0.926   1.607
 8752SOL     OW27154   4.264   2.686   6.355
 8752SOL    HW127155   4.207   2.604   6.350
 8752SOL    HW227156   4.255   2.738   6.270
 8753SOL     OW27157   2.232   3.074   6.743
 8753SOL    HW127158   2.215   3.085   6.645
 8753SOL    HW227159   2.254   2.978   6.763
 8754SOL     OW27160   3.087   4.406   5.644
 8754SOL    HW127161   3.088   4.495   5.598
 8754SOL    HW227162   3.092   4.334   5.575
 8755SOL     OW27163   2.439   1.204   1.571
 8755SOL    HW127164   2.429   1.295   1.610
 8755SOL    HW227165   2.534   1.190   1.542
 8756SOL     OW27166   1.610   2.849   3.424
 8756SOL    HW127167   1.585   2.868   3.329
 8756SOL    HW227168   1.536   2.798   3.468
 8757SOL     OW27169   5.116   5.838   6.220
 8757SOL    HW127170   5.204   5.791   6.219
 8757SOL    HW227171   5.074   5.832   6.130
 8758SOL     OW27172   4.604   6.497   3.449
 8758SOL    HW127173   4.654   6.444   3.517
 8758SOL    HW227174   4.665   6.518   3.372
 8759SOL     OW27175   6.157   2.405   6.744
 8759SOL    HW127176   6.069   2.358   6.748
 8759SOL    HW227177   6.175   2.451   6.832
 8760SOL     OW27178   2.603   1.416   4.286
 8760SOL    HW127179   2.553   1.498   4.316
 8760SOL    HW227180   2.646   1.373   4.366
 8761SOL     OW27181   6.184   1.584   1.707
 8761SOL    HW127182   6.273   1.541   1.690
 8761SOL    HW227183   6.111   1.517   1.691
 8762SOL     OW27184   1.091   5.804   4.066
 8762SOL    HW127185   1.153   5.777   3.992
 8762SOL    HW227186   1.069   5.901   4.057
 8763SOL     OW27187   5.254   0.778   5.382
 8763SOL    HW127188   5.195   0.707   5.421
 8763SOL    HW227189   5.234   0.787   5.284
 8764SOL     OW27190   4.323   6.167   5.902
 8764SOL    HW127191   4.394   6.217   5.853
 8764SOL    HW227192   4.256   6.232   5.939
 8765SOL     OW27193   5.788   1.592   4.765
 8765SOL    HW127194   5.822   1.680   4.798
 8765SOL    HW227195   5.817   1.519   4.827
 8766SOL     OW27196   4.248   4.196   5.299
 8766SOL    HW127197   4.268   4.280   5.248
 8766SOL    HW227198   4.149   4.186   5.309
 8767SOL     OW27199   4.121   0.240   3.135
 8767SOL    HW127200   4.045   0.185   3.169
 8767SOL    HW227201   4.181   0.264   3.211
 8768SOL     OW27202   1.411   2.375   0.993
 8768SOL    HW127203   1.425   2.283   0.955
 8768SOL    HW227204   1.418   2.372   1.092
 8769SOL     OW27205   0.124   1.461   1.909
 8769SOL    HW127206   0.100   1.506   1.823
 8769SOL    HW227207   0.158   1.528   1.974
 8770SOL     OW27208   5.222   4.657   2.509
 8770SOL    HW127209   5.257   4.729   2.449
 8770SOL    HW227210   5.299   4.606   2.548
 8771SOL     OW27211   0.258   2.543   6.415
 8771SOL    HW127212   0.210   2.631   6.406
 8771SOL    HW227213   0.347   2.559   6.459
 8772SOL     OW27214   4.865   0.552   5.904
 8772SOL    HW127215   4.857   0.612   5.824
 8772SOL    HW227216   4.949   0.498   5.896
 8773SOL     OW27217   5.497   2.954   2.840
 8773SOL    HW127218   5.555   2.941   2.759
 8773SOL    HW227219   5.523   2.889   2.911
 8774SOL     OW27220   0.542   0.459   0.342
 8774SOL    HW127221   0.478   0.401   0.391
 8774SOL    HW227222   0.607   0.402   0.292
 8775SOL     OW27223   4.952   1.089   5.455
 8775SOL    HW127224   4.895   1.044   5.524
 8775SOL    HW227225   5.045   1.099   5.490
 8776SOL     OW27226   5.060   3.414   1.528
 8776SOL    HW127227   4.966   3.380   1.536
 8776SOL    HW227228   5.124   3.341   1.551
 8777SOL     OW27229   6.858   3.346   3.788
 8777SOL    HW127230   6.850   3.251   3.757
 8777SOL    HW227231   6.933   3.353   3.853
 8778SOL     OW27232   5.069   3.419   5.689
 8778SOL    HW127233   5.117   3.382   5.768
 8778SOL    HW227234   5.004   3.489   5.718
 8779SOL     OW27235   2.561   5.490   2.739
 8779SOL    HW127236   2.521   5.445   2.659
 8779SOL    HW227237   2.562   5.426   2.815
 8780SOL     OW27238   0.546   6.605   3.617
 8780SOL    HW127239   0.515   6.575   3.708
 8780SOL    HW227240   0.467   6.625   3.560
 8781SOL     OW27241   4.711   0.240   3.388
 8781SOL    HW127242   4.651   0.301   3.338
 8781SOL    HW227243   4.660   0.158   3.416
 8782SOL     OW27244   5.805   1.594   1.670
 8782SOL    HW127245   5.722   1.579   1.723
 8782SOL    HW227246   5.876   1.532   1.702
 8783SOL     OW27247   6.795   3.938   4.692
 8783SOL    HW127248   6.722   3.879   4.655
 8783SOL    HW227249   6.773   3.962   4.786
 8784SOL     OW27250   6.525   6.324   0.295
 8784SOL    HW127251   6.451   6.362   0.240
 8784SOL    HW227252   6.612   6.361   0.263
 8785SOL     OW27253   6.345   5.399   6.285
 8785SOL    HW127254   6.384   5.462   6.352
 8785SOL    HW227255   6.355   5.437   6.193
 8786SOL     OW27256   3.306   1.398   1.535
 8786SOL    HW127257   3.307   1.398   1.635
 8786SOL    HW227258   3.232   1.341   1.501
 8787SOL     OW27259   3.449   0.751   2.296
 8787SOL    HW127260   3.421   0.667   2.251
 8787SOL    HW227261   3.526   0.792   2.247
 8788SOL     OW27262   6.747   1.304   5.303
 8788SOL    HW127263   6.825   1.326   5.362
 8788SOL    HW227264   6.680   1.251   5.355
 8789SOL     OW27265   6.812   4.144   5.464
 8789SOL    HW127266   6.860   4.062   5.432
 8789SOL    HW227267   6.721   4.119   5.496
 8790SOL     OW27268   6.434   1.112   6.663
 8790SOL    HW127269   6.445   1.100   6.762
 8790SOL    HW227270   6.466   1.029   6.617
 8791SOL     OW27271   4.785   6.627   5.036
 8791SOL    HW127272   4.806   6.662   4.944
 8791SOL    HW227273   4.763   6.704   5.096
 8792SOL     OW27274   3.234   4.958   2.705
 8792SOL    HW127275   3.178   4.932   2.626
 8792SOL    HW227276   3.308   4.892   2.716
 8793SOL     OW27277   0.419   4.990   3.806
 8793SOL    HW127278   0.432   4.991   3.905
 8793SOL    HW227279   0.463   4.909   3.768
 8794SOL     OW27280   6.147   1.103   3.686
 8794SOL    HW127281   6.096   1.174   3.736
 8794SOL    HW227282   6.233   1.141   3.653
 8795SOL     OW27283   1.338   5.253   4.885
 8795SOL    HW127284   1.293   5.165   4.904
 8795SOL    HW227285   1.398   5.277   4.961
 8796SOL     OW27286   6.024   3.438   2.943
 8796SOL    HW127287   5.991   3.436   3.037
 8796SOL    HW227288   6.124   3.437   2.943
 8797SOL     OW27289   6.689   7.005   4.491
 8797SOL    HW127290   6.704   6.918   4.538
 8797SOL    HW227291   6.767   0.007   4.433
 8798SOL     OW27292   4.164   5.993   6.069
 8798SOL    HW127293   4.103   6.056   6.118
 8798SOL    HW227294   4.220   6.046   6.005
 8799SOL     OW27295   3.054   4.858   2.513
 8799SOL    HW127296   2.960   4.869   2.545
 8799SOL    HW227297   3.058   4.783   2.446
 8800SOL     OW27298   5.935   5.176   5.425
 8800SOL    HW127299   5.967   5.262   5.464
 8800SOL    HW227300   5.835   5.175   5.424
 8801SOL     OW27301   6.148   1.657   4.608
 8801SOL    HW127302   6.125   1.711   4.689
 8801SOL    HW227303   6.219   1.704   4.555
 8802SOL     OW27304   1.691   5.612   5.790
 8802SOL    HW127305   1.661   5.614   5.695
 8802SOL    HW227306   1.669   5.699   5.834
 8803SOL     OW27307   6.948   0.384   0.286
 8803SOL    HW127308   6.970   0.453   0.354
 8803SOL    HW227309   6.870   0.330   0.317
 8804SOL     OW27310   2.032   6.390   1.260
 8804SOL    HW127311   2.037   6.476   1.311
 8804SOL    HW227312   1.937   6.370   1.238
 8805SOL     OW27313   3.809   5.357   3.741
 8805SOL    HW127314   3.899   5.328   3.706
 8805SOL    HW227315   3.737   5.307   3.693
 8806SOL     OW27316   2.014   4.820   0.909
 8806SOL    HW127317   1.944   4.749   0.898
 8806SOL    HW227318   2.104   4.782   0.889
 8807SOL     OW27319   4.489   1.170   6.687
 8807SOL    HW127320   4.471   1.162   6.589
 8807SOL    HW227321   4.421   1.229   6.729
 8808SOL     OW27322   0.140   2.117   6.678
 8808SOL    HW127323   0.058   2.158   6.639
 8808SOL    HW227324   0.207   2.189   6.698
 8809SOL     OW27325   1.999   4.380   3.344
 8809SOL    HW127326   2.072   4.437   3.382
 8809SOL    HW227327   2.012   4.370   3.245
 8810SOL     OW27328   5.770   1.170   5.407
 8810SOL    HW127329   5.821   1.234   5.350
 8810SOL    HW227330   5.797   1.077   5.385
 8811SOL     OW27331   3.519   0.682   2.840
 8811SOL    HW127332   3.600   0.625   2.854
 8811SOL    HW227333   3.496   0.729   2.925
 8812SOL     OW27334   3.193   0.533   0.419
 8812SOL    HW127335   3.225   0.455   0.365
 8812SOL    HW227336   3.266   0.602   0.423
 8813SOL     OW27337   1.791   4.689   2.954
 8813SOL    HW127338   1.807   4.728   2.863
 8813SOL    HW227339   1.718   4.621   2.949
 8814SOL     OW27340   5.834   6.542   0.541
 8814SOL    HW127341   5.821   6.636   0.571
 8814SOL    HW227342   5.900   6.540   0.465
 8815SOL     OW27343   5.563   0.071   1.424
 8815SOL    HW127344   5.562   0.169   1.442
 8815SOL    HW227345   5.524   0.053   1.334
 8816SOL     OW27346   0.739   0.204   6.742
 8816SOL    HW127347   0.709   0.149   6.664
 8816SOL    HW227348   0.747   0.299   6.715
 8817SOL     OW27349   6.944   3.492   4.164
 8817SOL    HW127350   6.991   3.415   4.206
 8817SOL    HW227351   6.906   3.551   4.235
 8818SOL     OW27352   1.263   6.357   3.808
 8818SOL    HW127353   1.359   6.330   3.819
 8818SOL    HW227354   1.238   6.352   3.711
 8819SOL     OW27355   6.087   4.303   5.571
 8819SOL    HW127356   6.162   4.266   5.625
 8819SOL    HW227357   6.098   4.402   5.561
 8820SOL     OW27358   3.090   1.814   4.412
 8820SOL    HW127359   2.993   1.812   4.386
 8820SOL    HW227360   3.102   1.874   4.491
 8821SOL     OW27361   0.862   5.897   0.592
 8821SOL    HW127362   0.882   5.971   0.655
 8821SOL    HW227363   0.909   5.814   0.622
 8822SOL     OW27364   0.696   0.360   3.347
 8822SOL    HW127365   0.658   0.291   3.409
 8822SOL    HW227366   0.765   0.414   3.395
 8823SOL     OW27367   2.288   0.827   2.557
 8823SOL    HW127368   2.295   0.907   2.616
 8823SOL    HW227369   2.201   0.780   2.573
 8824SOL     OW27370   1.212   0.746   0.899
 8824SOL    HW127371   1.163   0.770   0.983
 8824SOL    HW227372   1.288   0.810   0.884
 8825SOL     OW27373   0.612   0.696   1.586
 8825SOL    HW127374   0.549   0.770   1.608
 8825SOL    HW227375   0.656   0.715   1.498
 8826SOL     OW27376   1.384   3.386   1.033
 8826SOL    HW127377   1.428   3.475   1.044
 8826SOL    HW227378   1.420   3.322   1.101
 8827SOL     OW27379   3.766   0.180   3.048
 8827SOL    HW127380   3.824   0.177   2.967
 8827SOL    HW227381   3.796   0.110   3.113
 8828SOL     OW27382   3.810   4.831   0.070
 8828SOL    HW127383   3.851   4.849   0.159
 8828SOL    HW227384   3.877   4.849   7.016
 8829SOL     OW27385   6.162   1.788   1.500
 8829SOL    HW127386   6.145   1.873   1.550
 8829SOL    HW227387   6.166   1.712   1.564
 8830SOL     OW27388   2.016   1.754   3.270
 8830SOL    HW127389   2.093   1.722   3.325
 8830SOL    HW227390   2.039   1.842   3.228
 8831SOL     OW27391   5.881   2.946   2.691
 8831SOL    HW127392   5.874   3.029   2.747
 8831SOL    HW227393   5.948   2.884   2.732
 8832SOL     OW27394   0.771   6.472   4.440
 8832SOL    HW127395   0.682   6.429   4.419
 8832SOL    HW227396   0.759   6.540   4.511
 8833SOL     OW27397   3.797   3.665   0.141
 8833SOL    HW127398   3.850   3.735   0.093
 8833SOL    HW227399   3.851   3.581   0.148
 8834SOL     OW27400   5.997   3.934   4.788
 8834SOL    HW127401   5.933   3.860   4.768
 8834SOL    HW227402   6.071   3.900   4.845
 8835SOL     OW27403   5.277   1.470   6.738
 8835SOL    HW127404   5.206   1.529   6.776
 8835SOL    HW227405   5.245   1.430   6.653
 8836SOL     OW27406   4.989   2.631   0.328
 8836SOL    HW127407   5.002   2.553   0.268
 8836SOL    HW227408   5.078   2.670   0.353
 8837SOL     OW27409   6.953   0.074   1.513
 8837SOL    HW127410   7.003   0.126   1.583
 8837SOL    HW227411   6.877   0.129   1.478
 8838SOL     OW27412   0.934   4.950   2.363
 8838SOL    HW127413   1.013   4.970   2.421
 8838SOL    HW227414   0.923   4.851   2.354
 8839SOL     OW27415   3.712   5.855   2.359
 8839SOL    HW127416   3.807   5.823   2.359
 8839SOL    HW227417   3.670   5.836   2.448
 8840SOL     OW27418   6.051   0.297   2.164
 8840SOL    HW127419   5.959   0.273   2.197
 8840SOL    HW227420   6.118   0.237   2.207
 8841SOL     OW27421   5.549   1.542   2.310
 8841SOL    HW127422   5.648   1.543   2.323
 8841SOL    HW227423   5.504   1.544   2.399
 8842SOL     OW27424   3.393   3.862   3.411
 8842SOL    HW127425   3.450   3.941   3.393
 8842SOL    HW227426   3.378   3.811   3.326
 8843SOL     OW27427   1.359   3.412   3.979
 8843SOL    HW127428   1.308   3.376   4.057
 8843SOL    HW227429   1.310   3.390   3.894
 8844SOL     OW27430   0.211   1.806   4.628
 8844SOL    HW127431   0.291   1.770   4.677
 8844SOL    HW227432   0.129   1.790   4.683
 8845SOL     OW27433   2.256   4.764   0.320
 8845SOL    HW127434   2.331   4.823   0.349
 8845SOL    HW227435   2.260   4.677   0.369
 8846SOL     OW27436   5.311   4.500   4.489
 8846SOL    HW127437   5.319   4.566   4.563
 8846SOL    HW227438   5.272   4.545   4.408
 8847SOL     OW27439   2.123   1.581   3.506
 8847SOL    HW127440   2.183   1.567   3.585
 8847SOL    HW227441   2.095   1.677   3.503
 8848SOL     OW27442   3.189   1.701   2.043
 8848SOL    HW127443   3.160   1.664   2.131
 8848SOL    HW227444   3.113   1.751   2.001
 8849SOL     OW27445   2.816   4.975   3.544
 8849SOL    HW127446   2.846   4.979   3.448
 8849SOL    HW227447   2.728   4.929   3.549
 8850SOL     OW27448   3.338   1.544   0.822
 8850SOL    HW127449   3.263   1.573   0.763
 8850SOL    HW227450   3.372   1.455   0.792
 8851SOL     OW27451   1.084   4.468   2.216
 8851SOL    HW127452   1.177   4.492   2.245
 8851SOL    HW227453   1.020   4.537   2.250
 8852SOL     OW27454   4.646   3.120   5.795
 8852SOL    HW127455   4.607   3.047   5.737
 8852SOL    HW227456   4.681   3.193   5.736
 8853SOL     OW27457   2.726   0.624   4.106
 8853SOL    HW127458   2.796   0.638   4.036
 8853SOL    HW227459   2.713   0.709   4.157
 8854SOL     OW27460   2.758   0.463   6.519
 8854SOL    HW127461   2.767   0.528   6.444
 8854SOL    HW227462   2.774   0.370   6.485
 8855SOL     OW27463   0.264   6.424   0.538
 8855SOL    HW127464   0.336   6.491   0.522
 8855SOL    HW227465   0.183   6.470   0.574
 8856SOL     OW27466   5.746   0.081   5.710
 8856SOL    HW127467   5.802   0.119   5.636
 8856SOL    HW227468   5.725   0.153   5.776
 8857SOL     OW27469   6.363   2.312   3.620
 8857SOL    HW127470   6.405   2.395   3.583
 8857SOL    HW227471   6.391   2.233   3.566
 8858SOL     OW27472   2.083   3.404   5.629
 8858SOL    HW127473   2.168   3.432   5.674
 8858SOL    HW227474   2.082   3.440   5.536
 8859SOL     OW27475   0.205   6.844   5.241
 8859SOL    HW127476   0.123   6.845   5.299
 8859SOL    HW227477   0.181   6.874   5.149
 8860SOL     OW27478   1.786   4.195   2.964
 8860SOL    HW127479   1.795   4.268   3.032
 8860SOL    HW227480   1.824   4.228   2.877
 8861SOL     OW27481   3.417   2.086   5.779
 8861SOL    HW127482   3.465   2.174   5.780
 8861SOL    HW227483   3.389   2.062   5.872
 8862SOL     OW27484   6.352   1.279   3.625
 8862SOL    HW127485   6.424   1.347   3.612
 8862SOL    HW227486   6.296   1.303   3.704
 8863SOL     OW27487   1.622   5.795   4.611
 8863SOL    HW127488   1.715   5.778   4.642
 8863SOL    HW227489   1.622   5.814   4.513
 8864SOL     OW27490   2.599   3.259   6.302
 8864SOL    HW127491   2.678   3.209   6.338
 8864SOL    HW227492   2.525   3.256   6.368
 8865SOL     OW27493   3.084   1.799   4.888
 8865SOL    HW127494   3.019   1.722   4.889
 8865SOL    HW227495   3.036   1.882   4.916
 8866SOL     OW27496   5.133   6.769   4.098
 8866SOL    HW127497   5.103   6.811   4.183
 8866SOL    HW227498   5.079   6.805   4.022
 8867SOL     OW27499   5.212   3.247   2.765
 8867SOL    HW127500   5.151   3.285   2.835
 8867SOL    HW227501   5.307   3.267   2.790
 8868SOL     OW27502   5.997   3.414   0.832
 8868SOL    HW127503   6.041   3.422   0.743
 8868SOL    HW227504   5.990   3.504   0.874
 8869SOL     OW27505   4.634   5.923   3.220
 8869SOL    HW127506   4.602   5.877   3.137
 8869SOL    HW227507   4.616   5.864   3.299
 8870SOL     OW27508   4.101   6.919   0.306
 8870SOL    HW127509   4.073   6.933   0.211
 8870SOL    HW227510   4.128   7.007   0.346
 8871SOL     OW27511   3.239   0.935   3.816
 8871SOL    HW127512   3.214   0.948   3.912
 8871SOL    HW227513   3.208   0.845   3.785
 8872SOL     OW27514   1.543   4.325   4.591
 8872SOL    HW127515   1.540   4.348   4.494
 8872SOL    HW227516   1.566   4.228   4.601
 8873SOL     OW27517   6.488   5.775   1.943
 8873SOL    HW127518   6.389   5.784   1.958
 8873SOL    HW227519   6.505   5.702   1.876
 8874SOL     OW27520   2.265   6.241   0.947
 8874SOL    HW127521   2.273   6.245   1.046
 8874SOL    HW227522   2.346   6.196   0.909
 8875SOL     OW27523   0.568   3.066   5.264
 8875SOL    HW127524   0.615   3.111   5.188
 8875SOL    HW227525   0.635   3.014   5.317
 8876SOL     OW27526   0.938   6.915   4.833
 8876SOL    HW127527   1.023   6.922   4.781
 8876SOL    HW227528   0.956   6.875   4.923
 8877SOL     OW27529   3.062   0.830   4.738
 8877SOL    HW127530   3.001   0.811   4.661
 8877SOL    HW227531   3.156   0.805   4.712
 8878SOL     OW27532   0.620   5.369   0.382
 8878SOL    HW127533   0.684   5.391   0.456
 8878SOL    HW227534   0.543   5.318   0.420
 8879SOL     OW27535   5.778   4.899   1.476
 8879SOL    HW127536   5.729   4.823   1.433
 8879SOL    HW227537   5.748   4.908   1.571
 8880SOL     OW27538   7.001   5.633   4.387
 8880SOL    HW127539   6.920   5.690   4.405
 8880SOL    HW227540   0.023   5.660   4.300
 8881SOL     OW27541   5.994   0.181   4.097
 8881SOL    HW127542   6.092   0.165   4.111
 8881SOL    HW227543   5.952   0.203   4.185
 8882SOL     OW27544   4.955   1.670   0.837
 8882SOL    HW127545   4.909   1.750   0.875
 8882SOL    HW227546   4.911   1.644   0.751
 8883SOL     OW27547   0.761   0.821   5.604
 8883SOL    HW127548   0.663   0.805   5.599
 8883SOL    HW227549   0.784   0.905   5.555
 8884SOL     OW27550   5.707   5.660   6.310
 8884SOL    HW127551   5.661   5.574   6.290
 8884SOL    HW227552   5.734   5.704   6.224
 8885SOL     OW27553   6.786   3.439   1.437
 8885SOL    HW127554   6.723   3.464   1.511
 8885SOL    HW227555   6.838   3.519   1.408
 8886SOL     OW27556   3.305   6.792   5.427
 8886SOL    HW127557   3.340   6.880   5.396
 8886SOL    HW227558   3.381   6.731   5.449
 8887SOL     OW27559   3.151   1.227   1.108
 8887SOL    HW127560   3.148   1.327   1.106
 8887SOL    HW227561   3.245   1.197   1.088
 8888SOL     OW27562   1.081   1.902   1.012
 8888SOL    HW127563   1.164   1.937   0.968
 8888SOL    HW227564   1.093   1.805   1.033
 8889SOL     OW27565   5.339   6.465   5.219
 8889SOL    HW127566   5.340   6.378   5.268
 8889SOL    HW227567   5.433   6.492   5.197
 8890SOL     OW27568   6.456   5.664   4.012
 8890SOL    HW127569   6.409   5.667   4.100
 8890SOL    HW227570   6.510   5.580   4.006
 8891SOL     OW27571   6.160   3.326   6.064
 8891SOL    HW127572   6.202   3.373   6.142
 8891SOL    HW227573   6.065   3.356   6.054
 8892SOL     OW27574   3.410   5.967   3.546
 8892SOL    HW127575   3.347   6.005   3.615
 8892SOL    HW227576   3.374   5.880   3.513
 8893SOL     OW27577   1.152   0.585   2.007
 8893SOL    HW127578   1.131   0.595   2.104
 8893SOL    HW227579   1.157   0.675   1.964
 8894SOL     OW27580   4.114   2.706   5.565
 8894SOL    HW127581   4.063   2.733   5.484
 8894SOL    HW227582   4.168   2.625   5.545
 8895SOL     OW27583   6.665   1.208   1.197
 8895SOL    HW127584   6.617   1.149   1.262
 8895SOL    HW227585   6.600   1.269   1.154
 8896SOL     OW27586   1.709   3.184   4.739
 8896SOL    HW127587   1.756   3.234   4.666
 8896SOL    HW227588   1.694   3.246   4.817
 8897SOL     OW27589   2.241   1.854   3.014
 8897SOL    HW127590   2.314   1.868   2.948
 8897SOL    HW227591   2.272   1.885   3.104
 8898SOL     OW27592   6.010   3.375   4.679
 8898SOL    HW127593   6.028   3.278   4.697
 8898SOL    HW227594   6.091   3.417   4.640
 8899SOL     OW27595   1.496   4.974   0.720
 8899SOL    HW127596   1.587   4.941   0.746
 8899SOL    HW227597   1.430   4.952   0.792
 8900SOL     OW27598   5.369   3.681   2.787
 8900SOL    HW127599   5.407   3.765   2.826
 8900SOL    HW227600   5.270   3.678   2.803
 8901SOL     OW27601   2.393   1.067   4.200
 8901SOL    HW127602   2.327   1.118   4.143
 8901SOL    HW227603   2.484   1.075   4.161
 8902SOL     OW27604   3.282   6.057   0.073
 8902SOL    HW127605   3.350   6.113   0.121
 8902SOL    HW227606   3.200   6.111   0.057
 8903SOL     OW27607   1.429   1.078   4.443
 8903SOL    HW127608   1.385   0.988   4.451
 8903SOL    HW227609   1.414   1.130   4.528
 8904SOL     OW27610   6.458   5.702   3.624
 8904SOL    HW127611   6.504   5.626   3.669
 8904SOL    HW227612   6.387   5.739   3.684
 8905SOL     OW27613   2.291   4.259   4.763
 8905SOL    HW127614   2.298   4.170   4.719
 8905SOL    HW227615   2.311   4.250   4.861
 8906SOL     OW27616   0.373   0.023   6.755
 8906SOL    HW127617   0.448   6.983   6.786
 8906SOL    HW227618   0.311   0.041   6.832
 8907SOL     OW27619   3.173   2.154   4.727
 8907SOL    HW127620   3.197   2.058   4.740
 8907SOL    HW227621   3.168   2.200   4.816
 8908SOL     OW27622   1.299   3.115   6.782
 8908SOL    HW127623   1.380   3.171   6.766
 8908SOL    HW227624   1.326   3.020   6.794
 8909SOL     OW27625   1.381   0.617   4.969
 8909SOL    HW127626   1.447   0.691   4.955
 8909SOL    HW227627   1.298   0.654   5.011
 8910SOL     OW27628   2.001   3.375   6.217
 8910SOL    HW127629   1.956   3.380   6.127
 8910SOL    HW227630   2.091   3.417   6.211
 8911SOL     OW27631   4.337   2.301   4.801
 8911SOL    HW127632   4.361   2.258   4.889
 8911SOL    HW227633   4.299   2.392   4.818
 8912SOL     OW27634   4.350   1.533   0.491
 8912SOL    HW127635   4.259   1.565   0.514
 8912SOL    HW227636   4.405   1.525   0.574
 8913SOL     OW27637   4.550   5.156   0.618
 8913SOL    HW127638   4.523   5.060   0.630
 8913SOL    HW227639   4.638   5.171   0.661
 8914SOL     OW27640   4.267   0.779   4.787
 8914SOL    HW127641   4.203   0.852   4.808
 8914SOL    HW227642   4.341   0.815   4.730
 8915SOL     OW27643   1.190   2.789   3.673
 8915SOL    HW127644   1.127   2.729   3.623
 8915SOL    HW227645   1.277   2.795   3.623
 8916SOL     OW27646   0.767   3.054   1.928
 8916SOL    HW127647   0.697   3.117   1.893
 8916SOL    HW227648   0.854   3.073   1.884
 8917SOL     OW27649   5.912   4.458   6.387
 8917SOL    HW127650   5.838   4.426   6.446
 8917SOL    HW227651   5.979   4.509   6.442
 8918SOL     OW27652   0.173   5.316   1.093
 8918SOL    HW127653   0.101   5.385   1.103
 8918SOL    HW227654   0.182   5.290   0.997
 8919SOL     OW27655   4.638   3.943   0.672
 8919SOL    HW127656   4.557   3.992   0.705
 8919SOL    HW227657   4.612   3.850   0.645
 8920SOL     OW27658   0.725   0.124   6.466
 8920SOL    HW127659   0.817   0.131   6.505
 8920SOL    HW227660   0.727   0.152   6.370
 8921SOL     OW27661   2.033   2.022   3.181
 8921SOL    HW127662   1.956   2.033   3.244
 8921SOL    HW227663   2.106   2.086   3.206
 8922SOL     OW27664   2.964   5.160   1.978
 8922SOL    HW127665   3.057   5.187   1.953
 8922SOL    HW227666   2.914   5.131   1.896
 8923SOL     OW27667   1.245   3.955   5.510
 8923SOL    HW127668   1.211   4.048   5.497
 8923SOL    HW227669   1.222   3.899   5.430
 8924SOL     OW27670   3.085   5.833   5.691
 8924SOL    HW127671   3.024   5.912   5.695
 8924SOL    HW227672   3.078   5.791   5.600
 8925SOL     OW27673   1.020   0.724   2.312
 8925SOL    HW127674   1.106   0.767   2.283
 8925SOL    HW227675   1.039   0.656   2.383
 8926SOL     OW27676   6.146   3.276   0.001
 8926SOL    HW127677   6.051   3.305   7.006
 8926SOL    HW227678   6.156   3.181   6.990
 8927SOL     OW27679   1.829   2.174   4.702
 8927SOL    HW127680   1.753   2.200   4.761
 8927SOL    HW227681   1.915   2.203   4.743
 8928SOL     OW27682   6.810   0.883   5.253
 8928SOL    HW127683   6.774   0.859   5.163
 8928SOL    HW227684   6.734   0.898   5.317
 8929SOL     OW27685   0.403   3.378   4.195
 8929SOL    HW127686   0.486   3.366   4.140
 8929SOL    HW227687   0.346   3.449   4.154
 8930SOL     OW27688   2.362   4.774   4.519
 8930SOL    HW127689   2.367   4.688   4.570
 8930SOL    HW227690   2.341   4.848   4.582
 8931SOL     OW27691   3.452   2.601   0.532
 8931SOL    HW127692   3.471   2.509   0.498
 8931SOL    HW227693   3.530   2.632   0.587
 8932SOL     OW27694   5.350   0.336   0.218
 8932SOL    HW127695   5.288   0.414   0.216
 8932SOL    HW227696   5.359   0.298   0.125
 8933SOL     OW27697   1.137   2.026   5.571
 8933SOL    HW127698   1.043   2.058   5.585
 8933SOL    HW227699   1.195   2.104   5.548
 8934SOL     OW27700   2.728   5.768   3.876
 8934SOL    HW127701   2.741   5.695   3.944
 8934SOL    HW227702   2.732   5.729   3.784
 8935SOL     OW27703   5.375   4.589   1.779
 8935SOL    HW127704   5.367   4.672   1.723
 8935SOL    HW227705   5.359   4.508   1.722
 8936SOL     OW27706   0.813   3.542   0.998
 8936SOL    HW127707   0.769   3.627   0.969
 8936SOL    HW227708   0.912   3.550   0.985
 8937SOL     OW27709   0.440   0.456   4.206
 8937SOL    HW127710   0.397   0.547   4.206
 8937SOL    HW227711   0.389   0.396   4.144
 8938SOL     OW27712   0.156   1.218   0.204
 8938SOL    HW127713   0.152   1.263   0.294
 8938SOL    HW227714   0.081   1.153   0.196
 8939SOL     OW27715   6.204   3.272   4.464
 8939SOL    HW127716   6.124   3.312   4.420
 8939SOL    HW227717   6.251   3.342   4.518
 8940SOL     OW27718   5.330   1.917   0.690
 8940SOL    HW127719   5.271   1.976   0.746
 8940SOL    HW227720   5.370   1.970   0.616
 8941SOL     OW27721   5.177   2.236   1.957
 8941SOL    HW127722   5.245   2.272   2.021
 8941SOL    HW227723   5.132   2.312   1.910
 8942SOL     OW27724   0.942   5.328   4.618
 8942SOL    HW127725   0.874   5.295   4.683
 8942SOL    HW227726   0.917   5.420   4.587
 8943SOL     OW27727   4.510   4.842   0.632
 8943SOL    HW127728   4.550   4.791   0.555
 8943SOL    HW227729   4.542   4.804   0.718
 8944SOL     OW27730   5.291   5.143   4.409
 8944SOL    HW127731   5.246   5.207   4.471
 8944SOL    HW227732   5.282   5.050   4.444
 8945SOL     OW27733   6.733   2.312   4.397
 8945SOL    HW127734   6.670   2.246   4.356
 8945SOL    HW227735   6.744   2.290   4.494
 8946SOL     OW27736   3.435   0.662   4.420
 8946SOL    HW127737   3.369   0.713   4.365
 8946SOL    HW227738   3.397   0.573   4.446
 8947SOL     OW27739   2.200   3.635   6.394
 8947SOL    HW127740   2.181   3.543   6.430
 8947SOL    HW227741   2.227   3.695   6.469
 8948SOL     OW27742   5.989   5.652   3.099
 8948SOL    HW127743   5.915   5.586   3.116
 8948SOL    HW227744   6.075   5.615   3.133
 8949SOL     OW27745   4.050   5.898   0.124
 8949SOL    HW127746   4.116   5.906   0.048
 8949SOL    HW227747   4.081   5.954   0.201
 8950SOL     OW27748   4.498   3.293   1.329
 8950SOL    HW127749   4.510   3.324   1.423
 8950SOL    HW227750   4.570   3.333   1.272
 8951SOL     OW27751   2.171   1.062   4.568
 8951SOL    HW127752   2.192   1.034   4.662
 8951SOL    HW227753   2.231   1.015   4.504
 8952SOL     OW27754   1.449   5.484   3.348
 8952SOL    HW127755   1.417   5.568   3.391
 8952SOL    HW227756   1.479   5.419   3.418
 8953SOL     OW27757   1.819   4.607   0.915
 8953SOL    HW127758   1.773   4.528   0.955
 8953SOL    HW227759   1.764   4.689   0.933
 8954SOL     OW27760   0.149   6.750   3.792
 8954SOL    HW127761   0.159   6.693   3.874
 8954SOL    HW227762   0.053   6.772   3.778
 8955SOL     OW27763   0.106   3.191   2.813
 8955SOL    HW127764   0.101   3.122   2.885
 8955SOL    HW227765   0.191   3.180   2.762
 8956SOL     OW27766   0.624   0.628   5.975
 8956SOL    HW127767   0.569   0.552   5.940
 8956SOL    HW227768   0.710   0.592   6.012
 8957SOL     OW27769   2.126   4.775   1.367
 8957SOL    HW127770   2.166   4.800   1.456
 8957SOL    HW227771   2.200   4.753   1.303
 8958SOL     OW27772   1.306   2.790   5.243
 8958SOL    HW127773   1.237   2.766   5.312
 8958SOL    HW227774   1.324   2.888   5.246
 8959SOL     OW27775   1.326   3.542   2.349
 8959SOL    HW127776   1.413   3.591   2.353
 8959SOL    HW227777   1.308   3.514   2.254
 8960SOL     OW27778   6.555   5.429   3.263
 8960SOL    HW127779   6.596   5.487   3.193
 8960SOL    HW227780   6.483   5.480   3.310
 8961SOL     OW27781   4.311   1.846   3.881
 8961SOL    HW127782   4.269   1.755   3.886
 8961SOL    HW227783   4.245   1.911   3.844
 8962SOL     OW27784   0.032   6.375   1.527
 8962SOL    HW127785   6.973   6.439   1.533
 8962SOL    HW227786   0.117   6.425   1.541
 8963SOL     OW27787   3.183   6.398   4.823
 8963SOL    HW127788   3.145   6.327   4.883
 8963SOL    HW227789   3.110   6.437   4.768
 8964SOL     OW27790   5.338   4.062   2.680
 8964SOL    HW127791   5.266   4.118   2.720
 8964SOL    HW227792   5.415   4.121   2.655
 8965SOL     OW27793   3.935   5.152   0.756
 8965SOL    HW127794   3.858   5.153   0.693
 8965SOL    HW227795   4.001   5.223   0.729
 8966SOL     OW27796   6.525   4.882   6.631
 8966SOL    HW127797   6.495   4.977   6.641
 8966SOL    HW227798   6.483   4.842   6.549
 8967SOL     OW27799   4.832   0.985   3.174
 8967SOL    HW127800   4.857   1.025   3.086
 8967SOL    HW227801   4.904   0.921   3.203
 8968SOL     OW27802   3.041   5.384   2.318
 8968SOL    HW127803   3.099   5.372   2.237
 8968SOL    HW227804   3.099   5.404   2.397
 8969SOL     OW27805   0.145   0.724   3.728
 8969SOL    HW127806   0.181   0.694   3.639
 8969SOL    HW227807   0.062   0.777   3.714
 8970SOL     OW27808   1.191   2.406   0.592
 8970SOL    HW127809   1.237   2.317   0.602
 8970SOL    HW227810   1.126   2.402   0.517
 8971SOL     OW27811   5.194   6.858   2.237
 8971SOL    HW127812   5.159   6.951   2.245
 8971SOL    HW227813   5.176   6.822   2.145
 8972SOL     OW27814   4.925   4.132   0.333
 8972SOL    HW127815   4.833   4.133   0.373
 8972SOL    HW227816   4.981   4.064   0.380
 8973SOL     OW27817   0.358   2.577   2.335
 8973SOL    HW127818   0.361   2.542   2.429
 8973SOL    HW227819   0.334   2.674   2.337
 8974SOL     OW27820   1.787   4.008   3.980
 8974SOL    HW127821   1.857   3.990   3.911
 8974SOL    HW227822   1.709   4.053   3.938
 8975SOL     OW27823   0.574   0.144   6.957
 8975SOL    HW127824   0.493   0.198   6.980
 8975SOL    HW227825   0.623   0.187   6.881
 8976SOL     OW27826   6.988   6.145   0.755
 8976SOL    HW127827   0.032   6.080   0.711
 8976SOL    HW227828   6.917   6.171   0.690
 8977SOL     OW27829   6.898   4.053   6.544
 8977SOL    HW127830   6.928   4.133   6.492
 8977SOL    HW227831   6.967   3.981   6.539
 8978SOL     OW27832   5.142   6.366   4.878
 8978SOL    HW127833   5.207   6.347   4.805
 8978SOL    HW227834   5.153   6.461   4.907
 8979SOL     OW27835   1.024   5.282   6.111
 8979SOL    HW127836   0.975   5.271   6.198
 8979SOL    HW227837   0.958   5.281   6.036
 8980SOL     OW27838   5.678   2.196   5.979
 8980SOL    HW127839   5.710   2.244   5.898
 8980SOL    HW227840   5.594   2.145   5.956
 8981SOL     OW27841   4.839   2.050   5.643
 8981SOL    HW127842   4.806   2.013   5.729
 8981SOL    HW227843   4.882   2.139   5.659
 8982SOL     OW27844   6.561   2.045   1.550
 8982SOL    HW127845   6.634   2.068   1.486
 8982SOL    HW227846   6.537   1.948   1.540
 8983SOL     OW27847   1.003   5.497   1.368
 8983SOL    HW127848   1.023   5.404   1.400
 8983SOL    HW227849   0.937   5.540   1.431
 8984SOL     OW27850   6.171   0.317   4.526
 8984SOL    HW127851   6.119   0.252   4.472
 8984SOL    HW227852   6.267   0.317   4.496
 8985SOL     OW27853   3.762   2.274   0.961
 8985SOL    HW127854   3.809   2.205   0.905
 8985SOL    HW227855   3.814   2.291   1.044
 8986SOL     OW27856   5.420   4.504   2.606
 8986SOL    HW127857   5.422   4.404   2.594
 8986SOL    HW227858   5.451   4.526   2.699
 8987SOL     OW27859   3.182   0.715   1.051
 8987SOL    HW127860   3.169   0.619   1.026
 8987SOL    HW227861   3.097   0.766   1.036
 8988SOL     OW27862   1.780   5.424   0.299
 8988SOL    HW127863   1.803   5.351   0.363
 8988SOL    HW227864   1.799   5.512   0.340
 8989SOL     OW27865   4.862   3.218   2.738
 8989SOL    HW127866   4.772   3.254   2.764
 8989SOL    HW227867   4.909   3.183   2.819
 8990SOL     OW27868   2.110   6.347   1.549
 8990SOL    HW127869   2.174   6.280   1.512
 8990SOL    HW227870   2.047   6.377   1.477
 8991SOL     OW27871   2.733   2.073   1.225
 8991SOL    HW127872   2.696   2.104   1.313
 8991SOL    HW227873   2.716   1.975   1.215
 8992SOL     OW27874   0.605   3.110   0.704
 8992SOL    HW127875   0.704   3.111   0.714
 8992SOL    HW227876   0.582   3.125   0.607
 8993SOL     OW27877   5.277   2.676   2.622
 8993SOL    HW127878   5.278   2.759   2.566
 8993SOL    HW227879   5.258   2.701   2.717
 8994SOL     OW27880   1.676   5.280   4.278
 8994SOL    HW127881   1.717   5.334   4.352
 8994SOL    HW227882   1.727   5.195   4.266
 8995SOL     OW27883   1.420   2.494   4.972
 8995SOL    HW127884   1.497   2.439   5.005
 8995SOL    HW227885   1.383   2.452   4.889
 8996SOL     OW27886   0.794   3.804   1.924
 8996SOL    HW127887   0.864   3.733   1.916
 8996SOL    HW227888   0.739   3.788   2.006
 8997SOL     OW27889   5.455   0.747   6.471
 8997SOL    HW127890   5.499   0.814   6.411
 8997SOL    HW227891   5.465   0.655   6.431
 8998SOL     OW27892   0.426   1.687   4.763
 8998SOL    HW127893   0.459   1.655   4.851
 8998SOL    HW227894   0.428   1.612   4.697
 8999SOL     OW27895   5.002   0.460   6.771
 8999SOL    HW127896   4.977   0.382   6.713
 8999SOL    HW227897   4.922   0.519   6.784
 9000SOL     OW27898   2.424   3.955   6.562
 9000SOL    HW127899   2.496   4.017   6.532
 9000SOL    HW227900   2.465   3.874   6.604
 9001SOL     OW27901   1.194   4.992   2.798
 9001SOL    HW127902   1.125   5.010   2.868
 9001SOL    HW227903   1.271   4.943   2.839
 9002SOL     OW27904   0.263   5.415   5.795
 9002SOL    HW127905   0.309   5.436   5.708
 9002SOL    HW227906   0.169   5.450   5.793
 9003SOL     OW27907   6.179   2.278   0.994
 9003SOL    HW127908   6.215   2.350   1.053
 9003SOL    HW227909   6.220   2.190   1.020
 9004SOL     OW27910   5.172   6.366   1.982
 9004SOL    HW127911   5.206   6.274   2.005
 9004SOL    HW227912   5.173   6.378   1.883
 9005SOL     OW27913   4.930   2.596   3.661
 9005SOL    HW127914   4.903   2.626   3.569
 9005SOL    HW227915   4.862   2.629   3.727
 9006SOL     OW27916   1.109   5.915   1.119
 9006SOL    HW127917   1.102   5.828   1.069
 9006SOL    HW227918   1.205   5.943   1.124
 9007SOL     OW27919   3.411   5.679   3.855
 9007SOL    HW127920   3.331   5.695   3.797
 9007SOL    HW227921   3.491   5.662   3.797
 9008SOL     OW27922   6.527   4.940   2.569
 9008SOL    HW127923   6.463   5.005   2.527
 9008SOL    HW227924   6.537   4.860   2.511
 9009SOL     OW27925   3.347   6.599   0.663
 9009SOL    HW127926   3.378   6.524   0.722
 9009SOL    HW227927   3.323   6.678   0.720
 9010SOL     OW27928   1.091   6.483   5.071
 9010SOL    HW127929   1.083   6.505   5.168
 9010SOL    HW227930   1.006   6.509   5.024
 9011SOL     OW27931   3.927   2.519   1.424
 9011SOL    HW127932   3.833   2.552   1.432
 9011SOL    HW227933   3.977   2.578   1.360
 9012SOL     OW27934   2.038   5.642   0.450
 9012SOL    HW127935   2.134   5.614   0.438
 9012SOL    HW227936   2.004   5.680   0.364
 9013SOL     OW27937   6.182   5.937   4.808
 9013SOL    HW127938   6.096   5.977   4.777
 9013SOL    HW227939   6.174   5.837   4.807
 9014SOL     OW27940   1.551   1.498   0.585
 9014SOL    HW127941   1.594   1.588   0.575
 9014SOL    HW227942   1.526   1.463   0.495
 9015SOL     OW27943   6.080   0.939   6.921
 9015SOL    HW127944   6.151   0.920   6.853
 9015SOL    HW227945   6.002   0.983   6.877
 9016SOL     OW27946   6.380   6.152   5.795
 9016SOL    HW127947   6.301   6.122   5.849
 9016SOL    HW227948   6.436   6.213   5.850
 9017SOL     OW27949   5.408   1.800   2.885
 9017SOL    HW127950   5.503   1.770   2.882
 9017SOL    HW227951   5.399   1.889   2.840
 9018SOL     OW27952   3.781   1.464   5.496
 9018SOL    HW127953   3.722   1.542   5.515
 9018SOL    HW227954   3.789   1.407   5.578
 9019SOL     OW27955   1.679   6.603   0.599
 9019SOL    HW127956   1.606   6.581   0.663
 9019SOL    HW227957   1.649   6.676   0.537
 9020SOL     OW27958   1.935   3.837   2.213
 9020SOL    HW127959   1.929   3.768   2.141
 9020SOL    HW227960   1.858   3.826   2.276
 9021SOL     OW27961   6.647   6.961   3.727
 9021SOL    HW127962   6.557   6.940   3.692
 9021SOL    HW227963   6.639   7.002   3.818
 9022SOL     OW27964   2.812   0.405   0.502
 9022SOL    HW127965   2.797   0.400   0.403
 9022SOL    HW227966   2.897   0.357   0.525
 9023SOL     OW27967   3.791   3.283   3.440
 9023SOL    HW127968   3.750   3.347   3.375
 9023SOL    HW227969   3.889   3.278   3.424
 9024SOL     OW27970   1.895   5.982   6.059
 9024SOL    HW127971   1.886   5.890   6.096
 9024SOL    HW227972   1.809   6.010   6.016
 9025SOL     OW27973   6.227   6.068   1.473
 9025SOL    HW127974   6.300   6.122   1.431
 9025SOL    HW227975   6.165   6.129   1.523
 9026SOL     OW27976   3.631   3.412   3.704
 9026SOL    HW127977   3.663   3.343   3.639
 9026SOL    HW227978   3.550   3.377   3.752
 9027SOL     OW27979   2.668   1.900   3.619
 9027SOL    HW127980   2.747   1.839   3.626
 9027SOL    HW227981   2.655   1.947   3.706
 9028SOL     OW27982   2.345   4.516   6.328
 9028SOL    HW127983   2.325   4.452   6.402
 9028SOL    HW227984   2.401   4.472   6.259
 9029SOL     OW27985   3.817   5.365   4.649
 9029SOL    HW127986   3.751   5.426   4.693
 9029SOL    HW227987   3.781   5.272   4.645
 9030SOL     OW27988   1.476   0.866   2.508
 9030SOL    HW127989   1.488   0.898   2.602
 9030SOL    HW227990   1.498   0.940   2.444
 9031SOL     OW27991   3.258   5.123   5.854
 9031SOL    HW127992   3.212   5.034   5.842
 9031SOL    HW227993   3.193   5.196   5.835
 9032SOL     OW27994   3.670   2.733   0.639
 9032SOL    HW127995   3.657   2.762   0.733
 9032SOL    HW227996   3.693   2.812   0.582
 9033SOL     OW27997   1.282   3.286   3.733
 9033SOL    HW127998   1.202   3.254   3.683
 9033SOL    HW227999   1.324   3.209   3.781
 9034SOL     OW28000   2.747   6.656   5.229
 9034SOL    HW128001   2.665   6.710   5.248
 9034SOL    HW228002   2.784   6.620   5.315
 9035SOL     OW28003   0.448   6.715   5.251
 9035SOL    HW128004   0.447   6.646   5.323
 9035SOL    HW228005   0.361   6.765   5.252
 9036SOL     OW28006   2.061   2.256   5.421
 9036SOL    HW128007   2.127   2.213   5.358
 9036SOL    HW228008   2.080   2.353   5.428
 9037SOL     OW28009   1.657   3.491   6.891
 9037SOL    HW128010   1.651   3.581   6.848
 9037SOL    HW228011   1.605   3.491   6.976
 9038SOL     OW28012   5.346   0.812   5.679
 9038SOL    HW128013   5.273   0.753   5.646
 9038SOL    HW228014   5.366   0.883   5.610
 9039SOL     OW28015   1.734   4.606   4.915
 9039SOL    HW128016   1.715   4.519   4.870
 9039SOL    HW228017   1.719   4.681   4.850
 9040SOL     OW28018   3.126   1.137   3.684
 9040SOL    HW128019   3.111   1.106   3.590
 9040SOL    HW228020   3.148   1.058   3.741
 9041SOL     OW28021   0.990   1.581   2.172
 9041SOL    HW128022   1.068   1.563   2.113
 9041SOL    HW228023   1.020   1.631   2.254
 9042SOL     OW28024   2.506   6.470   3.645
 9042SOL    HW128025   2.446   6.547   3.668
 9042SOL    HW228026   2.589   6.474   3.700
 9043SOL     OW28027   2.143   1.671   5.702
 9043SOL    HW128028   2.061   1.703   5.656
 9043SOL    HW228029   2.216   1.739   5.694
 9044SOL     OW28030   6.108   1.447   1.415
 9044SOL    HW128031   6.011   1.471   1.426
 9044SOL    HW228032   6.140   1.478   1.326
 9045SOL     OW28033   3.557   1.569   2.157
 9045SOL    HW128034   3.639   1.600   2.204
 9045SOL    HW228035   3.479   1.627   2.181
 9046SOL     OW28036   3.624   4.175   4.769
 9046SOL    HW128037   3.562   4.226   4.710
 9046SOL    HW228038   3.711   4.160   4.722
 9047SOL     OW28039   1.800   4.278   5.492
 9047SOL    HW128040   1.706   4.266   5.459
 9047SOL    HW228041   1.816   4.376   5.508
 9048SOL     OW28042   0.349   3.511   6.047
 9048SOL    HW128043   0.286   3.434   6.056
 9048SOL    HW228044   0.337   3.553   5.957
 9049SOL     OW28045   5.072   6.479   6.548
 9049SOL    HW128046   5.032   6.450   6.635
 9049SOL    HW228047   5.009   6.459   6.473
 9050SOL     OW28048   1.323   5.433   6.220
 9050SOL    HW128049   1.314   5.349   6.272
 9050SOL    HW228050   1.252   5.436   6.149
 9051SOL     OW28051   4.569   6.268   1.171
 9051SOL    HW128052   4.584   6.366   1.158
 9051SOL    HW228053   4.534   6.251   1.264
 9052SOL     OW28054   2.498   4.521   4.406
 9052SOL    HW128055   2.418   4.554   4.357
 9052SOL    HW228056   2.473   4.498   4.500
 9053SOL     OW28057   2.649   2.027   3.894
 9053SOL    HW128058   2.746   2.014   3.915
 9053SOL    HW228059   2.609   2.089   3.962
 9054SOL     OW28060   1.581   0.813   1.778
 9054SOL    HW128061   1.530   0.730   1.755
 9054SOL    HW228062   1.564   0.883   1.708
 9055SOL     OW28063   0.393   4.122   3.682
 9055SOL    HW128064   0.428   4.080   3.766
 9055SOL    HW228065   0.319   4.185   3.705
 9056SOL     OW28066   4.889   0.159   1.645
 9056SOL    HW128067   4.959   0.127   1.582
 9056SOL    HW228068   4.932   0.201   1.725
 9057SOL     OW28069   6.971   4.670   5.898
 9057SOL    HW128070   0.035   4.721   5.876
 9057SOL    HW228071   6.893   4.731   5.899
 9058SOL     OW28072   2.666   1.616   4.079
 9058SOL    HW128073   2.651   1.539   4.142
 9058SOL    HW228074   2.583   1.673   4.077
 9059SOL     OW28075   0.121   0.418   3.270
 9059SOL    HW128076   0.186   0.347   3.245
 9059SOL    HW228077   0.088   0.403   3.363
 9060SOL     OW28078   6.812   3.768   2.666
 9060SOL    HW128079   6.789   3.676   2.697
 9060SOL    HW228080   6.879   3.808   2.728
 9061SOL     OW28081   4.313   5.663   2.933
 9061SOL    HW128082   4.314   5.570   2.969
 9061SOL    HW228083   4.399   5.709   2.957
 9062SOL     OW28084   0.635   4.692   2.327
 9062SOL    HW128085   0.572   4.760   2.289
 9062SOL    HW228086   0.587   4.637   2.395
 9063SOL     OW28087   3.005   0.633   1.954
 9063SOL    HW128088   3.028   0.707   2.018
 9063SOL    HW228089   3.024   0.663   1.861
 9064SOL     OW28090   6.151   4.414   4.490
 9064SOL    HW128091   6.189   4.324   4.509
 9064SOL    HW228092   6.173   4.441   4.396
 9065SOL     OW28093   2.448   5.893   6.174
 9065SOL    HW128094   2.386   5.819   6.202
 9065SOL    HW228095   2.536   5.854   6.147
 9066SOL     OW28096   5.747   0.308   5.929
 9066SOL    HW128097   5.733   0.399   5.889
 9066SOL    HW228098   5.808   0.316   6.008
 9067SOL     OW28099   6.039   5.962   4.358
 9067SOL    HW128100   6.042   5.936   4.455
 9067SOL    HW228101   5.977   6.041   4.348
 9068SOL     OW28102   3.345   0.050   5.300
 9068SOL    HW128103   3.397   0.065   5.384
 9068SOL    HW228104   3.361   0.125   5.236
 9069SOL     OW28105   4.154   2.227   2.360
 9069SOL    HW128106   4.084   2.216   2.431
 9069SOL    HW228107   4.244   2.213   2.400
 9070SOL     OW28108   1.289   2.895   6.318
 9070SOL    HW128109   1.274   2.977   6.263
 9070SOL    HW228110   1.219   2.891   6.390
 9071SOL     OW28111   5.109   7.008   6.630
 9071SOL    HW128112   5.178   0.061   6.619
 9071SOL    HW228113   5.043   0.017   6.699
 9072SOL     OW28114   5.103   6.817   1.101
 9072SOL    HW128115   5.189   6.818   1.050
 9072SOL    HW228116   5.034   6.870   1.051
 9073SOL     OW28117   3.495   6.579   1.449
 9073SOL    HW128118   3.486   6.601   1.547
 9073SOL    HW228119   3.484   6.481   1.436
 9074SOL     OW28120   1.913   0.745   1.506
 9074SOL    HW128121   1.980   0.801   1.457
 9074SOL    HW228122   1.895   0.786   1.596
 9075SOL     OW28123   0.570   0.415   1.850
 9075SOL    HW128124   0.509   0.341   1.880
 9075SOL    HW228125   0.517   0.481   1.796
 9076SOL     OW28126   5.010   1.884   4.206
 9076SOL    HW128127   5.016   1.963   4.267
 9076SOL    HW228128   5.018   1.914   4.111
 9077SOL     OW28129   4.389   1.625   6.525
 9077SOL    HW128130   4.341   1.538   6.532
 9077SOL    HW228131   4.418   1.655   6.615
 9078SOL     OW28132   5.026   4.291   6.766
 9078SOL    HW128133   5.021   4.197   6.799
 9078SOL    HW228134   4.963   4.303   6.689
 9079SOL     OW28135   1.378   6.491   5.122
 9079SOL    HW128136   1.302   6.463   5.063
 9079SOL    HW228137   1.342   6.545   5.199
 9080SOL     OW28138   5.978   2.727   0.184
 9080SOL    HW128139   5.929   2.804   0.224
 9080SOL    HW228140   6.044   2.692   0.250
 9081SOL     OW28141   3.356   0.976   1.766
 9081SOL    HW128142   3.383   1.015   1.677
 9081SOL    HW228143   3.309   0.889   1.751
 9082SOL     OW28144   2.037   6.081   5.264
 9082SOL    HW128145   1.969   6.009   5.250
 9082SOL    HW228146   1.993   6.160   5.307
 9083SOL     OW28147   3.534   4.140   6.378
 9083SOL    HW128148   3.523   4.187   6.291
 9083SOL    HW228149   3.626   4.156   6.413
 9084SOL     OW28150   1.388   2.367   6.613
 9084SOL    HW128151   1.406   2.437   6.544
 9084SOL    HW228152   1.299   2.326   6.596
 9085SOL     OW28153   2.357   5.800   1.129
 9085SOL    HW128154   2.325   5.721   1.076
 9085SOL    HW228155   2.279   5.848   1.167
 9086SOL     OW28156   5.773   4.120   1.275
 9086SOL    HW128157   5.861   4.103   1.320
 9086SOL    HW228158   5.788   4.129   1.176
 9087SOL     OW28159   5.052   3.317   1.950
 9087SOL    HW128160   4.999   3.301   2.034
 9087SOL    HW228161   5.071   3.415   1.941
 9088SOL     OW28162   6.605   6.671   0.929
 9088SOL    HW128163   6.591   6.691   0.832
 9088SOL    HW228164   6.694   6.628   0.942
 9089SOL     OW28165   3.839   5.846   5.592
 9089SOL    HW128166   3.851   5.848   5.691
 9089SOL    HW228167   3.921   5.883   5.548
 9090SOL     OW28168   5.049   0.126   3.435
 9090SOL    HW128169   5.112   0.071   3.380
 9090SOL    HW228170   4.977   0.164   3.377
 9091SOL     OW28171   2.611   3.509   0.533
 9091SOL    HW128172   2.667   3.582   0.570
 9091SOL    HW228173   2.667   3.427   0.519
 9092SOL     OW28174   0.556   1.351   6.961
 9092SOL    HW128175   0.605   1.349   6.874
 9092SOL    HW228176   0.457   1.350   6.943
 9093SOL     OW28177   1.409   6.151   6.944
 9093SOL    HW128178   1.459   6.232   6.975
 9093SOL    HW228179   1.429   6.136   6.847
 9094SOL     OW28180   0.767   5.164   2.852
 9094SOL    HW128181   0.762   5.131   2.757
 9094SOL    HW228182   0.710   5.246   2.861
 9095SOL     OW28183   3.951   3.778   6.291
 9095SOL    HW128184   3.983   3.847   6.227
 9095SOL    HW228185   3.932   3.820   6.380
 9096SOL     OW28186   5.769   3.695   2.779
 9096SOL    HW128187   5.811   3.623   2.724
 9096SOL    HW228188   5.724   3.761   2.719
 9097SOL     OW28189   0.322   3.080   6.734
 9097SOL    HW128190   0.314   3.158   6.672
 9097SOL    HW228191   0.237   3.071   6.787
 9098SOL     OW28192   3.577   2.671   6.733
 9098SOL    HW128193   3.503   2.641   6.672
 9098SOL    HW228194   3.571   2.770   6.746
 9099SOL     OW28195   3.655   3.959   0.721
 9099SOL    HW128196   3.703   3.883   0.764
 9099SOL    HW228197   3.569   3.927   0.682
 9100SOL     OW28198   1.201   3.587   3.063
 9100SOL    HW128199   1.174   3.561   2.970
 9100SOL    HW228200   1.131   3.557   3.128
 9101SOL     OW28201   2.240   2.988   3.340
 9101SOL    HW128202   2.190   3.062   3.293
 9101SOL    HW228203   2.236   3.002   3.439
 9102SOL     OW28204   3.568   6.635   1.975
 9102SOL    HW128205   3.586   6.724   2.017
 9102SOL    HW228206   3.469   6.622   1.967
 9103SOL     OW28207   6.463   3.919   0.128
 9103SOL    HW128208   6.518   3.844   0.092
 9103SOL    HW228209   6.416   3.889   0.211
 9104SOL     OW28210   4.511   6.559   2.871
 9104SOL    HW128211   4.516   6.506   2.956
 9104SOL    HW228212   4.603   6.584   2.842
 9105SOL     OW28213   1.829   1.131   0.764
 9105SOL    HW128214   1.812   1.185   0.681
 9105SOL    HW228215   1.924   1.102   0.766
 9106SOL     OW28216   6.255   3.993   6.991
 9106SOL    HW128217   6.205   4.046   0.041
 9106SOL    HW228218   6.352   3.988   7.018
 9107SOL     OW28219   3.255   0.325   5.893
 9107SOL    HW128220   3.191   0.393   5.930
 9107SOL    HW228221   3.279   0.259   5.964
 9108SOL     OW28222   5.060   3.770   5.844
 9108SOL    HW128223   5.133   3.756   5.910
 9108SOL    HW228224   5.018   3.860   5.859
 9109SOL     OW28225   1.406   2.781   2.944
 9109SOL    HW128226   1.362   2.870   2.929
 9109SOL    HW228227   1.348   2.709   2.906
 9110SOL     OW28228   1.928   4.384   4.210
 9110SOL    HW128229   1.966   4.356   4.123
 9110SOL    HW228230   1.986   4.351   4.285
 9111SOL     OW28231   4.123   3.017   0.094
 9111SOL    HW128232   4.193   3.064   0.148
 9111SOL    HW228233   4.136   3.037   7.016
 9112SOL     OW28234   0.946   4.949   5.311
 9112SOL    HW128235   0.928   4.917   5.218
 9112SOL    HW228236   0.943   5.049   5.313
 9113SOL     OW28237   4.623   6.526   1.141
 9113SOL    HW128238   4.594   6.586   1.066
 9113SOL    HW228239   4.713   6.554   1.173
 9114SOL     OW28240   1.178   4.508   1.460
 9114SOL    HW128241   1.114   4.570   1.505
 9114SOL    HW228242   1.260   4.497   1.516
 9115SOL     OW28243   1.254   5.110   5.488
 9115SOL    HW128244   1.329   5.161   5.528
 9115SOL    HW228245   1.216   5.047   5.556
 9116SOL     OW28246   6.191   1.193   0.115
 9116SOL    HW128247   6.139   1.126   0.061
 9116SOL    HW228248   6.215   1.271   0.056
 9117SOL     OW28249   5.673   2.753   0.334
 9117SOL    HW128250   5.718   2.828   0.384
 9117SOL    HW228251   5.689   2.667   0.381
 9118SOL     OW28252   6.488   5.024   0.185
 9118SOL    HW128253   6.558   5.094   0.196
 9118SOL    HW228254   6.434   5.043   0.103
 9119SOL     OW28255   5.155   0.744   1.316
 9119SOL    HW128256   5.165   0.844   1.319
 9119SOL    HW228257   5.102   0.713   1.395
 9120SOL     OW28258   6.158   2.125   5.604
 9120SOL    HW128259   6.196   2.052   5.660
 9120SOL    HW228260   6.233   2.176   5.561
 9121SOL     OW28261   2.234   2.299   6.003
 9121SOL    HW128262   2.217   2.283   5.905
 9121SOL    HW228263   2.309   2.365   6.013
 9122SOL     OW28264   1.916   4.409   2.208
 9122SOL    HW128265   1.970   4.388   2.290
 9122SOL    HW228266   1.857   4.488   2.226
 9123SOL     OW28267   3.433   0.190   4.392
 9123SOL    HW128268   3.487   0.273   4.377
 9123SOL    HW228269   3.476   0.113   4.345
 9124SOL     OW28270   5.325   6.593   6.536
 9124SOL    HW128271   5.358   6.603   6.442
 9124SOL    HW228272   5.228   6.568   6.536
 9125SOL     OW28273   5.360   4.362   1.636
 9125SOL    HW128274   5.371   4.340   1.539
 9125SOL    HW228275   5.267   4.342   1.665
 9126SOL     OW28276   5.912   2.528   1.146
 9126SOL    HW128277   5.923   2.444   1.094
 9126SOL    HW228278   5.860   2.594   1.092
 9127SOL     OW28279   6.645   1.002   6.140
 9127SOL    HW128280   6.555   1.047   6.138
 9127SOL    HW228281   6.714   1.063   6.101
 9128SOL     OW28282   5.212   1.446   5.328
 9128SOL    HW128283   5.160   1.525   5.295
 9128SOL    HW228284   5.150   1.368   5.340
 9129SOL     OW28285   0.131   2.365   0.823
 9129SOL    HW128286   0.231   2.361   0.811
 9129SOL    HW228287   0.087   2.316   0.748
 9130SOL     OW28288   0.123   3.296   0.885
 9130SOL    HW128289   0.139   3.394   0.894
 9130SOL    HW228290   0.211   3.249   0.872
 9131SOL     OW28291   6.410   2.789   5.471
 9131SOL    HW128292   6.485   2.855   5.471
 9131SOL    HW228293   6.333   2.826   5.418
 9132SOL     OW28294   0.680   5.111   4.307
 9132SOL    HW128295   0.711   5.203   4.285
 9132SOL    HW228296   0.714   5.084   4.397
 9133SOL     OW28297   4.009   5.862   1.931
 9133SOL    HW128298   3.995   5.959   1.916
 9133SOL    HW228299   3.921   5.814   1.921
 9134SOL     OW28300   4.985   5.655   0.335
 9134SOL    HW128301   4.948   5.713   0.408
 9134SOL    HW228302   4.934   5.569   0.331
 9135SOL     OW28303   6.657   6.799   1.443
 9135SOL    HW128304   6.644   6.713   1.491
 9135SOL    HW228305   6.690   6.868   1.507
 9136SOL     OW28306   5.566   5.309   5.762
 9136SOL    HW128307   5.505   5.287   5.686
 9136SOL    HW228308   5.511   5.328   5.844
 9137SOL     OW28309   4.969   1.869   1.228
 9137SOL    HW128310   5.044   1.931   1.204
 9137SOL    HW228311   5.006   1.790   1.279
 9138SOL     OW28312   0.398   5.725   6.119
 9138SOL    HW128313   0.374   5.795   6.052
 9138SOL    HW228314   0.414   5.769   6.208
 9139SOL     OW28315   2.461   1.557   4.731
 9139SOL    HW128316   2.460   1.497   4.650
 9139SOL    HW228317   2.438   1.503   4.812
 9140SOL     OW28318   6.291   3.419   3.011
 9140SOL    HW128319   6.289   3.344   3.077
 9140SOL    HW228320   6.331   3.386   2.925
 9141SOL     OW28321   5.858   0.405   6.976
 9141SOL    HW128322   5.777   0.364   6.934
 9141SOL    HW228323   5.857   0.386   0.056
 9142SOL     OW28324   0.332   2.443   1.177
 9142SOL    HW128325   0.311   2.355   1.135
 9142SOL    HW228326   0.281   2.453   1.262
 9143SOL     OW28327   6.181   3.172   0.694
 9143SOL    HW128328   6.215   3.264   0.712
 9143SOL    HW228329   6.227   3.108   0.756
 9144SOL     OW28330   2.477   5.283   5.324
 9144SOL    HW128331   2.553   5.343   5.299
 9144SOL    HW228332   2.450   5.229   5.245
 9145SOL     OW28333   0.316   5.553   0.140
 9145SOL    HW128334   0.319   5.632   0.079
 9145SOL    HW228335   0.318   5.584   0.235
 9146SOL     OW28336   5.490   3.218   2.865
 9146SOL    HW128337   5.483   3.120   2.847
 9146SOL    HW228338   5.473   3.235   2.962
 9147SOL     OW28339   6.283   0.779   4.597
 9147SOL    HW128340   6.378   0.781   4.631
 9147SOL    HW228341   6.265   0.863   4.545
 9148SOL     OW28342   4.958   5.657   0.725
 9148SOL    HW128343   4.870   5.613   0.710
 9148SOL    HW228344   4.957   5.749   0.685
 9149SOL     OW28345   6.119   3.724   3.801
 9149SOL    HW128346   6.069   3.775   3.870
 9149SOL    HW228347   6.156   3.640   3.841
 9150SOL     OW28348   3.160   5.206   1.706
 9150SOL    HW128349   3.106   5.272   1.654
 9150SOL    HW228350   3.129   5.113   1.684
 9151SOL     OW28351   1.733   4.462   3.795
 9151SOL    HW128352   1.774   4.454   3.704
 9151SOL    HW228353   1.732   4.558   3.823
 9152SOL     OW28354   1.842   4.254   4.876
 9152SOL    HW128355   1.765   4.205   4.916
 9152SOL    HW228356   1.923   4.244   4.934
 9153SOL     OW28357   1.550   3.395   0.119
 9153SOL    HW128358   1.452   3.374   0.112
 9153SOL    HW228359   1.602   3.310   0.115
 9154SOL     OW28360   4.195   4.394   6.271
 9154SOL    HW128361   4.224   4.405   6.366
 9154SOL    HW228362   4.199   4.298   6.245
 9155SOL     OW28363   1.622   4.261   1.901
 9155SOL    HW128364   1.718   4.275   1.875
 9155SOL    HW228365   1.574   4.216   1.826
 9156SOL     OW28366   1.506   2.526   0.763
 9156SOL    HW128367   1.484   2.461   0.836
 9156SOL    HW228368   1.422   2.571   0.732
 9157SOL     OW28369   6.937   4.387   5.977
 9157SOL    HW128370   6.954   4.481   5.949
 9157SOL    HW228371   6.949   4.326   5.899
 9158SOL     OW28372   5.898   2.888   4.676
 9158SOL    HW128373   5.935   2.945   4.749
 9158SOL    HW228374   5.865   2.802   4.715
 9159SOL     OW28375   1.811   0.927   2.163
 9159SOL    HW128376   1.829   0.954   2.069
 9159SOL    HW228377   1.898   0.919   2.213
 9160SOL     OW28378   5.760   6.929   4.981
 9160SOL    HW128379   5.804   6.969   4.900
 9160SOL    HW228380   5.742   6.832   4.964
 9161SOL     OW28381   5.145   4.051   4.797
 9161SOL    HW128382   5.138   4.099   4.710
 9161SOL    HW228383   5.054   4.017   4.824
 9162SOL     OW28384   4.338   1.507   4.076
 9162SOL    HW128385   4.283   1.538   3.999
 9162SOL    HW228386   4.366   1.585   4.131
 9163SOL     OW28387   1.650   2.707   4.451
 9163SOL    HW128388   1.740   2.662   4.456
 9163SOL    HW228389   1.642   2.753   4.362
 9164SOL     OW28390   2.327   0.269   6.762
 9164SOL    HW128391   2.358   0.180   6.794
 9164SOL    HW228392   2.229   0.264   6.739
 9165SOL     OW28393   6.154   1.799   5.874
 9165SOL    HW128394   6.208   1.718   5.854
 9165SOL    HW228395   6.178   1.873   5.811
 9166SOL     OW28396   3.949   6.150   1.813
 9166SOL    HW128397   4.048   6.153   1.806
 9166SOL    HW228398   3.910   6.230   1.766
 9167SOL     OW28399   1.950   2.388   6.528
 9167SOL    HW128400   1.907   2.447   6.459
 9167SOL    HW228401   2.048   2.383   6.511
 9168SOL     OW28402   6.905   0.124   6.488
 9168SOL    HW128403   6.859   0.045   6.529
 9168SOL    HW228404   6.937   0.101   6.396
 9169SOL     OW28405   5.808   0.303   5.243
 9169SOL    HW128406   5.812   0.276   5.147
 9169SOL    HW228407   5.899   0.298   5.284
 9170SOL     OW28408   1.590   5.956   0.078
 9170SOL    HW128409   1.539   5.993   7.018
 9170SOL    HW228410   1.526   5.908   0.138
 9171SOL     OW28411   4.059   4.923   0.858
 9171SOL    HW128412   3.981   4.919   0.796
 9171SOL    HW228413   4.079   5.018   0.881
 9172SOL     OW28414   4.206   0.914   2.214
 9172SOL    HW128415   4.204   0.843   2.284
 9172SOL    HW228416   4.119   0.964   2.215
 9173SOL     OW28417   6.695   3.481   6.031
 9173SOL    HW128418   6.635   3.418   6.080
 9173SOL    HW228419   6.670   3.483   5.934
 9174SOL     OW28420   5.749   4.362   1.407
 9174SOL    HW128421   5.715   4.429   1.341
 9174SOL    HW228422   5.732   4.270   1.373
 9175SOL     OW28423   0.239   6.992   5.702
 9175SOL    HW128424   0.338   7.005   5.700
 9175SOL    HW228425   0.199   0.029   5.774
 9176SOL     OW28426   2.286   1.080   3.865
 9176SOL    HW128427   2.242   1.134   3.937
 9176SOL    HW228428   2.378   1.115   3.847
 9177SOL     OW28429   0.609   4.764   4.710
 9177SOL    HW128430   0.701   4.742   4.745
 9177SOL    HW228431   0.557   4.679   4.697
 9178SOL     OW28432   1.502   5.586   0.510
 9178SOL    HW128433   1.510   5.518   0.583
 9178SOL    HW228434   1.521   5.677   0.548
 9179SOL     OW28435   2.399   4.283   3.642
 9179SOL    HW128436   2.304   4.311   3.653
 9179SOL    HW228437   2.450   4.310   3.724
 9180SOL     OW28438   6.598   2.798   3.306
 9180SOL    HW128439   6.630   2.870   3.367
 9180SOL    HW228440   6.523   2.832   3.249
 9181SOL     OW28441   5.198   2.414   5.272
 9181SOL    HW128442   5.133   2.462   5.213
 9181SOL    HW228443   5.152   2.336   5.316
 9182SOL     OW28444   3.019   6.400   2.169
 9182SOL    HW128445   3.051   6.492   2.191
 9182SOL    HW228446   3.077   6.361   2.097
 9183SOL     OW28447   4.757   5.081   0.149
 9183SOL    HW128448   4.674   5.097   0.203
 9183SOL    HW228449   4.823   5.029   0.205
 9184SOL     OW28450   4.727   2.060   0.242
 9184SOL    HW128451   4.683   2.002   0.174
 9184SOL    HW228452   4.820   2.027   0.259
 9185SOL     OW28453   4.928   0.120   5.035
 9185SOL    HW128454   4.999   0.057   5.002
 9185SOL    HW228455   4.849   0.115   4.975
 9186SOL     OW28456   5.616   6.452   4.678
 9186SOL    HW128457   5.622   6.534   4.622
 9186SOL    HW228458   5.529   6.451   4.727
 9187SOL     OW28459   2.633   1.996   0.596
 9187SOL    HW128460   2.561   1.927   0.585
 9187SOL    HW228461   2.653   2.037   0.507
 9188SOL     OW28462   1.436   6.641   0.734
 9188SOL    HW128463   1.444   6.669   0.829
 9188SOL    HW228464   1.463   6.716   0.674
 9189SOL     OW28465   2.523   6.062   1.713
 9189SOL    HW128466   2.603   6.106   1.671
 9189SOL    HW228467   2.467   6.132   1.757
 9190SOL     OW28468   2.241   4.662   5.531
 9190SOL    HW128469   2.199   4.742   5.487
 9190SOL    HW228470   2.331   4.647   5.492
 9191SOL     OW28471   6.674   1.655   6.277
 9191SOL    HW128472   6.696   1.562   6.304
 9191SOL    HW228473   6.722   1.720   6.336
 9192SOL     OW28474   1.027   2.615   6.321
 9192SOL    HW128475   1.090   2.634   6.396
 9192SOL    HW228476   1.066   2.545   6.261
 9193SOL     OW28477   3.492   4.252   6.129
 9193SOL    HW128478   3.540   4.186   6.071
 9193SOL    HW228479   3.394   4.234   6.126
 9194SOL     OW28480   3.470   1.071   3.691
 9194SOL    HW128481   3.389   1.021   3.723
 9194SOL    HW228482   3.462   1.167   3.717
 9195SOL     OW28483   0.905   2.028   3.125
 9195SOL    HW128484   0.900   1.935   3.088
 9195SOL    HW228485   0.888   2.094   3.051
 9196SOL     OW28486   5.775   0.105   2.896
 9196SOL    HW128487   5.767   0.106   2.996
 9196SOL    HW228488   5.698   0.056   2.857
 9197SOL     OW28489   1.868   4.851   1.484
 9197SOL    HW128490   1.967   4.864   1.485
 9197SOL    HW228491   1.824   4.928   1.531
 9198SOL     OW28492   5.976   4.821   6.956
 9198SOL    HW128493   6.074   4.838   6.961
 9198SOL    HW228494   5.955   4.767   6.874
 9199SOL     OW28495   0.759   3.694   5.064
 9199SOL    HW128496   0.697   3.694   5.142
 9199SOL    HW228497   0.759   3.603   5.022
 9200SOL     OW28498   3.018   6.121   6.807
 9200SOL    HW128499   2.927   6.080   6.807
 9200SOL    HW228500   3.039   6.157   6.898
 9201SOL     OW28501   0.020   3.362   0.551
 9201SOL    HW128502   0.101   3.356   0.492
 9201SOL    HW228503   0.020   3.451   0.597
 9202SOL     OW28504   0.869   6.653   2.677
 9202SOL    HW128505   0.959   6.621   2.649
 9202SOL    HW228506   0.842   6.731   2.621
 9203SOL     OW28507   0.051   3.513   5.781
 9203SOL    HW128508   6.978   3.553   5.791
 9203SOL    HW228509   0.082   3.478   5.870
 9204SOL     OW28510   4.779   2.786   5.694
 9204SOL    HW128511   4.869   2.828   5.708
 9204SOL    HW228512   4.715   2.854   5.659
 9205SOL     OW28513   5.244   6.139   3.307
 9205SOL    HW128514   5.193   6.225   3.296
 9205SOL    HW228515   5.284   6.112   3.219
 9206SOL     OW28516   3.385   5.123   3.704
 9206SOL    HW128517   3.325   5.178   3.762
 9206SOL    HW228518   3.330   5.063   3.646
 9207SOL     OW28519   4.946   4.867   5.737
 9207SOL    HW128520   4.949   4.809   5.656
 9207SOL    HW228521   5.023   4.932   5.735
 9208SOL     OW28522   6.026   4.591   3.827
 9208SOL    HW128523   6.037   4.691   3.831
 9208SOL    HW228524   6.045   4.560   3.734
 9209SOL     OW28525   4.416   0.452   0.218
 9209SOL    HW128526   4.492   0.441   0.282
 9209SOL    HW228527   4.352   0.520   0.255
 9210SOL     OW28528   0.239   1.645   2.088
 9210SOL    HW128529   0.215   1.657   2.184
 9210SOL    HW228530   0.338   1.649   2.077
 9211SOL     OW28531   6.793   2.805   6.155
 9211SOL    HW128532   6.774   2.900   6.132
 9211SOL    HW228533   6.805   2.752   6.071
 9212SOL     OW28534   4.553   5.607   4.050
 9212SOL    HW128535   4.631   5.588   4.110
 9212SOL    HW228536   4.538   5.528   3.991
 9213SOL     OW28537   5.595   3.551   5.081
 9213SOL    HW128538   5.560   3.483   5.017
 9213SOL    HW228539   5.557   3.533   5.172
 9214SOL     OW28540   6.990   3.983   6.116
 9214SOL    HW128541   6.942   4.002   6.031
 9214SOL    HW228542   0.045   3.916   6.099
 9215SOL     OW28543   1.523   3.132   1.759
 9215SOL    HW128544   1.622   3.146   1.761
 9215SOL    HW228545   1.504   3.034   1.749
 9216SOL     OW28546   3.726   0.236   2.377
 9216SOL    HW128547   3.796   0.180   2.333
 9216SOL    HW228548   3.645   0.180   2.393
 9217SOL     OW28549   6.919   3.071   6.686
 9217SOL    HW128550   6.849   3.135   6.716
 9217SOL    HW228551   6.938   3.086   6.589
 9218SOL     OW28552   2.174   1.160   0.032
 9218SOL    HW128553   2.129   1.118   6.971
 9218SOL    HW228554   2.105   1.199   0.093
 9219SOL     OW28555   5.810   3.239   0.415
 9219SOL    HW128556   5.832   3.208   0.323
 9219SOL    HW228557   5.847   3.174   0.482
 9220SOL     OW28558   1.221   6.325   1.594
 9220SOL    HW128559   1.199   6.355   1.687
 9220SOL    HW228560   1.227   6.405   1.534
 9221SOL     OW28561   2.631   0.603   3.294
 9221SOL    HW128562   2.694   0.613   3.217
 9221SOL    HW228563   2.538   0.593   3.261
 9222SOL     OW28564   2.690   6.250   6.170
 9222SOL    HW128565   2.740   6.227   6.253
 9222SOL    HW228566   2.592   6.258   6.191
 9223SOL     OW28567   0.681   2.160   3.770
 9223SOL    HW128568   0.765   2.107   3.783
 9223SOL    HW228569   0.602   2.103   3.793
 9224SOL     OW28570   1.118   5.182   4.172
 9224SOL    HW128571   1.116   5.160   4.075
 9224SOL    HW228572   1.164   5.270   4.186
 9225SOL     OW28573   2.708   6.002   6.597
 9225SOL    HW128574   2.641   5.928   6.598
 9225SOL    HW228575   2.672   6.080   6.648
 9226SOL     OW28576   6.396   6.860   2.040
 9226SOL    HW128577   6.430   6.949   2.070
 9226SOL    HW228578   6.324   6.830   2.103
 9227SOL     OW28579   1.821   5.869   0.892
 9227SOL    HW128580   1.802   5.846   0.988
 9227SOL    HW228581   1.893   5.808   0.858
 9228SOL     OW28582   1.969   1.784   6.082
 9228SOL    HW128583   1.924   1.787   6.171
 9228SOL    HW228584   2.011   1.694   6.069
 9229SOL     OW28585   0.867   5.613   5.188
 9229SOL    HW128586   0.879   5.553   5.267
 9229SOL    HW228587   0.884   5.708   5.215
 9230SOL     OW28588   5.432   2.620   3.016
 9230SOL    HW128589   5.407   2.566   3.096
 9230SOL    HW228590   5.522   2.660   3.029
 9231SOL     OW28591   0.454   3.061   4.866
 9231SOL    HW128592   0.433   2.964   4.880
 9231SOL    HW228593   0.405   3.094   4.785
 9232SOL     OW28594   4.136   5.341   0.619
 9232SOL    HW128595   4.195   5.307   0.692
 9232SOL    HW228596   4.185   5.410   0.566
 9233SOL     OW28597   5.833   5.359   1.832
 9233SOL    HW128598   5.779   5.311   1.901
 9233SOL    HW228599   5.910   5.405   1.876
 9234SOL     OW28600   3.420   5.930   6.427
 9234SOL    HW128601   3.452   5.887   6.512
 9234SOL    HW228602   3.434   5.867   6.351
 9235SOL     OW28603   1.579   3.248   2.864
 9235SOL    HW128604   1.618   3.336   2.890
 9235SOL    HW228605   1.635   3.174   2.901
 9236SOL     OW28606   2.109   4.530   5.954
 9236SOL    HW128607   2.085   4.495   5.863
 9236SOL    HW228608   2.161   4.461   6.003
 9237SOL     OW28609   1.324   6.021   4.387
 9237SOL    HW128610   1.403   5.993   4.331
 9237SOL    HW228611   1.247   5.961   4.367
 9238SOL     OW28612   2.812   1.830   0.185
 9238SOL    HW128613   2.829   1.863   0.278
 9238SOL    HW228614   2.895   1.789   0.149
 9239SOL     OW28615   6.739   4.168   6.801
 9239SOL    HW128616   6.824   4.158   6.749
 9239SOL    HW228617   6.679   4.090   6.783
 9240SOL     OW28618   4.707   1.674   1.539
 9240SOL    HW128619   4.701   1.691   1.441
 9240SOL    HW228620   4.641   1.604   1.565
 9241SOL     OW28621   0.835   5.358   5.905
 9241SOL    HW128622   0.813   5.398   5.994
 9241SOL    HW228623   0.754   5.362   5.846
 9242SOL     OW28624   1.042   4.963   6.976
 9242SOL    HW128625   0.952   4.972   7.018
 9242SOL    HW228626   1.085   5.053   6.968
 9243SOL     OW28627   6.814   6.520   1.565
 9243SOL    HW128628   6.766   6.464   1.632
 9243SOL    HW228629   6.788   6.491   1.472
 9244SOL     OW28630   4.293   5.332   6.530
 9244SOL    HW128631   4.215   5.344   6.468
 9244SOL    HW228632   4.362   5.401   6.512
 9245SOL     OW28633   1.566   4.529   2.972
 9245SOL    HW128634   1.525   4.560   3.058
 9245SOL    HW228635   1.535   4.436   2.952
 9246SOL     OW28636   0.078   5.411   2.346
 9246SOL    HW128637   0.100   5.314   2.349
 9246SOL    HW228638   0.107   5.454   2.432
 9247SOL     OW28639   0.822   7.005   2.761
 9247SOL    HW128640   0.855   0.073   2.798
 9247SOL    HW228641   0.837   6.932   2.827
 9248SOL     OW28642   2.269   1.778   4.682
 9248SOL    HW128643   2.185   1.757   4.631
 9248SOL    HW228644   2.315   1.693   4.707
 9249SOL     OW28645   3.572   3.465   0.130
 9249SOL    HW128646   3.618   3.552   0.111
 9249SOL    HW228647   3.586   3.440   0.226
 9250SOL     OW28648   5.568   3.082   3.621
 9250SOL    HW128649   5.514   3.136   3.556
 9250SOL    HW228650   5.508   3.051   3.695
 9251SOL     OW28651   3.748   1.810   2.486
 9251SOL    HW128652   3.800   1.752   2.549
 9251SOL    HW228653   3.772   1.906   2.500
 9252SOL     OW28654   5.150   0.279   4.185
 9252SOL    HW128655   5.226   0.259   4.248
 9252SOL    HW228656   5.174   0.245   4.094
 9253SOL     OW28657   5.676   6.416   5.004
 9253SOL    HW128658   5.748   6.386   5.066
 9253SOL    HW228659   5.693   6.510   4.975
 9254SOL     OW28660   6.698   4.411   2.965
 9254SOL    HW128661   6.781   4.374   2.922
 9254SOL    HW228662   6.683   4.364   3.052
 9255SOL     OW28663   4.730   3.782   0.395
 9255SOL    HW128664   4.762   3.755   0.486
 9255SOL    HW228665   4.806   3.778   0.330
 9256SOL     OW28666   3.698   7.007   2.671
 9256SOL    HW128667   3.705   6.907   2.673
 9256SOL    HW228668   3.788   0.029   2.687
 9257SOL     OW28669   0.008   3.510   3.206
 9257SOL    HW128670   6.964   3.580   3.240
 9257SOL    HW228671   6.978   3.449   3.143
 9258SOL     OW28672   3.187   3.155   3.154
 9258SOL    HW128673   3.129   3.186   3.079
 9258SOL    HW228674   3.276   3.128   3.118
 9259SOL     OW28675   0.923   2.448   0.434
 9259SOL    HW128676   0.860   2.455   0.357
 9259SOL    HW228677   0.938   2.539   0.473
 9260SOL     OW28678   5.523   1.567   4.850
 9260SOL    HW128679   5.454   1.504   4.813
 9260SOL    HW228680   5.609   1.554   4.802
 9261SOL     OW28681   4.028   0.363   0.263
 9261SOL    HW128682   4.010   0.393   0.357
 9261SOL    HW228683   4.074   0.437   0.213
 9262SOL     OW28684   6.892   3.998   5.844
 9262SOL    HW128685   6.876   3.923   5.781
 9262SOL    HW228686   6.956   4.064   5.803
 9263SOL     OW28687   5.102   6.429   0.947
 9263SOL    HW128688   5.133   6.383   1.030
 9263SOL    HW228689   5.181   6.448   0.888
 9264SOL     OW28690   4.559   4.762   0.127
 9264SOL    HW128691   4.646   4.767   0.078
 9264SOL    HW228692   4.499   4.836   0.095
 9265SOL     OW28693   3.950   2.039   0.170
 9265SOL    HW128694   3.973   2.117   0.228
 9265SOL    HW228695   3.887   2.069   0.098
 9266SOL     OW28696   2.379   0.070   1.532
 9266SOL    HW128697   2.306   0.029   1.586
 9266SOL    HW228698   2.340   0.122   1.456
 9267SOL     OW28699   6.226   2.729   4.782
 9267SOL    HW128700   6.325   2.716   4.781
 9267SOL    HW228701   6.199   2.780   4.700
 9268SOL     OW28702   1.070   5.314   1.934
 9268SOL    HW128703   1.095   5.288   1.841
 9268SOL    HW228704   1.133   5.271   1.998
 9269SOL     OW28705   3.123   1.224   6.183
 9269SOL    HW128706   3.075   1.142   6.214
 9269SOL    HW228707   3.188   1.200   6.111
 9270SOL     OW28708   4.177   6.377   5.986
 9270SOL    HW128709   4.222   6.466   5.990
 9270SOL    HW228710   4.088   6.385   5.941
 9271SOL     OW28711   6.626   0.069   0.125
 9271SOL    HW128712   6.544   0.109   0.084
 9271SOL    HW228713   6.600   0.013   0.203
 9272SOL     OW28714   1.397   5.601   4.413
 9272SOL    HW128715   1.439   5.689   4.391
 9272SOL    HW228716   1.393   5.590   4.512
 9273SOL     OW28717   6.124   6.359   3.703
 9273SOL    HW128718   6.223   6.367   3.711
 9273SOL    HW228719   6.098   6.262   3.700
 9274SOL     OW28720   6.566   2.312   6.706
 9274SOL    HW128721   6.611   2.393   6.671
 9274SOL    HW228722   6.498   2.338   6.775
 9275SOL     OW28723   0.170   1.422   6.608
 9275SOL    HW128724   0.107   1.482   6.560
 9275SOL    HW228725   0.259   1.424   6.562
 9276SOL     OW28726   2.230   3.854   1.868
 9276SOL    HW128727   2.283   3.787   1.816
 9276SOL    HW228728   2.137   3.819   1.881
 9277SOL     OW28729   4.933   3.249   6.876
 9277SOL    HW128730   4.858   3.274   6.815
 9277SOL    HW228731   5.006   3.317   6.869
 9278SOL     OW28732   1.397   0.462   6.041
 9278SOL    HW128733   1.473   0.397   6.042
 9278SOL    HW228734   1.350   0.460   6.130
 9279SOL     OW28735   4.293   0.535   1.583
 9279SOL    HW128736   4.250   0.625   1.588
 9279SOL    HW228737   4.315   0.503   1.675
 9280SOL     OW28738   1.959   1.893   3.565
 9280SOL    HW128739   1.902   1.927   3.489
 9280SOL    HW228740   2.055   1.893   3.536
 9281SOL     OW28741   2.548   4.754   0.376
 9281SOL    HW128742   2.642   4.761   0.343
 9281SOL    HW228743   2.546   4.769   0.475
 9282SOL     OW28744   4.558   1.364   4.042
 9282SOL    HW128745   4.467   1.404   4.055
 9282SOL    HW228746   4.618   1.393   4.117
 9283SOL     OW28747   5.372   0.638   3.590
 9283SOL    HW128748   5.291   0.682   3.629
 9283SOL    HW228749   5.360   0.630   3.491
 9284SOL     OW28750   3.660   3.329   5.647
 9284SOL    HW128751   3.710   3.415   5.656
 9284SOL    HW228752   3.685   3.268   5.722
 9285SOL     OW28753   5.119   3.047   1.077
 9285SOL    HW128754   5.130   2.947   1.083
 9285SOL    HW228755   5.027   3.068   1.044
 9286SOL     OW28756   5.266   5.878   0.402
 9286SOL    HW128757   5.218   5.917   0.481
 9286SOL    HW228758   5.331   5.945   0.366
 9287SOL     OW28759   3.426   4.768   6.623
 9287SOL    HW128760   3.465   4.762   6.715
 9287SOL    HW228761   3.331   4.734   6.626
 9288SOL     OW28762   4.992   1.341   3.879
 9288SOL    HW128763   5.057   1.265   3.880
 9288SOL    HW228764   4.904   1.309   3.845
 9289SOL     OW28765   3.916   1.098   2.239
 9289SOL    HW128766   3.867   1.096   2.326
 9289SOL    HW228767   3.921   1.006   2.201
 9290SOL     OW28768   5.259   1.372   3.021
 9290SOL    HW128769   5.215   1.343   2.936
 9290SOL    HW228770   5.304   1.294   3.064
 9291SOL     OW28771   1.716   6.412   4.270
 9291SOL    HW128772   1.699   6.502   4.229
 9291SOL    HW228773   1.808   6.409   4.308
 9292SOL     OW28774   0.800   3.406   0.150
 9292SOL    HW128775   0.876   3.381   0.090
 9292SOL    HW228776   0.833   3.415   0.244
 9293SOL     OW28777   5.232   3.615   6.958
 9293SOL    HW128778   5.327   3.629   6.930
 9293SOL    HW228779   5.187   3.555   6.892
 9294SOL     OW28780   4.191   0.604   5.332
 9294SOL    HW128781   4.281   0.562   5.329
 9294SOL    HW228782   4.183   0.659   5.416
 9295SOL     OW28783   5.665   2.392   4.239
 9295SOL    HW128784   5.580   2.368   4.193
 9295SOL    HW228785   5.659   2.367   4.336
 9296SOL     OW28786   0.800   6.687   0.096
 9296SOL    HW128787   0.876   6.641   0.143
 9296SOL    HW228788   0.758   6.623   0.032
 9297SOL     OW28789   6.555   0.445   0.796
 9297SOL    HW128790   6.603   0.367   0.756
 9297SOL    HW228791   6.622   0.504   0.842
 9298SOL     OW28792   0.648   0.399   5.314
 9298SOL    HW128793   0.634   0.357   5.224
 9298SOL    HW228794   0.734   0.367   5.352
 9299SOL     OW28795   0.540   2.631   5.297
 9299SOL    HW128796   0.486   2.703   5.252
 9299SOL    HW228797   0.512   2.542   5.262
 9300SOL     OW28798   0.759   4.688   5.694
 9300SOL    HW128799   0.686   4.636   5.739
 9300SOL    HW228800   0.836   4.628   5.674
 9301SOL     OW28801   5.051   4.741   3.747
 9301SOL    HW128802   5.025   4.788   3.831
 9301SOL    HW228803   4.970   4.702   3.703
 9302SOL     OW28804   2.042   3.203   3.969
 9302SOL    HW128805   1.975   3.172   3.901
 9302SOL    HW228806   2.043   3.303   3.971
 9303SOL     OW28807   2.398   4.763   0.640
 9303SOL    HW128808   2.356   4.854   0.644
 9303SOL    HW228809   2.484   4.763   0.690
 9304SOL     OW28810   4.371   4.934   2.133
 9304SOL    HW128811   4.429   5.012   2.157
 9304SOL    HW228812   4.360   4.930   2.034
 9305SOL     OW28813   3.480   1.123   0.483
 9305SOL    HW128814   3.449   1.128   0.388
 9305SOL    HW228815   3.421   1.061   0.535
 9306SOL     OW28816   7.012   4.984   4.595
 9306SOL    HW128817   6.941   5.054   4.582
 9306SOL    HW228818   0.078   5.014   4.550
 9307SOL     OW28819   2.042   3.454   1.759
 9307SOL    HW128820   2.070   3.406   1.675
 9307SOL    HW228821   2.117   3.452   1.825
 9308SOL     OW28822   2.143   3.632   0.713
 9308SOL    HW128823   2.201   3.554   0.737
 9308SOL    HW228824   2.149   3.649   0.614
 9309SOL     OW28825   3.188   4.520   5.904
 9309SOL    HW128826   3.214   4.448   5.968
 9309SOL    HW228827   3.154   4.479   5.820
 9310SOL     OW28828   4.702   5.185   6.579
 9310SOL    HW128829   4.749   5.222   6.659
 9310SOL    HW228830   4.769   5.169   6.506
 9311SOL     OW28831   4.169   5.142   2.234
 9311SOL    HW128832   4.117   5.137   2.148
 9311SOL    HW228833   4.254   5.091   2.223
 9312SOL     OW28834   1.363   3.618   1.348
 9312SOL    HW128835   1.317   3.704   1.323
 9312SOL    HW228836   1.294   3.551   1.375
 9313SOL     OW28837   0.565   1.038   1.096
 9313SOL    HW128838   0.659   1.048   1.064
 9313SOL    HW228839   0.536   0.943   1.086
 9314SOL     OW28840   4.907   5.122   6.417
 9314SOL    HW128841   4.989   5.152   6.466
 9314SOL    HW228842   4.932   5.096   6.324
 9315SOL     OW28843   5.890   0.934   5.372
 9315SOL    HW128844   5.909   0.957   5.277
 9315SOL    HW228845   5.968   0.883   5.410
 9316SOL     OW28846   4.357   5.690   5.094
 9316SOL    HW128847   4.299   5.736   5.161
 9316SOL    HW228848   4.452   5.717   5.109
 9317SOL     OW28849   5.518   5.336   3.353
 9317SOL    HW128850   5.500   5.262   3.419
 9317SOL    HW228851   5.611   5.325   3.316
 9318SOL     OW28852   5.951   0.964   5.827
 9318SOL    HW128853   5.853   0.972   5.842
 9318SOL    HW228854   5.983   0.875   5.860
 9319SOL     OW28855   2.053   2.966   0.208
 9319SOL    HW128856   2.010   2.960   0.118
 9319SOL    HW228857   2.128   2.901   0.213
 9320SOL     OW28858   3.862   0.050   4.987
 9320SOL    HW128859   3.942   0.045   4.927
 9320SOL    HW228860   3.813   0.136   4.969
 9321SOL     OW28861   6.914   0.356   3.455
 9321SOL    HW128862   6.829   0.314   3.487
 9321SOL    HW228863   6.912   0.454   3.476
 9322SOL     OW28864   0.428   4.085   6.802
 9322SOL    HW128865   0.461   3.997   6.835
 9322SOL    HW228866   0.493   4.157   6.828
 9323SOL     OW28867   1.020   0.737   5.639
 9323SOL    HW128868   0.921   0.749   5.649
 9323SOL    HW228869   1.040   0.642   5.614
 9324SOL     OW28870   1.122   4.369   0.824
 9324SOL    HW128871   1.142   4.461   0.791
 9324SOL    HW228872   1.179   4.303   0.775
 9325SOL     OW28873   5.662   0.258   0.555
 9325SOL    HW128874   5.595   0.330   0.539
 9325SOL    HW228875   5.747   0.298   0.590
 9326SOL     OW28876   2.293   5.307   0.069
 9326SOL    HW128877   2.366   5.260   0.018
 9326SOL    HW228878   2.240   5.364   0.006
 9327SOL     OW28879   5.398   0.992   2.733
 9327SOL    HW128880   5.479   1.050   2.735
 9327SOL    HW228881   5.413   0.912   2.791
 9328SOL     OW28882   2.460   0.899   5.166
 9328SOL    HW128883   2.456   0.870   5.070
 9328SOL    HW228884   2.502   0.989   5.172
 9329SOL     OW28885   5.924   3.820   1.164
 9329SOL    HW128886   5.892   3.788   1.254
 9329SOL    HW228887   5.962   3.743   1.114
 9330SOL     OW28888   6.306   6.959   6.233
 9330SOL    HW128889   6.372   6.992   6.165
 9330SOL    HW228890   6.288   0.014   6.299
 9331SOL     OW28891   2.782   1.205   0.347
 9331SOL    HW128892   2.713   1.240   0.283
 9331SOL    HW228893   2.871   1.245   0.325
 9332SOL     OW28894   4.309   4.206   1.420
 9332SOL    HW128895   4.215   4.193   1.452
 9332SOL    HW228896   4.311   4.201   1.320
 9333SOL     OW28897   4.463   3.799   0.114
 9333SOL    HW128898   4.472   3.897   0.098
 9333SOL    HW228899   4.454   3.783   0.212
 9334SOL     OW28900   6.028   6.193   3.331
 9334SOL    HW128901   6.040   6.103   3.290
 9334SOL    HW228902   5.944   6.195   3.384
 9335SOL     OW28903   0.961   1.418   6.779
 9335SOL    HW128904   0.902   1.497   6.762
 9335SOL    HW228905   1.036   1.418   6.714
 9336SOL     OW28906   2.995   5.649   5.879
 9336SOL    HW128907   3.032   5.714   5.813
 9336SOL    HW228908   2.899   5.668   5.896
 9337SOL     OW28909   3.996   2.199   4.792
 9337SOL    HW128910   4.046   2.260   4.852
 9337SOL    HW228911   3.915   2.164   4.839
 9338SOL     OW28912   4.995   0.283   1.895
 9338SOL    HW128913   4.977   0.377   1.925
 9338SOL    HW228914   5.094   0.267   1.897
 9339SOL     OW28915   6.088   6.842   1.880
 9339SOL    HW128916   6.148   6.762   1.875
 9339SOL    HW228917   6.107   6.903   1.802
 9340SOL     OW28918   5.447   4.251   4.454
 9340SOL    HW128919   5.386   4.198   4.395
 9340SOL    HW228920   5.406   4.341   4.471
 9341SOL     OW28921   0.313   5.851   0.836
 9341SOL    HW128922   0.226   5.891   0.807
 9341SOL    HW228923   0.364   5.918   0.890
 9342SOL     OW28924   2.279   6.310   3.648
 9342SOL    HW128925   2.346   6.384   3.648
 9342SOL    HW228926   2.267   6.276   3.741
 9343SOL     OW28927   5.472   4.432   2.186
 9343SOL    HW128928   5.400   4.385   2.237
 9343SOL    HW228929   5.483   4.389   2.096
 9344SOL     OW28930   4.986   6.682   2.543
 9344SOL    HW128931   4.915   6.694   2.474
 9344SOL    HW228932   5.071   6.723   2.510
 9345SOL     OW28933   5.744   5.680   1.992
 9345SOL    HW128934   5.838   5.646   1.990
 9345SOL    HW228935   5.681   5.602   1.990
 9346SOL     OW28936   5.670   1.730   1.231
 9346SOL    HW128937   5.686   1.759   1.325
 9346SOL    HW228938   5.757   1.709   1.187
 9347SOL     OW28939   3.012   3.784   0.554
 9347SOL    HW128940   3.053   3.724   0.485
 9347SOL    HW228941   3.065   3.869   0.559
 9348SOL     OW28942   3.513   6.382   2.147
 9348SOL    HW128943   3.484   6.478   2.157
 9348SOL    HW228944   3.477   6.329   2.224
 9349SOL     OW28945   6.907   5.814   3.264
 9349SOL    HW128946   6.850   5.793   3.344
 9349SOL    HW228947   6.849   5.829   3.184
 9350SOL     OW28948   0.001   2.842   5.249
 9350SOL    HW128949   6.992   2.789   5.329
 9350SOL    HW228950   0.094   2.875   5.261
 9351SOL     OW28951   2.892   0.162   0.108
 9351SOL    HW128952   2.854   0.196   0.022
 9351SOL    HW228953   2.976   0.112   0.090
 9352SOL     OW28954   3.681   1.392   6.425
 9352SOL    HW128955   3.691   1.473   6.483
 9352SOL    HW228956   3.609   1.407   6.357
 9353SOL     OW28957   0.793   4.470   0.881
 9353SOL    HW128958   0.805   4.496   0.977
 9353SOL    HW228959   0.794   4.371   0.873
 9354SOL     OW28960   0.206   1.937   6.376
 9354SOL    HW128961   0.125   1.878   6.387
 9354SOL    HW228962   0.186   2.028   6.412
 9355SOL     OW28963   0.501   1.886   4.427
 9355SOL    HW128964   0.491   1.849   4.335
 9355SOL    HW228965   0.415   1.928   4.456
 9356SOL     OW28966   4.865   0.063   1.980
 9356SOL    HW128967   4.784   0.062   2.038
 9356SOL    HW228968   4.869   0.148   1.928
 9357SOL     OW28969   1.842   3.380   5.728
 9357SOL    HW128970   1.936   3.410   5.711
 9357SOL    HW228971   1.831   3.286   5.695
 9358SOL     OW28972   6.618   3.184   1.852
 9358SOL    HW128973   6.606   3.180   1.951
 9358SOL    HW228974   6.701   3.236   1.831
 9359SOL     OW28975   1.809   4.550   5.635
 9359SOL    HW128976   1.906   4.547   5.657
 9359SOL    HW228977   1.784   4.643   5.608
 9360SOL     OW28978   0.547   4.646   6.569
 9360SOL    HW128979   0.549   4.679   6.475
 9360SOL    HW228980   0.585   4.553   6.573
 9361SOL     OW28981   1.589   5.443   3.111
 9361SOL    HW128982   1.507   5.444   3.168
 9361SOL    HW228983   1.668   5.472   3.166
 9362SOL     OW28984   1.843   1.680   2.939
 9362SOL    HW128985   1.845   1.739   3.020
 9362SOL    HW228986   1.907   1.715   2.870
 9363SOL     OW28987   3.168   5.488   1.875
 9363SOL    HW128988   3.115   5.478   1.790
 9363SOL    HW228989   3.205   5.580   1.880
 9364SOL     OW28990   2.772   2.369   6.307
 9364SOL    HW128991   2.824   2.349   6.224
 9364SOL    HW228992   2.830   2.417   6.372
 9365SOL     OW28993   3.209   2.185   3.649
 9365SOL    HW128994   3.266   2.112   3.614
 9365SOL    HW228995   3.148   2.218   3.577
 9366SOL     OW28996   3.653   5.291   6.199
 9366SOL    HW128997   3.675   5.288   6.297
 9366SOL    HW228998   3.567   5.242   6.183
 9367SOL     OW28999   6.563   6.208   2.261
 9367SOL    HW129000   6.497   6.133   2.267
 9367SOL    HW229001   6.576   6.249   2.351
 9368SOL     OW29002   3.248   0.833   3.124
 9368SOL    HW129003   3.299   0.772   3.185
 9368SOL    HW229004   3.219   0.783   3.042
 9369SOL     OW29005   6.634   6.571   3.806
 9369SOL    HW129006   6.693   6.512   3.862
 9369SOL    HW229007   6.689   6.612   3.733
 9370SOL     OW29008   5.498   0.468   4.519
 9370SOL    HW129009   5.415   0.440   4.567
 9370SOL    HW229010   5.571   0.487   4.585
 9371SOL     OW29011   2.405   5.187   0.296
 9371SOL    HW129012   2.364   5.237   0.219
 9371SOL    HW229013   2.504   5.177   0.280
 9372SOL     OW29014   5.151   6.587   1.273
 9372SOL    HW129015   5.218   6.518   1.299
 9372SOL    HW229016   5.173   6.623   1.182
 9373SOL     OW29017   4.510   2.605   1.626
 9373SOL    HW129018   4.567   2.687   1.628
 9373SOL    HW229019   4.432   2.619   1.565
 9374SOL     OW29020   0.706   2.686   6.772
 9374SOL    HW129021   0.710   2.714   6.676
 9374SOL    HW229022   0.648   2.749   6.823
 9375SOL     OW29023   0.792   2.548   0.974
 9375SOL    HW129024   0.815   2.452   0.959
 9375SOL    HW229025   0.741   2.582   0.896
 9376SOL     OW29026   2.402   3.890   1.185
 9376SOL    HW129027   2.303   3.875   1.181
 9376SOL    HW229028   2.449   3.802   1.180
 9377SOL     OW29029   1.717   4.899   3.130
 9377SOL    HW129030   1.718   4.829   3.058
 9377SOL    HW229031   1.726   4.989   3.088
 9378SOL     OW29032   2.763   1.442   3.453
 9378SOL    HW129033   2.844   1.481   3.494
 9378SOL    HW229034   2.721   1.377   3.517
 9379SOL     OW29035   4.706   0.245   5.132
 9379SOL    HW129036   4.662   0.192   5.060
 9379SOL    HW229037   4.802   0.220   5.138
 9380SOL     OW29038   3.765   5.249   5.082
 9380SOL    HW129039   3.730   5.342   5.094
 9380SOL    HW229040   3.688   5.185   5.078
 9381SOL     OW29041   5.567   3.141   6.041
 9381SOL    HW129042   5.523   3.203   6.105
 9381SOL    HW229043   5.665   3.159   6.039
 9382SOL     OW29044   3.929   0.494   3.506
 9382SOL    HW129045   3.979   0.577   3.532
 9382SOL    HW229046   3.951   0.470   3.412
 9383SOL     OW29047   5.668   4.686   3.837
 9383SOL    HW129048   5.651   4.784   3.846
 9383SOL    HW229049   5.717   4.653   3.917
 9384SOL     OW29050   4.285   6.919   2.564
 9384SOL    HW129051   4.273   6.903   2.466
 9384SOL    HW229052   4.212   6.980   2.597
 9385SOL     OW29053   4.718   1.821   4.278
 9385SOL    HW129054   4.818   1.822   4.273
 9385SOL    HW229055   4.689   1.859   4.366
 9386SOL     OW29056   3.132   5.562   5.344
 9386SOL    HW129057   3.162   5.553   5.249
 9386SOL    HW229058   3.083   5.479   5.371
 9387SOL     OW29059   2.745   2.339   0.742
 9387SOL    HW129060   2.774   2.427   0.779
 9387SOL    HW229061   2.802   2.315   0.664
 9388SOL     OW29062   2.469   6.116   3.543
 9388SOL    HW129063   2.429   6.027   3.520
 9388SOL    HW229064   2.396   6.184   3.550
 9389SOL     OW29065   2.835   0.292   2.999
 9389SOL    HW129066   2.799   0.367   2.944
 9389SOL    HW229067   2.885   0.329   3.077
 9390SOL     OW29068   5.669   5.065   5.830
 9390SOL    HW129069   5.592   5.001   5.830
 9390SOL    HW229070   5.639   5.153   5.793
 9391SOL     OW29071   0.757   0.226   6.194
 9391SOL    HW129072   0.837   0.283   6.209
 9391SOL    HW229073   0.677   0.284   6.176
 9392SOL     OW29074   5.298   5.122   5.087
 9392SOL    HW129075   5.359   5.133   5.008
 9392SOL    HW229076   5.322   5.038   5.137
 9393SOL     OW29077   2.872   0.313   5.843
 9393SOL    HW129078   2.860   0.402   5.801
 9393SOL    HW229079   2.945   0.263   5.796
 9394SOL     OW29080   6.172   0.672   1.275
 9394SOL    HW129081   6.140   0.656   1.369
 9394SOL    HW229082   6.186   0.770   1.261
 9395SOL     OW29083   2.717   1.058   0.548
 9395SOL    HW129084   2.711   1.104   0.459
 9395SOL    HW229085   2.791   1.099   0.601
 9396SOL     OW29086   1.996   4.857   4.588
 9396SOL    HW129087   2.086   4.902   4.587
 9396SOL    HW229088   1.936   4.904   4.523
 9397SOL     OW29089   2.993   6.171   6.069
 9397SOL    HW129090   3.006   6.268   6.052
 9397SOL    HW229091   3.030   6.148   6.159
 9398SOL     OW29092   5.832   0.750   6.259
 9398SOL    HW129093   5.772   0.749   6.180
 9398SOL    HW229094   5.800   0.818   6.325
 9399SOL     OW29095   0.999   3.215   4.381
 9399SOL    HW129096   1.005   3.313   4.402
 9399SOL    HW229097   1.078   3.187   4.327
 9400SOL     OW29098   5.059   0.692   1.021
 9400SOL    HW129099   5.145   0.697   1.072
 9400SOL    HW229100   5.078   0.702   0.923
 9401SOL     OW29101   6.820   2.173   2.856
 9401SOL    HW129102   6.790   2.091   2.807
 9401SOL    HW229103   6.792   2.167   2.952
 9402SOL     OW29104   1.010   3.939   3.231
 9402SOL    HW129105   1.061   4.025   3.241
 9402SOL    HW229106   1.033   3.897   3.143
 9403SOL     OW29107   6.431   1.481   1.672
 9403SOL    HW129108   6.435   1.484   1.572
 9403SOL    HW229109   6.523   1.462   1.708
 9404SOL     OW29110   0.608   2.271   1.339
 9404SOL    HW129111   0.517   2.303   1.313
 9404SOL    HW229112   0.629   2.186   1.290
 9405SOL     OW29113   2.053   4.304   3.977
 9405SOL    HW129114   2.107   4.371   3.926
 9405SOL    HW229115   2.013   4.238   3.913
 9406SOL     OW29116   0.808   3.022   6.616
 9406SOL    HW129117   0.800   3.058   6.709
 9406SOL    HW229118   0.724   2.975   6.591
 9407SOL     OW29119   2.483   5.432   4.375
 9407SOL    HW129120   2.501   5.528   4.397
 9407SOL    HW229121   2.566   5.378   4.389
 9408SOL     OW29122   0.051   2.737   5.909
 9408SOL    HW129123   6.977   2.700   5.918
 9408SOL    HW229124   0.046   2.834   5.886
 9409SOL     OW29125   6.282   5.873   1.673
 9409SOL    HW129126   6.251   5.945   1.611
 9409SOL    HW229127   6.230   5.877   1.758
 9410SOL     OW29128   3.624   0.897   1.836
 9410SOL    HW129129   3.672   0.830   1.780
 9410SOL    HW229130   3.539   0.925   1.790
 9411SOL     OW29131   4.077   3.325   3.121
 9411SOL    HW129132   4.080   3.304   3.219
 9411SOL    HW229133   4.004   3.390   3.103
 9412SOL     OW29134   1.856   0.667   2.325
 9412SOL    HW129135   1.780   0.690   2.387
 9412SOL    HW229136   1.907   0.750   2.304
 9413SOL     OW29137   4.730   5.107   3.685
 9413SOL    HW129138   4.688   5.178   3.742
 9413SOL    HW229139   4.827   5.101   3.707
 9414SOL     OW29140   3.281   1.301   3.819
 9414SOL    HW129141   3.250   1.237   3.749
 9414SOL    HW229142   3.379   1.317   3.809
 9415SOL     OW29143   2.195   6.908   1.697
 9415SOL    HW129144   2.169   6.885   1.603
 9415SOL    HW229145   2.122   6.960   1.740
 9416SOL     OW29146   6.849   0.687   5.919
 9416SOL    HW129147   6.842   0.702   5.820
 9416SOL    HW229148   6.758   0.689   5.959
 9417SOL     OW29149   3.556   6.904   0.919
 9417SOL    HW129150   3.474   6.961   0.912
 9417SOL    HW229151   3.600   6.898   0.830
 9418SOL     OW29152   1.905   1.684   2.220
 9418SOL    HW129153   1.820   1.632   2.216
 9418SOL    HW229154   1.954   1.662   2.305
 9419SOL     OW29155   1.759   3.642   6.115
 9419SOL    HW129156   1.822   3.662   6.189
 9419SOL    HW229157   1.666   3.640   6.150
 9420SOL     OW29158   5.800   4.092   0.146
 9420SOL    HW129159   5.821   4.072   0.241
 9420SOL    HW229160   5.730   4.163   0.141
 9421SOL     OW29161   3.067   5.356   4.746
 9421SOL    HW129162   3.010   5.274   4.761
 9421SOL    HW229163   3.146   5.353   4.807
 9422SOL     OW29164   3.093   6.007   3.358
 9422SOL    HW129165   3.011   6.057   3.330
 9422SOL    HW229166   3.168   6.027   3.295
 9423SOL     OW29167   3.937   6.674   3.268
 9423SOL    HW129168   3.850   6.631   3.242
 9423SOL    HW229169   3.931   6.708   3.361
 9424SOL     OW29170   5.508   1.861   4.576
 9424SOL    HW129171   5.603   1.883   4.554
 9424SOL    HW229172   5.465   1.816   4.497
 9425SOL     OW29173   5.778   5.014   0.900
 9425SOL    HW129174   5.704   4.966   0.946
 9425SOL    HW229175   5.852   5.032   0.965
 9426SOL     OW29176   2.571   1.261   6.092
 9426SOL    HW129177   2.558   1.174   6.044
 9426SOL    HW229178   2.568   1.336   6.027
 9427SOL     OW29179   2.436   5.737   3.265
 9427SOL    HW129180   2.412   5.796   3.188
 9427SOL    HW229181   2.534   5.745   3.284
 9428SOL     OW29182   0.060   6.970   0.662
 9428SOL    HW129183   0.095   0.009   0.588
 9428SOL    HW229184   0.044   0.008   0.743
 9429SOL     OW29185   2.173   2.769   3.851
 9429SOL    HW129186   2.115   2.797   3.927
 9429SOL    HW229187   2.269   2.771   3.879
 9430SOL     OW29188   0.482   2.104   4.830
 9430SOL    HW129189   0.521   2.053   4.753
 9430SOL    HW229190   0.475   2.201   4.807
 9431SOL     OW29191   6.598   5.008   1.182
 9431SOL    HW129192   6.521   5.052   1.137
 9431SOL    HW229193   6.565   4.941   1.249
 9432SOL     OW29194   6.152   1.181   4.472
 9432SOL    HW129195   6.084   1.254   4.480
 9432SOL    HW229196   6.120   1.114   4.405
 9433SOL     OW29197   3.364   6.564   2.890
 9433SOL    HW129198   3.391   6.594   2.981
 9433SOL    HW229199   3.444   6.529   2.842
 9434SOL     OW29200   5.753   5.785   2.943
 9434SOL    HW129201   5.694   5.712   2.906
 9434SOL    HW229202   5.847   5.751   2.951
 9435SOL     OW29203   0.405   1.748   2.967
 9435SOL    HW129204   0.313   1.714   2.987
 9435SOL    HW229205   0.473   1.682   3.000
 9436SOL     OW29206   1.621   1.529   2.915
 9436SOL    HW129207   1.696   1.594   2.909
 9436SOL    HW229208   1.580   1.532   3.006
 9437SOL     OW29209   0.227   5.282   3.254
 9437SOL    HW129210   0.202   5.373   3.219
 9437SOL    HW229211   0.326   5.271   3.249
 9438SOL     OW29212   1.298   6.872   2.037
 9438SOL    HW129213   1.355   6.941   1.992
 9438SOL    HW229214   1.354   6.792   2.058
 9439SOL     OW29215   1.076   2.976   1.598
 9439SOL    HW129216   1.037   2.889   1.570
 9439SOL    HW229217   1.002   3.042   1.616
 9440SOL     OW29218   3.913   4.826   3.494
 9440SOL    HW129219   3.851   4.863   3.564
 9440SOL    HW229220   3.959   4.744   3.530
 9441SOL     OW29221   6.443   5.873   5.728
 9441SOL    HW129222   6.471   5.881   5.633
 9441SOL    HW229223   6.424   5.965   5.765
 9442SOL     OW29224   4.739   3.545   1.769
 9442SOL    HW129225   4.754   3.568   1.865
 9442SOL    HW229226   4.786   3.459   1.747
 9443SOL     OW29227   2.290   5.518   0.477
 9443SOL    HW129228   2.371   5.544   0.425
 9443SOL    HW229229   2.311   5.438   0.534
 9444SOL     OW29230   1.972   4.202   0.527
 9444SOL    HW129231   1.983   4.103   0.517
 9444SOL    HW229232   1.928   4.223   0.614
 9445SOL     OW29233   6.580   3.181   3.473
 9445SOL    HW129234   6.530   3.169   3.387
 9445SOL    HW229235   6.521   3.226   3.540
 9446SOL     OW29236   6.837   5.438   4.503
 9446SOL    HW129237   6.871   5.514   4.447
 9446SOL    HW229238   6.863   5.452   4.598
 9447SOL     OW29239   5.578   5.234   3.746
 9447SOL    HW129240   5.515   5.308   3.721
 9447SOL    HW229241   5.570   5.160   3.679
 9448SOL     OW29242   6.683   6.813   6.095
 9448SOL    HW129243   6.669   6.867   6.012
 9448SOL    HW229244   6.772   6.768   6.090
 9449SOL     OW29245   6.008   6.943   6.973
 9449SOL    HW129246   6.063   6.873   6.929
 9449SOL    HW229247   6.009   6.931   0.054
 9450SOL     OW29248   2.367   5.479   3.250
 9450SOL    HW129249   2.375   5.579   3.258
 9450SOL    HW229250   2.319   5.456   3.166
 9451SOL     OW29251   3.347   5.730   5.700
 9451SOL    HW129252   3.272   5.796   5.704
 9451SOL    HW229253   3.311   5.641   5.672
 9452SOL     OW29254   0.926   4.425   0.136
 9452SOL    HW129255   0.826   4.419   0.142
 9452SOL    HW229256   0.953   4.520   0.123
 9453SOL     OW29257   2.471   5.047   2.760
 9453SOL    HW129258   2.417   5.049   2.844
 9453SOL    HW229259   2.567   5.064   2.781
 9454SOL     OW29260   3.774   3.156   6.510
 9454SOL    HW129261   3.696   3.178   6.568
 9454SOL    HW229262   3.746   3.158   6.414
 9455SOL     OW29263   2.616   2.056   2.645
 9455SOL    HW129264   2.624   2.051   2.545
 9455SOL    HW229265   2.684   1.996   2.687
 9456SOL     OW29266   6.298   3.622   0.953
 9456SOL    HW129267   6.243   3.702   0.975
 9456SOL    HW229268   6.305   3.563   1.033
 9457SOL     OW29269   0.211   5.093   4.471
 9457SOL    HW129270   0.237   5.180   4.511
 9457SOL    HW229271   0.269   5.074   4.391
 9458SOL     OW29272   0.297   3.930   0.106
 9458SOL    HW129273   0.364   3.879   0.051
 9458SOL    HW229274   0.298   3.896   0.200
 9459SOL     OW29275   5.545   4.990   3.902
 9459SOL    HW129276   5.543   5.064   3.835
 9459SOL    HW229277   5.612   5.012   3.973
 9460SOL     OW29278   2.076   3.660   4.804
 9460SOL    HW129279   2.102   3.755   4.794
 9460SOL    HW229280   2.090   3.612   4.717
 9461SOL     OW29281   0.360   2.160   2.089
 9461SOL    HW129282   0.353   2.177   2.188
 9461SOL    HW229283   0.422   2.084   2.073
 9462SOL     OW29284   2.008   2.385   3.340
 9462SOL    HW129285   1.954   2.377   3.255
 9462SOL    HW229286   1.947   2.408   3.415
 9463SOL     OW29287   5.540   6.388   1.183
 9463SOL    HW129288   5.620   6.331   1.166
 9463SOL    HW229289   5.568   6.483   1.196
 9464SOL     OW29290   5.879   0.047   0.587
 9464SOL    HW129291   5.971   0.061   0.552
 9464SOL    HW229292   5.817   0.112   0.542
 9465SOL     OW29293   0.073   3.578   1.770
 9465SOL    HW129294   0.080   3.481   1.793
 9465SOL    HW229295   6.997   3.600   1.746
 9466SOL     OW29296   3.364   4.183   5.598
 9466SOL    HW129297   3.322   4.149   5.682
 9466SOL    HW229298   3.293   4.204   5.531
 9467SOL     OW29299   0.649   2.883   1.166
 9467SOL    HW129300   0.646   2.784   1.152
 9467SOL    HW229301   0.689   2.926   1.086
 9468SOL     OW29302   6.200   3.690   6.658
 9468SOL    HW129303   6.235   3.759   6.595
 9468SOL    HW229304   6.224   3.715   6.751
 9469SOL     OW29305   6.778   5.716   1.177
 9469SOL    HW129306   6.803   5.813   1.181
 9469SOL    HW229307   6.859   5.661   1.156
 9470SOL     OW29308   4.642   3.397   0.071
 9470SOL    HW129309   4.569   3.336   0.041
 9470SOL    HW229310   4.730   3.365   0.037
 9471SOL     OW29311   6.514   1.807   4.731
 9471SOL    HW129312   6.573   1.876   4.689
 9471SOL    HW229313   6.552   1.781   4.820
 9472SOL     OW29314   0.322   3.988   5.762
 9472SOL    HW129315   0.223   3.991   5.753
 9472SOL    HW229316   0.347   4.000   5.859
 9473SOL     OW29317   3.360   4.161   6.701
 9473SOL    HW129318   3.422   4.236   6.680
 9473SOL    HW229319   3.357   4.147   6.800
 9474SOL     OW29320   6.371   3.901   1.739
 9474SOL    HW129321   6.330   3.810   1.746
 9474SOL    HW229322   6.381   3.940   1.831
 9475SOL     OW29323   4.500   3.243   0.659
 9475SOL    HW129324   4.536   3.177   0.725
 9475SOL    HW229325   4.561   3.323   0.654
 9476SOL     OW29326   3.893   3.823   4.658
 9476SOL    HW129327   3.992   3.809   4.646
 9476SOL    HW229328   3.850   3.736   4.681
 9477SOL     OW29329   0.593   2.582   1.182
 9477SOL    HW129330   0.644   2.550   1.102
 9477SOL    HW229331   0.500   2.545   1.180
 9478SOL     OW29332   5.344   3.338   1.172
 9478SOL    HW129333   5.258   3.364   1.215
 9478SOL    HW229334   5.390   3.269   1.229
 9479SOL     OW29335   4.564   6.835   0.884
 9479SOL    HW129336   4.520   6.917   0.921
 9479SOL    HW229337   4.503   6.792   0.818
 9480SOL     OW29338   6.094   5.088   0.311
 9480SOL    HW129339   6.017   5.092   0.375
 9480SOL    HW229340   6.180   5.090   0.361
 9481SOL     OW29341   4.936   2.347   2.335
 9481SOL    HW129342   4.861   2.381   2.394
 9481SOL    HW229343   4.916   2.253   2.308
 9482SOL     OW29344   6.904   0.650   2.844
 9482SOL    HW129345   6.868   0.732   2.886
 9482SOL    HW229346   6.988   0.623   2.890
 9483SOL     OW29347   1.738   0.979   0.467
 9483SOL    HW129348   1.748   0.889   0.510
 9483SOL    HW229349   1.814   1.038   0.495
 9484SOL     OW29350   3.367   0.056   4.860
 9484SOL    HW129351   3.274   0.086   4.881
 9484SOL    HW229352   3.377   0.047   4.761
 9485SOL     OW29353   0.411   1.780   0.834
 9485SOL    HW129354   0.408   1.856   0.899
 9485SOL    HW229355   0.503   1.773   0.796
 9486SOL     OW29356   4.524   6.275   1.447
 9486SOL    HW129357   4.446   6.274   1.510
 9486SOL    HW229358   4.603   6.234   1.492
 9487SOL     OW29359   3.376   4.143   3.889
 9487SOL    HW129360   3.455   4.176   3.941
 9487SOL    HW229361   3.296   4.137   3.949
 9488SOL     OW29362   2.785   0.485   1.022
 9488SOL    HW129363   2.782   0.553   0.948
 9488SOL    HW229364   2.692   0.465   1.052
 9489SOL     OW29365   5.189   4.474   1.186
 9489SOL    HW129366   5.134   4.473   1.102
 9489SOL    HW229367   5.133   4.440   1.262
 9490SOL     OW29368   6.907   5.410   3.489
 9490SOL    HW129369   6.892   5.311   3.499
 9490SOL    HW229370   6.861   5.443   3.408
 9491SOL     OW29371   5.684   5.793   3.952
 9491SOL    HW129372   5.628   5.842   3.885
 9491SOL    HW229373   5.775   5.835   3.956
 9492SOL     OW29374   3.824   3.529   4.667
 9492SOL    HW129375   3.804   3.443   4.715
 9492SOL    HW229376   3.753   3.545   4.598
 9493SOL     OW29377   2.959   5.978   4.658
 9493SOL    HW129378   2.943   5.891   4.705
 9493SOL    HW229379   3.057   5.995   4.652
 9494SOL     OW29380   5.526   2.991   2.389
 9494SOL    HW129381   5.609   3.047   2.390
 9494SOL    HW229382   5.462   3.028   2.321
 9495SOL     OW29383   6.849   1.774   2.965
 9495SOL    HW129384   6.770   1.807   2.914
 9495SOL    HW229385   6.933   1.790   2.912
 9496SOL     OW29386   5.363   2.912   1.688
 9496SOL    HW129387   5.299   2.965   1.742
 9496SOL    HW229388   5.428   2.866   1.748
 9497SOL     OW29389   4.828   5.879   4.894
 9497SOL    HW129390   4.729   5.889   4.907
 9497SOL    HW229391   4.876   5.924   4.970
 9498SOL     OW29392   6.517   4.597   4.820
 9498SOL    HW129393   6.525   4.692   4.852
 9498SOL    HW229394   6.421   4.576   4.803
 9499SOL     OW29395   1.084   5.919   4.920
 9499SOL    HW129396   0.996   5.928   4.874
 9499SOL    HW229397   1.096   5.995   4.984
 9500SOL     OW29398   4.366   6.773   0.675
 9500SOL    HW129399   4.333   6.758   0.581
 9500SOL    HW229400   4.294   6.819   0.728
 9501SOL     OW29401   1.918   1.136   4.591
 9501SOL    HW129402   1.917   1.193   4.673
 9501SOL    HW229403   2.008   1.093   4.581
 9502SOL     OW29404   5.735   3.480   5.393
 9502SOL    HW129405   5.676   3.463   5.472
 9502SOL    HW229406   5.809   3.541   5.419
 9503SOL     OW29407   6.654   2.553   0.241
 9503SOL    HW129408   6.689   2.595   0.325
 9503SOL    HW229409   6.703   2.467   0.224
 9504SOL     OW29410   6.849   3.802   1.957
 9504SOL    HW129411   6.918   3.785   2.028
 9504SOL    HW229412   6.811   3.894   1.969
 9505SOL     OW29413   4.977   4.401   5.652
 9505SOL    HW129414   4.959   4.479   5.592
 9505SOL    HW229415   4.920   4.324   5.625
 9506SOL     OW29416   1.685   2.888   0.757
 9506SOL    HW129417   1.736   2.927   0.833
 9506SOL    HW229418   1.734   2.809   0.721
 9507SOL     OW29419   6.879   0.962   2.086
 9507SOL    HW129420   6.817   0.957   2.165
 9507SOL    HW229421   6.863   1.049   2.038
 9508SOL     OW29422   5.716   2.017   2.751
 9508SOL    HW129423   5.668   2.019   2.664
 9508SOL    HW229424   5.810   2.049   2.738
 9509SOL     OW29425   6.904   0.917   3.172
 9509SOL    HW129426   6.913   0.993   3.237
 9509SOL    HW229427   6.965   0.933   3.094
 9510SOL     OW29428   1.369   4.246   3.736
 9510SOL    HW129429   1.320   4.326   3.701
 9510SOL    HW229430   1.408   4.194   3.660
 9511SOL     OW29431   2.168   0.631   1.229
 9511SOL    HW129432   2.222   0.599   1.307
 9511SOL    HW229433   2.083   0.580   1.224
 9512SOL     OW29434   6.784   1.973   0.555
 9512SOL    HW129435   6.748   2.066   0.563
 9512SOL    HW229436   6.727   1.911   0.609
 9513SOL     OW29437   2.626   4.309   6.827
 9513SOL    HW129438   2.567   4.248   6.879
 9513SOL    HW229439   2.616   4.290   6.729
 9514SOL     OW29440   2.646   4.806   6.763
 9514SOL    HW129441   2.702   4.809   6.681
 9514SOL    HW229442   2.665   4.722   6.814
 9515SOL     OW29443   1.968   6.286   2.281
 9515SOL    HW129444   2.019   6.346   2.219
 9515SOL    HW229445   2.000   6.192   2.269
 9516SOL     OW29446   5.619   4.312   0.174
 9516SOL    HW129447   5.525   4.283   0.157
 9516SOL    HW229448   5.620   4.405   0.210
 9517SOL     OW29449   2.055   4.084   1.187
 9517SOL    HW129450   2.080   4.100   1.092
 9517SOL    HW229451   1.972   4.135   1.209
 9518SOL     OW29452   2.093   1.520   0.817
 9518SOL    HW129453   2.024   1.586   0.786
 9518SOL    HW229454   2.087   1.511   0.916
 9519SOL     OW29455   3.051   3.070   5.088
 9519SOL    HW129456   3.090   3.162   5.098
 9519SOL    HW229457   3.118   3.009   5.046
 9520SOL     OW29458   2.773   0.766   3.126
 9520SOL    HW129459   2.814   0.829   3.191
 9520SOL    HW229460   2.684   0.801   3.097
 9521SOL     OW29461   5.598   5.351   2.561
 9521SOL    HW129462   5.604   5.256   2.591
 9521SOL    HW229463   5.637   5.361   2.470
 9522SOL     OW29464   2.971   5.569   1.383
 9522SOL    HW129465   2.971   5.508   1.303
 9522SOL    HW229466   3.065   5.589   1.409
 9523SOL     OW29467   3.179   5.469   5.069
 9523SOL    HW129468   3.257   5.411   5.047
 9523SOL    HW229469   3.199   5.563   5.040
 9524SOL     OW29470   3.882   2.689   1.025
 9524SOL    HW129471   3.898   2.781   0.990
 9524SOL    HW229472   3.935   2.623   0.972
 9525SOL     OW29473   2.545   2.594   6.376
 9525SOL    HW129474   2.563   2.498   6.399
 9525SOL    HW229475   2.594   2.617   6.292
 9526SOL     OW29476   5.023   6.090   1.695
 9526SOL    HW129477   4.975   6.063   1.779
 9526SOL    HW229478   4.968   6.156   1.644
 9527SOL     OW29479   0.796   0.116   2.177
 9527SOL    HW129480   0.841   0.199   2.209
 9527SOL    HW229481   0.836   0.087   2.090
 9528SOL     OW29482   6.645   0.686   0.272
 9528SOL    HW129483   6.581   0.751   0.313
 9528SOL    HW229484   6.652   0.605   0.331
 9529SOL     OW29485   6.683   2.888   5.385
 9529SOL    HW129486   6.753   2.954   5.408
 9529SOL    HW229487   6.724   2.798   5.372
 9530SOL     OW29488   2.152   3.334   3.500
 9530SOL    HW129489   2.191   3.251   3.539
 9530SOL    HW229490   2.070   3.311   3.447
 9531SOL     OW29491   4.018   5.085   3.032
 9531SOL    HW129492   4.085   5.037   2.975
 9531SOL    HW229493   3.982   5.023   3.101
 9532SOL     OW29494   0.054   6.195   2.101
 9532SOL    HW129495   0.069   6.097   2.088
 9532SOL    HW229496   6.979   6.209   2.135
 9533SOL     OW29497   0.089   0.628   4.625
 9533SOL    HW129498   7.014   0.634   4.660
 9533SOL    HW229499   0.153   0.617   4.701
 9534SOL     OW29500   6.008   2.717   5.377
 9534SOL    HW129501   5.998   2.662   5.295
 9534SOL    HW229502   5.920   2.729   5.422
 9535SOL     OW29503   2.330   1.458   5.709
 9535SOL    HW129504   2.417   1.505   5.722
 9535SOL    HW229505   2.256   1.525   5.699
 9536SOL     OW29506   3.029   4.818   5.184
 9536SOL    HW129507   2.968   4.749   5.144
 9536SOL    HW229508   3.092   4.773   5.247
 9537SOL     OW29509   2.585   0.412   2.428
 9537SOL    HW129510   2.556   0.467   2.350
 9537SOL    HW229511   2.593   0.470   2.509
 9538SOL     OW29512   6.384   1.683   4.493
 9538SOL    HW129513   6.461   1.635   4.450
 9538SOL    HW229514   6.406   1.702   4.589
 9539SOL     OW29515   2.298   4.299   6.032
 9539SOL    HW129516   2.258   4.265   5.947
 9539SOL    HW229517   2.273   4.238   6.108
 9540SOL     OW29518   4.613   4.212   5.178
 9540SOL    HW129519   4.680   4.185   5.109
 9540SOL    HW229520   4.626   4.156   5.260
 9541SOL     OW29521   2.344   1.986   5.899
 9541SOL    HW129522   2.267   1.993   5.836
 9541SOL    HW229523   2.347   1.895   5.939
 9542SOL     OW29524   4.656   3.692   5.448
 9542SOL    HW129525   4.648   3.649   5.358
 9542SOL    HW229526   4.566   3.700   5.490
 9543SOL     OW29527   3.976   0.659   4.625
 9543SOL    HW129528   4.002   0.727   4.558
 9543SOL    HW229529   4.034   0.578   4.614
 9544SOL     OW29530   6.430   0.879   2.528
 9544SOL    HW129531   6.330   0.868   2.529
 9544SOL    HW229532   6.472   0.800   2.484
 9545SOL     OW29533   6.725   5.200   3.289
 9545SOL    HW129534   6.708   5.136   3.213
 9545SOL    HW229535   6.660   5.275   3.284
 9546SOL     OW29536   1.939   3.243   0.237
 9546SOL    HW129537   1.995   3.165   0.211
 9546SOL    HW229538   1.975   3.326   0.195
 9547SOL     OW29539   2.553   6.153   3.938
 9547SOL    HW129540   2.481   6.216   3.967
 9547SOL    HW229541   2.637   6.171   3.989
 9548SOL     OW29542   6.695   5.752   4.948
 9548SOL    HW129543   6.640   5.821   4.995
 9548SOL    HW229544   6.638   5.703   4.881
 9549SOL     OW29545   2.950   4.767   0.987
 9549SOL    HW129546   2.917   4.849   1.035
 9549SOL    HW229547   2.878   4.698   0.987
 9550SOL     OW29548   0.244   1.233   6.164
 9550SOL    HW129549   0.242   1.134   6.151
 9550SOL    HW229550   0.168   1.260   6.224
 9551SOL     OW29551   0.036   0.003   4.738
 9551SOL    HW129552   0.037   0.099   4.711
 9551SOL    HW229553   0.085   7.011   4.825
 9552SOL     OW29554   1.090   6.177   2.422
 9552SOL    HW129555   1.173   6.215   2.463
 9552SOL    HW229556   1.113   6.130   2.337
 9553SOL     OW29557   5.747   4.311   6.576
 9553SOL    HW129558   5.694   4.227   6.573
 9553SOL    HW229559   5.699   4.379   6.633
 9554SOL     OW29560   2.673   0.927   1.419
 9554SOL    HW129561   2.722   0.966   1.340
 9554SOL    HW229562   2.651   0.831   1.400
 9555SOL     OW29563   6.841   2.121   1.069
 9555SOL    HW129564   6.773   2.179   1.025
 9555SOL    HW229565   6.927   2.171   1.077
 9556SOL     OW29566   2.283   1.917   1.281
 9556SOL    HW129567   2.368   1.868   1.264
 9556SOL    HW229568   2.275   1.993   1.217
 9557SOL     OW29569   6.120   0.788   2.586
 9557SOL    HW129570   6.122   0.825   2.679
 9557SOL    HW229571   6.086   0.694   2.588
 9558SOL     OW29572   6.835   5.689   3.988
 9558SOL    HW129573   6.774   5.611   3.981
 9558SOL    HW229574   6.903   5.673   4.060
 9559SOL     OW29575   0.048   3.903   1.796
 9559SOL    HW129576   0.034   3.976   1.862
 9559SOL    HW229577   7.015   3.822   1.824
 9560SOL     OW29578   1.646   1.801   3.097
 9560SOL    HW129579   1.579   1.729   3.115
 9560SOL    HW229580   1.608   1.890   3.123
 9561SOL     OW29581   2.701   6.849   1.003
 9561SOL    HW129582   2.742   6.915   0.941
 9561SOL    HW229583   2.624   6.804   0.958
 9562SOL     OW29584   3.014   6.328   4.558
 9562SOL    HW129585   2.954   6.344   4.480
 9562SOL    HW229586   3.085   6.263   4.533
 9563SOL     OW29587   6.462   6.137   6.742
 9563SOL    HW129588   6.491   6.217   6.793
 9563SOL    HW229589   6.429   6.067   6.806
 9564SOL     OW29590   2.534   0.087   6.777
 9564SOL    HW129591   2.572   7.014   6.791
 9564SOL    HW229592   2.535   0.137   6.864
 9565SOL     OW29593   4.373   5.717   4.813
 9565SOL    HW129594   4.310   5.779   4.766
 9565SOL    HW229595   4.346   5.708   4.909
 9566SOL     OW29596   3.270   4.451   0.222
 9566SOL    HW129597   3.299   4.541   0.255
 9566SOL    HW229598   3.206   4.462   0.146
 9567SOL     OW29599   6.427   5.146   6.320
 9567SOL    HW129600   6.450   5.124   6.225
 9567SOL    HW229601   6.404   5.243   6.326
 9568SOL     OW29602   4.512   3.005   6.425
 9568SOL    HW129603   4.551   3.023   6.516
 9568SOL    HW229604   4.425   3.051   6.416
 9569SOL     OW29605   6.346   1.260   0.796
 9569SOL    HW129606   6.398   1.335   0.756
 9569SOL    HW229607   6.319   1.196   0.724
 9570SOL     OW29608   0.669   1.876   1.852
 9570SOL    HW129609   0.705   1.865   1.944
 9570SOL    HW229610   0.686   1.970   1.820
 9571SOL     OW29611   2.787   3.329   0.425
 9571SOL    HW129612   2.808   3.356   0.331
 9571SOL    HW229613   2.872   3.316   0.476
 9572SOL     OW29614   1.132   5.469   1.124
 9572SOL    HW129615   1.057   5.453   1.187
 9572SOL    HW229616   1.098   5.469   1.030
 9573SOL     OW29617   0.572   1.187   6.546
 9573SOL    HW129618   0.620   1.191   6.633
 9573SOL    HW229619   0.500   1.118   6.550
 9574SOL     OW29620   3.747   3.262   4.800
 9574SOL    HW129621   3.798   3.200   4.741
 9574SOL    HW229622   3.778   3.252   4.894
 9575SOL     OW29623   5.746   0.993   1.096
 9575SOL    HW129624   5.802   0.952   1.167
 9575SOL    HW229625   5.662   1.029   1.136
 9576SOL     OW29626   3.478   1.214   3.181
 9576SOL    HW129627   3.478   1.145   3.254
 9576SOL    HW229628   3.516   1.174   3.098
 9577SOL     OW29629   1.589   0.722   2.221
 9577SOL    HW129630   1.687   0.738   2.213
 9577SOL    HW229631   1.572   0.653   2.291
 9578SOL     OW29632   5.848   3.414   2.700
 9578SOL    HW129633   5.750   3.403   2.680
 9578SOL    HW229634   5.885   3.328   2.734
 9579SOL     OW29635   1.151   6.634   2.691
 9579SOL    HW129636   1.182   6.713   2.638
 9579SOL    HW229637   1.226   6.603   2.751
 9580SOL     OW29638   5.663   3.914   7.001
 9580SOL    HW129639   5.722   3.976   0.033
 9580SOL    HW229640   5.617   3.852   0.046
 9581SOL     OW29641   2.605   4.721   6.308
 9581SOL    HW129642   2.505   4.713   6.310
 9581SOL    HW229643   2.642   4.657   6.241
 9582SOL     OW29644   4.540   4.514   4.150
 9582SOL    HW129645   4.460   4.535   4.093
 9582SOL    HW229646   4.619   4.566   4.116
 9583SOL     OW29647   2.246   3.225   1.730
 9583SOL    HW129648   2.246   3.313   1.776
 9583SOL    HW229649   2.233   3.239   1.632
 9584SOL     OW29650   5.973   6.034   6.827
 9584SOL    HW129651   6.064   6.044   6.867
 9584SOL    HW229652   5.972   5.954   6.766
 9585SOL     OW29653   6.134   0.822   2.272
 9585SOL    HW129654   6.100   0.876   2.350
 9585SOL    HW229655   6.081   0.738   2.264
 9586SOL     OW29656   5.751   3.610   3.329
 9586SOL    HW129657   5.794   3.649   3.410
 9586SOL    HW229658   5.820   3.593   3.259
 9587SOL     OW29659   5.610   0.403   2.255
 9587SOL    HW129660   5.527   0.357   2.223
 9587SOL    HW229661   5.591   0.453   2.340
 9588SOL     OW29662   0.366   1.268   1.398
 9588SOL    HW129663   0.270   1.261   1.423
 9588SOL    HW229664   0.406   1.349   1.440
 9589SOL     OW29665   2.309   5.649   6.694
 9589SOL    HW129666   2.396   5.673   6.650
 9589SOL    HW229667   2.235   5.698   6.649
 9590SOL     OW29668   0.312   3.694   1.953
 9590SOL    HW129669   0.360   3.782   1.951
 9590SOL    HW229670   0.227   3.701   1.901
 9591SOL     OW29671   2.859   6.137   0.425
 9591SOL    HW129672   2.891   6.055   0.377
 9591SOL    HW229673   2.860   6.215   0.363
 9592SOL     OW29674   4.292   5.266   2.687
 9592SOL    HW129675   4.237   5.284   2.768
 9592SOL    HW229676   4.242   5.206   2.625
 9593SOL     OW29677   5.128   2.444   4.444
 9593SOL    HW129678   5.208   2.384   4.436
 9593SOL    HW229679   5.071   2.434   4.363
 9594SOL     OW29680   6.847   6.188   3.258
 9594SOL    HW129681   6.836   6.130   3.339
 9594SOL    HW229682   6.757   6.209   3.219
 9595SOL     OW29683   2.310   5.813   5.047
 9595SOL    HW129684   2.337   5.728   5.092
 9595SOL    HW229685   2.210   5.821   5.047
 9596SOL     OW29686   0.300   5.024   5.598
 9596SOL    HW129687   0.373   4.960   5.624
 9596SOL    HW229688   0.340   5.106   5.558
 9597SOL     OW29689   0.356   3.967   1.912
 9597SOL    HW129690   0.283   4.033   1.930
 9597SOL    HW229691   0.393   3.982   1.820
 9598SOL     OW29692   0.568   3.976   5.612
 9598SOL    HW129693   0.486   3.988   5.669
 9598SOL    HW229694   0.649   3.980   5.670
 9599SOL     OW29695   3.878   0.335   5.097
 9599SOL    HW129696   3.919   0.426   5.108
 9599SOL    HW229697   3.783   0.344   5.066
 9600SOL     OW29698   1.576   0.416   5.705
 9600SOL    HW129699   1.626   0.501   5.722
 9600SOL    HW229700   1.477   0.434   5.710
 9601SOL     OW29701   6.548   4.148   6.300
 9601SOL    HW129702   6.579   4.228   6.248
 9601SOL    HW229703   6.455   4.123   6.271
 9602SOL     OW29704   6.689   5.283   6.089
 9602SOL    HW129705   6.626   5.206   6.097
 9602SOL    HW229706   6.638   5.369   6.102
 9603SOL     OW29707   2.119   0.131   4.809
 9603SOL    HW129708   2.030   0.152   4.770
 9603SOL    HW229709   2.179   0.094   4.738
 9604SOL     OW29710   5.400   0.912   0.409
 9604SOL    HW129711   5.336   0.984   0.381
 9604SOL    HW229712   5.434   0.932   0.501
 9605SOL     OW29713   1.484   4.731   5.689
 9605SOL    HW129714   1.568   4.784   5.675
 9605SOL    HW229715   1.483   4.653   5.628
 9606SOL     OW29716   1.114   0.025   3.926
 9606SOL    HW129717   1.190   6.985   3.955
 9606SOL    HW229718   1.092   0.007   3.830
 9607SOL     OW29719   0.902   1.060   1.603
 9607SOL    HW129720   0.946   1.111   1.529
 9607SOL    HW229721   0.947   1.082   1.690
 9608SOL     OW29722   0.194   7.015   2.401
 9608SOL    HW129723   0.157   0.076   2.449
 9608SOL    HW229724   0.283   0.020   2.361
 9609SOL     OW29725   1.259   4.205   4.680
 9609SOL    HW129726   1.281   4.129   4.741
 9609SOL    HW229727   1.257   4.290   4.733
 9610SOL     OW29728   1.633   2.768   5.966
 9610SOL    HW129729   1.706   2.791   5.901
 9610SOL    HW229730   1.552   2.740   5.916
 9611SOL     OW29731   6.576   0.310   1.609
 9611SOL    HW129732   6.482   0.312   1.576
 9611SOL    HW229733   6.636   0.274   1.538
 9612SOL     OW29734   6.574   2.948   0.827
 9612SOL    HW129735   6.651   3.010   0.811
 9612SOL    HW229736   6.597   2.856   0.795
 9613SOL     OW29737   5.503   0.032   4.124
 9613SOL    HW129738   5.461   7.013   4.041
 9613SOL    HW229739   5.543   0.122   4.103
 9614SOL     OW29740   4.129   3.794   1.978
 9614SOL    HW129741   4.226   3.772   1.978
 9614SOL    HW229742   4.106   3.846   1.895
 9615SOL     OW29743   2.598   4.974   3.339
 9615SOL    HW129744   2.504   4.945   3.357
 9615SOL    HW229745   2.625   5.042   3.407
 9616SOL     OW29746   4.122   3.152   1.431
 9616SOL    HW129747   4.163   3.065   1.404
 9616SOL    HW229748   4.075   3.193   1.353
 9617SOL     OW29749   1.188   3.542   3.547
 9617SOL    HW129750   1.123   3.610   3.513
 9617SOL    HW229751   1.169   3.523   3.644
 9618SOL     OW29752   3.576   0.209   6.319
 9618SOL    HW129753   3.662   0.180   6.276
 9618SOL    HW229754   3.578   0.307   6.334
 9619SOL     OW29755   1.281   6.400   0.716
 9619SOL    HW129756   1.344   6.325   0.737
 9619SOL    HW229757   1.327   6.488   0.731
 9620SOL     OW29758   4.031   0.612   6.546
 9620SOL    HW129759   3.942   0.598   6.504
 9620SOL    HW229760   4.034   0.563   6.633
 9621SOL     OW29761   1.256   0.372   1.889
 9621SOL    HW129762   1.335   0.354   1.947
 9621SOL    HW229763   1.197   0.439   1.934
 9622SOL     OW29764   6.526   1.013   6.917
 9622SOL    HW129765   6.599   0.950   6.892
 9622SOL    HW229766   6.480   0.980   7.000
 9623SOL     OW29767   4.880   5.629   6.401
 9623SOL    HW129768   4.876   5.726   6.426
 9623SOL    HW229769   4.901   5.620   6.304
 9624SOL     OW29770   5.261   5.093   5.385
 9624SOL    HW129771   5.222   5.157   5.319
 9624SOL    HW229772   5.293   5.011   5.338
 9625SOL     OW29773   4.819   4.200   6.526
 9625SOL    HW129774   4.771   4.168   6.444
 9625SOL    HW229775   4.756   4.200   6.604
 9626SOL     OW29776   1.632   4.606   4.634
 9626SOL    HW129777   1.607   4.510   4.625
 9626SOL    HW229778   1.725   4.619   4.601
 9627SOL     OW29779   1.538   4.213   5.403
 9627SOL    HW129780   1.524   4.116   5.382
 9627SOL    HW229781   1.465   4.267   5.361
 9628SOL     OW29782   5.890   4.084   6.889
 9628SOL    HW129783   5.893   4.084   6.989
 9628SOL    HW229784   5.879   4.177   6.855
 9629SOL     OW29785   6.599   6.305   3.574
 9629SOL    HW129786   6.625   6.363   3.497
 9629SOL    HW229787   6.538   6.232   3.542
 9630SOL     OW29788   6.046   6.196   5.391
 9630SOL    HW129789   6.085   6.280   5.429
 9630SOL    HW229790   6.088   6.176   5.303
 9631SOL     OW29791   4.711   1.156   1.669
 9631SOL    HW129792   4.674   1.079   1.615
 9631SOL    HW229793   4.710   1.132   1.766
 9632SOL     OW29794   1.974   5.370   1.962
 9632SOL    HW129795   1.913   5.446   1.940
 9632SOL    HW229796   1.921   5.286   1.973
 9633SOL     OW29797   3.611   3.141   2.035
 9633SOL    HW129798   3.583   3.155   1.940
 9633SOL    HW229799   3.664   3.056   2.042
 9634SOL     OW29800   6.140   4.325   3.147
 9634SOL    HW129801   6.174   4.247   3.095
 9634SOL    HW229802   6.210   4.396   3.150
 9635SOL     OW29803   0.029   4.251   4.764
 9635SOL    HW129804   0.064   4.167   4.805
 9635SOL    HW229805   6.973   4.230   4.701
 9636SOL     OW29806   4.277   1.257   5.645
 9636SOL    HW129807   4.282   1.308   5.731
 9636SOL    HW229808   4.333   1.302   5.576
 9637SOL     OW29809   2.551   3.590   1.449
 9637SOL    HW129810   2.605   3.545   1.521
 9637SOL    HW229811   2.540   3.687   1.473
 9638SOL     OW29812   6.957   4.483   6.346
 9638SOL    HW129813   6.965   4.389   6.311
 9638SOL    HW229814   6.879   4.488   6.408
 9639SOL     OW29815   4.184   2.456   1.824
 9639SOL    HW129816   4.126   2.378   1.845
 9639SOL    HW229817   4.157   2.496   1.737
 9640SOL     OW29818   4.245   1.143   1.879
 9640SOL    HW129819   4.254   1.043   1.877
 9640SOL    HW229820   4.163   1.168   1.931
 9641SOL     OW29821   5.534   5.499   3.076
 9641SOL    HW129822   5.480   5.550   3.143
 9641SOL    HW229823   5.509   5.402   3.079
 9642SOL     OW29824   1.187   0.363   4.393
 9642SOL    HW129825   1.150   0.423   4.464
 9642SOL    HW229826   1.224   0.280   4.434
 9643SOL     OW29827   4.673   4.350   3.893
 9643SOL    HW129828   4.665   4.283   3.819
 9643SOL    HW229829   4.669   4.302   3.981
 9644SOL     OW29830   1.869   5.902   5.029
 9644SOL    HW129831   1.793   5.967   5.029
 9644SOL    HW229832   1.834   5.810   5.009
 9645SOL     OW29833   1.356   4.393   5.301
 9645SOL    HW129834   1.378   4.487   5.327
 9645SOL    HW229835   1.337   4.389   5.203
 9646SOL     OW29836   2.346   6.715   3.668
 9646SOL    HW129837   2.263   6.664   3.647
 9646SOL    HW229838   2.347   6.799   3.613
 9647SOL     OW29839   6.784   6.291   2.737
 9647SOL    HW129840   6.805   6.374   2.789
 9647SOL    HW229841   6.770   6.314   2.641
 9648SOL     OW29842   5.442   3.161   1.334
 9648SOL    HW129843   5.349   3.144   1.368
 9648SOL    HW229844   5.508   3.115   1.393
 9649SOL     OW29845   2.267   3.581   6.683
 9649SOL    HW129846   2.361   3.590   6.716
 9649SOL    HW229847   2.206   3.630   6.745
 9650SOL     OW29848   6.231   5.019   3.547
 9650SOL    HW129849   6.200   5.082   3.476
 9650SOL    HW229850   6.312   4.969   3.516
 9651SOL     OW29851   3.741   1.186   0.512
 9651SOL    HW129852   3.645   1.159   0.507
 9651SOL    HW229853   3.799   1.107   0.494
 9652SOL     OW29854   0.832   4.446   1.466
 9652SOL    HW129855   0.747   4.499   1.465
 9652SOL    HW229856   0.907   4.504   1.498
 9653SOL     OW29857   4.310   4.674   5.453
 9653SOL    HW129858   4.335   4.724   5.370
 9653SOL    HW229859   4.337   4.726   5.533
 9654SOL     OW29860   3.391   2.879   2.717
 9654SOL    HW129861   3.363   2.786   2.742
 9654SOL    HW229862   3.440   2.921   2.793
 9655SOL     OW29863   0.015   1.372   0.862
 9655SOL    HW129864   0.060   1.322   0.936
 9655SOL    HW229865   0.065   1.457   0.844
 9656SOL     OW29866   4.596   2.121   0.501
 9656SOL    HW129867   4.611   2.102   0.404
 9656SOL    HW229868   4.655   2.062   0.556
 9657SOL     OW29869   4.928   4.337   3.522
 9657SOL    HW129870   4.846   4.334   3.579
 9657SOL    HW229871   4.967   4.246   3.515
 9658SOL     OW29872   5.449   2.088   2.368
 9658SOL    HW129873   5.483   2.045   2.285
 9658SOL    HW229874   5.349   2.084   2.369
 9659SOL     OW29875   2.633   2.305   6.719
 9659SOL    HW129876   2.675   2.394   6.700
 9659SOL    HW229877   2.685   2.258   6.790
 9660SOL     OW29878   0.717   0.192   1.544
 9660SOL    HW129879   0.657   0.173   1.622
 9660SOL    HW229880   0.792   0.251   1.574
 9661SOL     OW29881   4.534   5.490   1.428
 9661SOL    HW129882   4.569   5.464   1.519
 9661SOL    HW229883   4.489   5.411   1.387
 9662SOL     OW29884   5.248   4.070   0.039
 9662SOL    HW129885   5.285   4.064   6.965
 9662SOL    HW229886   5.185   3.994   0.055
 9663SOL     OW29887   0.992   4.243   2.381
 9663SOL    HW129888   1.021   4.320   2.324
 9663SOL    HW229889   0.962   4.168   2.322
 9664SOL     OW29890   5.428   4.216   4.006
 9664SOL    HW129891   5.469   4.293   3.957
 9664SOL    HW229892   5.489   4.185   4.079
 9665SOL     OW29893   6.585   6.215   5.605
 9665SOL    HW129894   6.497   6.196   5.649
 9665SOL    HW229895   6.635   6.283   5.660
 9666SOL     OW29896   6.826   4.361   1.524
 9666SOL    HW129897   6.833   4.309   1.609
 9666SOL    HW229898   6.823   4.298   1.446
 9667SOL     OW29899   4.727   4.392   1.019
 9667SOL    HW129900   4.804   4.379   0.955
 9667SOL    HW229901   4.674   4.307   1.024
 9668SOL     OW29902   1.574   1.102   6.270
 9668SOL    HW129903   1.664   1.057   6.266
 9668SOL    HW229904   1.511   1.056   6.207
 9669SOL     OW29905   2.684   0.157   0.603
 9669SOL    HW129906   2.702   0.099   0.523
 9669SOL    HW229907   2.712   0.251   0.582
 9670SOL     OW29908   0.272   6.108   5.238
 9670SOL    HW129909   0.191   6.079   5.289
 9670SOL    HW229910   0.256   6.199   5.200
 9671SOL     OW29911   0.609   5.128   0.065
 9671SOL    HW129912   0.617   5.105   0.162
 9671SOL    HW229913   0.548   5.206   0.055
 9672SOL     OW29914   1.857   5.163   2.822
 9672SOL    HW129915   1.781   5.193   2.879
 9672SOL    HW229916   1.832   5.170   2.725
 9673SOL     OW29917   3.739   4.010   1.055
 9673SOL    HW129918   3.792   4.088   1.021
 9673SOL    HW229919   3.766   3.928   1.004
 9674SOL     OW29920   3.868   6.254   2.762
 9674SOL    HW129921   3.941   6.219   2.821
 9674SOL    HW229922   3.779   6.227   2.799
 9675SOL     OW29923   4.875   3.123   0.122
 9675SOL    HW129924   4.901   3.026   0.116
 9675SOL    HW229925   4.910   3.172   0.042
 9676SOL     OW29926   1.417   3.610   5.896
 9676SOL    HW129927   1.342   3.672   5.872
 9676SOL    HW229928   1.491   3.621   5.830
 9677SOL     OW29929   6.464   5.327   6.686
 9677SOL    HW129930   6.435   5.368   6.772
 9677SOL    HW229931   6.552   5.281   6.698
 9678SOL     OW29932   3.241   3.794   4.249
 9678SOL    HW129933   3.151   3.751   4.250
 9678SOL    HW229934   3.232   3.892   4.229
 9679SOL     OW29935   2.742   1.380   4.546
 9679SOL    HW129936   2.819   1.443   4.536
 9679SOL    HW229937   2.766   1.308   4.610
 9680SOL     OW29938   4.802   6.749   5.455
 9680SOL    HW129939   4.709   6.738   5.492
 9680SOL    HW229940   4.821   6.674   5.391
 9681SOL     OW29941   3.539   1.881   1.367
 9681SOL    HW129942   3.566   1.784   1.362
 9681SOL    HW229943   3.504   1.910   1.278
 9682SOL     OW29944   4.800   4.681   3.599
 9682SOL    HW129945   4.730   4.632   3.650
 9682SOL    HW229946   4.799   4.651   3.504
 9683SOL     OW29947   2.992   5.929   0.302
 9683SOL    HW129948   2.920   5.864   0.327
 9683SOL    HW229949   3.081   5.884   0.309
 9684SOL     OW29950   0.467   3.916   5.092
 9684SOL    HW129951   0.487   3.939   5.187
 9684SOL    HW229952   0.446   3.999   5.040
 9685SOL     OW29953   4.663   3.452   0.640
 9685SOL    HW129954   4.753   3.439   0.682
 9685SOL    HW229955   4.673   3.454   0.540
 9686SOL     OW29956   0.718   3.137   0.260
 9686SOL    HW129957   0.800   3.085   0.234
 9686SOL    HW229958   0.735   3.184   0.346
 9687SOL     OW29959   6.334   0.342   2.029
 9687SOL    HW129960   6.238   0.331   2.053
 9687SOL    HW229961   6.366   0.261   1.980
 9688SOL     OW29962   0.600   3.658   0.888
 9688SOL    HW129963   0.506   3.648   0.918
 9688SOL    HW229964   0.614   3.750   0.851
 9689SOL     OW29965   0.927   4.275   6.356
 9689SOL    HW129966   0.933   4.214   6.277
 9689SOL    HW229967   0.956   4.225   6.439
 9690SOL     OW29968   4.448   5.479   5.419
 9690SOL    HW129969   4.491   5.425   5.492
 9690SOL    HW229970   4.519   5.515   5.358
 9691SOL     OW29971   3.108   4.079   2.044
 9691SOL    HW129972   3.073   3.991   2.013
 9691SOL    HW229973   3.034   4.146   2.049
 9692SOL     OW29974   4.932   5.347   0.914
 9692SOL    HW129975   5.013   5.400   0.888
 9692SOL    HW229976   4.927   5.341   1.014
 9693SOL     OW29977   5.584   4.397   3.209
 9693SOL    HW129978   5.590   4.383   3.110
 9693SOL    HW229979   5.659   4.457   3.239
 9694SOL     OW29980   3.769   1.099   1.740
 9694SOL    HW129981   3.748   1.190   1.776
 9694SOL    HW229982   3.739   1.030   1.806
 9695SOL     OW29983   0.172   3.030   3.463
 9695SOL    HW129984   0.122   3.111   3.434
 9695SOL    HW229985   0.265   3.033   3.426
 9696SOL     OW29986   5.907   1.797   2.249
 9696SOL    HW129987   5.920   1.781   2.151
 9696SOL    HW229988   5.987   1.846   2.286
 9697SOL     OW29989   0.462   6.247   0.765
 9697SOL    HW129990   0.433   6.241   0.670
 9697SOL    HW229991   0.537   6.313   0.772
 9698SOL     OW29992   5.580   2.904   6.155
 9698SOL    HW129993   5.680   2.909   6.149
 9698SOL    HW229994   5.540   2.984   6.110
 9699SOL     OW29995   0.826   5.447   6.982
 9699SOL    HW129996   0.850   5.385   0.038
 9699SOL    HW229997   0.834   5.542   7.013
 9700SOL     OW29998   6.519   5.495   4.552
 9700SOL    HW129999   6.586   5.487   4.478
 9700SOL    HW230000   6.535   5.424   4.620
 9701SOL     OW30001   3.869   3.858   5.881
 9701SOL    HW130002   3.811   3.857   5.800
 9701SOL    HW230003   3.841   3.784   5.943
 9702SOL     OW30004   3.834   2.466   0.104
 9702SOL    HW130005   3.924   2.428   0.084
 9702SOL    HW230006   3.796   2.508   0.022
 9703SOL     OW30007   5.267   3.968   4.175
 9703SOL    HW130008   5.182   4.021   4.177
 9703SOL    HW230009   5.295   3.953   4.080
 9704SOL     OW30010   3.102   5.686   2.584
 9704SOL    HW130011   3.011   5.706   2.619
 9704SOL    HW230012   3.111   5.587   2.570
 9705SOL     OW30013   6.058   4.229   5.913
 9705SOL    HW130014   6.086   4.133   5.911
 9705SOL    HW230015   6.068   4.266   6.006
 9706SOL     OW30016   2.839   2.244   1.524
 9706SOL    HW130017   2.795   2.161   1.559
 9706SOL    HW230018   2.891   2.287   1.598
 9707SOL     OW30019   5.707   4.835   2.757
 9707SOL    HW130020   5.650   4.795   2.685
 9707SOL    HW230021   5.797   4.857   2.721
 9708SOL     OW30022   1.114   1.597   2.928
 9708SOL    HW130023   1.068   1.642   2.851
 9708SOL    HW230024   1.194   1.650   2.955
 9709SOL     OW30025   5.349   4.673   2.113
 9709SOL    HW130026   5.282   4.652   2.042
 9709SOL    HW230027   5.395   4.589   2.141
 9710SOL     OW30028   6.301   0.489   0.736
 9710SOL    HW130029   6.396   0.461   0.748
 9710SOL    HW230030   6.288   0.523   0.643
 9711SOL     OW30031   3.793   5.522   6.441
 9711SOL    HW130032   3.743   5.436   6.447
 9711SOL    HW230033   3.820   5.538   6.346
 9712SOL     OW30034   6.081   3.200   0.262
 9712SOL    HW130035   6.150   3.202   0.335
 9712SOL    HW230036   6.123   3.229   0.176
 9713SOL     OW30037   2.856   5.266   3.439
 9713SOL    HW130038   2.937   5.216   3.468
 9713SOL    HW230039   2.883   5.351   3.394
 9714SOL     OW30040   3.797   6.175   5.614
 9714SOL    HW130041   3.864   6.195   5.543
 9714SOL    HW230042   3.839   6.118   5.684
 9715SOL     OW30043   5.594   4.966   6.681
 9715SOL    HW130044   5.586   5.027   6.603
 9715SOL    HW230045   5.524   4.894   6.674
 9716SOL     OW30046   3.527   4.723   6.870
 9716SOL    HW130047   3.622   4.692   6.877
 9716SOL    HW230048   3.509   4.789   6.943
 9717SOL     OW30049   4.600   6.384   6.798
 9717SOL    HW130050   4.641   6.312   6.854
 9717SOL    HW230051   4.507   6.359   6.774
 9718SOL     OW30052   4.486   3.090   1.131
 9718SOL    HW130053   4.441   3.018   1.078
 9718SOL    HW230054   4.431   3.110   1.212
 9719SOL     OW30055   5.218   6.587   5.643
 9719SOL    HW130056   5.243   6.556   5.735
 9719SOL    HW230057   5.258   6.677   5.627
 9720SOL     OW30058   0.876   3.429   2.736
 9720SOL    HW130059   0.777   3.430   2.726
 9720SOL    HW230060   0.906   3.341   2.772
 9721SOL     OW30061   0.008   1.209   6.587
 9721SOL    HW130062   6.932   1.239   6.601
 9721SOL    HW230063   0.067   1.288   6.573
 9722SOL     OW30064   3.498   0.973   5.298
 9722SOL    HW130065   3.571   0.939   5.239
 9722SOL    HW230066   3.432   1.024   5.243
 9723SOL     OW30067   4.953   5.755   4.023
 9723SOL    HW130068   4.998   5.686   3.967
 9723SOL    HW230069   4.914   5.712   4.104
 9724SOL     OW30070   1.838   4.273   0.126
 9724SOL    HW130071   1.856   4.368   0.149
 9724SOL    HW230072   1.778   4.268   0.045
 9725SOL     OW30073   3.790   6.142   6.439
 9725SOL    HW130074   3.709   6.090   6.464
 9725SOL    HW230075   3.775   6.239   6.460
 9726SOL     OW30076   4.579   2.023   4.850
 9726SOL    HW130077   4.564   2.081   4.930
 9726SOL    HW230078   4.496   1.969   4.832
 9727SOL     OW30079   0.990   2.460   0.025
 9727SOL    HW130080   1.069   2.484   0.082
 9727SOL    HW230081   1.003   2.495   6.951
 9728SOL     OW30082   0.253   1.893   5.164
 9728SOL    HW130083   0.246   1.798   5.132
 9728SOL    HW230084   0.185   1.949   5.116
 9729SOL     OW30085   1.195   4.366   4.005
 9729SOL    HW130086   1.260   4.308   3.955
 9729SOL    HW230087   1.130   4.308   4.054
 9730SOL     OW30088   1.029   4.232   3.234
 9730SOL    HW130089   0.959   4.242   3.305
 9730SOL    HW230090   1.074   4.320   3.219
 9731SOL     OW30091   4.625   5.433   1.763
 9731SOL    HW130092   4.674   5.347   1.747
 9731SOL    HW230093   4.550   5.417   1.828
 9732SOL     OW30094   0.628   3.082   2.170
 9732SOL    HW130095   0.650   3.178   2.188
 9732SOL    HW230096   0.683   3.049   2.093
 9733SOL     OW30097   5.905   5.934   0.615
 9733SOL    HW130098   5.915   5.998   0.538
 9733SOL    HW230099   5.894   5.841   0.580
 9734SOL     OW30100   6.728   0.235   0.345
 9734SOL    HW130101   6.686   0.180   0.272
 9734SOL    HW230102   6.676   0.321   0.355
 9735SOL     OW30103   1.763   3.119   3.302
 9735SOL    HW130104   1.743   3.037   3.356
 9735SOL    HW230105   1.724   3.199   3.346
 9736SOL     OW30106   5.342   1.759   6.212
 9736SOL    HW130107   5.325   1.692   6.140
 9736SOL    HW230108   5.319   1.719   6.301
 9737SOL     OW30109   5.159   2.287   2.733
 9737SOL    HW130110   5.244   2.304   2.783
 9737SOL    HW230111   5.171   2.314   2.638
 9738SOL     OW30112   1.930   6.790   0.736
 9738SOL    HW130113   1.926   6.714   0.671
 9738SOL    HW230114   1.843   6.799   0.783
 9739SOL     OW30115   5.226   5.721   0.103
 9739SOL    HW130116   5.210   5.819   0.092
 9739SOL    HW230117   5.148   5.670   0.068
 9740SOL     OW30118   6.681   1.246   2.846
 9740SOL    HW130119   6.708   1.201   2.931
 9740SOL    HW230120   6.716   1.339   2.846
 9741SOL     OW30121   2.604   0.776   3.510
 9741SOL    HW130122   2.647   0.856   3.471
 9741SOL    HW230123   2.610   0.699   3.446
 9742SOL     OW30124   4.083   1.115   0.287
 9742SOL    HW130125   4.089   1.057   0.207
 9742SOL    HW230126   4.033   1.199   0.264
 9743SOL     OW30127   0.217   4.074   2.949
 9743SOL    HW130128   0.164   4.001   2.992
 9743SOL    HW230129   0.254   4.134   3.019
 9744SOL     OW30130   2.344   0.343   2.745
 9744SOL    HW130131   2.304   0.288   2.671
 9744SOL    HW230132   2.278   0.412   2.774
 9745SOL     OW30133   4.729   3.013   6.037
 9745SOL    HW130134   4.819   2.989   6.001
 9745SOL    HW230135   4.674   3.056   5.965
 9746SOL     OW30136   5.366   6.300   5.446
 9746SOL    HW130137   5.399   6.385   5.487
 9746SOL    HW230138   5.277   6.276   5.485
 9747SOL     OW30139   3.096   2.070   1.869
 9747SOL    HW130140   3.002   2.062   1.904
 9747SOL    HW230141   3.159   2.078   1.945
 9748SOL     OW30142   6.886   6.775   3.162
 9748SOL    HW130143   6.949   6.851   3.180
 9748SOL    HW230144   6.844   6.787   3.072
 9749SOL     OW30145   0.640   0.868   3.158
 9749SOL    HW130146   0.675   0.774   3.151
 9749SOL    HW230147   0.560   0.879   3.098
 9750SOL     OW30148   6.026   5.710   3.773
 9750SOL    HW130149   6.009   5.616   3.804
 9750SOL    HW230150   6.121   5.735   3.793
 9751SOL     OW30151   2.077   0.306   0.495
 9751SOL    HW130152   2.170   0.332   0.469
 9751SOL    HW230153   2.079   0.247   0.576
 9752SOL     OW30154   4.200   1.617   5.391
 9752SOL    HW130155   4.106   1.634   5.361
 9752SOL    HW230156   4.255   1.699   5.375
 9753SOL     OW30157   0.909   5.688   6.050
 9753SOL    HW130158   0.969   5.631   5.995
 9753SOL    HW230159   0.951   5.705   6.139
 9754SOL     OW30160   2.781   0.729   0.837
 9754SOL    HW130161   2.862   0.754   0.783
 9754SOL    HW230162   2.708   0.700   0.774
 9755SOL     OW30163   3.334   4.146   4.476
 9755SOL    HW130164   3.396   4.069   4.494
 9755SOL    HW230165   3.347   4.178   4.382
 9756SOL     OW30166   6.322   2.370   6.242
 9756SOL    HW130167   6.300   2.278   6.208
 9756SOL    HW230168   6.358   2.362   6.336
 9757SOL     OW30169   5.794   4.254   5.097
 9757SOL    HW130170   5.833   4.225   5.185
 9757SOL    HW230171   5.694   4.261   5.106
 9758SOL     OW30172   2.034   1.044   0.541
 9758SOL    HW130173   2.075   1.127   0.578
 9758SOL    HW230174   2.041   0.970   0.608
 9759SOL     OW30175   0.854   0.983   0.156
 9759SOL    HW130176   0.858   0.947   0.249
 9759SOL    HW230177   0.759   1.005   0.133
 9760SOL     OW30178   4.712   3.327   5.618
 9760SOL    HW130179   4.643   3.342   5.548
 9760SOL    HW230180   4.795   3.378   5.594
 9761SOL     OW30181   1.091   2.368   2.066
 9761SOL    HW130182   1.002   2.389   2.104
 9761SOL    HW230183   1.163   2.407   2.124
 9762SOL     OW30184   3.348   1.611   4.797
 9762SOL    HW130185   3.275   1.624   4.864
 9762SOL    HW230186   3.310   1.616   4.705
 9763SOL     OW30187   5.644   1.023   3.667
 9763SOL    HW130188   5.555   1.032   3.710
 9763SOL    HW230189   5.697   0.952   3.715
 9764SOL     OW30190   6.354   2.328   2.109
 9764SOL    HW130191   6.411   2.299   2.033
 9764SOL    HW230192   6.258   2.325   2.082
 9765SOL     OW30193   6.876   6.490   2.896
 9765SOL    HW130194   6.941   6.475   2.970
 9765SOL    HW230195   6.898   6.575   2.848
 9766SOL     OW30196   2.362   6.575   2.456
 9766SOL    HW130197   2.387   6.528   2.540
 9766SOL    HW230198   2.403   6.666   2.455
 9767SOL     OW30199   2.445   2.464   6.051
 9767SOL    HW130200   2.379   2.521   6.101
 9767SOL    HW230201   2.533   2.511   6.048
 9768SOL     OW30202   4.608   1.427   1.639
 9768SOL    HW130203   4.656   1.339   1.642
 9768SOL    HW230204   4.581   1.453   1.732
 9769SOL     OW30205   3.522   1.409   4.601
 9769SOL    HW130206   3.619   1.389   4.616
 9769SOL    HW230207   3.493   1.482   4.663
 9770SOL     OW30208   3.789   1.438   5.238
 9770SOL    HW130209   3.787   1.341   5.213
 9770SOL    HW230210   3.786   1.446   5.337
 9771SOL     OW30211   2.464   5.316   1.047
 9771SOL    HW130212   2.436   5.400   1.093
 9771SOL    HW230213   2.494   5.337   0.954
 9772SOL     OW30214   2.111   6.399   1.809
 9772SOL    HW130215   2.135   6.395   1.712
 9772SOL    HW230216   2.011   6.400   1.819
 9773SOL     OW30217   4.883   5.592   3.616
 9773SOL    HW130218   4.828   5.646   3.679
 9773SOL    HW230219   4.898   5.645   3.532
 9774SOL     OW30220   0.435   5.456   2.943
 9774SOL    HW130221   0.500   5.390   2.981
 9774SOL    HW230222   0.402   5.424   2.854
 9775SOL     OW30223   3.094   0.271   3.605
 9775SOL    HW130224   3.045   0.204   3.550
 9775SOL    HW230225   3.036   0.302   3.681
 9776SOL     OW30226   1.192   4.401   5.881
 9776SOL    HW130227   1.128   4.466   5.841
 9776SOL    HW230228   1.247   4.359   5.809
 9777SOL     OW30229   5.904   5.181   0.728
 9777SOL    HW130230   5.972   5.245   0.763
 9777SOL    HW230231   5.860   5.134   0.804
 9778SOL     OW30232   6.712   1.709   4.943
 9778SOL    HW130233   6.726   1.626   4.889
 9778SOL    HW230234   6.660   1.687   5.025
 9779SOL     OW30235   0.512   1.971   3.845
 9779SOL    HW130236   0.579   1.901   3.867
 9779SOL    HW230237   0.461   1.996   3.927
 9780SOL     OW30238   2.350   1.989   0.909
 9780SOL    HW130239   2.392   2.062   0.963
 9780SOL    HW230240   2.342   2.019   0.814
 9781SOL     OW30241   1.885   3.255   4.528
 9781SOL    HW130242   1.904   3.225   4.434
 9781SOL    HW230243   1.969   3.292   4.568
 9782SOL     OW30244   0.619   2.096   0.001
 9782SOL    HW130245   0.521   2.114   0.009
 9782SOL    HW230246   0.637   2.048   6.934
 9783SOL     OW30247   4.359   2.436   3.308
 9783SOL    HW130248   4.438   2.493   3.285
 9783SOL    HW230249   4.327   2.388   3.227
 9784SOL     OW30250   3.680   0.369   5.935
 9784SOL    HW130251   3.715   0.432   6.004
 9784SOL    HW230252   3.678   0.415   5.846
 9785SOL     OW30253   6.997   2.038   5.438
 9785SOL    HW130254   0.069   1.995   5.447
 9785SOL    HW230255   6.969   2.074   5.527
 9786SOL     OW30256   2.531   3.018   0.440
 9786SOL    HW130257   2.575   3.075   0.509
 9786SOL    HW230258   2.493   3.075   0.368
 9787SOL     OW30259   3.209   3.601   2.607
 9787SOL    HW130260   3.275   3.676   2.618
 9787SOL    HW230261   3.184   3.593   2.510
 9788SOL     OW30262   1.039   6.863   1.657
 9788SOL    HW130263   0.940   6.851   1.650
 9788SOL    HW230264   1.070   6.825   1.744
 9789SOL     OW30265   1.490   6.156   0.673
 9789SOL    HW130266   1.462   6.130   0.581
 9789SOL    HW230267   1.574   6.209   0.669
 9790SOL     OW30268   6.501   4.292   6.016
 9790SOL    HW130269   6.543   4.237   5.943
 9790SOL    HW230270   6.573   4.332   6.072
 9791SOL     OW30271   0.182   0.390   6.833
 9791SOL    HW130272   0.124   0.356   6.759
 9791SOL    HW230273   0.225   0.312   6.879
 9792SOL     OW30274   3.471   5.064   1.012
 9792SOL    HW130275   3.501   5.044   0.919
 9792SOL    HW230276   3.411   5.144   1.011
 9793SOL     OW30277   4.374   0.365   2.470
 9793SOL    HW130278   4.472   0.348   2.463
 9793SOL    HW230279   4.332   0.354   2.380
 9794SOL     OW30280   6.386   4.549   5.715
 9794SOL    HW130281   6.316   4.541   5.644
 9794SOL    HW230282   6.360   4.621   5.780
 9795SOL     OW30283   1.350   2.612   4.629
 9795SOL    HW130284   1.338   2.529   4.683
 9795SOL    HW230285   1.404   2.678   4.681
 9796SOL     OW30286   4.066   3.776   2.847
 9796SOL    HW130287   4.005   3.796   2.770
 9796SOL    HW230288   4.148   3.833   2.840
 9797SOL     OW30289   1.960   5.742   0.214
 9797SOL    HW130290   2.029   5.730   0.143
 9797SOL    HW230291   1.873   5.704   0.181
 9798SOL     OW30292   2.660   0.741   2.074
 9798SOL    HW130293   2.597   0.749   1.997
 9798SOL    HW230294   2.754   0.745   2.041
 9799SOL     OW30295   2.918   4.250   5.874
 9799SOL    HW130296   2.990   4.289   5.817
 9799SOL    HW230297   2.940   4.154   5.894
 9800SOL     OW30298   4.894   4.796   4.439
 9800SOL    HW130299   4.943   4.763   4.358
 9800SOL    HW230300   4.823   4.731   4.464
 9801SOL     OW30301   4.628   4.146   6.726
 9801SOL    HW130302   4.629   4.058   6.679
 9801SOL    HW230303   4.687   4.140   6.807
 9802SOL     OW30304   5.816   4.850   0.507
 9802SOL    HW130305   5.720   4.864   0.533
 9802SOL    HW230306   5.824   4.762   0.459
 9803SOL     OW30307   1.516   3.039   6.336
 9803SOL    HW130308   1.556   3.039   6.244
 9803SOL    HW230309   1.452   2.963   6.344
 9804SOL     OW30310   0.526   6.354   3.179
 9804SOL    HW130311   0.561   6.414   3.251
 9804SOL    HW230312   0.554   6.390   3.089
 9805SOL     OW30313   0.639   6.715   3.115
 9805SOL    HW130314   0.623   6.665   3.200
 9805SOL    HW230315   0.592   6.803   3.118
 9806SOL     OW30316   1.299   1.693   6.778
 9806SOL    HW130317   1.213   1.739   6.756
 9806SOL    HW230318   1.332   1.643   6.698
 9807SOL     OW30319   3.301   4.007   1.024
 9807SOL    HW130320   3.241   3.942   0.978
 9807SOL    HW230321   3.248   4.087   1.053
 9808SOL     OW30322   4.043   5.727   4.939
 9808SOL    HW130323   3.966   5.663   4.941
 9808SOL    HW230324   4.040   5.779   4.853
 9809SOL     OW30325   0.598   3.515   0.025
 9809SOL    HW130326   0.678   3.462   0.053
 9809SOL    HW230327   0.545   3.463   6.976
 9810SOL     OW30328   3.309   2.036   4.352
 9810SOL    HW130329   3.281   2.121   4.396
 9810SOL    HW230330   3.340   1.971   4.421
 9811SOL     OW30331   5.786   4.960   3.513
 9811SOL    HW130332   5.757   4.866   3.533
 9811SOL    HW230333   5.849   4.959   3.436
 9812SOL     OW30334   3.255   1.357   5.504
 9812SOL    HW130335   3.250   1.439   5.448
 9812SOL    HW230336   3.195   1.366   5.583
 9813SOL     OW30337   4.871   1.898   0.970
 9813SOL    HW130338   4.918   1.902   1.059
 9813SOL    HW230339   4.785   1.950   0.976
 9814SOL     OW30340   6.727   0.798   6.881
 9814SOL    HW130341   6.702   0.743   6.961
 9814SOL    HW230342   6.761   0.738   6.809
 9815SOL     OW30343   4.963   3.232   4.550
 9815SOL    HW130344   4.908   3.149   4.536
 9815SOL    HW230345   5.059   3.212   4.531
 9816SOL     OW30346   0.079   1.212   5.705
 9816SOL    HW130347   0.149   1.243   5.769
 9816SOL    HW230348   0.089   1.113   5.691
 9817SOL     OW30349   1.293   6.745   3.402
 9817SOL    HW130350   1.286   6.691   3.317
 9817SOL    HW230351   1.242   6.830   3.391
 9818SOL     OW30352   6.566   1.366   3.989
 9818SOL    HW130353   6.521   1.279   3.966
 9818SOL    HW230354   6.503   1.424   4.040
 9819SOL     OW30355   5.233   3.215   3.196
 9819SOL    HW130356   5.251   3.305   3.158
 9819SOL    HW230357   5.244   3.145   3.125
 9820SOL     OW30358   3.266   2.982   6.411
 9820SOL    HW130359   3.290   3.068   6.366
 9820SOL    HW230360   3.330   2.910   6.383
 9821SOL     OW30361   5.608   1.146   6.543
 9821SOL    HW130362   5.537   1.173   6.478
 9821SOL    HW230363   5.622   1.219   6.609
 9822SOL     OW30364   1.666   6.795   3.150
 9822SOL    HW130365   1.606   6.829   3.077
 9822SOL    HW230366   1.750   6.848   3.152
 9823SOL     OW30367   3.232   6.803   0.814
 9823SOL    HW130368   3.181   6.836   0.894
 9823SOL    HW230369   3.182   6.828   0.731
 9824SOL     OW30370   2.191   4.709   4.894
 9824SOL    HW130371   2.183   4.664   4.805
 9824SOL    HW230372   2.206   4.640   4.965
 9825SOL     OW30373   3.799   5.132   5.895
 9825SOL    HW130374   3.879   5.150   5.838
 9825SOL    HW230375   3.730   5.083   5.841
 9826SOL     OW30376   5.133   4.950   5.948
 9826SOL    HW130377   5.061   4.896   5.905
 9826SOL    HW230378   5.158   5.027   5.889
 9827SOL     OW30379   1.977   3.866   3.833
 9827SOL    HW130380   2.007   3.886   3.740
 9827SOL    HW230381   2.056   3.862   3.894
 9828SOL     OW30382   2.364   3.225   6.438
 9828SOL    HW130383   2.315   3.302   6.480
 9828SOL    HW230384   2.300   3.169   6.385
 9829SOL     OW30385   3.288   5.913   6.835
 9829SOL    HW130386   3.284   5.950   6.928
 9829SOL    HW230387   3.225   5.962   6.776
 9830SOL     OW30388   5.977   2.889   2.092
 9830SOL    HW130389   6.015   2.839   2.014
 9830SOL    HW230390   6.044   2.957   2.123
 9831SOL     OW30391   2.278   5.562   1.023
 9831SOL    HW130392   2.214   5.527   1.092
 9831SOL    HW230393   2.262   5.516   0.936
 9832SOL     OW30394   4.911   5.782   2.729
 9832SOL    HW130395   4.962   5.696   2.728
 9832SOL    HW230396   4.973   5.858   2.707
 9833SOL     OW30397   3.957   3.081   5.303
 9833SOL    HW130398   3.922   2.996   5.265
 9833SOL    HW230399   4.053   3.069   5.329
 9834SOL     OW30400   3.393   4.223   5.202
 9834SOL    HW130401   3.296   4.222   5.178
 9834SOL    HW230402   3.443   4.161   5.142
 9835SOL     OW30403   3.175   2.878   5.566
 9835SOL    HW130404   3.154   2.924   5.480
 9835SOL    HW230405   3.124   2.792   5.571
 9836SOL     OW30406   5.822   4.599   4.030
 9836SOL    HW130407   5.881   4.593   3.950
 9836SOL    HW230408   5.849   4.530   4.097
 9837SOL     OW30409   2.804   0.665   2.860
 9837SOL    HW130410   2.795   0.699   2.954
 9837SOL    HW230411   2.807   0.742   2.796
 9838SOL     OW30412   0.862   6.640   6.272
 9838SOL    HW130413   0.868   6.566   6.205
 9838SOL    HW230414   0.791   6.704   6.244
 9839SOL     OW30415   6.056   1.725   3.268
 9839SOL    HW130416   6.077   1.658   3.198
 9839SOL    HW230417   6.024   1.810   3.225
 9840SOL     OW30418   0.410   1.779   1.345
 9840SOL    HW130419   0.491   1.793   1.403
 9840SOL    HW230420   0.332   1.756   1.402
 9841SOL     OW30421   1.924   4.224   4.608
 9841SOL    HW130422   2.007   4.170   4.616
 9841SOL    HW230423   1.866   4.209   4.689
 9842SOL     OW30424   4.068   3.604   2.575
 9842SOL    HW130425   4.083   3.648   2.664
 9842SOL    HW230426   4.084   3.506   2.583
 9843SOL     OW30427   5.356   0.554   1.217
 9843SOL    HW130428   5.300   0.607   1.281
 9843SOL    HW230429   5.453   0.568   1.237
 9844SOL     OW30430   5.947   1.519   2.109
 9844SOL    HW130431   5.915   1.434   2.065
 9844SOL    HW230432   5.936   1.511   2.208
 9845SOL     OW30433   3.330   1.977   3.490
 9845SOL    HW130434   3.381   2.003   3.408
 9845SOL    HW230435   3.385   1.914   3.546
 9846SOL     OW30436   3.721   3.519   1.845
 9846SOL    HW130437   3.785   3.443   1.838
 9846SOL    HW230438   3.732   3.579   1.765
 9847SOL     OW30439   3.618   2.931   4.331
 9847SOL    HW130440   3.531   2.904   4.288
 9847SOL    HW230441   3.620   3.030   4.343
 9848SOL     OW30442   3.360   3.016   6.143
 9848SOL    HW130443   3.403   3.103   6.118
 9848SOL    HW230444   3.333   2.967   6.061
 9849SOL     OW30445   0.370   0.302   0.025
 9849SOL    HW130446   0.403   0.390   7.009
 9849SOL    HW230447   0.282   0.314   0.069
 9850SOL     OW30448   5.812   0.097   3.910
 9850SOL    HW130449   5.787   0.185   3.871
 9850SOL    HW230450   5.888   0.109   3.974
 9851SOL     OW30451   4.774   1.431   5.169
 9851SOL    HW130452   4.735   1.358   5.114
 9851SOL    HW230453   4.702   1.495   5.196
 9852SOL     OW30454   4.273   2.289   2.729
 9852SOL    HW130455   4.348   2.329   2.781
 9852SOL    HW230456   4.307   2.258   2.640
 9853SOL     OW30457   5.602   4.547   4.480
 9853SOL    HW130458   5.639   4.640   4.480
 9853SOL    HW230459   5.504   4.551   4.495
 9854SOL     OW30460   0.479   5.963   5.160
 9854SOL    HW130461   0.438   5.915   5.083
 9854SOL    HW230462   0.418   6.037   5.189
 9855SOL     OW30463   2.712   2.788   0.900
 9855SOL    HW130464   2.673   2.754   0.986
 9855SOL    HW230465   2.716   2.888   0.903
 9856SOL     OW30466   4.546   3.760   5.799
 9856SOL    HW130467   4.564   3.852   5.762
 9856SOL    HW230468   4.472   3.718   5.747
 9857SOL     OW30469   4.406   2.398   3.574
 9857SOL    HW130470   4.393   2.382   3.476
 9857SOL    HW230471   4.353   2.331   3.626
 9858SOL     OW30472   7.015   0.945   0.676
 9858SOL    HW130473   0.080   0.903   0.640
 9858SOL    HW230474   6.935   0.891   0.649
 9859SOL     OW30475   6.152   6.868   2.147
 9859SOL    HW130476   6.069   6.842   2.197
 9859SOL    HW230477   6.130   6.880   2.050
 9860SOL     OW30478   0.415   1.292   3.688
 9860SOL    HW130479   0.427   1.372   3.747
 9860SOL    HW230480   0.486   1.225   3.709
 9861SOL     OW30481   3.177   0.186   3.187
 9861SOL    HW130482   3.098   0.140   3.147
 9861SOL    HW230483   3.223   0.125   3.251
 9862SOL     OW30484   3.567   4.013   0.224
 9862SOL    HW130485   3.531   4.105   0.237
 9862SOL    HW230486   3.656   4.018   0.179
 9863SOL     OW30487   3.937   6.811   2.965
 9863SOL    HW130488   4.009   6.743   2.983
 9863SOL    HW230489   3.848   6.773   2.989
 9864SOL     OW30490   4.064   6.151   3.989
 9864SOL    HW130491   4.037   6.235   3.943
 9864SOL    HW230492   4.013   6.074   3.951
 9865SOL     OW30493   1.395   0.829   4.139
 9865SOL    HW130494   1.456   0.754   4.117
 9865SOL    HW230495   1.357   0.815   4.231
 9866SOL     OW30496   4.486   4.886   6.095
 9866SOL    HW130497   4.530   4.918   6.178
 9866SOL    HW230498   4.482   4.786   6.095
 9867SOL     OW30499   6.285   1.086   0.603
 9867SOL    HW130500   6.220   1.105   0.529
 9867SOL    HW230501   6.290   0.988   0.619
 9868SOL     OW30502   0.745   3.901   5.805
 9868SOL    HW130503   0.685   3.902   5.885
 9868SOL    HW230504   0.840   3.895   5.835
 9869SOL     OW30505   1.698   3.074   2.399
 9869SOL    HW130506   1.610   3.100   2.359
 9869SOL    HW230507   1.688   3.066   2.498
 9870SOL     OW30508   3.587   5.614   2.801
 9870SOL    HW130509   3.549   5.588   2.712
 9870SOL    HW230510   3.514   5.644   2.861
 9871SOL     OW30511   0.292   6.107   6.193
 9871SOL    HW130512   0.278   6.197   6.236
 9871SOL    HW230513   0.252   6.036   6.251
 9872SOL     OW30514   2.183   4.876   4.321
 9872SOL    HW130515   2.244   4.827   4.384
 9872SOL    HW230516   2.191   4.836   4.230
 9873SOL     OW30517   2.497   2.160   0.143
 9873SOL    HW130518   2.449   2.175   0.056
 9873SOL    HW230519   2.530   2.247   0.179
 9874SOL     OW30520   6.946   2.961   4.916
 9874SOL    HW130521   6.972   2.872   4.952
 9874SOL    HW230522   6.945   3.028   4.991
 9875SOL     OW30523   6.330   6.684   1.832
 9875SOL    HW130524   6.352   6.745   1.907
 9875SOL    HW230525   6.380   6.598   1.843
 9876SOL     OW30526   6.483   0.290   3.221
 9876SOL    HW130527   6.470   0.323   3.315
 9876SOL    HW230528   6.509   0.194   3.224
 9877SOL     OW30529   0.400   6.233   4.043
 9877SOL    HW130530   0.351   6.275   4.119
 9877SOL    HW230531   0.487   6.196   4.076
 9878SOL     OW30532   2.778   4.987   5.068
 9878SOL    HW130533   2.727   4.941   4.996
 9878SOL    HW230534   2.875   4.989   5.044
 9879SOL     OW30535   5.371   5.124   4.813
 9879SOL    HW130536   5.364   5.223   4.827
 9879SOL    HW230537   5.319   5.098   4.732
 9880SOL     OW30538   3.195   0.921   5.944
 9880SOL    HW130539   3.126   0.868   5.896
 9880SOL    HW230540   3.161   0.946   6.035
 9881SOL     OW30541   0.895   0.964   4.837
 9881SOL    HW130542   0.947   1.049   4.832
 9881SOL    HW230543   0.810   0.980   4.888
 9882SOL     OW30544   1.037   3.693   3.764
 9882SOL    HW130545   1.073   3.704   3.857
 9882SOL    HW230546   1.026   3.783   3.721
 9883SOL     OW30547   1.230   6.287   0.300
 9883SOL    HW130548   1.310   6.230   0.319
 9883SOL    HW230549   1.148   6.230   0.298
 9884SOL     OW30550   4.912   2.133   2.060
 9884SOL    HW130551   4.851   2.213   2.061
 9884SOL    HW230552   5.001   2.160   2.023
 9885SOL     OW30553   6.854   2.166   4.615
 9885SOL    HW130554   6.865   2.088   4.676
 9885SOL    HW230555   6.919   2.159   4.539
 9886SOL     OW30556   1.352   4.515   2.273
 9886SOL    HW130557   1.382   4.609   2.287
 9886SOL    HW230558   1.411   4.454   2.327
 9887SOL     OW30559   3.789   0.208   6.150
 9887SOL    HW130560   3.838   0.121   6.159
 9887SOL    HW230561   3.745   0.213   6.061
 9888SOL     OW30562   5.571   4.818   2.991
 9888SOL    HW130563   5.617   4.832   2.904
 9888SOL    HW230564   5.635   4.778   3.057
 9889SOL     OW30565   6.806   5.074   1.776
 9889SOL    HW130566   6.813   5.005   1.704
 9889SOL    HW230567   6.833   5.034   1.863
 9890SOL     OW30568   1.922   2.442   0.680
 9890SOL    HW130569   1.971   2.360   0.652
 9890SOL    HW230570   1.983   2.503   0.731
 9891SOL     OW30571   4.927   4.036   1.945
 9891SOL    HW130572   5.018   4.067   1.971
 9891SOL    HW230573   4.913   3.941   1.975
 9892SOL     OW30574   6.834   4.675   1.147
 9892SOL    HW130575   6.847   4.742   1.074
 9892SOL    HW230576   6.895   4.696   1.224
 9893SOL     OW30577   0.843   0.547   0.967
 9893SOL    HW130578   0.825   0.598   1.050
 9893SOL    HW230579   0.788   0.584   0.892
 9894SOL     OW30580   2.998   2.782   1.013
 9894SOL    HW130581   3.075   2.736   1.058
 9894SOL    HW230582   2.915   2.730   1.029
 9895SOL     OW30583   6.354   5.105   4.476
 9895SOL    HW130584   6.322   5.076   4.386
 9895SOL    HW230585   6.301   5.185   4.506
 9896SOL     OW30586   6.721   1.206   6.632
 9896SOL    HW130587   6.732   1.297   6.673
 9896SOL    HW230588   6.637   1.164   6.666
 9897SOL     OW30589   5.462   6.217   2.702
 9897SOL    HW130590   5.425   6.236   2.793
 9897SOL    HW230591   5.528   6.142   2.708
 9898SOL     OW30592   1.843   6.120   4.647
 9898SOL    HW130593   1.888   6.136   4.735
 9898SOL    HW230594   1.747   6.098   4.661
 9899SOL     OW30595   1.266   5.994   0.782
 9899SOL    HW130596   1.206   6.073   0.770
 9899SOL    HW230597   1.354   6.012   0.738
 9900SOL     OW30598   1.989   2.809   3.167
 9900SOL    HW130599   1.933   2.752   3.226
 9900SOL    HW230600   2.043   2.872   3.223
 9901SOL     OW30601   2.841   0.332   6.888
 9901SOL    HW130602   2.846   0.253   6.827
 9901SOL    HW230603   2.766   0.392   6.859
 9902SOL     OW30604   3.640   4.901   1.400
 9902SOL    HW130605   3.639   4.966   1.476
 9902SOL    HW230606   3.558   4.916   1.343
 9903SOL     OW30607   5.648   2.349   1.444
 9903SOL    HW130608   5.632   2.298   1.359
 9903SOL    HW230609   5.614   2.296   1.521
 9904SOL     OW30610   0.922   3.774   6.730
 9904SOL    HW130611   0.905   3.722   6.647
 9904SOL    HW230612   0.875   3.862   6.724
 9905SOL     OW30613   1.833   0.346   6.391
 9905SOL    HW130614   1.835   0.427   6.449
 9905SOL    HW230615   1.881   0.365   6.305
 9906SOL     OW30616   1.933   3.496   1.364
 9906SOL    HW130617   1.991   3.480   1.283
 9906SOL    HW230618   1.901   3.590   1.363
 9907SOL     OW30619   0.846   6.957   1.420
 9907SOL    HW130620   0.830   6.897   1.499
 9907SOL    HW230621   0.803   0.027   1.437
 9908SOL     OW30622   6.316   1.391   5.265
 9908SOL    HW130623   6.333   1.302   5.309
 9908SOL    HW230624   6.313   1.462   5.335
 9909SOL     OW30625   4.400   1.606   3.037
 9909SOL    HW130626   4.385   1.559   2.950
 9909SOL    HW230627   4.498   1.620   3.051
 9910SOL     OW30628   1.055   5.263   1.505
 9910SOL    HW130629   0.961   5.230   1.505
 9910SOL    HW230630   1.103   5.228   1.586
 9911SOL     OW30631   3.154   6.054   2.422
 9911SOL    HW130632   3.142   6.151   2.400
 9911SOL    HW230633   3.160   6.042   2.521
 9912SOL     OW30634   3.762   0.019   1.476
 9912SOL    HW130635   3.855   0.048   1.496
 9912SOL    HW230636   3.761   6.982   1.392
 9913SOL     OW30637   6.128   4.081   0.373
 9913SOL    HW130638   6.140   4.111   0.279
 9913SOL    HW230639   6.169   4.148   0.435
 9914SOL     OW30640   5.896   1.188   4.681
 9914SOL    HW130641   5.815   1.137   4.651
 9914SOL    HW230642   5.949   1.216   4.601
 9915SOL     OW30643   6.232   1.336   3.863
 9915SOL    HW130644   6.208   1.427   3.830
 9915SOL    HW230645   6.239   1.337   3.963
 9916SOL     OW30646   2.146   2.560   2.736
 9916SOL    HW130647   2.220   2.534   2.673
 9916SOL    HW230648   2.125   2.658   2.725
 9917SOL     OW30649   4.740   4.083   6.300
 9917SOL    HW130650   4.791   4.103   6.216
 9917SOL    HW230651   4.642   4.098   6.284
 9918SOL     OW30652   2.754   2.048   3.407
 9918SOL    HW130653   2.681   2.116   3.395
 9918SOL    HW230654   2.731   1.989   3.484
 9919SOL     OW30655   0.704   5.023   0.575
 9919SOL    HW130656   0.787   5.073   0.551
 9919SOL    HW230657   0.656   5.072   0.649
 9920SOL     OW30658   4.737   1.217   2.439
 9920SOL    HW130659   4.697   1.218   2.348
 9920SOL    HW230660   4.689   1.282   2.498
 9921SOL     OW30661   4.137   6.097   4.488
 9921SOL    HW130662   4.139   6.122   4.391
 9921SOL    HW230663   4.042   6.083   4.517
 9922SOL     OW30664   2.338   3.880   0.422
 9922SOL    HW130665   2.257   3.845   0.374
 9922SOL    HW230666   2.374   3.808   0.482
 9923SOL     OW30667   5.721   4.537   6.854
 9923SOL    HW130668   5.666   4.591   6.917
 9923SOL    HW230669   5.661   4.483   6.795
 9924SOL     OW30670   6.376   1.843   3.177
 9924SOL    HW130671   6.363   1.891   3.090
 9924SOL    HW230672   6.298   1.785   3.196
 9925SOL     OW30673   0.199   4.186   4.229
 9925SOL    HW130674   0.245   4.216   4.312
 9925SOL    HW230675   0.142   4.107   4.249
 9926SOL     OW30676   4.557   3.025   1.450
 9926SOL    HW130677   4.503   3.023   1.534
 9926SOL    HW230678   4.517   3.091   1.386
 9927SOL     OW30679   1.651   0.347   0.546
 9927SOL    HW130680   1.579   0.292   0.503
 9927SOL    HW230681   1.669   0.313   0.638
 9928SOL     OW30682   5.387   5.001   3.053
 9928SOL    HW130683   5.292   4.970   3.061
 9928SOL    HW230684   5.447   4.923   3.037
 9929SOL     OW30685   3.106   4.046   5.078
 9929SOL    HW130686   3.141   3.999   5.160
 9929SOL    HW230687   3.041   4.116   5.106
 9930SOL     OW30688   6.192   6.638   4.781
 9930SOL    HW130689   6.218   6.644   4.684
 9930SOL    HW230690   6.200   6.728   4.823
 9931SOL     OW30691   0.544   5.234   4.561
 9931SOL    HW130692   0.456   5.237   4.608
 9931SOL    HW230693   0.538   5.174   4.482
 9932SOL     OW30694   2.988   3.351   6.120
 9932SOL    HW130695   3.020   3.277   6.180
 9932SOL    HW230696   3.066   3.399   6.082
 9933SOL     OW30697   0.977   6.357   3.913
 9933SOL    HW130698   1.071   6.324   3.903
 9933SOL    HW230699   0.926   6.341   3.828
 9934SOL     OW30700   6.605   2.124   5.626
 9934SOL    HW130701   6.541   2.184   5.579
 9934SOL    HW230702   6.609   2.036   5.579
 9935SOL     OW30703   3.138   6.685   0.487
 9935SOL    HW130704   3.199   6.628   0.542
 9935SOL    HW230705   3.192   6.753   0.437
 9936SOL     OW30706   6.925   4.820   0.060
 9936SOL    HW130707   6.889   4.811   6.986
 9936SOL    HW230708   0.001   4.853   0.057
 9937SOL     OW30709   0.259   1.990   1.684
 9937SOL    HW130710   0.348   1.973   1.642
 9937SOL    HW230711   0.238   1.917   1.750
 9938SOL     OW30712   6.502   5.237   3.560
 9938SOL    HW130713   6.597   5.250   3.588
 9938SOL    HW230714   6.472   5.144   3.583
 9939SOL     OW30715   4.205   2.637   1.546
 9939SOL    HW130716   4.126   2.692   1.573
 9939SOL    HW230717   4.182   2.540   1.553
 9940SOL     OW30718   0.771   0.728   1.156
 9940SOL    HW130719   0.675   0.756   1.156
 9940SOL    HW230720   0.813   0.756   1.243
 9941SOL     OW30721   3.180   3.030   4.534
 9941SOL    HW130722   3.273   2.999   4.513
 9941SOL    HW230723   3.131   3.047   4.449
 9942SOL     OW30724   2.502   5.336   2.954
 9942SOL    HW130725   2.421   5.392   2.971
 9942SOL    HW230726   2.550   5.318   3.040
 9943SOL     OW30727   0.573   4.481   5.818
 9943SOL    HW130728   0.601   4.438   5.903
 9943SOL    HW230729   0.473   4.478   5.811
 9944SOL     OW30730   0.988   4.463   6.662
 9944SOL    HW130731   1.050   4.498   6.591
 9944SOL    HW230732   1.018   4.371   6.689
 9945SOL     OW30733   4.525   5.492   6.561
 9945SOL    HW130734   4.522   5.577   6.509
 9945SOL    HW230735   4.620   5.461   6.569
 9946SOL     OW30736   6.074   0.603   3.541
 9946SOL    HW130737   5.992   0.642   3.499
 9946SOL    HW230738   6.087   0.509   3.508
 9947SOL     OW30739   2.548   2.471   4.368
 9947SOL    HW130740   2.603   2.410   4.426
 9947SOL    HW230741   2.545   2.434   4.275
 9948SOL     OW30742   6.184   4.659   5.920
 9948SOL    HW130743   6.251   4.722   5.961
 9948SOL    HW230744   6.211   4.565   5.941
 9949SOL     OW30745   6.705   4.993   4.078
 9949SOL    HW130746   6.620   5.044   4.084
 9949SOL    HW230747   6.774   5.037   4.135
 9950SOL     OW30748   5.606   6.563   5.301
 9950SOL    HW130749   5.668   6.500   5.254
 9950SOL    HW230750   5.606   6.543   5.399
 9951SOL     OW30751   0.557   1.476   3.837
 9951SOL    HW130752   0.645   1.434   3.818
 9951SOL    HW230753   0.569   1.573   3.857
 9952SOL     OW30754   1.385   4.746   0.270
 9952SOL    HW130755   1.474   4.712   0.298
 9952SOL    HW230756   1.318   4.727   0.341
 9953SOL     OW30757   5.764   2.428   4.756
 9953SOL    HW130758   5.827   2.353   4.774
 9953SOL    HW230759   5.756   2.443   4.657
 9954SOL     OW30760   0.308   0.648   6.127
 9954SOL    HW130761   0.238   0.650   6.199
 9954SOL    HW230762   0.264   0.646   6.037
 9955SOL     OW30763   5.975   3.641   6.097
 9955SOL    HW130764   6.023   3.693   6.167
 9955SOL    HW230765   5.974   3.694   6.012
 9956SOL     OW30766   1.101   5.642   2.251
 9956SOL    HW130767   1.161   5.721   2.241
 9956SOL    HW230768   1.127   5.589   2.332
 9957SOL     OW30769   5.524   6.235   1.995
 9957SOL    HW130770   5.439   6.187   2.018
 9957SOL    HW230771   5.549   6.297   2.070
 9958SOL     OW30772   2.738   4.977   0.039
 9958SOL    HW130773   2.763   4.981   6.961
 9958SOL    HW230774   2.649   4.932   0.049
 9959SOL     OW30775   4.053   3.691   4.301
 9959SOL    HW130776   4.092   3.602   4.325
 9959SOL    HW230777   4.049   3.699   4.201
 9960SOL     OW30778   0.396   0.600   1.836
 9960SOL    HW130779   0.424   0.695   1.853
 9960SOL    HW230780   0.408   0.547   1.920
 9961SOL     OW30781   1.898   5.611   4.339
 9961SOL    HW130782   1.962   5.543   4.374
 9961SOL    HW230783   1.809   5.597   4.382
 9962SOL     OW30784   5.273   6.350   1.190
 9962SOL    HW130785   5.254   6.253   1.201
 9962SOL    HW230786   5.372   6.364   1.184
 9963SOL     OW30787   2.802   3.185   6.516
 9963SOL    HW130788   2.763   3.262   6.567
 9963SOL    HW230789   2.891   3.212   6.478
 9964SOL     OW30790   4.896   3.614   6.364
 9964SOL    HW130791   4.945   3.527   6.365
 9964SOL    HW230792   4.881   3.642   6.269
 9965SOL     OW30793   3.737   5.828   6.475
 9965SOL    HW130794   3.804   5.761   6.507
 9965SOL    HW230795   3.743   5.838   6.375
 9966SOL     OW30796   2.294   5.905   2.470
 9966SOL    HW130797   2.384   5.923   2.511
 9966SOL    HW230798   2.276   5.806   2.474
 9967SOL     OW30799   5.735   7.001   2.100
 9967SOL    HW130800   5.764   0.013   2.010
 9967SOL    HW230801   5.655   6.942   2.092
 9968SOL     OW30802   3.063   3.276   6.426
 9968SOL    HW130803   3.071   3.306   6.521
 9968SOL    HW230804   3.105   3.343   6.365
 9969SOL     OW30805   2.165   3.075   3.587
 9969SOL    HW130806   2.138   2.981   3.608
 9969SOL    HW230807   2.127   3.137   3.655
 9970SOL     OW30808   5.283   4.344   2.955
 9970SOL    HW130809   5.334   4.428   2.939
 9970SOL    HW230810   5.297   4.314   3.050
 9971SOL     OW30811   2.693   4.762   0.724
 9971SOL    HW130812   2.656   4.673   0.748
 9971SOL    HW230813   2.778   4.751   0.672
 9972SOL     OW30814   3.872   4.773   1.285
 9972SOL    HW130815   3.803   4.834   1.325
 9972SOL    HW230816   3.938   4.747   1.356
 9973SOL     OW30817   4.595   2.430   4.730
 9973SOL    HW130818   4.503   2.404   4.757
 9973SOL    HW230819   4.623   2.379   4.649
 9974SOL     OW30820   6.638   3.534   3.775
 9974SOL    HW130821   6.679   3.458   3.826
 9974SOL    HW230822   6.569   3.579   3.831
 9975SOL     OW30823   0.078   4.993   6.648
 9975SOL    HW130824   0.022   4.918   6.612
 9975SOL    HW230825   0.173   4.979   6.623
 9976SOL     OW30826   0.642   6.069   5.651
 9976SOL    HW130827   0.602   5.992   5.700
 9976SOL    HW230828   0.707   6.035   5.583
 9977SOL     OW30829   6.963   5.526   5.414
 9977SOL    HW130830   0.012   5.453   5.407
 9977SOL    HW230831   6.924   5.544   5.324
 9978SOL     OW30832   6.111   3.135   3.094
 9978SOL    HW130833   6.102   3.093   3.185
 9978SOL    HW230834   6.079   3.071   3.024
 9979SOL     OW30835   0.023   4.614   5.338
 9979SOL    HW130836   0.110   4.654   5.367
 9979SOL    HW230837   0.039   4.547   5.266
 9980SOL     OW30838   2.067   1.584   6.319
 9980SOL    HW130839   2.141   1.519   6.298
 9980SOL    HW230840   2.093   1.675   6.288
 9981SOL     OW30841   2.624   1.928   2.077
 9981SOL    HW130842   2.563   1.980   2.137
 9981SOL    HW230843   2.587   1.836   2.064
 9982SOL     OW30844   0.340   0.387   3.526
 9982SOL    HW130845   0.309   0.481   3.541
 9982SOL    HW230846   0.366   0.346   3.614
 9983SOL     OW30847   0.787   2.564   3.797
 9983SOL    HW130848   0.768   2.628   3.722
 9983SOL    HW230849   0.707   2.506   3.812
 9984SOL     OW30850   2.147   0.821   0.192
 9984SOL    HW130851   2.108   0.788   0.278
 9984SOL    HW230852   2.218   0.889   0.211
 9985SOL     OW30853   1.976   1.279   1.678
 9985SOL    HW130854   2.014   1.233   1.598
 9985SOL    HW230855   1.881   1.250   1.691
 9986SOL     OW30856   4.668   4.317   6.030
 9986SOL    HW130857   4.628   4.315   6.122
 9986SOL    HW230858   4.755   4.266   6.031
 9987SOL     OW30859   0.007   2.502   3.655
 9987SOL    HW130860   6.989   2.589   3.688
 9987SOL    HW230861   0.048   2.452   3.731
 9988SOL     OW30862   0.595   5.492   5.206
 9988SOL    HW130863   0.678   5.536   5.173
 9988SOL    HW230864   0.536   5.561   5.250
 9989SOL     OW30865   6.429   4.172   3.603
 9989SOL    HW130866   6.462   4.078   3.597
 9989SOL    HW230867   6.338   4.178   3.562
 9990SOL     OW30868   2.859   6.218   1.860
 9990SOL    HW130869   2.774   6.172   1.886
 9990SOL    HW230870   2.852   6.315   1.883
 9991SOL     OW30871   2.044   2.838   3.641
 9991SOL    HW130872   2.094   2.790   3.713
 9991SOL    HW230873   1.947   2.846   3.666
 9992SOL     OW30874   5.028   4.356   0.203
 9992SOL    HW130875   4.984   4.352   0.113
 9992SOL    HW230876   4.993   4.282   0.260
 9993SOL     OW30877   3.874   0.748   1.426
 9993SOL    HW130878   3.787   0.751   1.474
 9993SOL    HW230879   3.892   0.654   1.395
 9994SOL     OW30880   0.190   4.844   3.289
 9994SOL    HW130881   0.147   4.769   3.240
 9994SOL    HW230882   0.210   4.815   3.383
 9995SOL     OW30883   4.195   1.229   2.995
 9995SOL    HW130884   4.113   1.269   2.952
 9995SOL    HW230885   4.243   1.298   3.047
 9996SOL     OW30886   2.417   3.033   1.730
 9996SOL    HW130887   2.355   3.107   1.756
 9996SOL    HW230888   2.375   2.980   1.656
 9997SOL     OW30889   3.546   1.872   0.783
 9997SOL    HW130890   3.480   1.838   0.849
 9997SOL    HW230891   3.637   1.839   0.807
 9998SOL     OW30892   5.533   4.230   0.541
 9998SOL    HW130893   5.483   4.227   0.455
 9998SOL    HW230894   5.487   4.172   0.608
 9999SOL     OW30895   6.894   2.664   5.419
 9999SOL    HW130896   6.832   2.598   5.375
 9999SOL    HW230897   6.854   2.694   5.506
10000SOL     OW30898   6.732   3.798   0.027
10000SOL    HW130899   6.823   3.833   0.005
10000SOL    HW230900   6.677   3.794   6.961
10001SOL     OW30901   4.872   0.424   2.117
10001SOL    HW130902   4.779   0.461   2.109
10001SOL    HW230903   4.872   0.348   2.182
10002SOL     OW30904   1.760   0.456   2.144
10002SOL    HW130905   1.738   0.403   2.226
10002SOL    HW230906   1.810   0.539   2.170
10003SOL     OW30907   3.795   1.629   3.473
10003SOL    HW130908   3.871   1.648   3.411
10003SOL    HW230909   3.722   1.696   3.459
10004SOL     OW30910   5.469   2.498   3.711
10004SOL    HW130911   5.428   2.439   3.642
10004SOL    HW230912   5.397   2.540   3.766
10005SOL     OW30913   5.089   0.855   4.144
10005SOL    HW130914   5.077   0.787   4.216
10005SOL    HW230915   5.186   0.865   4.123
10006SOL     OW30916   5.327   6.913   4.535
10006SOL    HW130917   5.276   6.859   4.469
10006SOL    HW230918   5.425   6.901   4.519
10007SOL     OW30919   0.737   5.079   5.558
10007SOL    HW130920   0.819   5.035   5.596
10007SOL    HW230921   0.760   5.123   5.472
10008SOL     OW30922   4.341   1.498   4.537
10008SOL    HW130923   4.381   1.590   4.527
10008SOL    HW230924   4.396   1.445   4.602
10009SOL     OW30925   2.069   4.191   1.825
10009SOL    HW130926   2.069   4.167   1.728
10009SOL    HW230927   2.162   4.213   1.854
10010SOL     OW30928   1.684   0.644   5.801
10010SOL    HW130929   1.617   0.686   5.862
10010SOL    HW230930   1.737   0.716   5.754
10011SOL     OW30931   5.611   1.754   5.020
10011SOL    HW130932   5.583   1.685   4.953
10011SOL    HW230933   5.629   1.841   4.974
10012SOL     OW30934   5.225   0.950   3.038
10012SOL    HW130935   5.306   1.001   3.067
10012SOL    HW230936   5.194   0.983   2.949
10013SOL     OW30937   0.768   1.261   3.860
10013SOL    HW130938   0.749   1.228   3.767
10013SOL    HW230939   0.825   1.195   3.908
10014SOL     OW30940   6.631   4.171   0.342
10014SOL    HW130941   6.666   4.259   0.375
10014SOL    HW230942   6.637   4.169   0.243
10015SOL     OW30943   1.775   3.608   0.529
10015SOL    HW130944   1.725   3.616   0.615
10015SOL    HW230945   1.732   3.536   0.473
10016SOL     OW30946   1.849   1.182   6.515
10016SOL    HW130947   1.850   1.118   6.437
10016SOL    HW230948   1.798   1.141   6.591
10017SOL     OW30949   2.896   1.833   3.303
10017SOL    HW130950   2.841   1.916   3.304
10017SOL    HW230951   2.861   1.771   3.232
10018SOL     OW30952   4.280   6.828   5.439
10018SOL    HW130953   4.202   6.806   5.497
10018SOL    HW230954   4.266   6.787   5.348
10019SOL     OW30955   0.070   2.107   2.753
10019SOL    HW130956   0.011   2.182   2.785
10019SOL    HW230957   0.027   2.064   2.673
10020SOL     OW30958   1.573   2.297   1.739
10020SOL    HW130959   1.630   2.233   1.688
10020SOL    HW230960   1.601   2.299   1.834
10021SOL     OW30961   0.201   2.807   1.350
10021SOL    HW130962   0.217   2.763   1.262
10021SOL    HW230963   0.255   2.762   1.421
10022SOL     OW30964   2.535   0.614   6.105
10022SOL    HW130965   2.594   0.541   6.071
10022SOL    HW230966   2.592   0.691   6.135
10023SOL     OW30967   1.224   5.424   6.778
10023SOL    HW130968   1.143   5.435   6.720
10023SOL    HW230969   1.224   5.495   6.848
10024SOL     OW30970   2.070   6.465   2.107
10024SOL    HW130971   1.997   6.531   2.122
10024SOL    HW230972   2.082   6.449   2.009
10025SOL     OW30973   1.624   1.814   1.282
10025SOL    HW130974   1.569   1.823   1.365
10025SOL    HW230975   1.599   1.731   1.233
10026SOL     OW30976   5.785   6.469   3.655
10026SOL    HW130977   5.818   6.423   3.572
10026SOL    HW230978   5.747   6.400   3.718
10027SOL     OW30979   6.654   3.889   4.965
10027SOL    HW130980   6.632   3.832   5.045
10027SOL    HW230981   6.592   3.968   4.963
10028SOL     OW30982   1.714   1.227   1.810
10028SOL    HW130983   1.688   1.321   1.786
10028SOL    HW230984   1.672   1.163   1.745
10029SOL     OW30985   5.009   1.843   4.567
10029SOL    HW130986   4.938   1.785   4.527
10029SOL    HW230987   4.986   1.939   4.553
10030SOL     OW30988   2.624   6.942   3.487
10030SOL    HW130989   2.531   6.918   3.514
10030SOL    HW230990   2.687   6.872   3.521
10031SOL     OW30991   5.892   5.117   4.866
10031SOL    HW130992   5.832   5.158   4.935
10031SOL    HW230993   5.987   5.128   4.895
10032SOL     OW30994   1.997   1.832   5.268
10032SOL    HW130995   1.994   1.913   5.326
10032SOL    HW230996   1.981   1.858   5.173
10033SOL     OW30997   6.097   2.825   4.300
10033SOL    HW130998   6.000   2.850   4.296
10033SOL    HW230999   6.153   2.908   4.291
10034SOL     OW31000   3.494   0.440   3.996
10034SOL    HW131001   3.543   0.450   4.082
10034SOL    HW231002   3.440   0.522   3.978
10035SOL     OW31003   6.323   4.440   1.398
10035SOL    HW131004   6.309   4.537   1.379
10035SOL    HW231005   6.237   4.391   1.383
10036SOL     OW31006   6.165   2.216   1.415
10036SOL    HW131007   6.236   2.222   1.345
10036SOL    HW231008   6.084   2.173   1.376
10037SOL     OW31009   0.059   1.512   0.164
10037SOL    HW131010   0.048   1.532   0.262
10037SOL    HW231011   0.128   1.440   0.153
10038SOL     OW31012   5.600   0.494   0.286
10038SOL    HW131013   5.535   0.440   0.233
10038SOL    HW231014   5.586   0.477   0.383
10039SOL     OW31015   3.561   0.700   3.742
10039SOL    HW131016   3.565   0.751   3.828
10039SOL    HW231017   3.479   0.642   3.742
10040SOL     OW31018   5.236   4.988   6.455
10040SOL    HW131019   5.189   5.031   6.532
10040SOL    HW231020   5.272   5.058   6.394
10041SOL     OW31021   4.106   5.607   0.004
10041SOL    HW131022   4.205   5.609   0.019
10041SOL    HW231023   4.086   5.560   6.936
10042SOL     OW31024   0.832   2.030   4.111
10042SOL    HW131025   0.886   2.103   4.152
10042SOL    HW231026   0.736   2.058   4.105
10043SOL     OW31027   6.973   1.214   4.806
10043SOL    HW131028   6.895   1.224   4.745
10043SOL    HW231029   6.943   1.169   4.890
10044SOL     OW31030   2.249   2.311   4.686
10044SOL    HW131031   2.250   2.310   4.586
10044SOL    HW231032   2.160   2.343   4.718
10045SOL     OW31033   3.930   0.481   1.910
10045SOL    HW131034   3.940   0.434   1.998
10045SOL    HW231035   3.885   0.420   1.845
10046SOL     OW31036   1.920   3.781   0.884
10046SOL    HW131037   1.901   3.745   0.975
10046SOL    HW231038   1.961   3.710   0.827
10047SOL     OW31039   0.945   3.590   4.737
10047SOL    HW131040   1.030   3.641   4.744
10047SOL    HW231041   0.922   3.550   4.826
10048SOL     OW31042   0.223   6.585   2.582
10048SOL    HW131043   0.310   6.545   2.612
10048SOL    HW231044   0.195   6.657   2.646
10049SOL     OW31045   1.619   1.386   5.608
10049SOL    HW131046   1.688   1.450   5.575
10049SOL    HW231047   1.589   1.413   5.700
10050SOL     OW31048   5.493   3.786   5.405
10050SOL    HW131049   5.477   3.706   5.349
10050SOL    HW231050   5.426   3.789   5.480
10051SOL     OW31051   0.447   4.195   5.006
10051SOL    HW131052   0.431   4.242   5.093
10051SOL    HW231053   0.533   4.227   4.966
10052SOL     OW31054   2.149   1.382   3.298
10052SOL    HW131055   2.085   1.381   3.222
10052SOL    HW231056   2.127   1.458   3.360
10053SOL     OW31057   4.350   5.747   4.319
10053SOL    HW131058   4.399   5.673   4.273
10053SOL    HW231059   4.370   5.834   4.274
10054SOL     OW31060   6.081   4.526   5.200
10054SOL    HW131061   6.018   4.578   5.143
10054SOL    HW231062   6.038   4.441   5.230
10055SOL     OW31063   6.394   2.267   5.530
10055SOL    HW131064   6.362   2.357   5.557
10055SOL    HW231065   6.377   2.254   5.432
10056SOL     OW31066   5.401   4.567   3.500
10056SOL    HW131067   5.400   4.587   3.402
10056SOL    HW231068   5.336   4.627   3.546
10057SOL     OW31069   5.549   4.285   5.506
10057SOL    HW131070   5.502   4.321   5.426
10057SOL    HW231071   5.503   4.201   5.537
10058SOL     OW31072   6.506   3.675   4.814
10058SOL    HW131073   6.462   3.594   4.850
10058SOL    HW231074   6.566   3.714   4.884
10059SOL     OW31075   6.913   1.960   0.113
10059SOL    HW131076   6.826   1.943   0.065
10059SOL    HW231077   6.984   1.902   0.074
10060SOL     OW31078   2.461   2.281   2.677
10060SOL    HW131079   2.378   2.247   2.721
10060SOL    HW231080   2.535   2.213   2.689
10061SOL     OW31081   4.512   1.083   3.947
10061SOL    HW131082   4.597   1.065   3.897
10061SOL    HW231083   4.502   1.182   3.961
10062SOL     OW31084   6.456   6.948   4.365
10062SOL    HW131085   6.549   6.957   4.400
10062SOL    HW231086   6.416   6.862   4.398
10063SOL     OW31087   3.295   1.592   4.516
10063SOL    HW131088   3.343   1.610   4.430
10063SOL    HW231089   3.215   1.652   4.522
10064SOL     OW31090   4.266   5.712   6.405
10064SOL    HW131091   4.316   5.648   6.347
10064SOL    HW231092   4.290   5.806   6.380
10065SOL     OW31093   1.990   1.361   1.371
10065SOL    HW131094   2.033   1.395   1.287
10065SOL    HW231095   2.061   1.324   1.431
10066SOL     OW31096   0.246   2.676   4.687
10066SOL    HW131097   0.272   2.592   4.639
10066SOL    HW231098   0.146   2.686   4.685
10067SOL     OW31099   0.225   3.057   6.433
10067SOL    HW131100   0.194   3.110   6.512
10067SOL    HW231101   0.299   3.106   6.387
10068SOL     OW31102   0.968   3.941   3.656
10068SOL    HW131103   0.903   3.923   3.582
10068SOL    HW231104   0.956   4.036   3.687
10069SOL     OW31105   3.026   4.962   1.631
10069SOL    HW131106   2.935   4.996   1.656
10069SOL    HW231107   3.043   4.983   1.534
10070SOL     OW31108   0.499   5.039   5.204
10070SOL    HW131109   0.478   5.018   5.108
10070SOL    HW231110   0.517   4.954   5.254
10071SOL     OW31111   1.247   0.540   4.002
10071SOL    HW131112   1.177   0.529   4.072
10071SOL    HW231113   1.277   0.449   3.970
10072SOL     OW31114   0.596   1.232   3.088
10072SOL    HW131115   0.574   1.137   3.106
10072SOL    HW231116   0.695   1.241   3.075
10073SOL     OW31117   6.447   3.936   3.782
10073SOL    HW131118   6.375   4.005   3.777
10073SOL    HW231119   6.536   3.981   3.794
10074SOL     OW31120   1.593   5.804   0.744
10074SOL    HW131121   1.666   5.809   0.812
10074SOL    HW231122   1.628   5.832   0.655
10075SOL     OW31123   2.009   0.743   2.621
10075SOL    HW131124   1.941   0.674   2.594
10075SOL    HW231125   1.978   0.788   2.704
10076SOL     OW31126   5.025   5.615   2.994
10076SOL    HW131127   5.116   5.638   3.029
10076SOL    HW231128   5.031   5.598   2.895
10077SOL     OW31129   5.302   2.360   0.249
10077SOL    HW131130   5.325   2.399   0.338
10077SOL    HW231131   5.203   2.349   0.242
10078SOL     OW31132   0.840   6.556   4.975
10078SOL    HW131133   0.758   6.541   5.029
10078SOL    HW231134   0.822   6.533   4.879
10079SOL     OW31135   5.389   2.204   3.167
10079SOL    HW131136   5.439   2.201   3.081
10079SOL    HW231137   5.347   2.294   3.178
10080SOL     OW31138   5.046   0.955   6.183
10080SOL    HW131139   4.975   0.898   6.143
10080SOL    HW231140   5.110   0.897   6.234
10081SOL     OW31141   0.689   1.692   0.116
10081SOL    HW131142   0.730   1.603   0.095
10081SOL    HW231143   0.603   1.701   0.066
10082SOL     OW31144   1.330   5.310   3.797
10082SOL    HW131145   1.347   5.229   3.854
10082SOL    HW231146   1.340   5.392   3.854
10083SOL     OW31147   3.295   6.947   3.641
10083SOL    HW131148   3.387   6.961   3.678
10083SOL    HW231149   3.227   6.975   3.709
10084SOL     OW31150   6.947   6.862   5.088
10084SOL    HW131151   7.017   6.833   5.022
10084SOL    HW231152   6.926   6.959   5.074
10085SOL     OW31153   4.791   6.751   0.728
10085SOL    HW131154   4.712   6.756   0.789
10085SOL    HW231155   4.764   6.711   0.640
10086SOL     OW31156   5.940   6.078   2.941
10086SOL    HW131157   5.873   6.141   2.902
10086SOL    HW231158   5.998   6.127   3.006
10087SOL     OW31159   0.182   6.587   4.577
10087SOL    HW131160   0.121   6.633   4.513
10087SOL    HW231161   0.213   6.653   4.646
10088SOL     OW31162   6.833   0.888   0.375
10088SOL    HW131163   6.768   0.940   0.431
10088SOL    HW231164   6.788   0.806   0.340
10089SOL     OW31165   3.000   1.320   3.264
10089SOL    HW131166   2.987   1.373   3.180
10089SOL    HW231167   2.964   1.372   3.342
10090SOL     OW31168   0.918   4.664   2.325
10090SOL    HW131169   0.926   4.628   2.418
10090SOL    HW231170   0.822   4.675   2.302
10091SOL     OW31171   6.638   5.878   6.889
10091SOL    HW131172   6.565   5.923   6.940
10091SOL    HW231173   6.635   5.780   6.906
10092SOL     OW31174   1.439   3.331   5.390
10092SOL    HW131175   1.511   3.321   5.458
10092SOL    HW231176   1.459   3.410   5.332
10093SOL     OW31177   4.930   3.524   4.859
10093SOL    HW131178   4.953   3.428   4.878
10093SOL    HW231179   4.867   3.558   4.928
10094SOL     OW31180   2.597   6.700   0.757
10094SOL    HW131181   2.505   6.725   0.788
10094SOL    HW231182   2.616   6.605   0.784
10095SOL     OW31183   5.452   1.936   4.854
10095SOL    HW131184   5.488   2.030   4.856
10095SOL    HW231185   5.477   1.893   4.767
10096SOL     OW31186   4.988   1.126   2.547
10096SOL    HW131187   4.894   1.157   2.534
10096SOL    HW231188   5.025   1.095   2.460
10097SOL     OW31189   2.217   2.327   6.502
10097SOL    HW131190   2.268   2.265   6.442
10097SOL    HW231191   2.280   2.396   6.538
10098SOL     OW31192   2.924   6.043   4.377
10098SOL    HW131193   2.849   6.097   4.339
10098SOL    HW231194   2.920   6.045   4.476
10099SOL     OW31195   6.476   4.288   1.787
10099SOL    HW131196   6.543   4.255   1.853
10099SOL    HW231197   6.513   4.275   1.694
10100SOL     OW31198   5.647   4.947   5.189
10100SOL    HW131199   5.732   4.955   5.137
10100SOL    HW231200   5.667   4.923   5.284
10101SOL     OW31201   6.780   2.883   1.877
10101SOL    HW131202   6.851   2.938   1.833
10101SOL    HW231203   6.798   2.878   1.976
10102SOL     OW31204   5.834   0.397   0.751
10102SOL    HW131205   5.762   0.333   0.779
10102SOL    HW231206   5.901   0.406   0.824
10103SOL     OW31207   0.977   0.481   5.558
10103SOL    HW131208   1.044   0.412   5.586
10103SOL    HW231209   0.889   0.460   5.601
10104SOL     OW31210   2.255   0.590   6.130
10104SOL    HW131211   2.351   0.608   6.112
10104SOL    HW231212   2.199   0.625   6.055
10105SOL     OW31213   2.524   1.002   6.006
10105SOL    HW131214   2.549   0.952   6.089
10105SOL    HW231215   2.583   0.972   5.930
10106SOL     OW31216   4.640   5.910   1.429
10106SOL    HW131217   4.555   5.861   1.443
10106SOL    HW231218   4.653   5.976   1.503
10107SOL     OW31219   5.133   3.418   6.780
10107SOL    HW131220   5.075   3.478   6.725
10107SOL    HW231221   5.187   3.360   6.719
10108SOL     OW31222   1.270   2.670   0.690
10108SOL    HW131223   1.244   2.578   0.659
10108SOL    HW231224   1.271   2.733   0.612
10109SOL     OW31225   0.617   1.099   0.085
10109SOL    HW131226   0.617   1.159   0.005
10109SOL    HW231227   0.539   1.036   0.080
10110SOL     OW31228   4.487   5.145   2.460
10110SOL    HW131229   4.520   5.191   2.543
10110SOL    HW231230   4.391   5.120   2.473
10111SOL     OW31231   1.134   2.706   2.206
10111SOL    HW131232   1.039   2.735   2.193
10111SOL    HW231233   1.195   2.770   2.159
10112SOL     OW31234   6.736   3.585   2.964
10112SOL    HW131235   6.701   3.618   3.052
10112SOL    HW231236   6.662   3.582   2.897
10113SOL     OW31237   4.514   0.870   6.731
10113SOL    HW131238   4.583   0.829   6.790
10113SOL    HW231239   4.545   0.961   6.702
10114SOL     OW31240   3.990   2.086   3.097
10114SOL    HW131241   4.075   2.113   3.142
10114SOL    HW231242   3.995   2.107   3.000
10115SOL     OW31243   4.218   1.730   4.371
10115SOL    HW131244   4.308   1.752   4.335
10115SOL    HW231245   4.201   1.632   4.361
10116SOL     OW31246   5.422   0.166   5.631
10116SOL    HW131247   5.338   0.180   5.580
10116SOL    HW231248   5.489   0.119   5.573
10117SOL     OW31249   6.717   5.789   5.648
10117SOL    HW131250   6.662   5.725   5.595
10117SOL    HW231251   6.688   5.786   5.744
10118SOL     OW31252   2.719   5.008   4.330
10118SOL    HW131253   2.773   5.047   4.404
10118SOL    HW231254   2.716   4.908   4.340
10119SOL     OW31255   6.793   5.358   3.752
10119SOL    HW131256   6.873   5.398   3.706
10119SOL    HW231257   6.824   5.302   3.829
10120SOL     OW31258   1.620   3.080   2.663
10120SOL    HW131259   1.719   3.087   2.674
10120SOL    HW231260   1.575   3.136   2.732
10121SOL     OW31261   5.530   4.527   0.527
10121SOL    HW131262   5.582   4.555   0.608
10121SOL    HW231263   5.532   4.427   0.519
10122SOL     OW31264   5.932   2.042   3.330
10122SOL    HW131265   5.940   2.014   3.234
10122SOL    HW231266   6.019   2.081   3.361
10123SOL     OW31267   6.143   6.463   0.717
10123SOL    HW131268   6.239   6.439   0.730
10123SOL    HW231269   6.135   6.563   0.710
10124SOL     OW31270   1.163   5.177   2.584
10124SOL    HW131271   1.081   5.233   2.580
10124SOL    HW231272   1.176   5.143   2.678
10125SOL     OW31273   1.874   1.038   1.927
10125SOL    HW131274   1.968   1.063   1.949
10125SOL    HW231275   1.823   1.120   1.900
10126SOL     OW31276   6.088   0.024   5.906
10126SOL    HW131277   6.066   0.036   5.809
10126SOL    HW231278   6.110   6.947   5.924
10127SOL     OW31279   1.184   4.451   6.426
10127SOL    HW131280   1.192   4.525   6.359
10127SOL    HW231281   1.116   4.385   6.395
10128SOL     OW31282   2.932   0.658   0.125
10128SOL    HW131283   2.944   0.667   0.224
10128SOL    HW231284   2.915   0.748   0.085
10129SOL     OW31285   6.868   1.838   2.242
10129SOL    HW131286   6.777   1.853   2.203
10129SOL    HW231287   6.868   1.752   2.294
10130SOL     OW31288   1.134   2.306   1.792
10130SOL    HW131289   1.208   2.347   1.739
10130SOL    HW231290   1.137   2.342   1.885
10131SOL     OW31291   1.736   0.891   4.169
10131SOL    HW131292   1.820   0.944   4.165
10131SOL    HW231293   1.657   0.953   4.167
10132SOL     OW31294   6.995   6.891   2.306
10132SOL    HW131295   7.014   6.811   2.248
10132SOL    HW231296   0.061   6.921   2.350
10133SOL     OW31297   4.773   5.565   1.283
10133SOL    HW131298   4.695   5.534   1.337
10133SOL    HW231299   4.744   5.640   1.222
10134SOL     OW31300   6.832   1.065   2.685
10134SOL    HW131301   6.749   1.096   2.731
10134SOL    HW231302   6.808   0.998   2.615
10135SOL     OW31303   5.863   1.243   3.846
10135SOL    HW131304   5.808   1.318   3.810
10135SOL    HW231305   5.803   1.168   3.874
10136SOL     OW31306   4.977   2.685   2.501
10136SOL    HW131307   5.042   2.696   2.426
10136SOL    HW231308   4.962   2.774   2.545
10137SOL     OW31309   0.622   5.333   5.738
10137SOL    HW131310   0.633   5.234   5.740
10137SOL    HW231311   0.554   5.357   5.668
10138SOL     OW31312   6.002   1.801   6.806
10138SOL    HW131313   5.967   1.802   6.900
10138SOL    HW231314   6.100   1.781   6.807
10139SOL     OW31315   3.561   3.249   5.125
10139SOL    HW131316   3.524   3.319   5.063
10139SOL    HW231317   3.572   3.163   5.074
10140SOL     OW31318   6.673   6.519   5.829
10140SOL    HW131319   6.641   6.572   5.749
10140SOL    HW231320   6.710   6.432   5.798
10141SOL     OW31321   3.721   1.452   3.939
10141SOL    HW131322   3.809   1.498   3.956
10141SOL    HW231323   3.689   1.410   4.024
10142SOL     OW31324   5.894   6.404   4.724
10142SOL    HW131325   5.799   6.397   4.754
10142SOL    HW231326   5.952   6.433   4.801
10143SOL     OW31327   5.580   2.877   0.103
10143SOL    HW131328   5.662   2.896   0.048
10143SOL    HW231329   5.607   2.841   0.192
10144SOL     OW31330   3.921   6.730   5.436
10144SOL    HW131331   3.897   6.763   5.344
10144SOL    HW231332   3.951   6.808   5.492
10145SOL     OW31333   4.489   6.342   2.126
10145SOL    HW131334   4.390   6.356   2.126
10145SOL    HW231335   4.529   6.393   2.050
10146SOL     OW31336   0.056   3.961   4.336
10146SOL    HW131337   6.983   3.981   4.302
10146SOL    HW231338   0.069   3.862   4.341
10147SOL     OW31339   4.420   4.957   0.010
10147SOL    HW131340   4.344   4.972   0.073
10147SOL    HW231341   4.433   5.039   6.972
10148SOL     OW31342   0.361   5.004   0.785
10148SOL    HW131343   0.376   4.932   0.716
10148SOL    HW231344   0.444   5.060   0.793
10149SOL     OW31345   4.647   4.861   1.794
10149SOL    HW131346   4.611   4.840   1.703
10149SOL    HW231347   4.703   4.785   1.825
10150SOL     OW31348   4.835   3.806   1.513
10150SOL    HW131349   4.872   3.894   1.484
10150SOL    HW231350   4.906   3.754   1.561
10151SOL     OW31351   0.082   0.131   5.916
10151SOL    HW131352   0.027   0.210   5.890
10151SOL    HW231353   0.074   0.115   6.014
10152SOL     OW31354   5.944   5.912   3.171
10152SOL    HW131355   5.934   5.969   3.089
10152SOL    HW231356   5.989   5.826   3.146
10153SOL     OW31357   4.358   5.958   3.856
10153SOL    HW131358   4.312   6.017   3.922
10153SOL    HW231359   4.422   5.898   3.904
10154SOL     OW31360   4.102   5.030   5.531
10154SOL    HW131361   4.133   5.104   5.472
10154SOL    HW231362   4.101   4.944   5.480
10155SOL     OW31363   4.674   1.995   5.863
10155SOL    HW131364   4.717   2.002   5.953
10155SOL    HW231365   4.639   2.085   5.836
10156SOL     OW31366   4.278   0.143   1.364
10156SOL    HW131367   4.249   0.093   1.283
10156SOL    HW231368   4.309   0.235   1.338
10157SOL     OW31369   0.354   2.512   0.265
10157SOL    HW131370   0.355   2.443   0.337
10157SOL    HW231371   0.371   2.469   0.177
10158SOL     OW31372   5.463   6.735   2.659
10158SOL    HW131373   5.370   6.766   2.637
10158SOL    HW231374   5.497   6.679   2.583
10159SOL     OW31375   3.525   3.081   2.898
10159SOL    HW131376   3.459   3.039   2.962
10159SOL    HW231377   3.478   3.150   2.842
10160SOL     OW31378   2.033   4.305   2.471
10160SOL    HW131379   1.939   4.281   2.494
10160SOL    HW231380   2.090   4.223   2.474
10161SOL     OW31381   3.436   4.698   5.977
10161SOL    HW131382   3.415   4.765   6.048
10161SOL    HW231383   3.471   4.615   6.019
10162SOL     OW31384   1.721   4.584   1.423
10162SOL    HW131385   1.768   4.664   1.461
10162SOL    HW231386   1.757   4.566   1.331
10163SOL     OW31387   1.418   5.894   5.363
10163SOL    HW131388   1.408   5.960   5.438
10163SOL    HW231389   1.368   5.927   5.283
10164SOL     OW31390   6.258   3.585   3.590
10164SOL    HW131391   6.334   3.540   3.636
10164SOL    HW231392   6.213   3.649   3.652
10165SOL     OW31393   5.631   2.701   3.604
10165SOL    HW131394   5.647   2.762   3.682
10165SOL    HW231395   5.553   2.642   3.624
10166SOL     OW31396   1.316   2.645   0.979
10166SOL    HW131397   1.412   2.638   0.951
10166SOL    HW231398   1.257   2.636   0.898
10167SOL     OW31399   0.329   4.937   6.589
10167SOL    HW131400   0.332   4.854   6.644
10167SOL    HW231401   0.420   4.979   6.588
10168SOL     OW31402   6.080   1.546   6.478
10168SOL    HW131403   5.982   1.535   6.498
10168SOL    HW231404   6.134   1.513   6.555
10169SOL     OW31405   0.272   3.551   3.303
10169SOL    HW131406   0.178   3.539   3.271
10169SOL    HW231407   0.295   3.648   3.303
10170SOL     OW31408   6.432   5.545   0.157
10170SOL    HW131409   6.336   5.570   0.168
10170SOL    HW231410   6.490   5.617   0.195
10171SOL     OW31411   1.389   2.692   5.809
10171SOL    HW131412   1.308   2.647   5.846
10171SOL    HW231413   1.362   2.761   5.742
10172SOL     OW31414   6.694   6.723   3.563
10172SOL    HW131415   6.737   6.783   3.631
10172SOL    HW231416   6.765   6.682   3.505
10173SOL     OW31417   3.564   4.846   0.365
10173SOL    HW131418   3.660   4.831   0.391
10173SOL    HW231419   3.507   4.778   0.411
10174SOL     OW31420   5.242   6.748   3.342
10174SOL    HW131421   5.177   6.719   3.412
10174SOL    HW231422   5.312   6.678   3.329
10175SOL     OW31423   6.916   1.986   3.267
10175SOL    HW131424   6.844   1.932   3.310
10175SOL    HW231425   6.978   1.925   3.217
10176SOL     OW31426   6.060   2.926   5.745
10176SOL    HW131427   6.067   2.882   5.655
10176SOL    HW231428   6.110   2.872   5.813
10177SOL     OW31429   2.341   0.215   1.296
10177SOL    HW131430   2.412   0.196   1.229
10177SOL    HW231431   2.264   0.152   1.282
10178SOL     OW31432   1.613   1.203   0.933
10178SOL    HW131433   1.658   1.215   1.021
10178SOL    HW231434   1.681   1.181   0.863
10179SOL     OW31435   6.911   4.214   0.163
10179SOL    HW131436   6.822   4.180   0.132
10179SOL    HW231437   6.983   4.155   0.127
10180SOL     OW31438   4.637   6.949   6.996
10180SOL    HW131439   4.647   0.030   6.994
10180SOL    HW231440   4.671   6.914   0.065
10181SOL     OW31441   6.449   3.272   1.554
10181SOL    HW131442   6.498   3.184   1.562
10181SOL    HW231443   6.450   3.301   1.459
10182SOL     OW31444   5.771   1.416   0.532
10182SOL    HW131445   5.713   1.343   0.567
10182SOL    HW231446   5.732   1.451   0.447
10183SOL     OW31447   6.152   2.962   6.425
10183SOL    HW131448   6.148   3.012   6.338
10183SOL    HW231449   6.240   2.916   6.433
10184SOL     OW31450   5.854   2.552   6.578
10184SOL    HW131451   5.798   2.571   6.497
10184SOL    HW231452   5.950   2.562   6.555
10185SOL     OW31453   4.238   6.092   2.706
10185SOL    HW131454   4.310   6.070   2.641
10185SOL    HW231455   4.179   6.013   2.719
10186SOL     OW31456   4.589   3.553   5.995
10186SOL    HW131457   4.540   3.486   5.939
10186SOL    HW231458   4.593   3.641   5.947
10187SOL     OW31459   2.222   4.256   5.768
10187SOL    HW131460   2.299   4.286   5.711
10187SOL    HW231461   2.216   4.157   5.767
10188SOL     OW31462   2.574   6.360   0.452
10188SOL    HW131463   2.608   6.281   0.503
10188SOL    HW231464   2.516   6.328   0.377
10189SOL     OW31465   1.342   1.160   0.198
10189SOL    HW131466   1.392   1.130   0.280
10189SOL    HW231467   1.246   1.134   0.205
10190SOL     OW31468   3.194   4.173   1.395
10190SOL    HW131469   3.140   4.090   1.404
10190SOL    HW231470   3.188   4.227   1.479
10191SOL     OW31471   6.111   5.384   1.186
10191SOL    HW131472   6.137   5.452   1.118
10191SOL    HW231473   6.035   5.329   1.151
10192SOL     OW31474   2.128   1.600   4.910
10192SOL    HW131475   2.097   1.686   4.868
10192SOL    HW231476   2.216   1.616   4.956
10193SOL     OW31477   3.579   3.545   2.065
10193SOL    HW131478   3.650   3.507   2.125
10193SOL    HW231479   3.608   3.536   1.969
10194SOL     OW31480   3.215   0.385   4.761
10194SOL    HW131481   3.141   0.453   4.763
10194SOL    HW231482   3.187   0.305   4.814
10195SOL     OW31483   5.799   0.051   1.851
10195SOL    HW131484   5.734   0.096   1.789
10195SOL    HW231485   5.881   0.107   1.860
10196SOL     OW31486   5.277   2.339   3.597
10196SOL    HW131487   5.212   2.392   3.544
10196SOL    HW231488   5.331   2.281   3.536
10197SOL     OW31489   5.652   0.063   3.166
10197SOL    HW131490   5.602   0.029   3.246
10197SOL    HW231491   5.630   0.159   3.150
10198SOL     OW31492   3.938   5.928   1.068
10198SOL    HW131493   3.891   6.002   1.117
10198SOL    HW231494   3.965   5.960   0.977
10199SOL     OW31495   0.864   1.460   0.103
10199SOL    HW131496   0.857   1.366   0.137
10199SOL    HW231497   0.898   1.458   0.009
10200SOL     OW31498   5.230   3.346   5.907
10200SOL    HW131499   5.262   3.256   5.880
10200SOL    HW231500   5.225   3.351   6.007
10201SOL     OW31501   0.255   5.803   1.771
10201SOL    HW131502   0.298   5.718   1.743
10201SOL    HW231503   0.192   5.834   1.700
10202SOL     OW31504   0.623   3.642   1.212
10202SOL    HW131505   0.612   3.609   1.306
10202SOL    HW231506   0.683   3.580   1.162
10203SOL     OW31507   1.828   2.621   2.792
10203SOL    HW131508   1.816   2.694   2.724
10203SOL    HW231509   1.864   2.540   2.746
10204SOL     OW31510   3.035   4.407   6.180
10204SOL    HW131511   3.009   4.491   6.134
10204SOL    HW231512   2.954   4.356   6.207
10205SOL     OW31513   4.235   1.436   3.205
10205SOL    HW131514   4.269   1.389   3.286
10205SOL    HW231515   4.298   1.509   3.180
10206SOL     OW31516   5.095   5.743   5.840
10206SOL    HW131517   5.193   5.752   5.855
10206SOL    HW231518   5.052   5.833   5.842
10207SOL     OW31519   1.912   0.522   1.295
10207SOL    HW131520   1.892   0.611   1.338
10207SOL    HW231521   1.827   0.480   1.264
10208SOL     OW31522   6.014   5.815   5.531
10208SOL    HW131523   6.008   5.910   5.563
10208SOL    HW231524   6.051   5.757   5.602
10209SOL     OW31525   6.974   1.034   5.899
10209SOL    HW131526   6.899   1.059   5.960
10209SOL    HW231527   6.948   1.057   5.805
10210SOL     OW31528   5.261   6.713   1.711
10210SOL    HW131529   5.324   6.769   1.658
10210SOL    HW231530   5.217   6.646   1.651
10211SOL     OW31531   3.608   6.551   5.925
10211SOL    HW131532   3.640   6.571   5.833
10211SOL    HW231533   3.577   6.456   5.930
10212SOL     OW31534   0.891   1.304   4.268
10212SOL    HW131535   0.919   1.359   4.346
10212SOL    HW231536   0.955   1.228   4.256
10213SOL     OW31537   5.796   1.499   2.468
10213SOL    HW131538   5.741   1.493   2.551
10213SOL    HW231539   5.839   1.589   2.464
10214SOL     OW31540   0.156   0.915   2.456
10214SOL    HW131541   0.186   0.893   2.549
10214SOL    HW231542   0.134   0.831   2.407
10215SOL     OW31543   3.100   3.002   5.343
10215SOL    HW131544   3.088   3.021   5.245
10215SOL    HW231545   3.028   3.049   5.394
10216SOL     OW31546   6.869   6.887   1.012
10216SOL    HW131547   6.925   6.820   0.965
10216SOL    HW231548   6.922   6.927   1.088
10217SOL     OW31549   2.279   1.311   4.562
10217SOL    HW131550   2.231   1.225   4.547
10217SOL    HW231551   2.366   1.294   4.608
10218SOL     OW31552   1.020   1.196   1.417
10218SOL    HW131553   1.043   1.128   1.347
10218SOL    HW231554   1.090   1.268   1.417
10219SOL     OW31555   0.428   2.470   2.646
10219SOL    HW131556   0.424   2.375   2.679
10219SOL    HW231557   0.351   2.522   2.683
10220SOL     OW31558   4.213   1.827   1.662
10220SOL    HW131559   4.268   1.754   1.622
10220SOL    HW231560   4.250   1.916   1.635
10221SOL     OW31561   1.461   2.041   4.072
10221SOL    HW131562   1.405   2.114   4.035
10221SOL    HW231563   1.557   2.059   4.052
10222SOL     OW31564   1.483   3.845   5.508
10222SOL    HW131565   1.400   3.901   5.511
10222SOL    HW231566   1.526   3.855   5.419
10223SOL     OW31567   1.841   5.348   6.495
10223SOL    HW131568   1.925   5.294   6.488
10223SOL    HW231569   1.763   5.291   6.473
10224SOL     OW31570   0.996   1.037   4.488
10224SOL    HW131571   1.017   1.029   4.390
10224SOL    HW231572   0.909   0.991   4.507
10225SOL     OW31573   1.131   6.132   5.443
10225SOL    HW131574   1.209   6.072   5.462
10225SOL    HW231575   1.142   6.217   5.495
10226SOL     OW31576   3.014   0.684   6.850
10226SOL    HW131577   3.018   0.780   6.879
10226SOL    HW231578   2.922   0.663   6.818
10227SOL     OW31579   4.825   4.818   1.018
10227SOL    HW131580   4.863   4.904   0.986
10227SOL    HW231581   4.736   4.835   1.062
10228SOL     OW31582   0.623   5.105   2.081
10228SOL    HW131583   0.590   5.048   2.006
10228SOL    HW231584   0.675   5.182   2.044
10229SOL     OW31585   1.219   1.194   4.082
10229SOL    HW131586   1.152   1.198   4.157
10229SOL    HW231587   1.285   1.269   4.092
10230SOL     OW31588   6.951   0.637   3.484
10230SOL    HW131589   6.917   0.719   3.531
10230SOL    HW231590   6.909   0.631   3.394
10231SOL     OW31591   6.656   6.648   5.543
10231SOL    HW131592   6.629   6.737   5.581
10231SOL    HW231593   6.610   6.634   5.456
10232SOL     OW31594   3.827   0.894   4.293
10232SOL    HW131595   3.787   0.835   4.362
10232SOL    HW231596   3.854   0.839   4.213
10233SOL     OW31597   5.119   2.802   5.450
10233SOL    HW131598   5.074   2.787   5.538
10233SOL    HW231599   5.105   2.897   5.422
10234SOL     OW31600   5.153   0.333   0.875
10234SOL    HW131601   5.180   0.238   0.858
10234SOL    HW231602   5.228   0.381   0.919
10235SOL     OW31603   4.578   1.171   0.482
10235SOL    HW131604   4.507   1.154   0.414
10235SOL    HW231605   4.537   1.181   0.572
10236SOL     OW31606   1.817   6.345   1.870
10236SOL    HW131607   1.869   6.260   1.877
10236SOL    HW231608   1.725   6.332   1.907
10237SOL     OW31609   6.355   4.281   0.900
10237SOL    HW131610   6.452   4.304   0.894
10237SOL    HW231611   6.336   4.199   0.847
10238SOL     OW31612   3.439   3.911   4.618
10238SOL    HW131613   3.487   3.861   4.691
10238SOL    HW231614   3.369   3.852   4.578
10239SOL     OW31615   1.323   4.697   5.262
10239SOL    HW131616   1.360   4.658   5.178
10239SOL    HW231617   1.394   4.747   5.311
10240SOL     OW31618   1.456   4.739   2.341
10240SOL    HW131619   1.388   4.798   2.385
10240SOL    HW231620   1.543   4.746   2.390
10241SOL     OW31621   0.036   0.757   1.546
10241SOL    HW131622   6.960   0.736   1.519
10241SOL    HW231623   0.100   0.702   1.492
10242SOL     OW31624   0.173   2.245   6.378
10242SOL    HW131625   0.224   2.324   6.412
10242SOL    HW231626   0.086   2.276   6.339
10243SOL     OW31627   6.974   5.476   1.180
10243SOL    HW131628   6.886   5.444   1.148
10243SOL    HW231629   6.974   5.479   1.280
10244SOL     OW31630   1.624   4.637   0.332
10244SOL    HW131631   1.653   4.685   0.249
10244SOL    HW231632   1.687   4.562   0.351
10245SOL     OW31633   2.086   3.806   0.332
10245SOL    HW131634   2.026   3.732   0.300
10245SOL    HW231635   2.065   3.890   0.283
10246SOL     OW31636   2.917   3.582   4.360
10246SOL    HW131637   2.884   3.495   4.395
10246SOL    HW231638   2.933   3.645   4.436
10247SOL     OW31639   0.761   5.223   5.307
10247SOL    HW131640   0.681   5.171   5.278
10247SOL    HW231641   0.829   5.225   5.233
10248SOL     OW31642   3.247   0.248   2.127
10248SOL    HW131643   3.151   0.244   2.101
10248SOL    HW231644   3.290   0.159   2.107
10249SOL     OW31645   2.592   0.881   6.291
10249SOL    HW131646   2.583   0.800   6.349
10249SOL    HW231647   2.513   0.941   6.304
10250SOL     OW31648   0.161   1.974   0.803
10250SOL    HW131649   0.128   1.936   0.890
10250SOL    HW231650   0.132   2.069   0.794
10251SOL     OW31651   1.848   3.072   5.689
10251SOL    HW131652   1.794   2.988   5.686
10251SOL    HW231653   1.893   3.086   5.600
10252SOL     OW31654   6.737   6.299   0.687
10252SOL    HW131655   6.646   6.267   0.710
10252SOL    HW231656   6.731   6.375   0.621
10253SOL     OW31657   4.676   5.441   7.008
10253SOL    HW131658   4.716   5.530   0.013
10253SOL    HW231659   4.749   5.378   6.981
10254SOL     OW31660   3.768   2.113   4.951
10254SOL    HW131661   3.744   2.082   4.860
10254SOL    HW231662   3.685   2.132   5.003
10255SOL     OW31663   2.301   5.635   1.494
10255SOL    HW131664   2.371   5.588   1.441
10255SOL    HW231665   2.320   5.734   1.493
10256SOL     OW31666   5.834   6.976   1.517
10256SOL    HW131667   5.812   6.935   1.606
10256SOL    HW231668   5.751   7.018   1.479
10257SOL     OW31669   1.134   4.636   5.087
10257SOL    HW131670   1.047   4.686   5.085
10257SOL    HW231671   1.190   4.669   5.163
10258SOL     OW31672   4.819   0.248   3.734
10258SOL    HW131673   4.886   0.314   3.698
10258SOL    HW231674   4.863   0.192   3.804
10259SOL     OW31675   0.782   5.648   3.424
10259SOL    HW131676   0.824   5.694   3.502
10259SOL    HW231677   0.744   5.717   3.362
10260SOL     OW31678   6.921   0.303   3.130
10260SOL    HW131679   6.986   0.343   3.195
10260SOL    HW231680   6.833   0.350   3.138
10261SOL     OW31681   6.865   6.441   1.968
10261SOL    HW131682   6.938   6.386   1.926
10261SOL    HW231683   6.893   6.537   1.971
10262SOL     OW31684   2.806   5.711   4.574
10262SOL    HW131685   2.721   5.715   4.521
10262SOL    HW231686   2.872   5.775   4.535
10263SOL     OW31687   4.865   1.410   6.278
10263SOL    HW131688   4.826   1.417   6.187
10263SOL    HW231689   4.943   1.347   6.276
10264SOL     OW31690   6.282   1.492   6.670
10264SOL    HW131691   6.283   1.411   6.729
10264SOL    HW231692   6.263   1.573   6.726
10265SOL     OW31693   3.385   2.124   3.009
10265SOL    HW131694   3.339   2.055   2.953
10265SOL    HW231695   3.460   2.165   2.956
10266SOL     OW31696   3.302   2.871   5.217
10266SOL    HW131697   3.247   2.932   5.274
10266SOL    HW231698   3.399   2.891   5.231
10267SOL     OW31699   6.306   1.743   6.854
10267SOL    HW131700   6.330   1.812   6.922
10267SOL    HW231701   6.351   1.765   6.767
10268SOL     OW31702   4.561   6.413   1.874
10268SOL    HW131703   4.527   6.507   1.870
10268SOL    HW231704   4.639   6.403   1.812
10269SOL     OW31705   1.705   1.701   5.526
10269SOL    HW131706   1.730   1.761   5.451
10269SOL    HW231707   1.647   1.751   5.591
10270SOL     OW31708   2.021   5.729   2.252
10270SOL    HW131709   2.116   5.700   2.239
10270SOL    HW231710   2.001   5.805   2.190
10271SOL     OW31711   3.301   3.065   0.446
10271SOL    HW131712   3.260   3.105   0.364
10271SOL    HW231713   3.361   2.989   0.419
10272SOL     OW31714   1.253   0.872   4.713
10272SOL    HW131715   1.331   0.813   4.692
10272SOL    HW231716   1.196   0.882   4.632
10273SOL     OW31717   4.254   5.928   3.415
10273SOL    HW131718   4.287   5.858   3.352
10273SOL    HW231719   4.294   6.016   3.391
10274SOL     OW31720   1.502   4.613   5.944
10274SOL    HW131721   1.488   4.669   5.862
10274SOL    HW231722   1.564   4.538   5.923
10275SOL     OW31723   1.495   0.117   1.893
10275SOL    HW131724   1.442   0.201   1.883
10275SOL    HW231725   1.580   0.137   1.942
10276SOL     OW31726   6.566   5.722   6.338
10276SOL    HW131727   6.484   5.753   6.290
10276SOL    HW231728   6.556   5.742   6.436
10277SOL     OW31729   2.603   6.724   3.832
10277SOL    HW131730   2.514   6.758   3.801
10277SOL    HW231731   2.596   6.694   3.927
10278SOL     OW31732   5.657   0.874   5.502
10278SOL    HW131733   5.667   0.889   5.601
10278SOL    HW231734   5.742   0.900   5.456
10279SOL     OW31735   2.873   0.370   3.835
10279SOL    HW131736   2.945   0.437   3.853
10279SOL    HW231737   2.843   0.329   3.921
10280SOL     OW31738   2.595   4.515   0.804
10280SOL    HW131739   2.584   4.565   0.889
10280SOL    HW231740   2.637   4.426   0.822
10281SOL     OW31741   5.612   2.524   2.723
10281SOL    HW131742   5.583   2.594   2.658
10281SOL    HW231743   5.534   2.468   2.749
10282SOL     OW31744   6.590   3.612   4.315
10282SOL    HW131745   6.522   3.539   4.304
10282SOL    HW231746   6.671   3.574   4.359
10283SOL     OW31747   1.013   2.923   1.199
10283SOL    HW131748   0.972   2.978   1.126
10283SOL    HW231749   1.090   2.974   1.239
10284SOL     OW31750   4.903   4.746   5.981
10284SOL    HW131751   4.901   4.793   5.893
10284SOL    HW231752   4.912   4.648   5.967
10285SOL     OW31753   4.941   0.144   1.335
10285SOL    HW131754   4.890   0.112   1.256
10285SOL    HW231755   4.883   0.203   1.391
10286SOL     OW31756   3.499   1.821   3.646
10286SOL    HW131757   3.551   1.812   3.562
10286SOL    HW231758   3.532   1.754   3.713
10287SOL     OW31759   1.750   6.956   2.274
10287SOL    HW131760   1.755   0.033   2.247
10287SOL    HW231761   1.838   6.911   2.253
10288SOL     OW31762   4.842   6.300   2.355
10288SOL    HW131763   4.862   6.304   2.257
10288SOL    HW231764   4.750   6.263   2.368
10289SOL     OW31765   3.545   0.851   1.385
10289SOL    HW131766   3.524   0.949   1.392
10289SOL    HW231767   3.603   0.835   1.306
10290SOL     OW31768   3.756   4.051   2.860
10290SOL    HW131769   3.750   4.065   2.959
10290SOL    HW231770   3.673   4.084   2.816
10291SOL     OW31771   4.179   0.204   3.885
10291SOL    HW131772   4.158   0.286   3.830
10291SOL    HW231773   4.233   0.140   3.829
10292SOL     OW31774   1.236   1.759   4.605
10292SOL    HW131775   1.233   1.666   4.643
10292SOL    HW231776   1.266   1.756   4.510
10293SOL     OW31777   1.803   6.023   2.680
10293SOL    HW131778   1.841   5.998   2.592
10293SOL    HW231779   1.877   6.049   2.742
10294SOL     OW31780   4.919   3.431   3.454
10294SOL    HW131781   4.851   3.429   3.528
10294SOL    HW231782   4.945   3.337   3.430
10295SOL     OW31783   6.248   4.840   5.701
10295SOL    HW131784   6.204   4.760   5.741
10295SOL    HW231785   6.179   4.911   5.684
10296SOL     OW31786   5.058   4.358   6.478
10296SOL    HW131787   5.033   4.454   6.468
10296SOL    HW231788   4.974   4.303   6.489
10297SOL     OW31789   2.657   6.704   4.398
10297SOL    HW131790   2.603   6.628   4.433
10297SOL    HW231791   2.703   6.677   4.314
10298SOL     OW31792   4.325   4.613   3.407
10298SOL    HW131793   4.355   4.623   3.312
10298SOL    HW231794   4.225   4.605   3.410
10299SOL     OW31795   4.439   4.600   3.157
10299SOL    HW131796   4.521   4.652   3.136
10299SOL    HW231797   4.439   4.515   3.104
10300SOL     OW31798   1.549   4.530   2.024
10300SOL    HW131799   1.613   4.597   1.987
10300SOL    HW231800   1.553   4.446   1.969
10301SOL     OW31801   5.644   2.502   2.331
10301SOL    HW131802   5.670   2.592   2.365
10301SOL    HW231803   5.663   2.496   2.233
10302SOL     OW31804   1.496   5.948   3.454
10302SOL    HW131805   1.484   6.044   3.477
10302SOL    HW231806   1.436   5.924   3.378
10303SOL     OW31807   3.730   4.704   1.036
10303SOL    HW131808   3.759   4.729   1.128
10303SOL    HW231809   3.689   4.613   1.037
10304SOL     OW31810   5.961   0.894   3.605
10304SOL    HW131811   6.015   0.974   3.630
10304SOL    HW231812   6.013   0.810   3.624
10305SOL     OW31813   1.051   6.004   6.559
10305SOL    HW131814   0.966   6.052   6.580
10305SOL    HW231815   1.080   5.951   6.638
10306SOL     OW31816   4.605   5.848   6.446
10306SOL    HW131817   4.665   5.855   6.367
10306SOL    HW231818   4.511   5.872   6.419
10307SOL     OW31819   2.307   1.936   5.368
10307SOL    HW131820   2.260   2.000   5.307
10307SOL    HW231821   2.398   1.918   5.332
10308SOL     OW31822   3.336   4.934   4.241
10308SOL    HW131823   3.332   5.034   4.239
10308SOL    HW231824   3.246   4.898   4.264
10309SOL     OW31825   6.746   0.411   3.790
10309SOL    HW131826   6.692   0.332   3.820
10309SOL    HW231827   6.842   0.397   3.814
10310SOL     OW31828   3.216   3.692   1.088
10310SOL    HW131829   3.314   3.702   1.071
10310SOL    HW231830   3.166   3.758   1.032
10311SOL     OW31831   0.344   5.672   1.318
10311SOL    HW131832   0.326   5.727   1.236
10311SOL    HW231833   0.354   5.576   1.293
10312SOL     OW31834   3.737   5.434   1.370
10312SOL    HW131835   3.718   5.421   1.467
10312SOL    HW231836   3.818   5.381   1.344
10313SOL     OW31837   4.060   6.668   2.369
10313SOL    HW131838   4.081   6.665   2.467
10313SOL    HW231839   3.981   6.610   2.349
10314SOL     OW31840   6.089   0.604   1.519
10314SOL    HW131841   6.039   0.665   1.580
10314SOL    HW231842   6.160   0.556   1.571
10315SOL     OW31843   6.753   6.465   4.744
10315SOL    HW131844   6.829   6.401   4.732
10315SOL    HW231845   6.787   6.551   4.782
10316SOL     OW31846   6.789   2.975   4.267
10316SOL    HW131847   6.879   2.981   4.223
10316SOL    HW231848   6.754   3.067   4.284
10317SOL     OW31849   3.674   4.993   6.489
10317SOL    HW131850   3.616   4.954   6.418
10317SOL    HW231851   3.633   4.977   6.578
10318SOL     OW31852   6.104   5.618   1.517
10318SOL    HW131853   6.185   5.651   1.470
10318SOL    HW231854   6.030   5.607   1.451
10319SOL     OW31855   0.813   4.356   4.839
10319SOL    HW131856   0.801   4.261   4.812
10319SOL    HW231857   0.902   4.368   4.883
10320SOL     OW31858   0.823   0.859   0.695
10320SOL    HW131859   0.808   0.955   0.718
10320SOL    HW231860   0.753   0.802   0.738
10321SOL     OW31861   4.142   6.742   4.528
10321SOL    HW131862   4.128   6.659   4.583
10321SOL    HW231863   4.165   6.716   4.434
10322SOL     OW31864   6.652   5.724   0.229
10322SOL    HW131865   6.693   5.814   0.211
10322SOL    HW231866   6.723   5.657   0.248
10323SOL     OW31867   6.752   3.352   6.651
10323SOL    HW131868   6.686   3.279   6.661
10323SOL    HW231869   6.734   3.404   6.567
10324SOL     OW31870   3.193   3.140   3.415
10324SOL    HW131871   3.184   3.151   3.316
10324SOL    HW231872   3.279   3.182   3.445
10325SOL     OW31873   6.619   4.644   4.445
10325SOL    HW131874   6.528   4.682   4.458
10325SOL    HW231875   6.686   4.719   4.440
10326SOL     OW31876   4.960   2.732   6.749
10326SOL    HW131877   5.034   2.709   6.813
10326SOL    HW231878   4.910   2.812   6.783
10327SOL     OW31879   2.249   1.479   2.883
10327SOL    HW131880   2.229   1.575   2.860
10327SOL    HW231881   2.175   1.421   2.850
10328SOL     OW31882   5.931   4.005   1.725
10328SOL    HW131883   6.006   3.980   1.665
10328SOL    HW231884   5.928   3.943   1.803
10329SOL     OW31885   2.546   0.549   4.307
10329SOL    HW131886   2.583   0.609   4.378
10329SOL    HW231887   2.605   0.552   4.226
10330SOL     OW31888   3.406   5.216   3.177
10330SOL    HW131889   3.327   5.272   3.152
10330SOL    HW231890   3.481   5.234   3.114
10331SOL     OW31891   5.894   0.862   2.908
10331SOL    HW131892   5.976   0.902   2.868
10331SOL    HW231893   5.881   0.769   2.872
10332SOL     OW31894   0.019   2.069   0.332
10332SOL    HW131895   0.031   1.978   0.371
10332SOL    HW231896   6.978   2.064   0.252
10333SOL     OW31897   5.756   4.388   4.303
10333SOL    HW131898   5.706   4.464   4.343
10333SOL    HW231899   5.806   4.340   4.374
10334SOL     OW31900   2.234   5.476   3.658
10334SOL    HW131901   2.184   5.492   3.573
10334SOL    HW231902   2.288   5.557   3.681
10335SOL     OW31903   1.815   4.624   6.633
10335SOL    HW131904   1.826   4.598   6.729
10335SOL    HW231905   1.771   4.714   6.628
10336SOL     OW31906   4.954   6.408   2.776
10336SOL    HW131907   5.005   6.327   2.745
10336SOL    HW231908   5.017   6.472   2.821
10337SOL     OW31909   6.618   5.269   5.454
10337SOL    HW131910   6.664   5.181   5.442
10337SOL    HW231911   6.584   5.301   5.366
10338SOL     OW31912   3.350   6.405   0.906
10338SOL    HW131913   3.421   6.337   0.890
10338SOL    HW231914   3.281   6.368   0.968
10339SOL     OW31915   4.028   5.206   1.008
10339SOL    HW131916   3.982   5.175   0.924
10339SOL    HW231917   3.989   5.158   1.087
10340SOL     OW31918   1.514   5.844   6.769
10340SOL    HW131919   1.431   5.810   6.724
10340SOL    HW231920   1.594   5.800   6.728
10341SOL     OW31921   2.402   2.708   1.900
10341SOL    HW131922   2.358   2.682   1.815
10341SOL    HW231923   2.397   2.807   1.912
10342SOL     OW31924   1.852   6.179   6.271
10342SOL    HW131925   1.929   6.122   6.239
10342SOL    HW231926   1.838   6.162   6.369
10343SOL     OW31927   1.777   3.894   0.093
10343SOL    HW131928   1.863   3.907   0.045
10343SOL    HW231929   1.702   3.889   0.026
10344SOL     OW31930   4.009   3.617   3.749
10344SOL    HW131931   3.983   3.520   3.748
10344SOL    HW231932   3.933   3.672   3.715
10345SOL     OW31933   2.039   1.489   6.981
10345SOL    HW131934   2.015   1.531   6.893
10345SOL    HW231935   1.956   1.476   0.017
10346SOL     OW31936   6.119   6.962   1.026
10346SOL    HW131937   6.088   0.033   0.993
10346SOL    HW231938   6.053   6.926   1.091
10347SOL     OW31939   4.887   1.574   0.587
10347SOL    HW131940   4.825   1.653   0.582
10347SOL    HW231941   4.842   1.494   0.547
10348SOL     OW31942   6.539   0.307   6.235
10348SOL    HW131943   6.601   0.287   6.311
10348SOL    HW231944   6.456   0.251   6.245
10349SOL     OW31945   6.130   0.360   1.176
10349SOL    HW131946   6.215   0.340   1.128
10349SOL    HW231947   6.117   0.459   1.181
10350SOL     OW31948   3.653   5.969   4.494
10350SOL    HW131949   3.645   5.902   4.420
10350SOL    HW231950   3.561   6.003   4.518
10351SOL     OW31951   6.100   4.577   5.563
10351SOL    HW131952   6.157   4.610   5.488
10351SOL    HW231953   6.028   4.644   5.583
10352SOL     OW31954   5.232   2.583   6.386
10352SOL    HW131955   5.259   2.498   6.341
10352SOL    HW231956   5.151   2.568   6.441
10353SOL     OW31957   0.421   2.888   3.759
10353SOL    HW131958   0.374   2.889   3.847
10353SOL    HW231959   0.385   2.813   3.702
10354SOL     OW31960   1.081   4.286   1.323
10354SOL    HW131961   1.116   4.322   1.410
10354SOL    HW231962   0.983   4.272   1.329
10355SOL     OW31963   1.253   1.377   1.459
10355SOL    HW131964   1.259   1.307   1.530
10355SOL    HW231965   1.340   1.381   1.409
10356SOL     OW31966   0.440   3.359   6.900
10356SOL    HW131967   0.498   3.285   6.935
10356SOL    HW231968   0.344   3.335   6.912
10357SOL     OW31969   1.978   2.286   6.207
10357SOL    HW131970   2.051   2.219   6.189
10357SOL    HW231971   1.987   2.363   6.144
10358SOL     OW31972   1.908   3.098   2.668
10358SOL    HW131973   1.967   3.130   2.742
10358SOL    HW231974   1.963   3.084   2.586
10359SOL     OW31975   4.733   2.758   2.155
10359SOL    HW131976   4.724   2.785   2.059
10359SOL    HW231977   4.779   2.830   2.206
10360SOL     OW31978   5.395   5.113   2.815
10360SOL    HW131979   5.361   5.040   2.757
10360SOL    HW231980   5.407   5.079   2.909
10361SOL     OW31981   2.462   0.787   1.897
10361SOL    HW131982   2.531   0.836   1.842
10361SOL    HW231983   2.379   0.842   1.903
10362SOL     OW31984   0.603   4.561   2.631
10362SOL    HW131985   0.685   4.511   2.602
10362SOL    HW231986   0.564   4.517   2.712
10363SOL     OW31987   4.453   2.651   0.212
10363SOL    HW131988   4.403   2.635   0.127
10363SOL    HW231989   4.529   2.587   0.218
10364SOL     OW31990   5.898   5.218   1.176
10364SOL    HW131991   5.818   5.276   1.196
10364SOL    HW231992   5.867   5.126   1.155
10365SOL     OW31993   5.813   4.969   0.111
10365SOL    HW131994   5.881   4.901   0.082
10365SOL    HW231995   5.730   4.959   0.057
10366SOL     OW31996   4.356   0.052   3.713
10366SOL    HW131997   4.388   6.976   3.723
10366SOL    HW231998   4.407   0.096   3.639
10367SOL     OW31999   6.612   1.770   2.132
10367SOL    HW132000   6.539   1.821   2.088
10367SOL    HW232001   6.631   1.687   2.081
10368SOL     OW32002   2.873   1.074   2.219
10368SOL    HW132003   2.822   1.136   2.160
10368SOL    HW232004   2.865   1.104   2.315
10369SOL     OW32005   2.859   6.616   5.807
10369SOL    HW132006   2.957   6.611   5.822
10369SOL    HW232007   2.815   6.657   5.887
10370SOL     OW32008   6.416   1.424   4.624
10370SOL    HW132009   6.350   1.389   4.690
10370SOL    HW232010   6.368   1.478   4.555
10371SOL     OW32011   3.402   0.100   3.381
10371SOL    HW132012   3.443   0.167   3.319
10371SOL    HW232013   3.404   0.136   3.474
10372SOL     OW32014   2.659   0.953   1.692
10372SOL    HW132015   2.682   0.997   1.605
10372SOL    HW232016   2.635   0.857   1.675
10373SOL     OW32017   0.238   6.836   4.721
10373SOL    HW132018   0.172   6.891   4.670
10373SOL    HW232019   0.324   6.886   4.729
10374SOL     OW32020   2.378   6.781   4.681
10374SOL    HW132021   2.344   6.691   4.706
10374SOL    HW232022   2.390   6.786   4.581
10375SOL     OW32023   3.019   1.781   6.568
10375SOL    HW132024   2.957   1.842   6.618
10375SOL    HW232025   3.037   1.820   6.478
10376SOL     OW32026   1.800   6.451   3.516
10376SOL    HW132027   1.736   6.473   3.443
10376SOL    HW232028   1.792   6.518   3.589
10377SOL     OW32029   0.536   2.125   1.577
10377SOL    HW132030   0.548   2.182   1.496
10377SOL    HW232031   0.611   2.142   1.641
10378SOL     OW32032   0.040   5.539   5.771
10378SOL    HW132033   7.013   5.580   5.692
10378SOL    HW232034   6.989   5.501   5.833
10379SOL     OW32035   2.894   5.965   4.035
10379SOL    HW132036   2.986   5.944   4.068
10379SOL    HW232037   2.859   5.887   3.983
10380SOL     OW32038   1.596   2.195   4.845
10380SOL    HW132039   1.577   2.282   4.890
10380SOL    HW232040   1.522   2.173   4.782
10381SOL     OW32041   3.669   4.287   0.366
10381SOL    HW132042   3.754   4.336   0.344
10381SOL    HW232043   3.682   4.236   0.450
10382SOL     OW32044   3.218   6.269   2.015
10382SOL    HW132045   3.259   6.217   2.091
10382SOL    HW232046   3.182   6.206   1.947
10383SOL     OW32047   2.009   3.930   0.543
10383SOL    HW132048   2.061   3.872   0.481
10383SOL    HW232049   1.927   3.882   0.573
10384SOL     OW32050   6.418   6.291   0.983
10384SOL    HW132051   6.349   6.219   0.984
10384SOL    HW232052   6.506   6.253   1.008
10385SOL     OW32053   3.625   5.636   5.779
10385SOL    HW132054   3.551   5.683   5.729
10385SOL    HW232055   3.690   5.597   5.714
10386SOL     OW32056   0.496   0.787   5.722
10386SOL    HW132057   0.525   0.705   5.772
10386SOL    HW232058   0.423   0.762   5.658
10387SOL     OW32059   5.262   3.008   2.999
10387SOL    HW132060   5.232   2.932   2.942
10387SOL    HW232061   5.350   2.985   3.041
10388SOL     OW32062   2.817   0.038   0.831
10388SOL    HW132063   2.767   0.097   0.767
10388SOL    HW232064   2.837   6.969   0.788
10389SOL     OW32065   5.617   3.284   0.078
10389SOL    HW132066   5.557   3.239   0.145
10389SOL    HW232067   5.575   3.278   7.006
10390SOL     OW32068   1.527   2.442   0.368
10390SOL    HW132069   1.552   2.367   0.307
10390SOL    HW232070   1.427   2.445   0.378
10391SOL     OW32071   1.746   5.819   4.099
10391SOL    HW132072   1.835   5.836   4.141
10391SOL    HW232073   1.759   5.799   4.001
10392SOL     OW32074   6.140   4.973   5.315
10392SOL    HW132075   6.220   4.980   5.375
10392SOL    HW232076   6.083   5.054   5.326
10393SOL     OW32077   1.426   3.834   3.824
10393SOL    HW132078   1.362   3.824   3.900
10393SOL    HW232079   1.516   3.801   3.851
10394SOL     OW32080   2.363   5.775   4.223
10394SOL    HW132081   2.374   5.790   4.321
10394SOL    HW232082   2.445   5.806   4.175
10395SOL     OW32083   0.334   6.551   1.399
10395SOL    HW132084   0.354   6.547   1.497
10395SOL    HW232085   0.241   6.584   1.385
10396SOL     OW32086   3.961   1.918   3.623
10396SOL    HW132087   3.924   1.844   3.680
10396SOL    HW232088   3.912   1.921   3.536
10397SOL     OW32089   3.558   1.648   3.847
10397SOL    HW132090   3.614   1.572   3.880
10397SOL    HW232091   3.540   1.712   3.922
10398SOL     OW32092   5.890   2.292   1.012
10398SOL    HW132093   5.986   2.270   0.996
10398SOL    HW232094   5.834   2.211   0.996
10399SOL     OW32095   5.401   2.140   3.436
10399SOL    HW132096   5.388   2.048   3.473
10399SOL    HW232097   5.411   2.134   3.337
10400SOL     OW32098   4.703   6.196   6.970
10400SOL    HW132099   4.711   6.267   0.021
10400SOL    HW232100   4.661   6.114   7.011
10401SOL     OW32101   6.401   6.434   2.713
10401SOL    HW132102   6.480   6.493   2.727
10401SOL    HW232103   6.417   6.374   2.634
10402SOL     OW32104   6.473   2.282   5.271
10402SOL    HW132105   6.460   2.254   5.176
10402SOL    HW232106   6.458   2.381   5.279
10403SOL     OW32107   4.868   1.505   3.421
10403SOL    HW132108   4.899   1.579   3.482
10403SOL    HW232109   4.806   1.446   3.471
10404SOL     OW32110   6.142   6.359   4.422
10404SOL    HW132111   6.213   6.346   4.491
10404SOL    HW232112   6.184   6.372   4.333
10405SOL     OW32113   0.928   0.311   5.329
10405SOL    HW132114   0.958   0.292   5.235
10405SOL    HW232115   0.991   0.376   5.371
10406SOL     OW32116   2.314   4.651   3.298
10406SOL    HW132117   2.329   4.687   3.206
10406SOL    HW232118   2.326   4.552   3.297
10407SOL     OW32119   2.461   6.613   6.096
10407SOL    HW132120   2.391   6.620   6.024
10407SOL    HW232121   2.416   6.605   6.185
10408SOL     OW32122   4.534   0.316   1.868
10408SOL    HW132123   4.510   0.413   1.857
10408SOL    HW232124   4.617   0.296   1.816
10409SOL     OW32125   0.772   4.800   0.946
10409SOL    HW132126   0.814   4.746   1.019
10409SOL    HW232127   0.720   4.739   0.886
10410SOL     OW32128   5.328   2.236   1.628
10410SOL    HW132129   5.373   2.152   1.597
10410SOL    HW232130   5.278   2.218   1.712
10411SOL     OW32131   3.486   6.265   3.157
10411SOL    HW132132   3.556   6.211   3.203
10411SOL    HW232133   3.417   6.294   3.224
10412SOL     OW32134   0.422   0.945   0.037
10412SOL    HW132135   0.361   0.938   6.977
10412SOL    HW232136   0.427   0.857   0.083
10413SOL     OW32137   0.023   3.093   0.617
10413SOL    HW132138   0.004   3.069   0.712
10413SOL    HW232139   0.022   3.192   0.606
10414SOL     OW32140   3.967   4.700   5.844
10414SOL    HW132141   3.901   4.641   5.891
10414SOL    HW232142   3.926   4.734   5.759
10415SOL     OW32143   1.700   3.457   4.508
10415SOL    HW132144   1.766   3.382   4.502
10415SOL    HW232145   1.721   3.513   4.588
10416SOL     OW32146   6.242   0.521   5.076
10416SOL    HW132147   6.245   0.428   5.040
10416SOL    HW232148   6.221   0.585   5.003
10417SOL     OW32149   3.177   5.290   4.489
10417SOL    HW132150   3.162   5.330   4.580
10417SOL    HW232151   3.264   5.241   4.489
10418SOL     OW32152   0.284   3.804   6.701
10418SOL    HW132153   0.215   3.765   6.763
10418SOL    HW232154   0.374   3.772   6.727
10419SOL     OW32155   2.223   0.075   5.907
10419SOL    HW132156   2.297   0.119   5.957
10419SOL    HW232157   2.137   0.119   5.929
10420SOL     OW32158   0.426   3.828   3.702
10420SOL    HW132159   0.462   3.879   3.624
10420SOL    HW232160   0.407   3.734   3.674
10421SOL     OW32161   0.486   1.745   3.583
10421SOL    HW132162   0.574   1.741   3.631
10421SOL    HW232163   0.416   1.777   3.646
10422SOL     OW32164   6.449   2.868   5.036
10422SOL    HW132165   6.369   2.809   5.045
10422SOL    HW232166   6.454   2.903   4.942
10423SOL     OW32167   6.593   5.986   5.054
10423SOL    HW132168   6.572   6.081   5.073
10423SOL    HW232169   6.638   5.945   5.134
10424SOL     OW32170   4.771   3.120   0.368
10424SOL    HW132171   4.782   3.027   0.403
10424SOL    HW232172   4.812   3.126   0.277
10425SOL     OW32173   0.902   0.450   1.611
10425SOL    HW132174   0.931   0.509   1.536
10425SOL    HW232175   0.861   0.505   1.684
10426SOL     OW32176   6.085   4.635   0.644
10426SOL    HW132177   6.163   4.671   0.594
10426SOL    HW232178   6.033   4.711   0.684
10427SOL     OW32179   3.782   0.611   6.440
10427SOL    HW132180   3.746   0.677   6.374
10427SOL    HW232181   3.708   0.552   6.471
10428SOL     OW32182   3.778   1.155   3.616
10428SOL    HW132183   3.800   1.058   3.604
10428SOL    HW232184   3.697   1.164   3.674
10429SOL     OW32185   6.620   4.868   0.823
10429SOL    HW132186   6.548   4.835   0.885
10429SOL    HW232187   6.702   4.891   0.877
10430SOL     OW32188   4.930   0.249   4.453
10430SOL    HW132189   4.884   0.286   4.534
10430SOL    HW232190   5.023   0.222   4.478
10431SOL     OW32191   3.269   6.194   4.061
10431SOL    HW132192   3.306   6.227   3.974
10431SOL    HW232193   3.267   6.094   4.061
10432SOL     OW32194   5.495   0.008   4.954
10432SOL    HW132195   5.571   0.016   5.018
10432SOL    HW232196   5.527   6.985   4.869
10433SOL     OW32197   1.507   6.232   1.725
10433SOL    HW132198   1.426   6.225   1.667
10433SOL    HW232199   1.495   6.306   1.790
10434SOL     OW32200   3.919   6.822   3.499
10434SOL    HW132201   3.930   6.921   3.513
10434SOL    HW232202   4.004   6.775   3.526
10435SOL     OW32203   6.857   0.624   4.689
10435SOL    HW132204   6.789   0.586   4.627
10435SOL    HW232205   6.860   0.570   4.773
10436SOL     OW32206   0.909   4.925   5.694
10436SOL    HW132207   0.865   4.838   5.668
10436SOL    HW232208   1.006   4.909   5.711
10437SOL     OW32209   5.314   4.778   5.706
10437SOL    HW132210   5.273   4.709   5.766
10437SOL    HW232211   5.360   4.733   5.630
10438SOL     OW32212   6.210   6.650   0.401
10438SOL    HW132213   6.126   6.610   0.365
10438SOL    HW232214   6.226   6.738   0.357
10439SOL     OW32215   4.601   0.824   6.128
10439SOL    HW132216   4.576   0.748   6.187
10439SOL    HW232217   4.524   0.848   6.070
10440SOL     OW32218   1.263   0.035   0.554
10440SOL    HW132219   1.237   6.969   0.508
10440SOL    HW232220   1.185   0.098   0.555
10441SOL     OW32221   3.636   0.447   1.133
10441SOL    HW132222   3.736   0.441   1.138
10441SOL    HW232223   3.601   0.489   1.217
10442SOL     OW32224   2.975   6.308   5.715
10442SOL    HW132225   3.028   6.242   5.768
10442SOL    HW232226   3.016   6.399   5.724
10443SOL     OW32227   4.994   3.834   4.829
10443SOL    HW132228   4.944   3.776   4.894
10443SOL    HW232229   4.955   3.823   4.738
10444SOL     OW32230   3.759   5.975   4.902
10444SOL    HW132231   3.816   5.953   4.822
10444SOL    HW232232   3.725   5.890   4.942
10445SOL     OW32233   0.423   5.091   4.913
10445SOL    HW132234   0.362   5.071   4.837
10445SOL    HW232235   0.396   5.178   4.955
10446SOL     OW32236   1.309   3.110   5.031
10446SOL    HW132237   1.319   3.044   4.957
10446SOL    HW232238   1.388   3.171   5.033
10447SOL     OW32239   0.134   0.895   2.053
10447SOL    HW132240   0.205   0.959   2.026
10447SOL    HW232241   0.044   0.939   2.045
10448SOL     OW32242   3.230   1.158   1.919
10448SOL    HW132243   3.265   1.156   2.013
10448SOL    HW232244   3.261   1.076   1.870
10449SOL     OW32245   2.245   5.177   4.920
10449SOL    HW132246   2.317   5.207   4.857
10449SOL    HW232247   2.166   5.238   4.911
10450SOL     OW32248   0.908   1.822   0.461
10450SOL    HW132249   0.937   1.835   0.367
10450SOL    HW232250   0.820   1.774   0.463
10451SOL     OW32251   1.583   5.296   2.470
10451SOL    HW132252   1.542   5.314   2.560
10451SOL    HW232253   1.600   5.383   2.423
10452SOL     OW32254   6.771   3.843   2.392
10452SOL    HW132255   6.858   3.866   2.348
10452SOL    HW232256   6.788   3.813   2.486
10453SOL     OW32257   4.253   5.475   1.707
10453SOL    HW132258   4.320   5.542   1.737
10453SOL    HW232259   4.161   5.513   1.716
10454SOL     OW32260   4.577   3.451   0.972
10454SOL    HW132261   4.648   3.393   1.013
10454SOL    HW232262   4.609   3.546   0.971
10455SOL     OW32263   6.405   5.414   2.968
10455SOL    HW132264   6.356   5.392   2.883
10455SOL    HW232265   6.492   5.365   2.969
10456SOL     OW32266   3.501   6.337   1.202
10456SOL    HW132267   3.490   6.288   1.116
10456SOL    HW232268   3.412   6.363   1.238
10457SOL     OW32269   3.272   3.685   1.720
10457SOL    HW132270   3.280   3.655   1.815
10457SOL    HW232271   3.244   3.781   1.717
10458SOL     OW32272   0.547   1.112   5.750
10458SOL    HW132273   0.497   1.071   5.826
10458SOL    HW232274   0.510   1.204   5.732
10459SOL     OW32275   4.958   5.489   2.268
10459SOL    HW132276   4.881   5.500   2.206
10459SOL    HW232277   4.926   5.449   2.354
10460SOL     OW32278   1.203   5.049   1.350
10460SOL    HW132279   1.247   5.128   1.393
10460SOL    HW232280   1.183   4.980   1.419
10461SOL     OW32281   1.679   5.243   5.516
10461SOL    HW132282   1.680   5.342   5.505
10461SOL    HW232283   1.585   5.210   5.513
10462SOL     OW32284   5.983   1.919   3.094
10462SOL    HW132285   5.940   1.850   3.036
10462SOL    HW232286   6.074   1.941   3.059
10463SOL     OW32287   3.815   3.014   5.544
10463SOL    HW132288   3.854   3.046   5.458
10463SOL    HW232289   3.777   2.922   5.531
10464SOL     OW32290   6.083   6.534   1.479
10464SOL    HW132291   6.023   6.599   1.433
10464SOL    HW232292   6.163   6.517   1.422
10465SOL     OW32293   6.441   6.123   1.663
10465SOL    HW132294   6.386   6.081   1.735
10465SOL    HW232295   6.389   6.124   1.578
10466SOL     OW32296   4.705   4.821   5.389
10466SOL    HW132297   4.745   4.871   5.312
10466SOL    HW232298   4.679   4.886   5.461
10467SOL     OW32299   1.277   2.257   5.523
10467SOL    HW132300   1.333   2.332   5.558
10467SOL    HW232301   1.262   2.270   5.425
10468SOL     OW32302   3.906   4.795   3.040
10468SOL    HW132303   3.951   4.799   2.950
10468SOL    HW232304   3.961   4.739   3.102
10469SOL     OW32305   3.872   2.568   6.236
10469SOL    HW132306   3.881   2.616   6.149
10469SOL    HW232307   3.779   2.580   6.272
10470SOL     OW32308   3.133   1.943   3.306
10470SOL    HW132309   3.192   1.934   3.386
10470SOL    HW232310   3.059   1.876   3.311
10471SOL     OW32311   2.519   2.510   1.261
10471SOL    HW132312   2.496   2.436   1.325
10471SOL    HW232313   2.606   2.488   1.215
10472SOL     OW32314   2.658   5.587   1.012
10472SOL    HW132315   2.745   5.566   1.057
10472SOL    HW232316   2.634   5.683   1.029
10473SOL     OW32317   6.036   0.694   0.405
10473SOL    HW132318   6.025   0.787   0.441
10473SOL    HW232319   6.041   0.697   0.305
10474SOL     OW32320   4.783   1.560   4.900
10474SOL    HW132321   4.749   1.653   4.882
10474SOL    HW232322   4.771   1.539   4.997
10475SOL     OW32323   4.779   6.617   2.724
10475SOL    HW132324   4.758   6.613   2.626
10475SOL    HW232325   4.859   6.560   2.743
10476SOL     OW32326   7.004   6.272   6.740
10476SOL    HW132327   6.947   6.195   6.770
10476SOL    HW232328   6.946   6.339   6.693
10477SOL     OW32329   6.386   1.939   4.372
10477SOL    HW132330   6.393   1.850   4.417
10477SOL    HW232331   6.301   1.944   4.320
10478SOL     OW32332   0.191   0.578   1.368
10478SOL    HW132333   0.146   0.500   1.323
10478SOL    HW232334   0.289   0.574   1.352
10479SOL     OW32335   0.498   2.787   1.836
10479SOL    HW132336   0.596   2.772   1.847
10479SOL    HW232337   0.480   2.835   1.750
10480SOL     OW32338   5.825   0.422   1.551
10480SOL    HW132339   5.882   0.471   1.617
10480SOL    HW232340   5.862   0.436   1.459
10481SOL     OW32341   2.439   0.305   4.422
10481SOL    HW132342   2.344   0.325   4.398
10481SOL    HW232343   2.500   0.372   4.379
10482SOL     OW32344   0.420   5.505   4.940
10482SOL    HW132345   0.417   5.412   4.976
10482SOL    HW232346   0.514   5.530   4.919
10483SOL     OW32347   0.159   5.983   0.658
10483SOL    HW132348   0.134   5.988   0.562
10483SOL    HW232349   0.255   5.955   0.666
10484SOL     OW32350   6.166   0.979   1.446
10484SOL    HW132351   6.219   0.914   1.501
10484SOL    HW232352   6.158   1.065   1.497
10485SOL     OW32353   3.389   3.136   2.262
10485SOL    HW132354   3.386   3.052   2.316
10485SOL    HW232355   3.442   3.120   2.178
10486SOL     OW32356   6.335   0.579   5.983
10486SOL    HW132357   6.416   0.523   5.997
10486SOL    HW232358   6.334   0.655   6.049
10487SOL     OW32359   4.880   2.196   1.197
10487SOL    HW132360   4.963   2.207   1.252
10487SOL    HW232361   4.803   2.237   1.246
10488SOL     OW32362   2.163   2.061   6.121
10488SOL    HW132363   2.174   1.976   6.070
10488SOL    HW232364   2.206   2.136   6.071
10489SOL     OW32365   6.274   6.428   4.190
10489SOL    HW132366   6.339   6.355   4.213
10489SOL    HW232367   6.324   6.506   4.152
10490SOL     OW32368   5.698   1.565   0.746
10490SOL    HW132369   5.714   1.520   0.658
10490SOL    HW232370   5.654   1.500   0.809
10491SOL     OW32371   2.179   2.225   5.754
10491SOL    HW132372   2.131   2.312   5.740
10491SOL    HW232373   2.112   2.153   5.774
10492SOL     OW32374   4.609   6.005   1.173
10492SOL    HW132375   4.600   6.104   1.166
10492SOL    HW232376   4.620   5.979   1.269
10493SOL     OW32377   3.068   6.332   1.648
10493SOL    HW132378   3.168   6.340   1.656
10493SOL    HW232379   3.025   6.369   1.731
10494SOL     OW32380   6.277   4.278   5.770
10494SOL    HW132381   6.330   4.350   5.814
10494SOL    HW232382   6.186   4.274   5.812
10495SOL     OW32383   6.708   0.515   0.486
10495SOL    HW132384   6.647   0.439   0.507
10495SOL    HW232385   6.712   0.577   0.565
10496SOL     OW32386   6.526   4.614   5.302
10496SOL    HW132387   6.572   4.575   5.222
10496SOL    HW232388   6.568   4.578   5.385
10497SOL     OW32389   1.147   6.726   2.325
10497SOL    HW132390   1.247   6.726   2.330
10497SOL    HW232391   1.116   6.642   2.280
10498SOL     OW32392   5.993   5.984   1.150
10498SOL    HW132393   5.938   6.066   1.136
10498SOL    HW232394   6.089   6.006   1.135
10499SOL     OW32395   4.877   6.604   1.189
10499SOL    HW132396   4.974   6.628   1.188
10499SOL    HW232397   4.825   6.678   1.231
10500SOL     OW32398   6.027   2.174   5.888
10500SOL    HW132399   6.082   2.179   5.805
10500SOL    HW232400   5.982   2.085   5.893
10501SOL     OW32401   2.151   6.030   2.242
10501SOL    HW132402   2.204   6.001   2.163
10501SOL    HW232403   2.209   6.027   2.324
10502SOL     OW32404   2.683   4.165   0.889
10502SOL    HW132405   2.678   4.143   0.792
10502SOL    HW232406   2.762   4.224   0.906
10503SOL     OW32407   5.579   3.979   0.291
10503SOL    HW132408   5.667   3.997   0.335
10503SOL    HW232409   5.511   4.045   0.322
10504SOL     OW32410   0.378   2.428   5.303
10504SOL    HW132411   0.328   2.484   5.370
10504SOL    HW232412   0.410   2.344   5.347
10505SOL     OW32413   5.624   6.719   1.499
10505SOL    HW132414   5.693   6.788   1.519
10505SOL    HW232415   5.533   6.757   1.516
10506SOL     OW32416   0.510   3.576   0.516
10506SOL    HW132417   0.561   3.534   0.591
10506SOL    HW232418   0.515   3.518   0.435
10507SOL     OW32419   2.439   5.184   6.858
10507SOL    HW132420   2.514   5.244   6.828
10507SOL    HW232421   2.355   5.210   6.810
10508SOL     OW32422   0.794   5.307   4.164
10508SOL    HW132423   0.732   5.384   4.148
10508SOL    HW232424   0.888   5.335   4.141
10509SOL     OW32425   6.220   4.569   4.696
10509SOL    HW132426   6.201   4.538   4.789
10509SOL    HW232427   6.200   4.495   4.632
10510SOL     OW32428   4.767   6.229   0.592
10510SOL    HW132429   4.695   6.201   0.656
10510SOL    HW232430   4.770   6.166   0.515
10511SOL     OW32431   3.068   1.565   1.790
10511SOL    HW132432   3.005   1.543   1.865
10511SOL    HW232433   3.057   1.661   1.764
10512SOL     OW32434   3.486   6.951   6.238
10512SOL    HW132435   3.505   0.025   6.269
10512SOL    HW232436   3.571   6.898   6.234
10513SOL     OW32437   6.369   2.923   3.195
10513SOL    HW132438   6.405   2.981   3.122
10513SOL    HW232439   6.343   2.979   3.273
10514SOL     OW32440   1.392   1.794   1.434
10514SOL    HW132441   1.368   1.868   1.497
10514SOL    HW232442   1.341   1.805   1.349
10515SOL     OW32443   2.152   2.987   4.081
10515SOL    HW132444   2.128   3.077   4.046
10515SOL    HW232445   2.072   2.946   4.125
10516SOL     OW32446   2.517   1.884   0.144
10516SOL    HW132447   2.612   1.859   0.158
10516SOL    HW232448   2.511   1.981   0.122
10517SOL     OW32449   1.395   4.273   1.371
10517SOL    HW132450   1.298   4.264   1.349
10517SOL    HW232451   1.407   4.279   1.470
10518SOL     OW32452   6.834   6.114   1.752
10518SOL    HW132453   6.903   6.174   1.793
10518SOL    HW232454   6.794   6.056   1.822
10519SOL     OW32455   2.830   4.741   0.311
10519SOL    HW132456   2.874   4.831   0.315
10519SOL    HW232457   2.849   4.698   0.223
10520SOL     OW32458   0.177   2.051   5.951
10520SOL    HW132459   0.083   2.034   5.979
10520SOL    HW232460   0.229   2.086   6.029
10521SOL     OW32461   6.371   5.239   1.819
10521SOL    HW132462   6.374   5.176   1.741
10521SOL    HW232463   6.346   5.330   1.788
10522SOL     OW32464   0.380   2.927   3.267
10522SOL    HW132465   0.320   2.847   3.277
10522SOL    HW232466   0.335   2.994   3.208
10523SOL     OW32467   0.538   4.295   3.454
10523SOL    HW132468   0.531   4.221   3.521
10523SOL    HW232469   0.497   4.378   3.492
10524SOL     OW32470   0.837   6.160   4.051
10524SOL    HW132471   0.779   6.208   4.117
10524SOL    HW232472   0.886   6.226   3.995
10525SOL     OW32473   3.881   6.914   5.216
10525SOL    HW132474   3.867   6.990   5.279
10525SOL    HW232475   3.874   6.947   5.121
10526SOL     OW32476   0.511   6.712   1.848
10526SOL    HW132477   0.503   6.751   1.757
10526SOL    HW232478   0.592   6.749   1.894
10527SOL     OW32479   0.893   0.546   6.048
10527SOL    HW132480   0.963   0.617   6.047
10527SOL    HW232481   0.917   0.476   6.116
10528SOL     OW32482   1.043   4.044   6.541
10528SOL    HW132483   0.969   3.979   6.559
10528SOL    HW232484   1.077   4.081   6.628
10529SOL     OW32485   2.237   5.623   4.685
10529SOL    HW132486   2.258   5.716   4.713
10529SOL    HW232487   2.143   5.619   4.649
10530SOL     OW32488   1.017   6.388   5.593
10530SOL    HW132489   0.970   6.341   5.668
10530SOL    HW232490   1.005   6.487   5.603
10531SOL     OW32491   2.612   1.904   4.433
10531SOL    HW132492   2.548   1.925   4.506
10531SOL    HW232493   2.636   1.989   4.384
10532SOL     OW32494   6.789   6.706   6.628
10532SOL    HW132495   6.744   6.719   6.540
10532SOL    HW232496   6.749   6.768   6.695
10533SOL     OW32497   3.057   6.372   4.010
10533SOL    HW132498   3.124   6.298   4.013
10533SOL    HW232499   3.082   6.443   4.077
10534SOL     OW32500   6.576   5.043   1.901
10534SOL    HW132501   6.504   5.111   1.887
10534SOL    HW232502   6.649   5.058   1.835
10535SOL     OW32503   1.750   1.583   2.619
10535SOL    HW132504   1.724   1.551   2.710
10535SOL    HW232505   1.702   1.668   2.598
10536SOL     OW32506   4.612   0.120   4.241
10536SOL    HW132507   4.543   0.048   4.234
10536SOL    HW232508   4.595   0.191   4.172
10537SOL     OW32509   4.854   6.533   3.938
10537SOL    HW132510   4.870   6.446   3.985
10537SOL    HW232511   4.782   6.521   3.870
10538SOL     OW32512   6.394   3.657   1.477
10538SOL    HW132513   6.482   3.700   1.495
10538SOL    HW232514   6.371   3.595   1.552
10539SOL     OW32515   6.285   5.334   1.416
10539SOL    HW132516   6.196   5.335   1.371
10539SOL    HW232517   6.293   5.414   1.476
10540SOL     OW32518   2.113   3.712   5.469
10540SOL    HW132519   2.124   3.626   5.419
10540SOL    HW232520   2.125   3.789   5.406
10541SOL     OW32521   3.997   3.084   3.615
10541SOL    HW132522   4.052   3.004   3.590
10541SOL    HW232523   3.925   3.056   3.679
10542SOL     OW32524   6.512   0.286   4.768
10542SOL    HW132525   6.582   0.224   4.803
10542SOL    HW232526   6.472   0.247   4.685
10543SOL     OW32527   1.500   1.910   4.328
10543SOL    HW132528   1.474   1.987   4.269
10543SOL    HW232529   1.418   1.858   4.352
10544SOL     OW32530   2.031   6.023   2.841
10544SOL    HW132531   2.097   6.056   2.909
10544SOL    HW232532   1.989   5.938   2.873
10545SOL     OW32533   1.302   1.981   1.671
10545SOL    HW132534   1.212   1.951   1.639
10545SOL    HW232535   1.337   2.052   1.611
10546SOL     OW32536   3.459   6.156   0.968
10546SOL    HW132537   3.469   6.119   1.060
10546SOL    HW232538   3.495   6.091   0.902
10547SOL     OW32539   5.068   1.928   3.930
10547SOL    HW132540   5.020   1.840   3.924
10547SOL    HW232541   5.144   1.929   3.866
10548SOL     OW32542   0.359   3.692   4.281
10548SOL    HW132543   0.449   3.677   4.322
10548SOL    HW232544   0.370   3.723   4.187
10549SOL     OW32545   0.448   1.579   0.623
10549SOL    HW132546   0.472   1.490   0.586
10549SOL    HW232547   0.430   1.571   0.721
10550SOL     OW32548   4.104   6.650   3.589
10550SOL    HW132549   4.131   6.602   3.673
10550SOL    HW232550   4.049   6.588   3.532
10551SOL     OW32551   2.337   2.147   6.337
10551SOL    HW132552   2.275   2.130   6.260
10551SOL    HW232553   2.424   2.181   6.303
10552SOL     OW32554   2.233   0.686   4.915
10552SOL    HW132555   2.313   0.747   4.917
10552SOL    HW232556   2.258   0.597   4.953
10553SOL     OW32557   0.058   4.148   0.863
10553SOL    HW132558   6.989   4.159   0.911
10553SOL    HW232559   0.042   4.138   0.765
10554SOL     OW32560   5.281   5.829   1.886
10554SOL    HW132561   5.235   5.775   1.814
10554SOL    HW232562   5.370   5.860   1.853
10555SOL     OW32563   2.859   2.465   1.144
10555SOL    HW132564   2.858   2.365   1.148
10555SOL    HW232565   2.854   2.494   1.048
10556SOL     OW32566   2.892   0.718   3.909
10556SOL    HW132567   2.972   0.718   3.849
10556SOL    HW232568   2.812   0.749   3.858
10557SOL     OW32569   1.525   3.395   3.686
10557SOL    HW132570   1.442   3.339   3.680
10557SOL    HW232571   1.501   3.491   3.678
10558SOL     OW32572   3.871   5.786   5.852
10558SOL    HW132573   3.955   5.741   5.882
10558SOL    HW232574   3.793   5.725   5.866
10559SOL     OW32575   3.943   0.878   1.682
10559SOL    HW132576   3.885   0.956   1.708
10559SOL    HW232577   3.910   0.840   1.596
10560SOL     OW32578   4.536   6.828   2.525
10560SOL    HW132579   4.450   6.861   2.564
10560SOL    HW232580   4.612   6.854   2.584
10561SOL     OW32581   3.840   4.490   1.694
10561SOL    HW132582   3.915   4.462   1.634
10561SOL    HW232583   3.767   4.532   1.640
10562SOL     OW32584   4.552   5.831   0.391
10562SOL    HW132585   4.506   5.804   0.307
10562SOL    HW232586   4.485   5.839   0.465
10563SOL     OW32587   0.823   0.816   1.432
10563SOL    HW132588   0.906   0.763   1.450
10563SOL    HW232589   0.829   0.903   1.482
10564SOL     OW32590   5.844   6.718   3.817
10564SOL    HW132591   5.830   6.619   3.823
10564SOL    HW232592   5.792   6.763   3.889
10565SOL     OW32593   6.685   6.356   5.377
10565SOL    HW132594   6.655   6.300   5.454
10565SOL    HW232595   6.784   6.370   5.383
10566SOL     OW32596   3.282   1.726   6.661
10566SOL    HW132597   3.306   1.630   6.645
10566SOL    HW232598   3.193   1.745   6.620
10567SOL     OW32599   2.465   2.770   6.054
10567SOL    HW132600   2.445   2.783   6.151
10567SOL    HW232601   2.413   2.837   6.000
10568SOL     OW32602   5.860   2.237   0.579
10568SOL    HW132603   5.771   2.227   0.623
10568SOL    HW232604   5.852   2.218   0.481
10569SOL     OW32605   5.548   0.674   2.134
10569SOL    HW132606   5.626   0.696   2.076
10569SOL    HW232607   5.554   0.726   2.219
10570SOL     OW32608   1.467   4.531   3.464
10570SOL    HW132609   1.479   4.599   3.535
10570SOL    HW232610   1.389   4.472   3.487
10571SOL     OW32611   0.244   4.110   5.377
10571SOL    HW132612   0.258   4.193   5.432
10571SOL    HW232613   0.221   4.135   5.283
10572SOL     OW32614   0.226   4.651   2.616
10572SOL    HW132615   0.316   4.675   2.652
10572SOL    HW232616   0.184   4.731   2.573
10573SOL     OW32617   4.952   0.503   4.891
10573SOL    HW132618   4.861   0.544   4.898
10573SOL    HW232619   5.007   0.554   4.826
10574SOL     OW32620   6.852   1.219   3.786
10574SOL    HW132621   6.931   1.246   3.840
10574SOL    HW232622   6.821   1.297   3.732
10575SOL     OW32623   6.437   1.111   3.894
10575SOL    HW132624   6.433   1.030   3.837
10575SOL    HW232625   6.376   1.181   3.858
10576SOL     OW32626   1.122   5.591   3.110
10576SOL    HW132627   1.047   5.528   3.130
10576SOL    HW232628   1.191   5.543   3.056
10577SOL     OW32629   1.985   4.698   0.479
10577SOL    HW132630   2.017   4.761   0.408
10577SOL    HW232631   2.007   4.604   0.453
10578SOL     OW32632   4.799   0.930   3.534
10578SOL    HW132633   4.856   1.004   3.498
10578SOL    HW232634   4.717   0.921   3.478
10579SOL     OW32635   3.676   3.012   1.189
10579SOL    HW132636   3.678   2.915   1.167
10579SOL    HW232637   3.582   3.044   1.189
10580SOL     OW32638   6.523   6.280   5.979
10580SOL    HW132639   6.498   6.256   6.073
10580SOL    HW232640   6.608   6.333   5.980
10581SOL     OW32641   5.528   0.286   2.532
10581SOL    HW132642   5.508   0.198   2.489
10581SOL    HW232643   5.620   0.283   2.572
10582SOL     OW32644   4.734   4.663   6.181
10582SOL    HW132645   4.799   4.657   6.257
10582SOL    HW232646   4.780   4.700   6.100
10583SOL     OW32647   4.451   6.887   4.285
10583SOL    HW132648   4.531   6.831   4.262
10583SOL    HW232649   4.461   6.923   4.378
10584SOL     OW32650   6.363   7.012   6.654
10584SOL    HW132651   6.323   0.068   6.708
10584SOL    HW232652   6.396   6.940   6.715
10585SOL     OW32653   2.046   1.977   5.829
10585SOL    HW132654   1.986   1.941   5.757
10585SOL    HW232655   2.020   1.938   5.917
10586SOL     OW32656   4.644   4.953   5.621
10586SOL    HW132657   4.699   4.963   5.704
10586SOL    HW232658   4.581   4.876   5.632
10587SOL     OW32659   6.401   5.325   7.010
10587SOL    HW132660   6.404   5.414   0.036
10587SOL    HW232661   6.307   5.305   6.983
10588SOL     OW32662   1.953   1.933   5.023
10588SOL    HW132663   1.987   1.956   4.932
10588SOL    HW232664   1.883   1.999   5.051
10589SOL     OW32665   4.883   0.277   4.167
10589SOL    HW132666   4.863   0.248   4.261
10589SOL    HW232667   4.980   0.301   4.159
10590SOL     OW32668   0.267   6.501   1.657
10590SOL    HW132669   0.250   6.592   1.695
10590SOL    HW232670   0.257   6.432   1.729
10591SOL     OW32671   2.454   1.760   1.123
10591SOL    HW132672   2.413   1.809   1.046
10591SOL    HW232673   2.389   1.693   1.158
10592SOL     OW32674   5.585   3.313   4.890
10592SOL    HW132675   5.672   3.354   4.862
10592SOL    HW232676   5.602   3.241   4.957
10593SOL     OW32677   1.807   6.094   0.727
10593SOL    HW132678   1.779   5.999   0.719
10593SOL    HW232679   1.858   6.106   0.812
10594SOL     OW32680   4.348   2.005   2.833
10594SOL    HW132681   4.298   2.016   2.919
10594SOL    HW232682   4.283   2.011   2.756
10595SOL     OW32683   6.180   0.397   6.672
10595SOL    HW132684   6.116   0.321   6.670
10595SOL    HW232685   6.156   0.459   6.747
10596SOL     OW32686   4.723   0.181   7.001
10596SOL    HW132687   4.669   0.202   6.919
10596SOL    HW232688   4.791   0.252   7.014
10597SOL     OW32689   2.331   1.187   5.763
10597SOL    HW132690   2.357   1.156   5.854
10597SOL    HW232691   2.293   1.280   5.769
10598SOL     OW32692   3.455   2.242   6.601
10598SOL    HW132693   3.398   2.240   6.683
10598SOL    HW232694   3.542   2.288   6.623
10599SOL     OW32695   6.382   3.451   6.794
10599SOL    HW132696   6.315   3.497   6.852
10599SOL    HW232697   6.360   3.354   6.789
10600SOL     OW32698   3.948   2.275   1.145
10600SOL    HW132699   3.939   2.280   1.244
10600SOL    HW232700   4.041   2.302   1.119
10601SOL     OW32701   1.710   4.863   5.585
10601SOL    HW132702   1.689   4.932   5.654
10601SOL    HW232703   1.807   4.838   5.592
10602SOL     OW32704   1.084   1.326   1.075
10602SOL    HW132705   1.043   1.417   1.082
10602SOL    HW232706   1.160   1.318   1.140
10603SOL     OW32707   4.656   0.255   3.035
10603SOL    HW132708   4.616   0.169   3.066
10603SOL    HW232709   4.617   0.331   3.086
10604SOL     OW32710   0.211   5.927   4.978
10604SOL    HW132711   0.212   5.834   4.941
10604SOL    HW232712   0.127   5.941   5.031
10605SOL     OW32713   1.710   6.616   0.175
10605SOL    HW132714   1.665   6.528   0.192
10605SOL    HW232715   1.805   6.612   0.206
10606SOL     OW32716   6.490   1.169   1.467
10606SOL    HW132717   6.511   1.188   1.563
10606SOL    HW232718   6.477   1.071   1.455
10607SOL     OW32719   3.892   4.444   0.256
10607SOL    HW132720   3.941   4.459   0.342
10607SOL    HW232721   3.926   4.507   0.187
10608SOL     OW32722   6.860   3.635   3.923
10608SOL    HW132723   6.892   3.594   4.009
10608SOL    HW232724   6.801   3.569   3.876
10609SOL     OW32725   2.853   6.816   6.860
10609SOL    HW132726   2.888   6.894   6.809
10609SOL    HW232727   2.886   6.820   6.954
10610SOL     OW32728   0.347   1.543   4.297
10610SOL    HW132729   0.373   1.638   4.278
10610SOL    HW232730   0.247   1.535   4.291
10611SOL     OW32731   2.823   4.990   6.117
10611SOL    HW132732   2.855   5.030   6.203
10611SOL    HW232733   2.741   5.039   6.086
10612SOL     OW32734   4.946   2.448   3.958
10612SOL    HW132735   4.865   2.439   4.016
10612SOL    HW232736   4.966   2.360   3.915
10613SOL     OW32737   6.499   5.709   4.731
10613SOL    HW132738   6.419   5.685   4.786
10613SOL    HW232739   6.522   5.634   4.670
10614SOL     OW32740   5.474   1.072   4.330
10614SOL    HW132741   5.403   1.132   4.295
10614SOL    HW232742   5.530   1.122   4.396
10615SOL     OW32743   3.408   0.751   5.977
10615SOL    HW132744   3.382   0.680   5.912
10615SOL    HW232745   3.367   0.838   5.950
10616SOL     OW32746   3.092   6.130   6.533
10616SOL    HW132747   3.177   6.178   6.513
10616SOL    HW232748   3.069   6.142   6.630
10617SOL     OW32749   2.894   4.516   1.461
10617SOL    HW132750   2.807   4.498   1.416
10617SOL    HW232751   2.965   4.530   1.392
10618SOL     OW32752   1.565   5.053   5.747
10618SOL    HW132753   1.585   5.147   5.774
10618SOL    HW232754   1.523   5.005   5.824
10619SOL     OW32755   0.242   2.440   3.192
10619SOL    HW132756   0.308   2.418   3.120
10619SOL    HW232757   0.162   2.485   3.152
10620SOL     OW32758   0.971   0.005   5.447
10620SOL    HW132759   1.027   6.974   5.513
10620SOL    HW232760   1.002   0.100   5.441
10621SOL     OW32761   0.158   4.135   1.968
10621SOL    HW132762   0.124   4.154   2.060
10621SOL    HW232763   0.176   4.222   1.921
10622SOL     OW32764   4.569   2.339   1.575
10622SOL    HW132765   4.528   2.425   1.605
10622SOL    HW232766   4.535   2.264   1.633
10623SOL     OW32767   0.093   5.779   5.916
10623SOL    HW132768   0.064   5.736   6.001
10623SOL    HW232769   0.103   5.710   5.844
10624SOL     OW32770   0.327   2.656   5.674
10624SOL    HW132771   0.414   2.697   5.645
10624SOL    HW232772   0.326   2.559   5.648
10625SOL     OW32773   0.509   3.927   1.519
10625SOL    HW132774   0.411   3.913   1.533
10625SOL    HW232775   0.554   3.940   1.607
10626SOL     OW32776   3.295   2.923   0.681
10626SOL    HW132777   3.302   2.995   0.750
10626SOL    HW232778   3.299   2.964   0.590
10627SOL     OW32779   5.940   1.076   6.690
10627SOL    HW132780   6.000   1.093   6.612
10627SOL    HW232781   5.936   1.158   6.747
10628SOL     OW32782   4.495   6.949   1.324
10628SOL    HW132783   4.426   7.016   1.350
10628SOL    HW232784   4.451   6.861   1.308
10629SOL     OW32785   3.175   4.889   4.609
10629SOL    HW132786   3.134   4.836   4.683
10629SOL    HW232787   3.144   4.984   4.614
10630SOL     OW32788   5.944   1.311   2.314
10630SOL    HW132789   6.036   1.340   2.340
10630SOL    HW232790   5.878   1.349   2.379
10631SOL     OW32791   3.749   4.436   5.701
10631SOL    HW132792   3.677   4.414   5.636
10631SOL    HW232793   3.830   4.381   5.682
10632SOL     OW32794   5.520   6.295   3.675
10632SOL    HW132795   5.568   6.318   3.760
10632SOL    HW232796   5.425   6.326   3.680
10633SOL     OW32797   2.529   2.601   1.580
10633SOL    HW132798   2.462   2.544   1.627
10633SOL    HW232799   2.554   2.558   1.493
10634SOL     OW32800   1.911   5.446   0.643
10634SOL    HW132801   1.979   5.425   0.713
10634SOL    HW232802   1.955   5.491   0.566
10635SOL     OW32803   1.963   3.018   6.580
10635SOL    HW132804   1.925   2.947   6.638
10635SOL    HW232805   2.050   2.986   6.541
10636SOL     OW32806   0.199   2.432   1.420
10636SOL    HW132807   0.108   2.437   1.461
10636SOL    HW232808   0.268   2.449   1.491
10637SOL     OW32809   1.525   5.188   6.186
10637SOL    HW132810   1.546   5.097   6.221
10637SOL    HW232811   1.448   5.183   6.124
10638SOL     OW32812   5.316   6.281   2.951
10638SOL    HW132813   5.408   6.267   2.988
10638SOL    HW232814   5.253   6.298   3.026
10639SOL     OW32815   1.717   3.579   1.959
10639SOL    HW132816   1.701   3.555   2.054
10639SOL    HW232817   1.647   3.644   1.928
10640SOL     OW32818   4.743   1.046   3.786
10640SOL    HW132819   4.796   0.982   3.842
10640SOL    HW232820   4.771   1.039   3.691
10641SOL     OW32821   2.583   1.724   3.309
10641SOL    HW132822   2.637   1.728   3.225
10641SOL    HW232823   2.593   1.634   3.351
10642SOL     OW32824   6.103   1.389   0.931
10642SOL    HW132825   6.035   1.330   0.974
10642SOL    HW232826   6.162   1.334   0.871
10643SOL     OW32827   2.266   6.279   5.413
10643SOL    HW132828   2.282   6.182   5.430
10643SOL    HW232829   2.353   6.326   5.399
10644SOL     OW32830   5.397   3.179   0.920
10644SOL    HW132831   5.370   3.221   1.006
10644SOL    HW232832   5.318   3.173   0.859
10645SOL     OW32833   1.912   2.840   4.162
10645SOL    HW132834   1.882   2.760   4.215
10645SOL    HW232835   1.872   2.923   4.201
10646SOL     OW32836   6.717   0.342   6.493
10646SOL    HW132837   6.760   0.401   6.425
10646SOL    HW232838   6.777   0.264   6.513
10647SOL     OW32839   3.387   5.478   4.888
10647SOL    HW132840   3.329   5.558   4.870
10647SOL    HW232841   3.338   5.395   4.863
10648SOL     OW32842   5.646   5.264   6.732
10648SOL    HW132843   5.700   5.185   6.705
10648SOL    HW232844   5.617   5.254   6.827
10649SOL     OW32845   0.531   3.528   3.252
10649SOL    HW132846   0.433   3.549   3.252
10649SOL    HW232847   0.545   3.434   3.282
10650SOL     OW32848   0.391   0.595   3.815
10650SOL    HW132849   0.375   0.498   3.794
10650SOL    HW232850   0.321   0.651   3.772
10651SOL     OW32851   6.207   5.959   5.895
10651SOL    HW132852   6.165   5.960   5.986
10651SOL    HW232853   6.170   5.883   5.842
10652SOL     OW32854   2.198   6.755   6.578
10652SOL    HW132855   2.241   6.828   6.631
10652SOL    HW232856   2.140   6.699   6.638
10653SOL     OW32857   4.224   5.865   4.662
10653SOL    HW132858   4.219   5.952   4.612
10653SOL    HW232859   4.153   5.803   4.628
10654SOL     OW32860   4.857   0.152   6.708
10654SOL    HW132861   4.762   0.171   6.734
10654SOL    HW232862   4.915   0.156   6.789
10655SOL     OW32863   1.503   5.320   0.103
10655SOL    HW132864   1.597   5.352   0.087
10655SOL    HW232865   1.457   5.308   0.015
10656SOL     OW32866   6.897   1.574   2.378
10656SOL    HW132867   6.992   1.564   2.348
10656SOL    HW232868   6.891   1.555   2.476
10657SOL     OW32869   6.020   0.964   4.798
10657SOL    HW132870   5.984   1.041   4.745
10657SOL    HW232871   6.112   0.984   4.829
10658SOL     OW32872   6.528   4.313   4.705
10658SOL    HW132873   6.487   4.401   4.727
10658SOL    HW232874   6.525   4.299   4.606
10659SOL     OW32875   0.893   5.623   0.637
10659SOL    HW132876   0.904   5.606   0.539
10659SOL    HW232877   0.798   5.608   0.663
10660SOL     OW32878   5.774   3.763   6.384
10660SOL    HW132879   5.849   3.807   6.335
10660SOL    HW232880   5.812   3.700   6.453
10661SOL     OW32881   1.514   6.368   0.990
10661SOL    HW132882   1.560   6.280   1.001
10661SOL    HW232883   1.415   6.356   1.003
10662SOL     OW32884   4.711   0.567   2.439
10662SOL    HW132885   4.707   0.665   2.415
10662SOL    HW232886   4.671   0.553   2.529
10663SOL     OW32887   0.735   1.062   2.285
10663SOL    HW132888   0.766   1.084   2.378
10663SOL    HW232889   0.698   0.969   2.284
10664SOL     OW32890   6.328   4.170   5.211
10664SOL    HW132891   6.319   4.222   5.296
10664SOL    HW232892   6.423   4.173   5.181
10665SOL     OW32893   1.377   1.820   0.262
10665SOL    HW132894   1.379   1.877   0.344
10665SOL    HW232895   1.319   1.740   0.279
10666SOL     OW32896   3.216   3.963   1.694
10666SOL    HW132897   3.199   3.943   1.598
10666SOL    HW232898   3.268   4.048   1.702
10667SOL     OW32899   4.685   2.225   3.489
10667SOL    HW132900   4.599   2.266   3.517
10667SOL    HW232901   4.690   2.221   3.389
10668SOL     OW32902   2.839   1.613   4.886
10668SOL    HW132903   2.776   1.545   4.922
10668SOL    HW232904   2.803   1.650   4.800
10669SOL     OW32905   5.636   0.730   1.588
10669SOL    HW132906   5.690   0.811   1.608
10669SOL    HW232907   5.630   0.673   1.669
10670SOL     OW32908   5.893   4.574   4.779
10670SOL    HW132909   5.861   4.486   4.743
10670SOL    HW232910   5.956   4.558   4.855
10671SOL     OW32911   2.177   1.560   4.507
10671SOL    HW132912   2.220   1.471   4.525
10671SOL    HW232913   2.168   1.572   4.408
10672SOL     OW32914   6.904   4.194   1.779
10672SOL    HW132915   6.929   4.232   1.869
10672SOL    HW232916   6.987   4.178   1.726
10673SOL     OW32917   0.294   1.266   6.995
10673SOL    HW132918   0.252   1.218   6.919
10673SOL    HW232919   0.259   1.230   0.063
10674SOL     OW32920   4.166   3.581   3.502
10674SOL    HW132921   4.119   3.638   3.569
10674SOL    HW232922   4.253   3.622   3.478
10675SOL     OW32923   1.719   6.904   0.104
10675SOL    HW132924   1.724   6.805   0.096
10675SOL    HW232925   1.772   6.946   0.030
10676SOL     OW32926   6.995   5.968   5.127
10676SOL    HW132927   6.931   6.030   5.082
10676SOL    HW232928   0.036   6.021   5.188
10677SOL     OW32929   1.635   0.408   1.672
10677SOL    HW132930   1.686   0.426   1.757
10677SOL    HW232931   1.668   0.324   1.630
10678SOL     OW32932   5.054   5.525   3.914
10678SOL    HW132933   5.133   5.471   3.946
10678SOL    HW232934   4.990   5.465   3.867
10679SOL     OW32935   4.035   5.463   6.807
10679SOL    HW132936   4.052   5.511   6.721
10679SOL    HW232937   3.938   5.467   6.829
10680SOL     OW32938   4.160   2.167   4.108
10680SOL    HW132939   4.077   2.186   4.055
10680SOL    HW232940   4.140   2.176   4.205
10681SOL     OW32941   0.141   3.571   0.929
10681SOL    HW132942   0.197   3.584   1.011
10681SOL    HW232943   0.179   3.624   0.853
10682SOL     OW32944   0.345   1.630   5.106
10682SOL    HW132945   0.443   1.635   5.088
10682SOL    HW232946   0.306   1.554   5.055
10683SOL     OW32947   4.795   1.761   3.916
10683SOL    HW132948   4.729   1.833   3.895
10683SOL    HW232949   4.781   1.729   4.010
10684SOL     OW32950   4.961   4.894   3.030
10684SOL    HW132951   4.932   4.947   3.109
10684SOL    HW232952   4.887   4.895   2.961
10685SOL     OW32953   0.662   5.845   1.732
10685SOL    HW132954   0.579   5.896   1.708
10685SOL    HW232955   0.713   5.825   1.648
10686SOL     OW32956   0.925   4.325   5.552
10686SOL    HW132957   1.009   4.285   5.515
10686SOL    HW232958   0.885   4.387   5.485
10687SOL     OW32959   5.770   5.890   4.221
10687SOL    HW132960   5.845   5.868   4.159
10687SOL    HW232961   5.685   5.851   4.186
10688SOL     OW32962   6.546   3.702   2.786
10688SOL    HW132963   6.561   3.665   2.694
10688SOL    HW232964   6.503   3.792   2.779
10689SOL     OW32965   6.987   7.006   3.518
10689SOL    HW132966   6.947   0.009   3.428
10689SOL    HW232967   0.067   0.006   3.516
10690SOL     OW32968   0.290   5.565   3.950
10690SOL    HW132969   0.327   5.506   4.022
10690SOL    HW232970   0.342   5.551   3.866
10691SOL     OW32971   0.724   1.952   2.596
10691SOL    HW132972   0.811   2.001   2.603
10691SOL    HW232973   0.653   2.015   2.563
10692SOL     OW32974   2.868   6.768   3.907
10692SOL    HW132975   2.774   6.783   3.874
10692SOL    HW232976   2.932   6.788   3.833
10693SOL     OW32977   1.991   6.153   0.932
10693SOL    HW132978   2.082   6.188   0.913
10693SOL    HW232979   1.989   6.114   1.024
10694SOL     OW32980   5.489   6.595   0.180
10694SOL    HW132981   5.436   6.650   0.245
10694SOL    HW232982   5.426   6.550   0.116
10695SOL     OW32983   0.478   2.396   3.067
10695SOL    HW132984   0.525   2.476   3.029
10695SOL    HW232985   0.545   2.337   3.113
10696SOL     OW32986   6.946   4.493   3.305
10696SOL    HW132987   6.885   4.572   3.312
10696SOL    HW232988   0.003   4.515   3.242
10697SOL     OW32989   0.206   6.420   5.202
10697SOL    HW132990   0.239   6.483   5.272
10697SOL    HW232991   0.240   6.449   5.112
10698SOL     OW32992   5.287   4.273   6.611
10698SOL    HW132993   5.211   4.296   6.551
10698SOL    HW232994   5.270   4.184   6.653
10699SOL     OW32995   3.674   4.277   1.788
10699SOL    HW132996   3.729   4.202   1.751
10699SOL    HW232997   3.728   4.362   1.787
10700SOL     OW32998   5.868   6.789   0.665
10700SOL    HW132999   5.855   6.886   0.645
10700SOL    HW233000   5.962   6.763   0.643
10701SOL     OW33001   2.564   6.304   6.594
10701SOL    HW133002   2.616   6.387   6.574
10701SOL    HW233003   2.597   6.263   6.679
10702SOL     OW33004   5.201   2.684   1.610
10702SOL    HW133005   5.153   2.673   1.697
10702SOL    HW233006   5.224   2.780   1.596
10703SOL     OW33007   2.887   3.319   5.092
10703SOL    HW133008   2.879   3.377   5.011
10703SOL    HW233009   2.833   3.236   5.080
10704SOL     OW33010   5.782   5.891   1.823
10704SOL    HW133011   5.874   5.922   1.848
10704SOL    HW233012   5.742   5.841   1.899
10705SOL     OW33013   5.913   4.682   1.944
10705SOL    HW133014   5.837   4.668   1.880
10705SOL    HW233015   5.920   4.603   2.004
10706SOL     OW33016   4.988   0.472   2.478
10706SOL    HW133017   4.895   0.506   2.470
10706SOL    HW233018   5.052   0.544   2.449
10707SOL     OW33019   0.254   6.864   4.367
10707SOL    HW133020   0.281   6.955   4.400
10707SOL    HW233021   0.160   6.846   4.396
10708SOL     OW33022   4.282   0.869   1.902
10708SOL    HW133023   4.193   0.829   1.882
10708SOL    HW233024   4.306   0.849   1.997
10709SOL     OW33025   5.656   5.152   5.425
10709SOL    HW133026   5.622   5.110   5.341
10709SOL    HW233027   5.581   5.202   5.469
10710SOL     OW33028   0.155   0.222   4.342
10710SOL    HW133029   0.087   0.287   4.375
10710SOL    HW233030   0.222   0.204   4.415
10711SOL     OW33031   1.697   6.939   4.791
10711SOL    HW133032   1.725   6.918   4.698
10711SOL    HW233033   1.607   6.984   4.789
10712SOL     OW33034   2.840   0.917   1.897
10712SOL    HW133035   2.905   0.989   1.872
10712SOL    HW233036   2.776   0.903   1.821
10713SOL     OW33037   0.500   3.552   2.313
10713SOL    HW133038   0.553   3.469   2.296
10713SOL    HW233039   0.416   3.550   2.260
10714SOL     OW33040   5.949   3.379   4.956
10714SOL    HW133041   5.967   3.389   4.858
10714SOL    HW233042   5.985   3.291   4.988
10715SOL     OW33043   5.118   1.008   2.767
10715SOL    HW133044   5.218   1.006   2.763
10715SOL    HW233045   5.082   1.043   2.681
10716SOL     OW33046   6.159   2.039   3.634
10716SOL    HW133047   6.198   1.969   3.575
10716SOL    HW233048   6.122   2.113   3.578
10717SOL     OW33049   1.326   2.120   1.390
10717SOL    HW133050   1.293   2.045   1.333
10717SOL    HW233051   1.252   2.186   1.406
10718SOL     OW33052   1.176   3.227   6.537
10718SOL    HW133053   1.219   3.312   6.505
10718SOL    HW233054   1.232   3.187   6.610
10719SOL     OW33055   6.617   5.987   2.492
10719SOL    HW133056   6.710   5.988   2.455
10719SOL    HW233057   6.614   6.036   2.579
10720SOL     OW33058   0.396   4.332   4.749
10720SOL    HW133059   0.396   4.257   4.815
10720SOL    HW233060   0.312   4.385   4.759
10721SOL     OW33061   5.689   3.787   4.938
10721SOL    HW133062   5.711   3.758   4.845
10721SOL    HW233063   5.704   3.711   5.001
10722SOL     OW33064   0.789   4.921   0.066
10722SOL    HW133065   0.707   4.978   0.056
10722SOL    HW233066   0.782   4.868   0.150
10723SOL     OW33067   0.400   3.661   6.271
10723SOL    HW133068   0.366   3.754   6.278
10723SOL    HW233069   0.386   3.626   6.179
10724SOL     OW33070   5.768   1.216   6.901
10724SOL    HW133071   5.678   1.248   6.871
10724SOL    HW233072   5.757   1.157   6.980
10725SOL     OW33073   0.914   5.562   4.431
10725SOL    HW133074   0.928   5.480   4.377
10725SOL    HW233075   0.822   5.560   4.472
10726SOL     OW33076   5.266   0.011   5.374
10726SOL    HW133077   5.365   0.019   5.378
10726SOL    HW233078   5.239   6.979   5.292
10727SOL     OW33079   0.241   4.835   5.268
10727SOL    HW133080   0.260   4.815   5.172
10727SOL    HW233081   0.270   4.757   5.324
10728SOL     OW33082   0.232   6.069   0.055
10728SOL    HW133083   0.228   6.087   6.975
10728SOL    HW233084   0.166   5.997   0.079
10729SOL     OW33085   5.436   0.894   1.450
10729SOL    HW133086   5.468   0.933   1.363
10729SOL    HW233087   5.488   0.810   1.469
10730SOL     OW33088   2.290   0.722   1.582
10730SOL    HW133089   2.250   0.725   1.673
10730SOL    HW233090   2.263   0.637   1.536
10731SOL     OW33091   3.056   5.808   1.036
10731SOL    HW133092   3.043   5.888   1.095
10731SOL    HW233093   3.132   5.825   0.973
10732SOL     OW33094   5.963   5.454   3.832
10732SOL    HW133095   5.970   5.392   3.911
10732SOL    HW233096   5.937   5.401   3.751
10733SOL     OW33097   6.623   1.784   1.074
10733SOL    HW133098   6.570   1.865   1.098
10733SOL    HW233099   6.627   1.723   1.153
10734SOL     OW33100   0.934   0.763   6.992
10734SOL    HW133101   1.028   0.729   6.997
10734SOL    HW233102   0.915   0.816   0.056
10735SOL     OW33103   1.201   3.200   3.380
10735SOL    HW133104   1.253   3.283   3.402
10735SOL    HW233105   1.248   3.151   3.306
10736SOL     OW33106   1.248   0.541   2.613
10736SOL    HW133107   1.212   0.461   2.662
10736SOL    HW233108   1.291   0.604   2.678
10737SOL     OW33109   2.059   2.064   0.903
10737SOL    HW133110   2.004   2.074   0.987
10737SOL    HW233111   2.148   2.026   0.926
10738SOL     OW33112   2.344   0.191   3.309
10738SOL    HW133113   2.270   0.163   3.248
10738SOL    HW233114   2.423   0.219   3.254
10739SOL     OW33115   0.838   1.447   0.689
10739SOL    HW133116   0.936   1.432   0.704
10739SOL    HW233117   0.823   1.477   0.595
10740SOL     OW33118   0.344   4.583   5.381
10740SOL    HW133119   0.429   4.591   5.433
10740SOL    HW233120   0.347   4.500   5.325
10741SOL     OW33121   6.389   0.108   1.276
10741SOL    HW133122   6.482   0.117   1.240
10741SOL    HW233123   6.352   0.019   1.250
10742SOL     OW33124   5.506   1.029   1.203
10742SOL    HW133125   5.499   1.107   1.266
10742SOL    HW233126   5.428   1.029   1.140
10743SOL     OW33127   2.730   1.995   4.901
10743SOL    HW133128   2.776   2.047   4.829
10743SOL    HW233129   2.687   1.915   4.861
10744SOL     OW33130   4.029   0.954   0.672
10744SOL    HW133131   3.998   0.956   0.767
10744SOL    HW233132   4.116   1.004   0.664
10745SOL     OW33133   0.075   5.508   6.736
10745SOL    HW133134   0.093   5.487   6.832
10745SOL    HW233135   0.117   5.439   6.677
10746SOL     OW33136   2.277   4.262   1.250
10746SOL    HW133137   2.222   4.183   1.223
10746SOL    HW233138   2.260   4.338   1.186
10747SOL     OW33139   4.532   1.105   3.502
10747SOL    HW133140   4.547   1.010   3.474
10747SOL    HW233141   4.438   1.131   3.482
10748SOL     OW33142   4.643   1.286   1.373
10748SOL    HW133143   4.590   1.348   1.315
10748SOL    HW233144   4.736   1.322   1.382
10749SOL     OW33145   0.657   5.986   2.966
10749SOL    HW133146   0.607   5.900   2.959
10749SOL    HW233147   0.616   6.043   3.037
10750SOL     OW33148   4.289   6.059   5.005
10750SOL    HW133149   4.234   6.007   5.070
10750SOL    HW233150   4.341   5.995   4.948
10751SOL     OW33151   1.674   4.310   4.309
10751SOL    HW133152   1.764   4.343   4.280
10751SOL    HW233153   1.672   4.210   4.305
10752SOL     OW33154   5.866   4.065   6.156
10752SOL    HW133155   5.853   3.995   6.086
10752SOL    HW233156   5.924   4.029   6.229
10753SOL     OW33157   4.474   6.562   4.467
10753SOL    HW133158   4.425   6.642   4.432
10753SOL    HW233159   4.478   6.567   4.567
10754SOL     OW33160   0.948   1.169   3.334
10754SOL    HW133161   0.970   1.165   3.431
10754SOL    HW233162   0.922   1.263   3.310
10755SOL     OW33163   6.916   0.728   6.666
10755SOL    HW133164   7.000   0.694   6.709
10755SOL    HW233165   6.939   0.798   6.598
10756SOL     OW33166   6.825   4.748   0.317
10756SOL    HW133167   6.730   4.744   0.287
10756SOL    HW233168   6.883   4.775   0.240
10757SOL     OW33169   1.303   3.287   0.348
10757SOL    HW133170   1.273   3.253   0.437
10757SOL    HW233171   1.389   3.338   0.359
10758SOL     OW33172   0.483   6.704   4.290
10758SOL    HW133173   0.401   6.757   4.310
10758SOL    HW233174   0.563   6.763   4.295
10759SOL     OW33175   1.942   2.846   1.156
10759SOL    HW133176   1.875   2.916   1.182
10759SOL    HW233177   2.026   2.890   1.124
10760SOL     OW33178   6.772   1.578   1.674
10760SOL    HW133179   6.869   1.569   1.699
10760SOL    HW233180   6.715   1.543   1.748
10761SOL     OW33181   1.143   0.889   6.298
10761SOL    HW133182   1.214   0.944   6.343
10761SOL    HW233183   1.053   0.918   6.331
10762SOL     OW33184   4.335   1.861   4.803
10762SOL    HW133185   4.291   1.774   4.826
10762SOL    HW233186   4.273   1.916   4.748
10763SOL     OW33187   5.164   6.468   2.470
10763SOL    HW133188   5.074   6.509   2.486
10763SOL    HW233189   5.156   6.369   2.466
10764SOL     OW33190   5.437   2.655   5.868
10764SOL    HW133191   5.519   2.705   5.840
10764SOL    HW233192   5.438   2.642   5.967
10765SOL     OW33193   5.041   2.307   0.231
10765SOL    HW133194   5.037   2.209   0.211
10765SOL    HW233195   4.989   2.327   0.314
10766SOL     OW33196   4.921   3.554   1.095
10766SOL    HW133197   4.936   3.652   1.102
10766SOL    HW233198   4.993   3.506   1.146
10767SOL     OW33199   1.256   0.748   0.145
10767SOL    HW133200   1.344   0.772   0.184
10767SOL    HW233201   1.184   0.766   0.212
10768SOL     OW33202   4.892   4.492   1.751
10768SOL    HW133203   4.861   4.544   1.830
10768SOL    HW233204   4.919   4.555   1.678
10769SOL     OW33205   2.718   4.740   4.879
10769SOL    HW133206   2.757   4.725   4.788
10769SOL    HW233207   2.779   4.703   4.948
10770SOL     OW33208   5.262   0.950   5.025
10770SOL    HW133209   5.175   0.987   4.991
10770SOL    HW233210   5.253   0.851   5.036
10771SOL     OW33211   5.831   0.915   3.385
10771SOL    HW133212   5.902   0.917   3.455
10771SOL    HW233213   5.772   0.996   3.395
10772SOL     OW33214   6.726   6.773   4.573
10772SOL    HW133215   6.659   6.704   4.545
10772SOL    HW233216   6.787   6.733   4.641
10773SOL     OW33217   6.615   5.297   0.188
10773SOL    HW133218   6.562   5.295   0.103
10773SOL    HW233219   6.556   5.326   0.263
10774SOL     OW33220   2.170   2.208   6.987
10774SOL    HW133221   2.240   2.244   6.924
10774SOL    HW233222   2.090   2.179   6.935
10775SOL     OW33223   0.015   4.974   1.265
10775SOL    HW133224   0.042   4.978   1.168
10775SOL    HW233225   6.964   5.044   1.283
10776SOL     OW33226   0.149   0.637   6.748
10776SOL    HW133227   0.163   0.539   6.762
10776SOL    HW233228   0.201   0.667   6.668
10777SOL     OW33229   3.444   5.564   3.171
10777SOL    HW133230   3.537   5.536   3.146
10777SOL    HW233231   3.378   5.501   3.131
10778SOL     OW33232   5.855   0.235   4.325
10778SOL    HW133233   5.808   0.292   4.258
10778SOL    HW233234   5.810   0.244   4.414
10779SOL     OW33235   6.129   4.158   3.705
10779SOL    HW133236   6.090   4.216   3.777
10779SOL    HW233237   6.147   4.213   3.624
10780SOL     OW33238   1.990   0.775   3.930
10780SOL    HW133239   1.985   0.855   3.991
10780SOL    HW233240   1.899   0.757   3.892
10781SOL     OW33241   4.260   1.154   3.445
10781SOL    HW133242   4.195   1.086   3.410
10781SOL    HW233243   4.214   1.241   3.458
10782SOL     OW33244   5.467   2.021   2.097
10782SOL    HW133245   5.415   1.937   2.079
10782SOL    HW233246   5.499   2.059   2.011
10783SOL     OW33247   0.651   3.225   3.698
10783SOL    HW133248   0.616   3.148   3.644
10783SOL    HW233249   0.642   3.310   3.645
10784SOL     OW33250   3.713   6.619   4.294
10784SOL    HW133251   3.774   6.567   4.353
10784SOL    HW233252   3.651   6.674   4.350
10785SOL     OW33253   0.346   4.524   1.461
10785SOL    HW133254   0.297   4.602   1.499
10785SOL    HW233255   0.311   4.505   1.369
10786SOL     OW33256   5.745   4.779   3.185
10786SOL    HW133257   5.809   4.855   3.177
10786SOL    HW233258   5.761   4.730   3.271
10787SOL     OW33259   1.660   1.722   4.837
10787SOL    HW133260   1.573   1.770   4.825
10787SOL    HW233261   1.659   1.671   4.923
10788SOL     OW33262   1.874   4.599   6.206
10788SOL    HW133263   1.965   4.639   6.208
10788SOL    HW233264   1.868   4.532   6.132
10789SOL     OW33265   6.975   2.651   6.507
10789SOL    HW133266   6.950   2.693   6.594
10789SOL    HW233267   0.011   2.715   6.453
10790SOL     OW33268   1.326   1.019   1.520
10790SOL    HW133269   1.275   1.042   1.437
10790SOL    HW233270   1.286   0.939   1.563
10791SOL     OW33271   0.354   6.971   0.937
10791SOL    HW133272   0.380   0.044   0.967
10791SOL    HW233273   0.278   6.937   0.992
10792SOL     OW33274   3.220   3.903   3.752
10792SOL    HW133275   3.266   3.986   3.782
10792SOL    HW233276   3.134   3.893   3.802
10793SOL     OW33277   5.535   3.294   4.316
10793SOL    HW133278   5.486   3.323   4.234
10793SOL    HW233279   5.512   3.198   4.336
10794SOL     OW33280   3.093   3.714   3.472
10794SOL    HW133281   3.098   3.700   3.373
10794SOL    HW233282   3.044   3.637   3.514
10795SOL     OW33283   6.731   4.557   2.278
10795SOL    HW133284   6.697   4.635   2.225
10795SOL    HW233285   6.772   4.591   2.363
10796SOL     OW33286   5.773   6.915   6.573
10796SOL    HW133287   5.705   6.842   6.572
10796SOL    HW233288   5.755   6.978   6.498
10797SOL     OW33289   4.181   2.958   1.700
10797SOL    HW133290   4.102   2.898   1.688
10797SOL    HW233291   4.204   3.000   1.613
10798SOL     OW33292   3.109   6.409   0.776
10798SOL    HW133293   3.201   6.400   0.815
10798SOL    HW233294   3.106   6.365   0.687
10799SOL     OW33295   3.774   1.154   1.481
10799SOL    HW133296   3.860   1.198   1.458
10799SOL    HW233297   3.773   1.129   1.578
10800SOL     OW33298   0.570   6.678   6.412
10800SOL    HW133299   0.583   6.581   6.392
10800SOL    HW233300   0.571   6.730   6.326
10801SOL     OW33301   0.765   6.178   6.062
10801SOL    HW133302   0.811   6.179   6.151
10801SOL    HW233303   0.773   6.087   6.021
10802SOL     OW33304   0.847   1.053   3.114
10802SOL    HW133305   0.890   1.069   3.203
10802SOL    HW233306   0.766   0.995   3.126
10803SOL     OW33307   2.983   4.026   6.392
10803SOL    HW133308   3.025   3.936   6.380
10803SOL    HW233309   2.934   4.029   6.480
10804SOL     OW33310   5.780   3.264   2.097
10804SOL    HW133311   5.772   3.245   2.195
10804SOL    HW233312   5.716   3.337   2.073
10805SOL     OW33313   4.213   6.468   6.893
10805SOL    HW133314   4.138   6.504   6.948
10805SOL    HW233315   4.295   6.523   6.908
10806SOL     OW33316   4.418   3.372   5.869
10806SOL    HW133317   4.383   3.311   5.940
10806SOL    HW233318   4.449   3.318   5.791
10807SOL     OW33319   1.128   0.164   2.083
10807SOL    HW133320   1.081   0.249   2.106
10807SOL    HW233321   1.179   0.176   1.998
10808SOL     OW33322   0.344   3.051   5.684
10808SOL    HW133323   0.291   2.966   5.687
10808SOL    HW233324   0.439   3.031   5.659
10809SOL     OW33325   2.704   4.635   3.408
10809SOL    HW133326   2.769   4.649   3.482
10809SOL    HW233327   2.721   4.702   3.335
10810SOL     OW33328   1.327   0.167   4.513
10810SOL    HW133329   1.367   0.203   4.597
10810SOL    HW233330   1.326   0.067   4.516
10811SOL     OW33331   3.784   4.265   6.374
10811SOL    HW133332   3.827   4.323   6.304
10811SOL    HW233333   3.849   4.248   6.448
10812SOL     OW33334   0.333   4.175   0.620
10812SOL    HW133335   0.370   4.204   0.709
10812SOL    HW233336   0.375   4.089   0.592
10813SOL     OW33337   2.120   4.722   6.269
10813SOL    HW133338   2.166   4.645   6.314
10813SOL    HW233339   2.175   4.755   6.193
10814SOL     OW33340   1.375   6.939   6.792
10814SOL    HW133341   1.325   7.004   6.734
10814SOL    HW233342   1.460   6.912   6.747
10815SOL     OW33343   4.492   4.434   3.499
10815SOL    HW133344   4.435   4.507   3.462
10815SOL    HW233345   4.549   4.397   3.425
10816SOL     OW33346   3.415   2.931   2.417
10816SOL    HW133347   3.362   2.874   2.479
10816SOL    HW233348   3.509   2.937   2.450
10817SOL     OW33349   4.521   0.844   3.439
10817SOL    HW133350   4.459   0.798   3.503
10817SOL    HW233351   4.486   0.835   3.346
10818SOL     OW33352   4.428   4.439   5.438
10818SOL    HW133353   4.432   4.389   5.525
10818SOL    HW233354   4.381   4.526   5.452
10819SOL     OW33355   6.427   4.867   6.339
10819SOL    HW133356   6.441   4.966   6.341
10819SOL    HW233357   6.364   4.843   6.265
10820SOL     OW33358   0.536   5.784   3.650
10820SOL    HW133359   0.531   5.684   3.646
10820SOL    HW233360   0.544   5.820   3.557
10821SOL     OW33361   5.190   0.028   2.803
10821SOL    HW133362   5.247   0.026   2.885
10821SOL    HW233363   5.248   0.022   2.722
10822SOL     OW33364   6.816   3.314   3.500
10822SOL    HW133365   6.734   3.265   3.470
10822SOL    HW233366   6.792   3.383   3.567
10823SOL     OW33367   1.760   6.857   1.667
10823SOL    HW133368   1.810   6.856   1.753
10823SOL    HW233369   1.666   6.886   1.683
10824SOL     OW33370   6.605   1.695   2.715
10824SOL    HW133371   6.588   1.721   2.619
10824SOL    HW233372   6.655   1.609   2.717
10825SOL     OW33373   2.381   1.035   6.302
10825SOL    HW133374   2.422   1.124   6.319
10825SOL    HW233375   2.361   1.025   6.204
10826SOL     OW33376   1.373   3.037   3.828
10826SOL    HW133377   1.346   3.004   3.738
10826SOL    HW233378   1.330   2.981   3.899
10827SOL     OW33379   0.022   2.993   4.077
10827SOL    HW133380   0.114   3.024   4.100
10827SOL    HW233381   7.015   3.029   3.987
10828SOL     OW33382   1.289   4.500   0.645
10828SOL    HW133383   1.377   4.543   0.659
10828SOL    HW233384   1.254   4.523   0.554
10829SOL     OW33385   4.026   2.237   0.370
10829SOL    HW133386   3.952   2.269   0.429
10829SOL    HW233387   4.107   2.219   0.426
10830SOL     OW33388   5.098   1.796   2.921
10830SOL    HW133389   5.153   1.869   2.961
10830SOL    HW233390   5.126   1.782   2.826
10831SOL     OW33391   2.876   6.120   3.241
10831SOL    HW133392   2.856   6.122   3.143
10831SOL    HW233393   2.800   6.078   3.290
10832SOL     OW33394   0.792   3.204   6.085
10832SOL    HW133395   0.828   3.126   6.135
10832SOL    HW233396   0.692   3.197   6.080
10833SOL     OW33397   0.764   0.390   2.309
10833SOL    HW133398   0.674   0.368   2.271
10833SOL    HW233399   0.757   0.472   2.365
10834SOL     OW33400   0.795   2.159   0.579
10834SOL    HW133401   0.882   2.165   0.531
10834SOL    HW233402   0.801   2.205   0.667
10835SOL     OW33403   5.348   2.360   0.519
10835SOL    HW133404   5.262   2.365   0.570
10835SOL    HW233405   5.417   2.417   0.565
10836SOL     OW33406   6.577   1.462   4.846
10836SOL    HW133407   6.507   1.454   4.917
10836SOL    HW233408   6.536   1.441   4.757
10837SOL     OW33409   6.737   5.374   1.077
10837SOL    HW133410   6.653   5.380   1.023
10837SOL    HW233411   6.727   5.304   1.147
10838SOL     OW33412   6.167   5.646   4.141
10838SOL    HW133413   6.112   5.727   4.124
10838SOL    HW233414   6.233   5.663   4.214
10839SOL     OW33415   4.458   3.071   1.700
10839SOL    HW133416   4.387   3.007   1.730
10839SOL    HW233417   4.530   3.076   1.769
10840SOL     OW33418   2.543   5.886   3.030
10840SOL    HW133419   2.628   5.936   3.014
10840SOL    HW233420   2.531   5.817   2.958
10841SOL     OW33421   6.081   5.043   5.631
10841SOL    HW133422   6.034   5.085   5.553
10841SOL    HW233423   6.017   5.034   5.707
10842SOL     OW33424   4.779   2.581   1.804
10842SOL    HW133425   4.778   2.681   1.804
10842SOL    HW233426   4.804   2.548   1.713
10843SOL     OW33427   0.875   1.719   1.717
10843SOL    HW133428   0.838   1.626   1.724
10843SOL    HW233429   0.809   1.784   1.754
10844SOL     OW33430   0.753   6.851   3.884
10844SOL    HW133431   0.744   6.935   3.937
10844SOL    HW233432   0.700   6.778   3.927
10845SOL     OW33433   3.078   0.107   5.351
10845SOL    HW133434   3.099   0.187   5.407
10845SOL    HW233435   3.164   0.063   5.322
10846SOL     OW33436   5.198   1.214   0.332
10846SOL    HW133437   5.213   1.134   0.274
10846SOL    HW233438   5.275   1.277   0.324
10847SOL     OW33439   3.909   2.881   6.411
10847SOL    HW133440   3.884   2.973   6.442
10847SOL    HW233441   3.929   2.823   6.491
10848SOL     OW33442   2.891   3.592   6.741
10848SOL    HW133443   2.936   3.634   6.662
10848SOL    HW233444   2.923   3.637   6.825
10849SOL     OW33445   1.888   5.219   3.648
10849SOL    HW133446   1.940   5.185   3.570
10849SOL    HW233447   1.950   5.251   3.719
10850SOL     OW33448   2.468   5.528   6.891
10850SOL    HW133449   2.391   5.565   6.839
10850SOL    HW233450   2.550   5.583   6.875
10851SOL     OW33451   2.028   3.515   0.383
10851SOL    HW133452   2.028   3.487   0.479
10851SOL    HW233453   1.959   3.587   0.370
10852SOL     OW33454   1.044   0.500   6.821
10852SOL    HW133455   1.083   0.503   6.913
10852SOL    HW233456   1.013   0.592   6.795
10853SOL     OW33457   1.933   2.341   5.143
10853SOL    HW133458   1.902   2.364   5.235
10853SOL    HW233459   2.017   2.391   5.122
10854SOL     OW33460   4.409   4.824   5.266
10854SOL    HW133461   4.372   4.914   5.242
10854SOL    HW233462   4.508   4.830   5.278
10855SOL     OW33463   4.070   0.216   1.037
10855SOL    HW133464   4.125   0.150   1.088
10855SOL    HW233465   4.005   0.167   0.978
10856SOL     OW33466   5.024   1.418   0.305
10856SOL    HW133467   5.074   1.333   0.285
10856SOL    HW233468   5.064   1.461   0.386
10857SOL     OW33469   6.643   2.391   3.029
10857SOL    HW133470   6.677   2.307   3.073
10857SOL    HW233471   6.647   2.381   2.930
10858SOL     OW33472   0.965   1.733   6.343
10858SOL    HW133473   1.009   1.784   6.416
10858SOL    HW233474   0.935   1.644   6.378
10859SOL     OW33475   1.058   4.550   4.655
10859SOL    HW133476   1.115   4.551   4.573
10859SOL    HW233477   1.103   4.602   4.727
10860SOL     OW33478   7.009   1.634   5.603
10860SOL    HW133479   0.077   1.681   5.619
10860SOL    HW233480   0.004   1.559   5.538
10861SOL     OW33481   3.517   3.287   3.151
10861SOL    HW133482   3.472   3.354   3.092
10861SOL    HW233483   3.576   3.228   3.095
10862SOL     OW33484   2.284   1.876   6.699
10862SOL    HW133485   2.355   1.906   6.635
10862SOL    HW233486   2.324   1.865   6.790
10863SOL     OW33487   3.642   0.988   3.880
10863SOL    HW133488   3.576   1.047   3.834
10863SOL    HW233489   3.659   1.021   3.973
10864SOL     OW33490   2.561   5.896   1.298
10864SOL    HW133491   2.646   5.844   1.297
10864SOL    HW233492   2.500   5.864   1.226
10865SOL     OW33493   6.871   1.418   2.119
10865SOL    HW133494   6.891   1.514   2.098
10865SOL    HW233495   6.899   1.361   2.042
10866SOL     OW33496   5.116   4.557   0.926
10866SOL    HW133497   5.061   4.639   0.943
10866SOL    HW233498   5.212   4.582   0.918
10867SOL     OW33499   3.416   4.122   6.992
10867SOL    HW133500   3.426   4.185   0.050
10867SOL    HW233501   3.506   4.095   6.958
10868SOL     OW33502   4.442   2.078   4.483
10868SOL    HW133503   4.384   2.067   4.564
10868SOL    HW233504   4.386   2.073   4.401
10869NA      NA33505   6.897   2.074   5.190
10870NA      NA33506   4.495   4.415   5.206
10871NA      NA33507   2.002   3.185   2.202
10872NA      NA33508   5.226   3.826   4.871
10873NA      NA33509   4.358   2.515   5.313
10874NA      NA33510   3.192   4.811   1.691
10875NA      NA33511   6.862   4.550   0.451
10876NA      NA33512   3.302   3.736   3.602
10877NA      NA33513   5.271   5.651   0.342
10878NA      NA33514   2.949   7.016   5.515
10879NA      NA33515   5.685   5.565   1.394
10880NA      NA33516   2.081   0.416   4.208
10881NA      NA33517   3.771   5.108   2.666
10882NA      NA33518   3.936   3.728   2.133
   7.01844   7.01844   7.01844
