Generated by trjconv : CNT in water t= 413.00000
33518
    1C        C    1   2.841   2.767   4.750
    1C        C    2   2.902   2.722   4.869
    1C        C    3   2.843   2.772   4.986
    1C        C    4   2.850   2.772   4.261
    1C        C    5   2.897   2.722   4.385
    1C        C    6   2.844   2.769   4.507
    1C        C    7   3.012   2.638   4.627
    1C        C    8   2.895   2.719   4.628
    1C        C    9   3.077   2.606   4.748
    1C        C   10   3.013   2.635   4.870
    1C        C   11   3.182   2.489   4.977
    1C        C   12   3.061   2.560   4.978
    1C        C   13   2.852   2.771   3.773
    1C        C   14   2.900   2.720   3.895
    1C        C   15   2.847   2.772   4.015
    1C        C   16   3.014   2.642   4.139
    1C        C   17   2.898   2.723   4.138
    1C        C   18   3.078   2.612   4.261
    1C        C   19   3.016   2.645   4.383
    1C        C   20   3.207   2.557   4.504
    1C        C   21   3.075   2.606   4.505
    1C        C   22   3.277   2.537   4.626
    1C        C   23   3.208   2.550   4.749
    1C        C   24   3.412   2.482   4.862
    1C        C   25   3.270   2.497   4.865
    1C        C   26   3.492   2.477   4.977
    1C        C   27   2.844   2.760   3.283
    1C        C   28   2.898   2.719   3.406
    1C        C   29   2.843   2.765   3.528
    1C        C   30   3.016   2.640   3.651
    1C        C   31   2.900   2.720   3.650
    1C        C   32   3.069   2.596   3.774
    1C        C   33   3.010   2.632   3.897
    1C        C   34   3.207   2.550   4.016
    1C        C   35   3.074   2.598   4.019
    1C        C   36   3.277   2.536   4.139
    1C        C   37   3.209   2.559   4.261
    1C        C   38   3.415   2.510   4.381
    1C        C   39   3.277   2.539   4.383
    1C        C   40   3.486   2.504   4.503
    1C        C   41   3.416   2.516   4.625
    1C        C   42   3.632   2.486   4.745
    1C        C   43   3.489   2.489   4.743
    1C        C   44   3.705   2.491   4.865
    1C        C   45   3.631   2.484   4.983
    1C        C   46   2.837   2.753   2.794
    1C        C   47   2.895   2.711   2.916
    1C        C   48   2.845   2.760   3.039
    1C        C   49   3.019   2.639   3.162
    1C        C   50   2.901   2.717   3.161
    1C        C   51   3.079   2.607   3.286
    1C        C   52   3.015   2.639   3.407
    1C        C   53   3.208   2.548   3.530
    1C        C   54   3.080   2.609   3.529
    1C        C   55   3.272   2.524   3.654
    1C        C   56   3.201   2.545   3.774
    1C        C   57   3.414   2.510   3.894
    1C        C   58   3.274   2.529   3.894
    1C        C   59   3.485   2.508   4.016
    1C        C   60   3.415   2.510   4.139
    1C        C   61   3.628   2.507   4.261
    1C        C   62   3.487   2.502   4.260
    1C        C   63   3.702   2.507   4.382
    1C        C   64   3.628   2.502   4.502
    1C        C   65   3.837   2.543   4.622
    1C        C   66   3.700   2.506   4.623
    1C        C   67   3.908   2.563   4.742
    1C        C   68   3.841   2.530   4.862
    1C        C   69   4.049   2.591   4.979
    1C        C   70   3.920   2.535   4.977
    1C        C   71   2.825   2.737   2.310
    1C        C   72   2.889   2.698   2.430
    1C        C   73   2.836   2.749   2.551
    1C        C   74   3.007   2.624   2.675
    1C        C   75   2.890   2.703   2.673
    1C        C   76   3.071   2.591   2.796
    1C        C   77   3.014   2.636   2.918
    1C        C   78   3.205   2.541   3.038
    1C        C   79   3.077   2.602   3.039
    1C        C   80   3.272   2.525   3.162
    1C        C   81   3.209   2.551   3.286
    1C        C   82   3.414   2.499   3.405
    1C        C   83   3.275   2.525   3.408
    1C        C   84   3.482   2.493   3.528
    1C        C   85   3.411   2.500   3.651
    1C        C   86   3.625   2.505   3.771
    1C        C   87   3.484   2.495   3.772
    1C        C   88   3.695   2.512   3.893
    1C        C   89   3.626   2.503   4.016
    1C        C   90   3.833   2.555   4.137
    1C        C   91   3.697   2.518   4.138
    1C        C   92   3.900   2.579   4.259
    1C        C   93   3.837   2.549   4.381
    1C        C   94   4.029   2.640   4.500
    1C        C   95   3.906   2.570   4.502
    1C        C   96   4.092   2.674   4.622
    1C        C   97   4.033   2.631   4.743
    1C        C   98   4.194   2.769   4.864
    1C        C   99   4.098   2.662   4.866
    1C        C  100   4.212   2.849   4.977
    1C        C  101   2.827   2.737   2.071
    1C        C  102   2.988   2.592   2.190
    1C        C  103   2.876   2.681   2.190
    1C        C  104   3.062   2.574   2.310
    1C        C  105   3.006   2.619   2.431
    1C        C  106   3.202   2.539   2.551
    1C        C  107   3.069   2.586   2.553
    1C        C  108   3.268   2.518   2.674
    1C        C  109   3.200   2.533   2.797
    1C        C  110   3.414   2.499   2.917
    1C        C  111   3.274   2.518   2.917
    1C        C  112   3.484   2.492   3.039
    1C        C  113   3.410   2.496   3.160
    1C        C  114   3.623   2.506   3.280
    1C        C  115   3.482   2.496   3.281
    1C        C  116   3.692   2.515   3.403
    1C        C  117   3.623   2.500   3.525
    1C        C  118   3.830   2.546   3.647
    1C        C  119   3.694   2.510   3.647
    1C        C  120   3.897   2.574   3.769
    1C        C  121   3.830   2.555   3.892
    1C        C  122   4.022   2.645   4.015
    1C        C  123   3.898   2.577   4.014
    1C        C  124   4.085   2.680   4.136
    1C        C  125   4.027   2.641   4.259
    1C        C  126   4.199   2.769   4.378
    1C        C  127   4.091   2.679   4.379
    1C        C  128   4.249   2.820   4.500
    1C        C  129   4.197   2.768   4.621
    1C        C  130   4.331   2.935   4.740
    1C        C  131   4.247   2.820   4.742
    1C        C  132   4.364   3.001   4.860
    1C        C  133   4.292   2.962   4.974
    1C        C  134   3.174   2.475   2.078
    1C        C  135   3.038   2.510   2.084
    1C        C  136   3.258   2.487   2.189
    1C        C  137   3.195   2.525   2.310
    1C        C  138   3.407   2.483   2.429
    1C        C  139   3.268   2.506   2.430
    1C        C  140   3.479   2.485   2.551
    1C        C  141   3.408   2.499   2.671
    1C        C  142   3.622   2.502   2.791
    1C        C  143   3.481   2.494   2.792
    1C        C  144   3.695   2.511   2.911
    1C        C  145   3.625   2.501   3.034
    1C        C  146   3.829   2.544   3.156
    1C        C  147   3.692   2.509   3.157
    1C        C  148   3.894   2.573   3.279
    1C        C  149   3.830   2.548   3.402
    1C        C  150   4.022   2.634   3.525
    1C        C  151   3.895   2.572   3.525
    1C        C  152   4.083   2.669   3.647
    1C        C  153   4.022   2.641   3.771
    1C        C  154   4.194   2.768   3.888
    1C        C  155   4.081   2.684   3.892
    1C        C  156   4.247   2.815   4.010
    1C        C  157   4.197   2.766   4.133
    1C        C  158   4.339   2.925   4.254
    1C        C  159   4.247   2.818   4.254
    1C        C  160   4.381   2.985   4.375
    1C        C  161   4.337   2.930   4.497
    1C        C  162   4.442   3.116   4.617
    1C        C  163   4.375   2.992   4.619
    1C        C  164   4.477   3.182   4.737
    1C        C  165   4.441   3.119   4.858
    1C        C  166   4.519   3.321   4.973
    1C        C  167   4.480   3.187   4.974
    1C        C  168   3.477   2.438   2.074
    1C        C  169   3.398   2.470   2.186
    1C        C  170   3.615   2.467   2.308
    1C        C  171   3.473   2.472   2.305
    1C        C  172   3.693   2.486   2.425
    1C        C  173   3.621   2.491   2.546
    1C        C  174   3.829   2.539   2.667
    1C        C  175   3.690   2.511   2.668
    1C        C  176   3.896   2.565   2.789
    1C        C  177   3.832   2.546   2.913
    1C        C  178   4.024   2.632   3.034
    1C        C  179   3.899   2.566   3.035
    1C        C  180   4.081   2.673   3.157
    1C        C  181   4.020   2.637   3.280
    1C        C  182   4.194   2.756   3.400
    1C        C  183   4.082   2.671   3.402
    1C        C  184   4.245   2.806   3.522
    1C        C  185   4.197   2.752   3.644
    1C        C  186   4.338   2.916   3.765
    1C        C  187   4.247   2.808   3.763
    1C        C  188   4.375   2.980   3.885
    1C        C  189   4.336   2.926   4.009
    1C        C  190   4.452   3.103   4.128
    1C        C  191   4.380   2.981   4.131
    1C        C  192   4.473   3.173   4.249
    1C        C  193   4.445   3.111   4.373
    1C        C  194   4.515   3.314   4.490
    1C        C  195   4.474   3.179   4.494
    1C        C  196   4.526   3.387   4.610
    1C        C  197   4.513   3.320   4.733
    1C        C  198   4.554   3.533   4.851
    1C        C  199   4.537   3.391   4.854
    1C        C  200   4.584   3.617   4.963
    1C        C  201   3.615   2.414   2.075
    1C        C  202   3.822   2.518   2.185
    1C        C  203   3.690   2.463   2.187
    1C        C  204   3.896   2.546   2.303
    1C        C  205   3.829   2.522   2.425
    1C        C  206   4.023   2.619   2.542
    1C        C  207   3.897   2.554   2.545
    1C        C  208   4.078   2.665   2.664
    1C        C  209   4.020   2.632   2.789
    1C        C  210   4.191   2.758   2.908
    1C        C  211   4.082   2.668   2.911
    1C        C  212   4.245   2.803   3.030
    1C        C  213   4.193   2.758   3.154
    1C        C  214   4.339   2.910   3.275
    1C        C  215   4.246   2.804   3.277
    1C        C  216   4.376   2.971   3.397
    1C        C  217   4.334   2.915   3.520
    1C        C  218   4.439   3.101   3.640
    1C        C  219   4.376   2.974   3.641
    1C        C  220   4.469   3.168   3.761
    1C        C  221   4.443   3.104   3.884
    1C        C  222   4.504   3.307   4.002
    1C        C  223   4.478   3.168   4.005
    1C        C  224   4.518   3.380   4.123
    1C        C  225   4.511   3.309   4.245
    1C        C  226   4.513   3.521   4.368
    1C        C  227   4.526   3.380   4.366
    1C        C  228   4.518   3.596   4.487
    1C        C  229   4.531   3.528   4.610
    1C        C  230   4.505   3.743   4.728
    1C        C  231   4.536   3.604   4.729
    1C        C  232   4.502   3.822   4.845
    1C        C  233   4.555   3.754   4.955
    1C        C  234   4.017   2.613   2.064
    1C        C  235   3.895   2.547   2.068
    1C        C  236   4.084   2.653   2.181
    1C        C  237   4.021   2.613   2.301
    1C        C  238   4.200   2.735   2.423
    1C        C  239   4.088   2.648   2.420
    1C        C  240   4.253   2.785   2.544
    1C        C  241   4.196   2.743   2.667
    1C        C  242   4.342   2.905   2.784
    1C        C  243   4.247   2.800   2.785
    1C        C  244   4.382   2.963   2.907
    1C        C  245   4.340   2.908   3.030
    1C        C  246   4.447   3.089   3.150
    1C        C  247   4.386   2.962   3.152
    1C        C  248   4.461   3.163   3.271
    1C        C  249   4.432   3.100   3.394
    1C        C  250   4.498   3.302   3.512
    1C        C  251   4.460   3.166   3.516
    1C        C  252   4.509   3.371   3.635
    1C        C  253   4.503   3.305   3.759
    1C        C  254   4.520   3.518   3.877
    1C        C  255   4.516   3.377   3.880
    1C        C  256   4.515   3.589   3.999
    1C        C  257   4.518   3.521   4.123
    1C        C  258   4.489   3.731   4.243
    1C        C  259   4.509   3.591   4.245
    1C        C  260   4.462   3.799   4.364
    1C        C  261   4.487   3.734   4.488
    1C        C  262   4.426   3.941   4.603
    1C        C  263   4.475   3.809   4.607
    1C        C  264   4.397   4.007   4.725
    1C        C  265   4.434   3.946   4.847
    1C        C  266   4.315   4.126   4.960
    1C        C  267   4.393   4.012   4.964
    1C        C  268   4.259   2.782   2.064
    1C        C  269   4.194   2.742   2.181
    1C        C  270   4.347   2.892   2.301
    1C        C  271   4.251   2.787   2.302
    1C        C  272   4.385   2.953   2.422
    1C        C  273   4.345   2.892   2.543
    1C        C  274   4.455   3.081   2.662
    1C        C  275   4.389   2.956   2.661
    1C        C  276   4.481   3.150   2.783
    1C        C  277   4.452   3.085   2.905
    1C        C  278   4.509   3.290   3.024
    1C        C  279   4.475   3.153   3.027
    1C        C  280   4.518   3.362   3.145
    1C        C  281   4.506   3.296   3.270
    1C        C  282   4.511   3.512   3.389
    1C        C  283   4.513   3.371   3.390
    1C        C  284   4.513   3.582   3.512
    1C        C  285   4.516   3.513   3.635
    1C        C  286   4.492   3.728   3.754
    1C        C  287   4.515   3.588   3.754
    1C        C  288   4.471   3.795   3.877
    1C        C  289   4.488   3.728   4.000
    1C        C  290   4.427   3.933   4.118
    1C        C  291   4.472   3.799   4.121
    1C        C  292   4.392   4.000   4.237
    1C        C  293   4.418   3.933   4.359
    1C        C  294   4.326   4.126   4.481
    1C        C  295   4.396   4.003   4.480
    1C        C  296   4.285   4.188   4.601
    1C        C  297   4.324   4.129   4.723
    1C        C  298   4.203   4.314   4.837
    1C        C  299   4.276   4.191   4.841
    1C        C  300   4.171   4.400   4.947
    1C        C  301   4.354   2.883   2.062
    1C        C  302   4.475   3.066   2.177
    1C        C  303   4.398   2.946   2.180
    1C        C  304   4.487   3.142   2.297
    1C        C  305   4.449   3.079   2.418
    1C        C  306   4.512   3.282   2.537
    1C        C  307   4.481   3.144   2.539
    1C        C  308   4.523   3.356   2.657
    1C        C  309   4.508   3.289   2.780
    1C        C  310   4.528   3.500   2.897
    1C        C  311   4.525   3.359   2.902
    1C        C  312   4.518   3.572   3.018
    1C        C  313   4.518   3.503   3.142
    1C        C  314   4.486   3.715   3.263
    1C        C  315   4.511   3.575   3.263
    1C        C  316   4.470   3.785   3.384
    1C        C  317   4.491   3.722   3.509
    1C        C  318   4.423   3.924   3.627
    1C        C  319   4.476   3.793   3.630
    1C        C  320   4.389   3.985   3.749
    1C        C  321   4.417   3.926   3.875
    1C        C  322   4.316   4.113   3.990
    1C        C  323   4.393   3.996   3.995
    1C        C  324   4.280   4.175   4.112
    1C        C  325   4.323   4.123   4.237
    1C        C  326   4.187   4.285   4.354
    1C        C  327   4.281   4.180   4.359
    1C        C  328   4.137   4.340   4.474
    1C        C  329   4.194   4.295   4.595
    1C        C  330   4.031   4.439   4.713
    1C        C  331   4.145   4.354   4.714
    1C        C  332   3.974   4.491   4.832
    1C        C  333   4.058   4.482   4.944
    1C        C  334   4.554   3.265   2.065
    1C        C  335   4.541   3.125   2.064
    1C        C  336   4.539   3.349   2.176
    1C        C  337   4.513   3.281   2.297
    1C        C  338   4.525   3.496   2.410
    1C        C  339   4.525   3.355   2.417
    1C        C  340   4.528   3.568   2.532
    1C        C  341   4.531   3.497   2.654
    1C        C  342   4.489   3.707   2.775
    1C        C  343   4.519   3.569   2.774
    1C        C  344   4.469   3.779   2.895
    1C        C  345   4.487   3.709   3.017
    1C        C  346   4.417   3.911   3.138
    1C        C  347   4.464   3.778   3.138
    1C        C  348   4.388   3.979   3.258
    1C        C  349   4.419   3.917   3.381
    1C        C  350   4.317   4.104   3.501
    1C        C  351   4.391   3.983   3.502
    1C        C  352   4.276   4.162   3.623
    1C        C  353   4.320   4.107   3.745
    1C        C  354   4.180   4.271   3.867
    1C        C  355   4.275   4.166   3.866
    1C        C  356   4.133   4.328   3.988
    1C        C  357   4.182   4.277   4.110
    1C        C  358   4.012   4.405   4.231
    1C        C  359   4.130   4.327   4.231
    1C        C  360   3.950   4.444   4.351
    1C        C  361   4.016   4.414   4.473
    1C        C  362   3.832   4.519   4.592
    1C        C  363   3.963   4.467   4.593
    1C        C  364   3.762   4.544   4.713
    1C        C  365   3.841   4.538   4.830
    1C        C  366   3.631   4.593   4.947
    1C        C  367   3.769   4.570   4.945
    1C        C  368   4.510   3.563   2.053
    1C        C  369   4.525   3.489   2.171
    1C        C  370   4.500   3.708   2.286
    1C        C  371   4.516   3.568   2.288
    1C        C  372   4.480   3.776   2.408
    1C        C  373   4.500   3.706   2.529
    1C        C  374   4.423   3.905   2.647
    1C        C  375   4.472   3.773   2.651
    1C        C  376   4.393   3.972   2.768
    1C        C  377   4.422   3.912   2.893
    1C        C  378   4.319   4.096   3.011
    1C        C  379   4.392   3.975   3.015
    1C        C  380   4.275   4.157   3.131
    1C        C  381   4.315   4.100   3.255
    1C        C  382   4.178   4.261   3.379
    1C        C  383   4.274   4.157   3.378
    1C        C  384   4.127   4.312   3.500
    1C        C  385   4.180   4.266   3.623
    1C        C  386   4.009   4.395   3.740
    1C        C  387   4.124   4.312   3.744
    1C        C  388   3.949   4.431   3.863
    1C        C  389   4.016   4.407   3.985
    1C        C  390   3.823   4.494   4.107
    1C        C  391   3.955   4.444   4.107
    1C        C  392   3.755   4.518   4.228
    1C        C  393   3.822   4.504   4.352
    1C        C  394   3.617   4.553   4.472
    1C        C  395   3.757   4.532   4.474
    1C        C  396   3.546   4.567   4.594
    1C        C  397   3.623   4.564   4.713
    1C        C  398   3.411   4.550   4.840
    1C        C  399   3.551   4.574   4.834
    1C        C  400   3.344   4.521   4.959
    1C        C  401   4.503   3.702   2.052
    1C        C  402   4.451   3.916   2.166
    1C        C  403   4.498   3.783   2.166
    1C        C  404   4.410   3.979   2.286
    1C        C  405   4.439   3.911   2.406
    1C        C  406   4.326   4.094   2.525
    1C        C  407   4.400   3.974   2.526
    1C        C  408   4.282   4.153   2.645
    1C        C  409   4.323   4.094   2.767
    1C        C  410   4.172   4.246   2.887
    1C        C  411   4.274   4.149   2.888
    1C        C  412   4.124   4.299   3.009
    1C        C  413   4.176   4.257   3.134
    1C        C  414   4.008   4.386   3.252
    1C        C  415   4.124   4.306   3.256
    1C        C  416   3.946   4.420   3.375
    1C        C  417   4.006   4.385   3.498
    1C        C  418   3.818   4.486   3.617
    1C        C  419   3.948   4.431   3.619
    1C        C  420   3.752   4.503   3.741
    1C        C  421   3.820   4.488   3.864
    1C        C  422   3.613   4.530   3.986
    1C        C  423   3.753   4.513   3.986
    1C        C  424   3.544   4.539   4.109
    1C        C  425   3.617   4.548   4.230
    1C        C  426   3.403   4.548   4.356
    1C        C  427   3.544   4.554   4.351
    1C        C  428   3.331   4.549   4.477
    1C        C  429   3.405   4.559   4.597
    1C        C  430   3.198   4.518   4.722
    1C        C  431   3.338   4.543   4.720
    1C        C  432   3.128   4.497   4.844
    1C        C  433   3.206   4.501   4.960
    1C        C  434   4.383   4.125   2.049
    1C        C  435   4.438   3.996   2.051
    1C        C  436   4.305   4.168   2.161
    1C        C  437   4.332   4.098   2.281
    1C        C  438   4.182   4.249   2.402
    1C        C  439   4.284   4.151   2.402
    1C        C  440   4.126   4.297   2.522
    1C        C  441   4.180   4.251   2.645
    1C        C  442   4.002   4.372   2.764
    1C        C  443   4.121   4.295   2.765
    1C        C  444   3.945   4.411   2.887
    1C        C  445   4.007   4.378   3.010
    1C        C  446   3.817   4.478   3.130
    1C        C  447   3.946   4.419   3.130
    1C        C  448   3.750   4.500   3.252
    1C        C  449   3.817   4.477   3.374
    1C        C  450   3.609   4.526   3.498
    1C        C  451   3.749   4.506   3.495
    1C        C  452   3.542   4.538   3.622
    1C        C  453   3.614   4.534   3.743
    1C        C  454   3.401   4.537   3.864
    1C        C  455   3.542   4.541   3.864
    1C        C  456   3.334   4.530   3.988
    1C        C  457   3.403   4.537   4.111
    1C        C  458   3.196   4.499   4.236
    1C        C  459   3.334   4.529   4.234
    1C        C  460   3.131   4.483   4.359
    1C        C  461   3.194   4.513   4.482
    1C        C  462   2.997   4.434   4.603
    1C        C  463   3.125   4.494   4.603
    1C        C  464   2.931   4.396   4.722
    1C        C  465   2.996   4.440   4.841
    1C        C  466   2.803   4.338   4.959
    1C        C  467   2.909   4.430   4.953
    1C        C  468   4.120   4.286   2.042
    1C        C  469   4.187   4.249   2.160
    1C        C  470   4.010   4.376   2.279
    1C        C  471   4.129   4.299   2.280
    1C        C  472   3.944   4.408   2.399
    1C        C  473   4.010   4.378   2.520
    1C        C  474   3.814   4.466   2.643
    1C        C  475   3.943   4.410   2.641
    1C        C  476   3.748   4.492   2.765
    1C        C  477   3.816   4.468   2.887
    1C        C  478   3.608   4.518   3.008
    1C        C  479   3.747   4.492   3.008
    1C        C  480   3.539   4.528   3.131
    1C        C  481   3.610   4.521   3.253
    1C        C  482   3.399   4.530   3.377
    1C        C  483   3.540   4.532   3.375
    1C        C  484   3.328   4.526   3.499
    1C        C  485   3.401   4.540   3.620
    1C        C  486   3.192   4.500   3.746
    1C        C  487   3.330   4.532   3.742
    1C        C  488   3.130   4.473   3.870
    1C        C  489   3.195   4.501   3.992
    1C        C  490   3.001   4.415   4.115
    1C        C  491   3.128   4.477   4.114
    1C        C  492   2.946   4.379   4.240
    1C        C  493   3.002   4.424   4.362
    1C        C  494   2.830   4.300   4.483
    1C        C  495   2.936   4.393   4.482
    1C        C  496   2.771   4.255   4.604
    1C        C  497   2.819   4.309   4.725
    1C        C  498   2.667   4.162   4.847
    1C        C  499   2.753   4.274   4.845
    1C        C  500   2.595   4.116   4.958
    1C        C  501   4.000   4.355   2.039
    1C        C  502   3.817   4.465   2.152
    1C        C  503   3.946   4.409   2.157
    1C        C  504   3.748   4.478   2.275
    1C        C  505   3.811   4.456   2.399
    1C        C  506   3.605   4.505   2.519
    1C        C  507   3.743   4.477   2.521
    1C        C  508   3.535   4.514   2.642
    1C        C  509   3.608   4.513   2.764
    1C        C  510   3.396   4.520   2.889
    1C        C  511   3.538   4.515   2.886
    1C        C  512   3.323   4.518   3.010
    1C        C  513   3.397   4.525   3.129
    1C        C  514   3.193   4.489   3.255
    1C        C  515   3.330   4.521   3.254
    1C        C  516   3.128   4.463   3.378
    1C        C  517   3.190   4.495   3.500
    1C        C  518   2.999   4.411   3.625
    1C        C  519   3.124   4.477   3.624
    1C        C  520   2.942   4.372   3.748
    1C        C  521   3.005   4.407   3.869
    1C        C  522   2.839   4.280   3.997
    1C        C  523   2.944   4.374   3.992
    1C        C  524   2.788   4.238   4.122
    1C        C  525   2.837   4.289   4.244
    1C        C  526   2.692   4.132   4.364
    1C        C  527   2.778   4.244   4.364
    1C        C  528   2.648   4.076   4.486
    1C        C  529   2.687   4.142   4.605
    1C        C  530   2.586   3.960   4.729
    1C        C  531   2.639   4.091   4.728
    1C        C  532   2.545   3.900   4.852
    1C        C  533   2.528   3.993   4.959
    1C        C  534   3.619   4.556   2.038
    1C        C  535   3.753   4.517   2.039
    1C        C  536   3.539   4.528   2.153
    1C        C  537   3.608   4.504   2.275
    1C        C  538   3.395   4.515   2.399
    1C        C  539   3.536   4.514   2.396
    1C        C  540   3.324   4.507   2.521
    1C        C  541   3.394   4.515   2.644
    1C        C  542   3.186   4.489   2.765
    1C        C  543   3.325   4.511   2.767
    1C        C  544   3.117   4.467   2.886
    1C        C  545   3.185   4.487   3.009
    1C        C  546   2.999   4.399   3.135
    1C        C  547   3.122   4.468   3.134
    1C        C  548   2.939   4.363   3.258
    1C        C  549   2.999   4.405   3.379
    1C        C  550   2.832   4.281   3.505
    1C        C  551   2.941   4.370   3.503
    1C        C  552   2.778   4.234   3.627
    1C        C  553   2.836   4.279   3.748
    1C        C  554   2.701   4.122   3.874
    1C        C  555   2.791   4.231   3.874
    1C        C  556   2.660   4.067   3.997
    1C        C  557   2.697   4.130   4.118
    1C        C  558   2.598   3.944   4.244
    1C        C  559   2.661   4.070   4.241
    1C        C  560   2.568   3.879   4.366
    1C        C  561   2.590   3.947   4.487
    1C        C  562   2.532   3.747   4.617
    1C        C  563   2.565   3.884   4.611
    1C        C  564   2.510   3.682   4.740
    1C        C  565   2.524   3.759   4.859
    1C        C  566   2.514   3.545   4.980
    1C        C  567   2.512   3.684   4.977
    1C        C  568   3.327   4.473   2.040
    1C        C  569   3.399   4.505   2.155
    1C        C  570   3.189   4.465   2.280
    1C        C  571   3.325   4.507   2.277
    1C        C  572   3.120   4.450   2.402
    1C        C  573   3.187   4.476   2.524
    1C        C  574   2.985   4.408   2.647
    1C        C  575   3.114   4.465   2.645
    1C        C  576   2.928   4.364   2.769
    1C        C  577   2.992   4.401   2.889
    1C        C  578   2.827   4.274   3.016
    1C        C  579   2.935   4.365   3.013
    1C        C  580   2.772   4.228   3.138
    1C        C  581   2.827   4.277   3.259
    1C        C  582   2.692   4.120   3.385
    1C        C  583   2.779   4.231   3.384
    1C        C  584   2.657   4.061   3.508
    1C        C  585   2.693   4.121   3.631
    1C        C  586   2.590   3.937   3.756
    1C        C  587   2.659   4.061   3.754
    1C        C  588   2.570   3.873   3.880
    1C        C  589   2.602   3.938   4.001
    1C        C  590   2.537   3.738   4.127
    1C        C  591   2.573   3.874   4.124
    1C        C  592   2.524   3.671   4.251
    1C        C  593   2.528   3.743   4.373
    1C        C  594   2.516   3.535   4.500
    1C        C  595   2.514   3.676   4.496
    1C        C  596   2.513   3.464   4.622
    1C        C  597   2.508   3.540   4.742
    1C        C  598   2.526   3.327   4.862
    1C        C  599   2.511   3.468   4.863
    1C        C  600   2.522   3.246   4.976
    1C        C  601   3.195   4.432   2.041
    1C        C  602   2.984   4.391   2.162
    1C        C  603   3.121   4.432   2.160
    1C        C  604   2.926   4.355   2.287
    1C        C  605   2.993   4.389   2.406
    1C        C  606   2.814   4.277   2.525
    1C        C  607   2.926   4.363   2.527
    1C        C  608   2.767   4.226   2.648
    1C        C  609   2.820   4.273   2.771
    1C        C  610   2.684   4.115   2.896
    1C        C  611   2.776   4.223   2.895
    1C        C  612   2.653   4.053   3.019
    1C        C  613   2.691   4.113   3.141
    1C        C  614   2.590   3.930   3.269
    1C        C  615   2.655   4.056   3.265
    1C        C  616   2.568   3.865   3.392
    1C        C  617   2.600   3.931   3.513
    1C        C  618   2.534   3.731   3.638
    1C        C  619   2.569   3.868   3.635
    1C        C  620   2.521   3.663   3.762
    1C        C  621   2.538   3.736   3.881
    1C        C  622   2.514   3.527   4.009
    1C        C  623   2.525   3.668   4.005
    1C        C  624   2.520   3.458   4.132
    1C        C  625   2.514   3.530   4.253
    1C        C  626   2.543   3.324   4.382
    1C        C  627   2.521   3.464   4.378
    1C        C  628   2.564   3.254   4.503
    1C        C  629   2.540   3.326   4.622
    1C        C  630   2.597   3.120   4.745
    1C        C  631   2.549   3.254   4.744
    1C        C  632   2.615   3.047   4.866
    1C        C  633   2.556   3.110   4.980
    1C        C  634   2.782   4.305   2.054
    1C        C  635   2.895   4.387   2.049
    1C        C  636   2.746   4.231   2.167
    1C        C  637   2.809   4.275   2.286
    1C        C  638   2.667   4.115   2.409
    1C        C  639   2.757   4.224   2.407
    1C        C  640   2.643   4.051   2.532
    1C        C  641   2.686   4.110   2.653
    1C        C  642   2.582   3.927   2.777
    1C        C  643   2.641   4.056   2.775
    1C        C  644   2.561   3.861   2.900
    1C        C  645   2.590   3.927   3.021
    1C        C  646   2.528   3.729   3.148
    1C        C  647   2.567   3.865   3.146
    1C        C  648   2.517   3.658   3.270
    1C        C  649   2.528   3.729   3.392
    1C        C  650   2.511   3.521   3.518
    1C        C  651   2.519   3.662   3.516
    1C        C  652   2.519   3.454   3.642
    1C        C  653   2.517   3.521   3.766
    1C        C  654   2.540   3.313   3.892
    1C        C  655   2.514   3.452   3.889
    1C        C  656   2.557   3.248   4.016
    1C        C  657   2.541   3.319   4.137
    1C        C  658   2.611   3.123   4.260
    1C        C  659   2.552   3.252   4.261
    1C        C  660   2.644   3.059   4.381
    1C        C  661   2.609   3.121   4.504
    1C        C  662   2.709   2.935   4.627
    1C        C  663   2.632   3.053   4.626
    1C        C  664   2.750   2.876   4.749
    1C        C  665   2.699   2.931   4.870
    1C        C  666   2.751   2.876   4.987
    1C        C  667   2.672   4.028   2.050
    1C        C  668   2.679   4.107   2.166
    1C        C  669   2.585   3.917   2.292
    1C        C  670   2.635   4.050   2.287
    1C        C  671   2.560   3.852   2.414
    1C        C  672   2.586   3.921   2.534
    1C        C  673   2.521   3.721   2.661
    1C        C  674   2.556   3.858   2.657
    1C        C  675   2.516   3.652   2.783
    1C        C  676   2.532   3.722   2.904
    1C        C  677   2.504   3.515   3.030
    1C        C  678   2.515   3.656   3.028
    1C        C  679   2.507   3.445   3.153
    1C        C  680   2.510   3.517   3.274
    1C        C  681   2.535   3.309   3.401
    1C        C  682   2.515   3.449   3.397
    1C        C  683   2.556   3.243   3.524
    1C        C  684   2.542   3.314   3.645
    1C        C  685   2.608   3.115   3.770
    1C        C  686   2.557   3.247   3.768
    1C        C  687   2.638   3.053   3.893
    1C        C  688   2.605   3.115   4.016
    1C        C  689   2.715   2.935   4.140
    1C        C  690   2.641   3.056   4.139
    1C        C  691   2.756   2.877   4.262
    1C        C  692   2.717   2.938   4.383
    1C        C  693   2.758   2.881   4.506
    1C        C  694   2.625   3.896   2.057
    1C        C  695   2.526   3.706   2.176
    1C        C  696   2.577   3.838   2.175
    1C        C  697   2.507   3.641   2.300
    1C        C  698   2.520   3.716   2.419
    1C        C  699   2.492   3.507   2.543
    1C        C  700   2.501   3.648   2.541
    1C        C  701   2.507   3.438   2.665
    1C        C  702   2.507   3.511   2.787
    1C        C  703   2.529   3.301   2.910
    1C        C  704   2.506   3.441   2.910
    1C        C  705   2.547   3.235   3.033
    1C        C  706   2.529   3.305   3.155
    1C        C  707   2.601   3.108   3.279
    1C        C  708   2.549   3.239   3.279
    1C        C  709   2.638   3.047   3.401
    1C        C  710   2.611   3.113   3.523
    1C        C  711   2.710   2.930   3.650
    1C        C  712   2.637   3.051   3.648
    1C        C  713   2.759   2.878   3.771
    1C        C  714   2.714   2.933   3.893
    1C        C  715   2.755   2.879   4.017
    1C        C  716   2.447   3.498   2.065
    1C        C  717   2.490   3.632   2.063
    1C        C  718   2.461   3.424   2.187
    1C        C  719   2.477   3.502   2.304
    1C        C  720   2.509   3.291   2.425
    1C        C  721   2.483   3.430   2.426
    1C        C  722   2.535   3.225   2.547
    1C        C  723   2.530   3.299   2.668
    1C        C  724   2.589   3.095   2.793
    1C        C  725   2.544   3.229   2.790
    1C        C  726   2.621   3.033   2.916
    1C        C  727   2.598   3.104   3.037
    1C        C  728   2.709   2.922   3.159
    1C        C  729   2.633   3.041   3.158
    1C        C  730   2.753   2.869   3.282
    1C        C  731   2.711   2.926   3.404
    1C        C  732   2.752   2.872   3.528
    1C        C  733   2.495   3.203   2.072
    1C        C  734   2.488   3.283   2.187
    1C        C  735   2.586   3.088   2.306
    1C        C  736   2.524   3.216   2.307
    1C        C  737   2.619   3.027   2.429
    1C        C  738   2.588   3.094   2.549
    1C        C  739   2.691   2.908   2.672
    1C        C  740   2.621   3.031   2.671
    1C        C  741   2.740   2.855   2.794
    1C        C  742   2.699   2.916   2.915
    1C        C  743   2.748   2.864   3.037
    1C        C  744   2.552   3.076   2.072
    1C        C  745   2.682   2.896   2.189
    1C        C  746   2.609   3.017   2.186
    1C        C  747   2.727   2.840   2.311
    1C        C  748   2.695   2.908   2.430
    1C        C  749   2.741   2.853   2.552
    1C        C  750   2.731   2.838   2.072
    1C        C  751   3.662   2.303   1.989
    1C        O  752   3.688   2.184   2.021
    1C        O  753   3.671   2.317   1.850
    1C        C  754   4.640   3.052   1.981
    1C        O  755   4.612   3.028   1.861
    1C        O  756   4.774   3.043   2.022
    1C        C  757   4.444   4.225   1.959
    1C        O  758   4.496   4.329   2.006
    1C        O  759   4.430   4.220   1.820
    1C        C  760   3.598   4.686   1.970
    1C        O  761   3.664   4.786   2.009
    1C        O  762   3.598   4.684   1.830
    1C        C  763   2.893   4.497   1.950
    1C        O  764   2.958   4.495   1.842
    1C        O  765   2.798   4.600   1.943
    1C        C  766   2.340   3.469   1.967
    1C        O  767   2.365   3.480   1.844
    1C        O  768   2.205   3.491   1.994
    1C        C  769   4.706   3.587   5.042
    1C        O  770   4.695   3.549   5.162
    1C        O  771   4.836   3.632   5.019
    1C        C  772   4.275   4.444   5.043
    1C        O  773   4.280   4.397   5.160
    1C        O  774   4.355   4.555   5.012
    1C        C  775   4.136   2.515   5.072
    1C        O  776   4.201   2.417   5.026
    1C        O  777   4.112   2.509   5.210
    1C        C  778   2.897   4.548   5.041
    1C        O  779   2.793   4.620   5.041
    1C        O  780   2.945   4.551   5.173
    1C        C  781   2.469   3.033   5.072
    1C        O  782   2.408   2.928   5.038
    1C        O  783   2.465   3.056   5.209
    1C        C  784   2.398   4.009   5.029
    1C        O  785   2.295   4.058   4.976
    1C        O  786   2.387   3.956   5.158
    1C        C  787   2.939   2.424   2.015
    1C        O  788   2.902   2.457   1.899
    1C        O  789   2.928   2.292   2.055
    1C        C  790   3.188   2.379   5.076
    1C        O  791   3.160   2.258   5.055
    1C        O  792   3.265   2.392   5.193
    1C        H  793   4.273   3.035   5.050
    1C        H  794   4.173   2.820   5.073
    1C        H  795   4.537   3.126   5.040
    1C        H  796   4.516   3.363   5.071
    1C        H  797   4.554   3.806   5.049
    1C        H  798   4.416   3.970   5.060
    1C        H  799   4.334   4.191   5.043
    1C        H  800   4.064   4.570   5.005
    1C        H  801   3.821   4.595   5.035
    1C        H  802   3.587   4.640   5.032
    1C        H  803   3.397   4.447   5.015
    1C        H  804   3.167   4.482   5.058
    1C        H  805   3.880   2.519   5.075
    1C        H  806   3.680   2.494   5.078
    1C        H  807   3.020   2.571   5.077
    1C        H  808   3.438   2.453   5.067
    1C        H  809   2.836   2.706   5.070
    1C        H  810   2.734   2.921   5.083
    1C        H  811   2.472   3.282   5.064
    1C        H  812   2.475   3.502   5.070
    1C        H  813   2.469   3.733   5.062
    1C        H  814   2.560   4.190   5.027
    1C        H  815   2.743   4.331   5.048
    1C        H  816   2.669   2.847   1.985
    1C        H  817   2.831   2.677   1.982
    1C        H  818   3.210   2.427   1.989
    1C        H  819   3.435   2.433   1.976
    1C        H  820   3.841   2.549   1.976
    1C        H  821   4.062   2.631   1.969
    1C        H  822   4.271   2.698   1.999
    1C        H  823   4.421   2.885   1.978
    1C        H  824   4.532   3.307   1.969
    1C        H  825   4.466   3.515   1.968
    1C        H  826   4.533   3.739   1.956
    1C        H  827   3.814   4.554   1.959
    1C        H  828   3.929   4.318   1.968
    1C        H  829   4.166   4.256   1.950
    1C        H  830   4.460   3.953   1.956
    1C        H  831   2.680   3.825   1.999
    1C        H  832   2.728   4.055   1.963
    1C        H  833   2.707   4.321   1.980
    1C        H  834   3.376   4.467   1.945
    1C        H  835   3.145   4.412   1.949
    1C        H  836   2.533   3.011   1.989
    1C        H  837   2.417   3.224   2.002
    1C        H  838   2.500   3.670   1.964
    2V3OU   H29  839   2.808   3.554   4.681
    2V3OU   C27  840   2.793   3.508   4.782
    2V3OU   H27  841   2.738   3.569   4.858
    2V3OU   H28  842   2.742   3.408   4.781
    2V3OU   O11  843   2.913   3.473   4.853
    2V3OU   C15  844   2.920   3.395   4.966
    2V3OU   C13  845   3.052   3.377   5.013
    2V3OU   C14  846   3.080   3.266   5.094
    2V3OU   C16  847   2.975   3.189   5.142
    2V3OU    H6  848   2.992   3.101   5.206
    2V3OU   C12  849   3.218   3.237   5.139
    2V3OU    O2  850   3.247   3.127   5.190
    2V3OU   C10  851   3.327   3.307   5.071
    2V3OU    C8  852   3.460   3.271   5.087
    2V3OU   O10  853   3.490   3.149   5.140
    2V3OU   H26  854   3.402   3.116   5.163
    2V3OU    C6  855   3.568   3.349   5.033
    2V3OU    C5  856   3.541   3.472   4.974
    2V3OU    C4  857   3.705   3.292   5.027
    2V3OU    H4  858   3.724   3.228   5.118
    2V3OU    H5  859   3.711   3.227   4.935
    2V3OU    C2  860   3.816   3.398   5.030
    2V3OU    O6  861   3.802   3.474   5.150
    2V3OU   H21  862   3.762   3.561   5.133
    2V3OU    C3  863   3.782   3.494   4.916
    2V3OU    H2  864   3.861   3.573   4.905
    2V3OU    H3  865   3.780   3.440   4.817
    2V3OU   C25  866   3.952   3.330   5.018
    2V3OU    O7  867   4.007   3.295   4.913
    2V3OU   C26  868   4.031   3.292   5.142
    2V3OU   H22  869   4.057   3.390   5.191
    2V3OU   H23  870   4.123   3.235   5.113
    2V3OU    O8  871   3.966   3.203   5.229
    2V3OU   H24  872   3.928   3.268   5.291
    2V3OU    C1  873   3.651   3.567   4.935
    2V3OU    H1  874   3.625   3.617   4.837
    2V3OU    O3  875   3.654   3.658   5.044
    2V3OU   C19  876   3.621   3.797   5.032
    2V3OU    H9  877   3.521   3.800   4.978
    2V3OU    O4  878   3.716   3.854   4.944
    2V3OU   C20  879   3.847   3.877   4.996
    2V3OU   H10  880   3.900   3.779   5.018
    2V3OU   C24  881   3.616   3.857   5.173
    2V3OU   H16  882   3.547   3.794   5.236
    2V3OU   H17  883   3.571   3.958   5.158
    2V3OU   C23  884   3.755   3.876   5.234
    2V3OU   H15  885   3.797   3.772   5.257
    2V3OU    N1  886   3.736   3.947   5.358
    2V3OU   H19  887   3.803   3.919   5.427
    2V3OU   H20  888   3.644   3.934   5.395
    2V3OU   C21  889   3.848   3.948   5.131
    2V3OU   H11  890   3.952   3.929   5.170
    2V3OU    O5  891   3.831   4.089   5.137
    2V3OU   H18  892   3.789   4.108   5.222
    2V3OU   C22  893   3.916   3.951   4.882
    2V3OU   H12  894   3.865   4.047   4.858
    2V3OU   H13  895   3.908   3.889   4.789
    2V3OU   H14  896   4.026   3.958   4.904
    2V3OU   C11  897   3.160   3.470   4.976
    2V3OU    O1  898   3.136   3.585   4.934
    2V3OU    C9  899   3.300   3.429   5.002
    2V3OU    C7  900   3.404   3.508   4.955
    2V3OU    O9  901   3.386   3.621   4.879
    2V3OU   H25  902   3.291   3.636   4.860
    2V3OU   C17  903   2.817   3.312   5.015
    2V3OU    H7  904   2.720   3.362   5.019
    2V3OU   C18  905   2.842   3.209   5.104
    2V3OU    H8  906   2.761   3.149   5.148
    3SOL     OW  907   3.652   4.147   4.567
    3SOL    HW1  908   3.729   4.136   4.505
    3SOL    HW2  909   3.649   4.069   4.631
    4SOL     OW  910   6.676   0.084   0.083
    4SOL    HW1  911   6.626   0.003   0.115
    4SOL    HW2  912   6.716   0.064   7.018
    5SOL     OW  913   3.845   1.389   1.119
    5SOL    HW1  914   3.773   1.386   1.050
    5SOL    HW2  915   3.877   1.297   1.140
    6SOL     OW  916   5.435   0.467   2.677
    6SOL    HW1  917   5.467   0.558   2.705
    6SOL    HW2  918   5.479   0.441   2.591
    7SOL     OW  919   1.851   4.525   3.888
    7SOL    HW1  920   1.818   4.464   3.961
    7SOL    HW2  921   1.778   4.588   3.862
    8SOL     OW  922   2.119   3.386   5.598
    8SOL    HW1  923   2.040   3.406   5.540
    8SOL    HW2  924   2.093   3.396   5.694
    9SOL     OW  925   6.442   1.000   6.460
    9SOL    HW1  926   6.370   0.973   6.525
    9SOL    HW2  927   6.529   1.007   6.508
   10SOL     OW  928   4.670   4.778   3.689
   10SOL    HW1  929   4.622   4.690   3.701
   10SOL    HW2  930   4.706   4.784   3.596
   11SOL     OW  931   1.975   1.149   0.689
   11SOL    HW1  932   2.021   1.086   0.752
   11SOL    HW2  933   1.924   1.096   0.621
   12SOL     OW  934   3.324   4.903   3.654
   12SOL    HW1  935   3.309   4.894   3.753
   12SOL    HW2  936   3.239   4.929   3.609
   13SOL     OW  937   4.528   5.999   1.991
   13SOL    HW1  938   4.593   6.006   2.067
   13SOL    HW2  939   4.578   5.999   1.904
   14SOL     OW  940   4.656   4.929   4.991
   14SOL    HW1  941   4.628   5.007   4.934
   14SOL    HW2  942   4.723   4.960   5.058
   15SOL     OW  943   0.463   5.950   5.939
   15SOL    HW1  944   0.492   5.907   6.025
   15SOL    HW2  945   0.444   6.046   5.955
   16SOL     OW  946   0.029   3.224   5.858
   16SOL    HW1  947   0.001   3.319   5.871
   16SOL    HW2  948   6.976   3.170   5.824
   17SOL     OW  949   6.172   0.961   5.266
   17SOL    HW1  950   6.187   1.057   5.244
   17SOL    HW2  951   6.167   0.907   5.181
   18SOL     OW  952   3.455   0.061   5.399
   18SOL    HW1  953   3.455   0.137   5.334
   18SOL    HW2  954   3.549   0.028   5.412
   19SOL     OW  955   0.911   1.447   2.987
   19SOL    HW1  956   0.928   1.366   2.931
   19SOL    HW2  957   0.977   1.519   2.963
   20SOL     OW  958   5.648   2.283   4.951
   20SOL    HW1  959   5.600   2.220   4.891
   20SOL    HW2  960   5.737   2.245   4.975
   21SOL     OW  961   3.242   5.882   2.261
   21SOL    HW1  962   3.282   5.903   2.172
   21SOL    HW2  963   3.290   5.805   2.303
   22SOL     OW  964   2.339   6.660   4.733
   22SOL    HW1  965   2.259   6.712   4.703
   22SOL    HW2  966   2.315   6.604   4.812
   23SOL     OW  967   5.457   4.242   2.122
   23SOL    HW1  968   5.434   4.339   2.132
   23SOL    HW2  969   5.503   4.210   2.204
   24SOL     OW  970   4.365   0.767   1.268
   24SOL    HW1  971   4.361   0.791   1.171
   24SOL    HW2  972   4.366   0.850   1.323
   25SOL     OW  973   2.604   0.033   3.543
   25SOL    HW1  974   2.661   0.058   3.621
   25SOL    HW2  975   2.516   7.022   3.576
   26SOL     OW  976   0.700   2.744   0.105
   26SOL    HW1  977   0.622   2.762   0.046
   26SOL    HW2  978   0.766   2.818   0.096
   27SOL     OW  979   6.173   1.373   1.499
   27SOL    HW1  980   6.149   1.460   1.542
   27SOL    HW2  981   6.246   1.388   1.432
   28SOL     OW  982   2.117   0.722   4.611
   28SOL    HW1  983   2.178   0.788   4.568
   28SOL    HW2  984   2.162   0.633   4.618
   29SOL     OW  985   6.963   0.812   0.503
   29SOL    HW1  986   0.004   0.882   0.534
   29SOL    HW2  987   6.964   0.808   0.403
   30SOL     OW  988   4.299   0.698   4.945
   30SOL    HW1  989   4.227   0.755   4.985
   30SOL    HW2  990   4.284   0.689   4.847
   31SOL     OW  991   1.336   3.292   5.643
   31SOL    HW1  992   1.269   3.236   5.594
   31SOL    HW2  993   1.300   3.317   5.733
   32SOL     OW  994   1.611   0.182   1.567
   32SOL    HW1  995   1.580   0.120   1.494
   32SOL    HW2  996   1.675   0.249   1.528
   33SOL     OW  997   0.404   4.547   5.703
   33SOL    HW1  998   0.469   4.489   5.654
   33SOL    HW2  999   0.413   4.641   5.671
   34SOL     OW 1000   1.725   4.895   5.297
   34SOL    HW1 1001   1.634   4.876   5.334
   34SOL    HW2 1002   1.726   4.874   5.199
   35SOL     OW 1003   3.769   2.743   0.287
   35SOL    HW1 1004   3.740   2.833   0.318
   35SOL    HW2 1005   3.750   2.733   0.189
   36SOL     OW 1006   4.840   0.652   3.869
   36SOL    HW1 1007   4.788   0.598   3.803
   36SOL    HW2 1008   4.821   0.749   3.855
   37SOL     OW 1009   1.955   1.389   3.799
   37SOL    HW1 1010   1.855   1.383   3.795
   37SOL    HW2 1011   1.994   1.303   3.767
   38SOL     OW 1012   1.259   4.625   2.130
   38SOL    HW1 1013   1.263   4.652   2.226
   38SOL    HW2 1014   1.234   4.704   2.074
   39SOL     OW 1015   6.563   5.390   6.529
   39SOL    HW1 1016   6.602   5.316   6.584
   39SOL    HW2 1017   6.611   5.475   6.547
   40SOL     OW 1018   3.561   0.909   6.256
   40SOL    HW1 1019   3.524   0.861   6.177
   40SOL    HW2 1020   3.657   0.886   6.268
   41SOL     OW 1021   6.114   3.950   2.091
   41SOL    HW1 1022   6.042   3.915   2.151
   41SOL    HW2 1023   6.195   3.972   2.145
   42SOL     OW 1024   2.219   5.820   5.230
   42SOL    HW1 1025   2.165   5.740   5.255
   42SOL    HW2 1026   2.281   5.844   5.304
   43SOL     OW 1027   5.135   6.665   5.097
   43SOL    HW1 1028   5.129   6.576   5.053
   43SOL    HW2 1029   5.056   6.678   5.157
   44SOL     OW 1030   6.103   2.321   5.514
   44SOL    HW1 1031   6.200   2.348   5.519
   44SOL    HW2 1032   6.089   2.239   5.569
   45SOL     OW 1033   3.969   4.951   6.922
   45SOL    HW1 1034   3.877   4.914   6.933
   45SOL    HW2 1035   4.018   4.947   7.009
   46SOL     OW 1036   0.768   3.263   4.894
   46SOL    HW1 1037   0.673   3.256   4.865
   46SOL    HW2 1038   0.827   3.271   4.814
   47SOL     OW 1039   5.767   2.798   1.688
   47SOL    HW1 1040   5.669   2.784   1.706
   47SOL    HW2 1041   5.820   2.729   1.738
   48SOL     OW 1042   6.584   3.847   6.841
   48SOL    HW1 1043   6.515   3.781   6.811
   48SOL    HW2 1044   6.656   3.799   6.891
   49SOL     OW 1045   4.595   3.169   6.830
   49SOL    HW1 1046   4.612   3.095   6.896
   49SOL    HW2 1047   4.593   3.257   6.878
   50SOL     OW 1048   6.214   2.923   6.417
   50SOL    HW1 1049   6.185   2.838   6.372
   50SOL    HW2 1050   6.137   2.986   6.422
   51SOL     OW 1051   2.269   5.085   3.472
   51SOL    HW1 1052   2.175   5.090   3.507
   51SOL    HW2 1053   2.267   5.067   3.374
   52SOL     OW 1054   5.830   2.738   1.414
   52SOL    HW1 1055   5.755   2.721   1.350
   52SOL    HW2 1056   5.794   2.739   1.508
   53SOL     OW 1057   4.064   0.350   2.682
   53SOL    HW1 1058   3.991   0.343   2.751
   53SOL    HW2 1059   4.047   0.430   2.624
   54SOL     OW 1060   5.126   6.619   6.647
   54SOL    HW1 1061   5.040   6.663   6.672
   54SOL    HW2 1062   5.164   6.664   6.566
   55SOL     OW 1063   1.634   2.948   6.228
   55SOL    HW1 1064   1.658   3.022   6.165
   55SOL    HW2 1065   1.671   2.969   6.319
   56SOL     OW 1066   1.678   2.429   6.785
   56SOL    HW1 1067   1.664   2.468   6.876
   56SOL    HW2 1068   1.773   2.399   6.776
   57SOL     OW 1069   4.320   0.787   0.328
   57SOL    HW1 1070   4.235   0.733   0.323
   57SOL    HW2 1071   4.398   0.725   0.333
   58SOL     OW 1072   0.958   1.062   6.453
   58SOL    HW1 1073   1.018   1.135   6.485
   58SOL    HW2 1074   0.911   1.021   6.531
   59SOL     OW 1075   5.414   3.407   6.453
   59SOL    HW1 1076   5.371   3.403   6.543
   59SOL    HW2 1077   5.498   3.352   6.453
   60SOL     OW 1078   5.593   0.840   2.965
   60SOL    HW1 1079   5.609   0.760   3.023
   60SOL    HW2 1080   5.508   0.884   2.991
   61SOL     OW 1081   0.208   0.187   5.068
   61SOL    HW1 1082   0.251   0.237   4.992
   61SOL    HW2 1083   0.266   0.194   5.149
   62SOL     OW 1084   0.256   2.340   2.103
   62SOL    HW1 1085   0.230   2.437   2.103
   62SOL    HW2 1086   0.315   2.322   2.182
   63SOL     OW 1087   4.297   6.259   4.554
   63SOL    HW1 1088   4.229   6.196   4.516
   63SOL    HW2 1089   4.287   6.349   4.512
   64SOL     OW 1090   1.231   4.779   6.979
   64SOL    HW1 1091   1.170   4.743   6.908
   64SOL    HW2 1092   1.320   4.800   6.939
   65SOL     OW 1093   0.651   0.416   5.140
   65SOL    HW1 1094   0.664   0.430   5.238
   65SOL    HW2 1095   0.722   0.355   5.105
   66SOL     OW 1096   4.265   0.527   1.886
   66SOL    HW1 1097   4.358   0.537   1.922
   66SOL    HW2 1098   4.203   0.499   1.959
   67SOL     OW 1099   0.424   2.848   1.261
   67SOL    HW1 1100   0.482   2.772   1.230
   67SOL    HW2 1101   0.474   2.934   1.252
   68SOL     OW 1102   6.726   2.263   5.513
   68SOL    HW1 1103   6.640   2.226   5.547
   68SOL    HW2 1104   6.783   2.292   5.590
   69SOL     OW 1105   0.927   5.475   5.963
   69SOL    HW1 1106   0.850   5.420   5.996
   69SOL    HW2 1107   0.893   5.554   5.912
   70SOL     OW 1108   5.314   3.129   4.540
   70SOL    HW1 1109   5.394   3.074   4.517
   70SOL    HW2 1110   5.236   3.069   4.555
   71SOL     OW 1111   4.237   1.805   4.470
   71SOL    HW1 1112   4.184   1.868   4.527
   71SOL    HW2 1113   4.287   1.742   4.529
   72SOL     OW 1114   6.572   0.716   3.579
   72SOL    HW1 1115   6.513   0.684   3.505
   72SOL    HW2 1116   6.563   0.816   3.587
   73SOL     OW 1117   2.793   0.704   0.567
   73SOL    HW1 1118   2.725   0.760   0.615
   73SOL    HW2 1119   2.771   0.607   0.580
   74SOL     OW 1120   1.772   1.853   0.175
   74SOL    HW1 1121   1.843   1.808   0.121
   74SOL    HW2 1122   1.815   1.904   0.249
   75SOL     OW 1123   4.472   1.641   0.762
   75SOL    HW1 1124   4.436   1.558   0.720
   75SOL    HW2 1125   4.500   1.705   0.690
   76SOL     OW 1126   3.089   4.403   5.346
   76SOL    HW1 1127   3.156   4.349   5.295
   76SOL    HW2 1128   3.040   4.463   5.283
   77SOL     OW 1129   1.507   4.655   4.070
   77SOL    HW1 1130   1.461   4.569   4.091
   77SOL    HW2 1131   1.469   4.728   4.126
   78SOL     OW 1132   4.426   1.351   1.182
   78SOL    HW1 1133   4.513   1.347   1.134
   78SOL    HW2 1134   4.367   1.276   1.151
   79SOL     OW 1135   1.604   5.186   2.022
   79SOL    HW1 1136   1.584   5.145   1.933
   79SOL    HW2 1137   1.617   5.114   2.090
   80SOL     OW 1138   5.096   1.963   5.088
   80SOL    HW1 1139   5.185   1.934   5.126
   80SOL    HW2 1140   5.044   1.882   5.062
   81SOL     OW 1141   3.176   5.894   1.417
   81SOL    HW1 1142   3.137   5.985   1.432
   81SOL    HW2 1143   3.144   5.832   1.488
   82SOL     OW 1144   1.150   6.373   1.310
   82SOL    HW1 1145   1.221   6.410   1.249
   82SOL    HW2 1146   1.136   6.276   1.289
   83SOL     OW 1147   5.784   1.733   5.073
   83SOL    HW1 1148   5.690   1.759   5.095
   83SOL    HW2 1149   5.806   1.646   5.116
   84SOL     OW 1150   6.289   2.797   3.013
   84SOL    HW1 1151   6.272   2.895   3.026
   84SOL    HW2 1152   6.220   2.745   3.062
   85SOL     OW 1153   2.168   0.495   4.119
   85SOL    HW1 1154   2.221   0.536   4.193
   85SOL    HW2 1155   2.161   0.560   4.043
   86SOL     OW 1156   5.817   1.058   6.536
   86SOL    HW1 1157   5.870   1.134   6.498
   86SOL    HW2 1158   5.791   1.079   6.630
   87SOL     OW 1159   3.329   3.840   6.494
   87SOL    HW1 1160   3.424   3.864   6.472
   87SOL    HW2 1161   3.281   3.816   6.410
   88SOL     OW 1162   3.190   3.633   6.630
   88SOL    HW1 1163   3.172   3.566   6.558
   88SOL    HW2 1164   3.247   3.707   6.594
   89SOL     OW 1165   3.222   3.720   3.088
   89SOL    HW1 1166   3.139   3.687   3.133
   89SOL    HW2 1167   3.209   3.815   3.061
   90SOL     OW 1168   4.791   4.452   3.091
   90SOL    HW1 1169   4.784   4.454   2.992
   90SOL    HW2 1170   4.761   4.363   3.125
   91SOL     OW 1171   5.799   5.107   6.126
   91SOL    HW1 1172   5.836   5.097   6.219
   91SOL    HW2 1173   5.706   5.142   6.131
   92SOL     OW 1174   5.484   4.112   6.702
   92SOL    HW1 1175   5.538   4.037   6.741
   92SOL    HW2 1176   5.524   4.141   6.615
   93SOL     OW 1177   2.730   2.987   1.303
   93SOL    HW1 1178   2.800   3.028   1.362
   93SOL    HW2 1179   2.644   2.981   1.354
   94SOL     OW 1180   3.176   0.972   5.854
   94SOL    HW1 1181   3.104   0.970   5.923
   94SOL    HW2 1182   3.215   0.880   5.844
   95SOL     OW 1183   6.877   0.591   3.948
   95SOL    HW1 1184   6.812   0.555   3.880
   95SOL    HW2 1185   6.965   0.545   3.938
   96SOL     OW 1186   4.703   4.865   0.265
   96SOL    HW1 1187   4.670   4.951   0.227
   96SOL    HW2 1188   4.642   4.790   0.237
   97SOL     OW 1189   1.902   5.060   5.457
   97SOL    HW1 1190   1.873   5.066   5.552
   97SOL    HW2 1191   1.862   4.977   5.416
   98SOL     OW 1192   1.312   3.113   2.979
   98SOL    HW1 1193   1.407   3.140   2.990
   98SOL    HW2 1194   1.303   3.053   2.899
   99SOL     OW 1195   3.951   3.138   3.689
   99SOL    HW1 1196   3.900   3.055   3.708
   99SOL    HW2 1197   4.038   3.115   3.646
  100SOL     OW 1198   6.831   0.141   3.629
  100SOL    HW1 1199   6.907   0.147   3.563
  100SOL    HW2 1200   6.865   0.159   3.721
  101SOL     OW 1201   0.113   3.525   2.666
  101SOL    HW1 1202   0.183   3.493   2.730
  101SOL    HW2 1203   0.064   3.446   2.628
  102SOL     OW 1204   2.469   6.346   1.009
  102SOL    HW1 1205   2.477   6.253   1.045
  102SOL    HW2 1206   2.390   6.390   1.051
  103SOL     OW 1207   1.770   1.136   2.132
  103SOL    HW1 1208   1.722   1.050   2.150
  103SOL    HW2 1209   1.806   1.171   2.218
  104SOL     OW 1210   1.407   4.632   1.761
  104SOL    HW1 1211   1.354   4.717   1.760
  104SOL    HW2 1212   1.352   4.557   1.724
  105SOL     OW 1213   4.741   1.925   6.385
  105SOL    HW1 1214   4.757   1.892   6.293
  105SOL    HW2 1215   4.663   1.876   6.425
  106SOL     OW 1216   5.590   4.961   2.363
  106SOL    HW1 1217   5.605   4.921   2.453
  106SOL    HW2 1218   5.539   4.896   2.305
  107SOL     OW 1219   6.310   0.761   0.687
  107SOL    HW1 1220   6.210   0.753   0.680
  107SOL    HW2 1221   6.342   0.833   0.625
  108SOL     OW 1222   1.575   0.216   6.019
  108SOL    HW1 1223   1.654   0.209   5.959
  108SOL    HW2 1224   1.572   0.306   6.061
  109SOL     OW 1225   2.479   1.292   3.623
  109SOL    HW1 1226   2.402   1.241   3.585
  109SOL    HW2 1227   2.550   1.229   3.653
  110SOL     OW 1228   2.588   4.504   5.629
  110SOL    HW1 1229   2.656   4.444   5.672
  110SOL    HW2 1230   2.599   4.502   5.530
  111SOL     OW 1231   6.250   1.999   2.234
  111SOL    HW1 1232   6.257   1.899   2.243
  111SOL    HW2 1233   6.155   2.023   2.212
  112SOL     OW 1234   4.615   0.056   6.702
  112SOL    HW1 1235   4.562   0.103   6.632
  112SOL    HW2 1236   4.644   0.121   6.773
  113SOL     OW 1237   6.569   6.375   2.632
  113SOL    HW1 1238   6.629   6.445   2.595
  113SOL    HW2 1239   6.617   6.287   2.635
  114SOL     OW 1240   1.382   4.045   3.548
  114SOL    HW1 1241   1.324   4.069   3.626
  114SOL    HW2 1242   1.339   4.078   3.463
  115SOL     OW 1243   5.649   1.323   3.392
  115SOL    HW1 1244   5.558   1.345   3.356
  115SOL    HW2 1245   5.641   1.292   3.487
  116SOL     OW 1246   1.567   4.938   0.656
  116SOL    HW1 1247   1.500   4.929   0.582
  116SOL    HW2 1248   1.532   4.894   0.738
  117SOL     OW 1249   2.419   1.559   0.045
  117SOL    HW1 1250   2.448   1.497   0.118
  117SOL    HW2 1251   2.380   1.642   0.085
  118SOL     OW 1252   1.335   1.503   4.676
  118SOL    HW1 1253   1.366   1.453   4.757
  118SOL    HW2 1254   1.406   1.568   4.648
  119SOL     OW 1255   0.214   6.495   6.378
  119SOL    HW1 1256   0.303   6.503   6.424
  119SOL    HW2 1257   0.192   6.583   6.334
  120SOL     OW 1258   4.812   1.602   4.630
  120SOL    HW1 1259   4.809   1.697   4.662
  120SOL    HW2 1260   4.871   1.548   4.691
  121SOL     OW 1261   1.000   3.952   6.338
  121SOL    HW1 1262   1.065   4.021   6.373
  121SOL    HW2 1263   0.990   3.879   6.406
  122SOL     OW 1264   1.130   4.277   0.122
  122SOL    HW1 1265   1.041   4.253   0.160
  122SOL    HW2 1266   1.181   4.333   0.187
  123SOL     OW 1267   1.054   1.565   1.957
  123SOL    HW1 1268   1.017   1.645   1.911
  123SOL    HW2 1269   1.125   1.523   1.899
  124SOL     OW 1270   2.684   2.463   0.483
  124SOL    HW1 1271   2.633   2.384   0.449
  124SOL    HW2 1272   2.640   2.498   0.566
  125SOL     OW 1273   3.534   2.933   0.179
  125SOL    HW1 1274   3.462   2.865   0.168
  125SOL    HW2 1275   3.556   2.944   0.276
  126SOL     OW 1276   3.831   3.040   3.998
  126SOL    HW1 1277   3.893   3.118   3.987
  126SOL    HW2 1278   3.840   2.979   3.920
  127SOL     OW 1279   0.761   6.164   5.798
  127SOL    HW1 1280   0.676   6.183   5.750
  127SOL    HW2 1281   0.754   6.193   5.893
  128SOL     OW 1282   4.689   3.367   0.861
  128SOL    HW1 1283   4.641   3.361   0.949
  128SOL    HW2 1284   4.768   3.428   0.869
  129SOL     OW 1285   2.331   6.125   0.688
  129SOL    HW1 1286   2.295   6.206   0.734
  129SOL    HW2 1287   2.310   6.043   0.742
  130SOL     OW 1288   5.370   2.313   4.701
  130SOL    HW1 1289   5.323   2.389   4.744
  130SOL    HW2 1290   5.312   2.273   4.630
  131SOL     OW 1291   6.782   2.578   3.571
  131SOL    HW1 1292   6.856   2.532   3.523
  131SOL    HW2 1293   6.728   2.632   3.507
  132SOL     OW 1294   3.295   3.869   1.886
  132SOL    HW1 1295   3.200   3.879   1.856
  132SOL    HW2 1296   3.356   3.873   1.807
  133SOL     OW 1297   5.307   6.644   5.510
  133SOL    HW1 1298   5.391   6.613   5.555
  133SOL    HW2 1299   5.321   6.645   5.411
  134SOL     OW 1300   5.606   1.040   2.002
  134SOL    HW1 1301   5.695   1.081   1.984
  134SOL    HW2 1302   5.534   1.099   1.967
  135SOL     OW 1303   4.889   3.738   4.359
  135SOL    HW1 1304   4.959   3.741   4.287
  135SOL    HW2 1305   4.907   3.809   4.426
  136SOL     OW 1306   3.269   6.883   5.344
  136SOL    HW1 1307   3.322   6.967   5.353
  136SOL    HW2 1308   3.184   6.903   5.294
  137SOL     OW 1309   2.860   2.193   5.121
  137SOL    HW1 1310   2.950   2.234   5.108
  137SOL    HW2 1311   2.870   2.094   5.127
  138SOL     OW 1312   1.119   5.514   5.208
  138SOL    HW1 1313   1.213   5.520   5.177
  138SOL    HW2 1314   1.101   5.422   5.244
  139SOL     OW 1315   2.389   6.028   6.524
  139SOL    HW1 1316   2.319   6.082   6.572
  139SOL    HW2 1317   2.429   6.082   6.451
  140SOL     OW 1318   2.204   0.765   2.666
  140SOL    HW1 1319   2.148   0.692   2.627
  140SOL    HW2 1320   2.174   0.853   2.629
  141SOL     OW 1321   6.993   4.636   0.124
  141SOL    HW1 1322   6.949   4.685   0.199
  141SOL    HW2 1323   6.955   4.667   0.037
  142SOL     OW 1324   1.402   4.028   2.082
  142SOL    HW1 1325   1.478   3.994   2.137
  142SOL    HW2 1326   1.360   3.951   2.033
  143SOL     OW 1327   4.848   6.856   1.856
  143SOL    HW1 1328   4.905   6.901   1.925
  143SOL    HW2 1329   4.772   6.809   1.900
  144SOL     OW 1330   3.019   4.790   3.121
  144SOL    HW1 1331   3.098   4.776   3.061
  144SOL    HW2 1332   3.024   4.881   3.161
  145SOL     OW 1333   6.892   4.469   2.986
  145SOL    HW1 1334   6.891   4.377   2.947
  145SOL    HW2 1335   6.886   4.537   2.913
  146SOL     OW 1336   6.224   1.559   6.341
  146SOL    HW1 1337   6.277   1.610   6.409
  146SOL    HW2 1338   6.191   1.622   6.270
  147SOL     OW 1339   4.703   1.307   5.721
  147SOL    HW1 1340   4.645   1.226   5.729
  147SOL    HW2 1341   4.762   1.297   5.641
  148SOL     OW 1342   1.430   4.697   1.230
  148SOL    HW1 1343   1.514   4.728   1.186
  148SOL    HW2 1344   1.362   4.677   1.161
  149SOL     OW 1345   1.922   2.577   5.623
  149SOL    HW1 1346   1.948   2.544   5.714
  149SOL    HW2 1347   2.004   2.597   5.570
  150SOL     OW 1348   4.534   1.603   4.640
  150SOL    HW1 1349   4.508   1.578   4.547
  150SOL    HW2 1350   4.634   1.611   4.646
  151SOL     OW 1351   4.236   2.550   0.774
  151SOL    HW1 1352   4.206   2.608   0.850
  151SOL    HW2 1353   4.239   2.455   0.803
  152SOL     OW 1354   0.692   1.213   0.061
  152SOL    HW1 1355   0.635   1.265   0.125
  152SOL    HW2 1356   0.786   1.210   0.096
  153SOL     OW 1357   2.835   0.927   4.010
  153SOL    HW1 1358   2.762   0.936   4.078
  153SOL    HW2 1359   2.822   0.996   3.939
  154SOL     OW 1360   5.650   2.224   1.399
  154SOL    HW1 1361   5.645   2.124   1.386
  154SOL    HW2 1362   5.744   2.254   1.388
  155SOL     OW 1363   1.131   6.713   1.830
  155SOL    HW1 1364   1.128   6.727   1.929
  155SOL    HW2 1365   1.226   6.698   1.801
  156SOL     OW 1366   5.252   2.326   0.328
  156SOL    HW1 1367   5.321   2.387   0.367
  156SOL    HW2 1368   5.168   2.377   0.311
  157SOL     OW 1369   5.185   4.712   0.469
  157SOL    HW1 1370   5.235   4.763   0.539
  157SOL    HW2 1371   5.115   4.772   0.429
  158SOL     OW 1372   0.547   2.981   2.987
  158SOL    HW1 1373   0.601   3.047   3.039
  158SOL    HW2 1374   0.450   2.995   3.006
  159SOL     OW 1375   5.604   5.676   0.542
  159SOL    HW1 1376   5.630   5.680   0.445
  159SOL    HW2 1377   5.555   5.759   0.567
  160SOL     OW 1378   6.275   6.922   1.349
  160SOL    HW1 1379   6.187   6.966   1.367
  160SOL    HW2 1380   6.301   6.867   1.429
  161SOL     OW 1381   0.544   0.241   0.337
  161SOL    HW1 1382   0.622   0.233   0.400
  161SOL    HW2 1383   0.576   0.229   0.243
  162SOL     OW 1384   3.701   6.862   0.369
  162SOL    HW1 1385   3.761   6.933   0.405
  162SOL    HW2 1386   3.708   6.859   0.270
  163SOL     OW 1387   0.419   3.896   3.820
  163SOL    HW1 1388   0.416   3.878   3.722
  163SOL    HW2 1389   0.408   3.811   3.870
  164SOL     OW 1390   1.669   1.732   3.456
  164SOL    HW1 1391   1.572   1.752   3.451
  164SOL    HW2 1392   1.712   1.791   3.524
  165SOL     OW 1393   0.917   5.366   2.933
  165SOL    HW1 1394   0.998   5.349   2.990
  165SOL    HW2 1395   0.947   5.397   2.843
  166SOL     OW 1396   6.745   4.047   2.879
  166SOL    HW1 1397   6.785   4.095   2.957
  166SOL    HW2 1398   6.713   3.957   2.909
  167SOL     OW 1399   4.799   2.112   0.226
  167SOL    HW1 1400   4.727   2.171   0.191
  167SOL    HW2 1401   4.888   2.147   0.197
  168SOL     OW 1402   4.901   3.821   2.043
  168SOL    HW1 1403   4.865   3.744   1.990
  168SOL    HW2 1404   4.877   3.907   1.998
  169SOL     OW 1405   6.027   2.531   0.936
  169SOL    HW1 1406   5.987   2.593   1.003
  169SOL    HW2 1407   6.010   2.436   0.963
  170SOL     OW 1408   0.785   5.002   1.910
  170SOL    HW1 1409   0.828   5.088   1.941
  170SOL    HW2 1410   0.848   4.926   1.926
  171SOL     OW 1411   2.930   3.492   0.367
  171SOL    HW1 1412   2.952   3.589   0.367
  171SOL    HW2 1413   2.930   3.458   0.461
  172SOL     OW 1414   6.042   2.109   1.622
  172SOL    HW1 1415   6.104   2.094   1.545
  172SOL    HW2 1416   6.020   2.022   1.665
  173SOL     OW 1417   6.701   1.968   6.046
  173SOL    HW1 1418   6.742   1.929   6.128
  173SOL    HW2 1419   6.619   2.020   6.071
  174SOL     OW 1420   6.002   5.352   5.485
  174SOL    HW1 1421   6.051   5.417   5.543
  174SOL    HW2 1422   5.993   5.389   5.393
  175SOL     OW 1423   0.835   0.654   0.554
  175SOL    HW1 1424   0.915   0.715   0.560
  175SOL    HW2 1425   0.817   0.615   0.644
  176SOL     OW 1426   5.147   4.537   2.858
  176SOL    HW1 1427   5.237   4.578   2.842
  176SOL    HW2 1428   5.101   4.522   2.770
  177SOL     OW 1429   5.857   2.398   4.206
  177SOL    HW1 1430   5.757   2.396   4.219
  177SOL    HW2 1431   5.900   2.433   4.289
  178SOL     OW 1432   2.073   6.325   5.711
  178SOL    HW1 1433   2.068   6.349   5.808
  178SOL    HW2 1434   2.046   6.405   5.656
  179SOL     OW 1435   4.371   5.288   0.957
  179SOL    HW1 1436   4.436   5.265   0.884
  179SOL    HW2 1437   4.420   5.297   1.043
  180SOL     OW 1438   4.325   1.132   1.065
  180SOL    HW1 1439   4.383   1.051   1.060
  180SOL    HW2 1440   4.291   1.155   0.974
  181SOL     OW 1441   3.659   2.456   5.409
  181SOL    HW1 1442   3.580   2.425   5.356
  181SOL    HW2 1443   3.682   2.549   5.383
  182SOL     OW 1444   4.938   2.056   6.511
  182SOL    HW1 1445   5.031   2.029   6.490
  182SOL    HW2 1446   4.875   2.017   6.443
  183SOL     OW 1447   3.448   1.571   3.829
  183SOL    HW1 1448   3.391   1.565   3.911
  183SOL    HW2 1449   3.402   1.524   3.754
  184SOL     OW 1450   6.585   6.774   2.587
  184SOL    HW1 1451   6.624   6.830   2.660
  184SOL    HW2 1452   6.622   6.681   2.592
  185SOL     OW 1453   0.347   1.135   4.088
  185SOL    HW1 1454   0.256   1.176   4.090
  185SOL    HW2 1455   0.339   1.036   4.088
  186SOL     OW 1456   4.398   5.685   3.626
  186SOL    HW1 1457   4.395   5.589   3.654
  186SOL    HW2 1458   4.396   5.691   3.526
  187SOL     OW 1459   4.240   6.351   2.066
  187SOL    HW1 1460   4.159   6.341   2.009
  187SOL    HW2 1461   4.225   6.425   2.132
  188SOL     OW 1462   2.474   2.641   3.247
  188SOL    HW1 1463   2.505   2.569   3.184
  188SOL    HW2 1464   2.509   2.729   3.216
  189SOL     OW 1465   6.148   5.341   6.328
  189SOL    HW1 1466   6.132   5.303   6.419
  189SOL    HW2 1467   6.244   5.369   6.320
  190SOL     OW 1468   5.863   6.899   0.246
  190SOL    HW1 1469   5.959   6.926   0.240
  190SOL    HW2 1470   5.811   6.970   0.294
  191SOL     OW 1471   5.925   1.032   5.644
  191SOL    HW1 1472   5.969   1.121   5.659
  191SOL    HW2 1473   5.966   0.988   5.564
  192SOL     OW 1474   0.492   5.143   0.392
  192SOL    HW1 1475   0.501   5.068   0.327
  192SOL    HW2 1476   0.413   5.199   0.367
  193SOL     OW 1477   3.056   5.073   6.229
  193SOL    HW1 1478   3.076   4.992   6.174
  193SOL    HW2 1479   2.961   5.071   6.258
  194SOL     OW 1480   3.574   6.972   2.256
  194SOL    HW1 1481   3.654   6.987   2.199
  194SOL    HW2 1482   3.599   6.979   2.353
  195SOL     OW 1483   2.818   0.932   1.556
  195SOL    HW1 1484   2.882   1.009   1.560
  195SOL    HW2 1485   2.725   0.965   1.573
  196SOL     OW 1486   1.970   0.634   6.931
  196SOL    HW1 1487   1.902   0.632   6.858
  196SOL    HW2 1488   2.059   0.605   6.895
  197SOL     OW 1489   2.376   5.649   0.391
  197SOL    HW1 1490   2.434   5.640   0.310
  197SOL    HW2 1491   2.299   5.710   0.370
  198SOL     OW 1492   4.034   6.566   6.754
  198SOL    HW1 1493   4.039   6.467   6.771
  198SOL    HW2 1494   3.960   6.605   6.809
  199SOL     OW 1495   5.940   6.604   2.882
  199SOL    HW1 1496   5.920   6.543   2.805
  199SOL    HW2 1497   5.895   6.692   2.867
  200SOL     OW 1498   0.463   3.988   3.056
  200SOL    HW1 1499   0.541   4.033   3.011
  200SOL    HW2 1500   0.460   3.892   3.027
  201SOL     OW 1501   3.066   0.640   0.003
  201SOL    HW1 1502   3.043   0.617   0.097
  201SOL    HW2 1503   2.999   0.600   6.965
  202SOL     OW 1504   3.837   6.921   3.425
  202SOL    HW1 1505   3.760   6.979   3.450
  202SOL    HW2 1506   3.900   6.914   3.502
  203SOL     OW 1507   5.548   3.639   6.278
  203SOL    HW1 1508   5.591   3.550   6.264
  203SOL    HW2 1509   5.456   3.627   6.316
  204SOL     OW 1510   2.008   6.827   0.652
  204SOL    HW1 1511   1.991   6.921   0.624
  204SOL    HW2 1512   2.099   6.799   0.620
  205SOL     OW 1513   5.687   2.003   1.112
  205SOL    HW1 1514   5.673   1.970   1.206
  205SOL    HW2 1515   5.611   1.974   1.055
  206SOL     OW 1516   0.436   5.013   1.575
  206SOL    HW1 1517   0.523   5.062   1.580
  206SOL    HW2 1518   0.395   5.008   1.666
  207SOL     OW 1519   4.741   0.568   5.807
  207SOL    HW1 1520   4.696   0.630   5.872
  207SOL    HW2 1521   4.676   0.545   5.734
  208SOL     OW 1522   4.951   5.251   6.044
  208SOL    HW1 1523   4.894   5.272   5.965
  208SOL    HW2 1524   4.894   5.216   6.118
  209SOL     OW 1525   6.824   5.507   6.017
  209SOL    HW1 1526   6.916   5.487   5.984
  209SOL    HW2 1527   6.829   5.572   6.094
  210SOL     OW 1528   3.968   2.061   1.255
  210SOL    HW1 1529   4.019   2.147   1.246
  210SOL    HW2 1530   4.030   1.984   1.241
  211SOL     OW 1531   0.766   1.432   0.988
  211SOL    HW1 1532   0.858   1.399   1.011
  211SOL    HW2 1533   0.699   1.386   1.047
  212SOL     OW 1534   1.063   5.140   3.592
  212SOL    HW1 1535   1.040   5.133   3.689
  212SOL    HW2 1536   1.158   5.169   3.582
  213SOL     OW 1537   5.272   1.815   0.192
  213SOL    HW1 1538   5.176   1.809   0.218
  213SOL    HW2 1539   5.308   1.905   0.220
  214SOL     OW 1540   0.977   6.296   2.276
  214SOL    HW1 1541   0.958   6.212   2.224
  214SOL    HW2 1542   0.963   6.375   2.217
  215SOL     OW 1543   3.459   3.121   2.307
  215SOL    HW1 1544   3.443   3.032   2.263
  215SOL    HW2 1545   3.372   3.160   2.337
  216SOL     OW 1546   0.889   0.324   5.015
  216SOL    HW1 1547   0.896   0.226   4.993
  216SOL    HW2 1548   0.874   0.375   4.930
  217SOL     OW 1549   1.353   3.182   4.073
  217SOL    HW1 1550   1.293   3.102   4.062
  217SOL    HW2 1551   1.421   3.184   4.000
  218SOL     OW 1552   1.135   3.140   5.549
  218SOL    HW1 1553   1.043   3.163   5.582
  218SOL    HW2 1554   1.136   3.140   5.449
  219SOL     OW 1555   4.490   4.685   0.227
  219SOL    HW1 1556   4.492   4.586   0.244
  219SOL    HW2 1557   4.407   4.724   0.267
  220SOL     OW 1558   2.568   5.079   0.040
  220SOL    HW1 1559   2.561   5.041   6.971
  220SOL    HW2 1560   2.663   5.071   0.071
  221SOL     OW 1561   5.624   3.103   4.151
  221SOL    HW1 1562   5.715   3.129   4.119
  221SOL    HW2 1563   5.632   3.060   4.241
  222SOL     OW 1564   0.956   5.985   5.745
  222SOL    HW1 1565   0.937   5.909   5.683
  222SOL    HW2 1566   0.873   6.040   5.757
  223SOL     OW 1567   0.208   3.576   2.320
  223SOL    HW1 1568   0.250   3.513   2.256
  223SOL    HW2 1569   0.276   3.603   2.389
  224SOL     OW 1570   2.737   2.109   2.065
  224SOL    HW1 1571   2.804   2.184   2.058
  224SOL    HW2 1572   2.652   2.136   2.019
  225SOL     OW 1573   5.815   0.530   0.243
  225SOL    HW1 1574   5.742   0.582   0.198
  225SOL    HW2 1575   5.802   0.533   0.342
  226SOL     OW 1576   1.157   6.017   0.548
  226SOL    HW1 1577   1.146   6.104   0.597
  226SOL    HW2 1578   1.097   6.015   0.469
  227SOL     OW 1579   1.807   3.756   3.987
  227SOL    HW1 1580   1.754   3.812   4.051
  227SOL    HW2 1581   1.778   3.660   3.995
  228SOL     OW 1582   4.124   6.094   3.937
  228SOL    HW1 1583   4.175   6.177   3.916
  228SOL    HW2 1584   4.188   6.019   3.958
  229SOL     OW 1585   5.921   6.044   1.760
  229SOL    HW1 1586   5.996   5.993   1.803
  229SOL    HW2 1587   5.898   6.002   1.672
  230SOL     OW 1588   2.198   4.298   4.892
  230SOL    HW1 1589   2.204   4.269   4.796
  230SOL    HW2 1590   2.217   4.220   4.952
  231SOL     OW 1591   0.223   3.634   6.238
  231SOL    HW1 1592   0.271   3.631   6.326
  231SOL    HW2 1593   0.153   3.563   6.236
  232SOL     OW 1594   1.446   3.652   6.869
  232SOL    HW1 1595   1.370   3.625   6.809
  232SOL    HW2 1596   1.499   3.572   6.894
  233SOL     OW 1597   2.130   1.557   5.641
  233SOL    HW1 1598   2.084   1.541   5.554
  233SOL    HW2 1599   2.063   1.587   5.709
  234SOL     OW 1600   2.676   4.749   6.943
  234SOL    HW1 1601   2.760   4.709   6.979
  234SOL    HW2 1602   2.699   4.815   6.871
  235SOL     OW 1603   2.905   3.416   4.164
  235SOL    HW1 1604   2.836   3.450   4.101
  235SOL    HW2 1605   2.927   3.487   4.231
  236SOL     OW 1606   6.557   2.658   5.417
  236SOL    HW1 1607   6.542   2.673   5.515
  236SOL    HW2 1608   6.487   2.597   5.381
  237SOL     OW 1609   0.364   0.176   1.495
  237SOL    HW1 1610   0.447   0.153   1.546
  237SOL    HW2 1611   0.293   0.108   1.513
  238SOL     OW 1612   5.617   3.388   2.560
  238SOL    HW1 1613   5.619   3.335   2.475
  238SOL    HW2 1614   5.543   3.455   2.556
  239SOL     OW 1615   6.753   6.001   6.898
  239SOL    HW1 1616   6.671   5.965   6.942
  239SOL    HW2 1617   6.727   6.070   6.831
  240SOL     OW 1618   0.470   4.181   5.721
  240SOL    HW1 1619   0.381   4.135   5.711
  240SOL    HW2 1620   0.475   4.223   5.811
  241SOL     OW 1621   0.513   0.703   3.322
  241SOL    HW1 1622   0.484   0.775   3.384
  241SOL    HW2 1623   0.434   0.650   3.292
  242SOL     OW 1624   1.419   3.695   4.696
  242SOL    HW1 1625   1.476   3.727   4.620
  242SOL    HW2 1626   1.477   3.660   4.769
  243SOL     OW 1627   5.732   6.958   5.028
  243SOL    HW1 1628   5.794   6.947   4.950
  243SOL    HW2 1629   5.691   6.869   5.051
  244SOL     OW 1630   5.407   1.957   4.905
  244SOL    HW1 1631   5.478   1.986   4.840
  244SOL    HW2 1632   5.320   1.998   4.879
  245SOL     OW 1633   6.815   2.648   4.150
  245SOL    HW1 1634   6.887   2.613   4.090
  245SOL    HW2 1635   6.757   2.711   4.098
  246SOL     OW 1636   5.037   3.604   3.469
  246SOL    HW1 1637   4.963   3.663   3.500
  246SOL    HW2 1638   5.103   3.656   3.415
  247SOL     OW 1639   1.882   1.673   3.844
  247SOL    HW1 1640   1.952   1.613   3.883
  247SOL    HW2 1641   1.803   1.617   3.817
  248SOL     OW 1642   5.177   1.773   3.901
  248SOL    HW1 1643   5.182   1.851   3.838
  248SOL    HW2 1644   5.268   1.754   3.937
  249SOL     OW 1645   3.538   6.701   4.354
  249SOL    HW1 1646   3.529   6.702   4.255
  249SOL    HW2 1647   3.624   6.744   4.381
  250SOL     OW 1648   5.295   3.421   5.640
  250SOL    HW1 1649   5.246   3.337   5.620
  250SOL    HW2 1650   5.350   3.409   5.722
  251SOL     OW 1651   4.287   2.772   6.592
  251SOL    HW1 1652   4.376   2.765   6.547
  251SOL    HW2 1653   4.258   2.682   6.623
  252SOL     OW 1654   6.648   0.744   5.836
  252SOL    HW1 1655   6.612   0.815   5.775
  252SOL    HW2 1656   6.574   0.682   5.863
  253SOL     OW 1657   2.831   3.032   0.173
  253SOL    HW1 1658   2.871   2.997   0.088
  253SOL    HW2 1659   2.854   3.129   0.183
  254SOL     OW 1660   6.155   3.260   4.862
  254SOL    HW1 1661   6.139   3.328   4.934
  254SOL    HW2 1662   6.067   3.231   4.824
  255SOL     OW 1663   3.051   2.152   3.485
  255SOL    HW1 1664   3.023   2.238   3.442
  255SOL    HW2 1665   3.031   2.155   3.583
  256SOL     OW 1666   5.751   5.097   7.005
  256SOL    HW1 1667   5.786   5.141   6.922
  256SOL    HW2 1668   5.810   5.021   0.006
  257SOL     OW 1669   3.051   5.768   6.357
  257SOL    HW1 1670   2.974   5.761   6.421
  257SOL    HW2 1671   3.037   5.703   6.282
  258SOL     OW 1672   5.690   4.378   4.212
  258SOL    HW1 1673   5.751   4.456   4.225
  258SOL    HW2 1674   5.598   4.401   4.244
  259SOL     OW 1675   1.352   2.403   2.733
  259SOL    HW1 1676   1.324   2.381   2.640
  259SOL    HW2 1677   1.400   2.491   2.733
  260SOL     OW 1678   5.956   0.151   5.871
  260SOL    HW1 1679   5.911   0.234   5.840
  260SOL    HW2 1680   5.906   0.112   5.948
  261SOL     OW 1681   0.990   3.806   2.162
  261SOL    HW1 1682   0.898   3.778   2.188
  261SOL    HW2 1683   0.988   3.847   2.071
  262SOL     OW 1684   0.690   3.858   1.827
  262SOL    HW1 1685   0.645   3.945   1.846
  262SOL    HW2 1686   0.789   3.870   1.833
  263SOL     OW 1687   0.772   1.660   5.212
  263SOL    HW1 1688   0.797   1.621   5.123
  263SOL    HW2 1689   0.847   1.647   5.277
  264SOL     OW 1690   1.944   4.717   6.468
  264SOL    HW1 1691   1.868   4.728   6.404
  264SOL    HW2 1692   1.909   4.716   6.562
  265SOL     OW 1693   5.367   4.479   4.218
  265SOL    HW1 1694   5.336   4.453   4.127
  265SOL    HW2 1695   5.312   4.432   4.287
  266SOL     OW 1696   4.455   1.486   0.544
  266SOL    HW1 1697   4.418   1.401   0.507
  266SOL    HW2 1698   4.470   1.550   0.468
  267SOL     OW 1699   1.575   2.132   6.338
  267SOL    HW1 1700   1.670   2.102   6.330
  267SOL    HW2 1701   1.561   2.215   6.284
  268SOL     OW 1702   3.896   4.903   4.497
  268SOL    HW1 1703   3.983   4.873   4.456
  268SOL    HW2 1704   3.895   4.880   4.594
  269SOL     OW 1705   0.852   2.363   6.190
  269SOL    HW1 1706   0.839   2.362   6.289
  269SOL    HW2 1707   0.859   2.269   6.156
  270SOL     OW 1708   4.942   1.149   2.466
  270SOL    HW1 1709   4.953   1.203   2.382
  270SOL    HW2 1710   5.031   1.114   2.494
  271SOL     OW 1711   1.584   0.545   0.148
  271SOL    HW1 1712   1.545   0.544   0.240
  271SOL    HW2 1713   1.518   0.586   0.085
  272SOL     OW 1714   3.497   5.787   3.446
  272SOL    HW1 1715   3.545   5.719   3.391
  272SOL    HW2 1716   3.539   5.793   3.537
  273SOL     OW 1717   2.571   6.122   5.372
  273SOL    HW1 1718   2.651   6.101   5.429
  273SOL    HW2 1719   2.529   6.207   5.404
  274SOL     OW 1720   6.254   2.780   2.726
  274SOL    HW1 1721   6.159   2.785   2.693
  274SOL    HW2 1722   6.254   2.775   2.825
  275SOL     OW 1723   6.609   6.126   5.485
  275SOL    HW1 1724   6.586   6.051   5.422
  275SOL    HW2 1725   6.696   6.167   5.458
  276SOL     OW 1726   6.548   6.195   3.755
  276SOL    HW1 1727   6.645   6.190   3.732
  276SOL    HW2 1728   6.499   6.242   3.681
  277SOL     OW 1729   4.089   1.733   5.381
  277SOL    HW1 1730   4.139   1.659   5.426
  277SOL    HW2 1731   4.149   1.811   5.367
  278SOL     OW 1732   5.590   3.647   2.924
  278SOL    HW1 1733   5.648   3.584   2.976
  278SOL    HW2 1734   5.522   3.594   2.872
  279SOL     OW 1735   0.355   2.574   3.662
  279SOL    HW1 1736   0.376   2.478   3.680
  279SOL    HW2 1737   0.330   2.585   3.565
  280SOL     OW 1738   3.919   0.345   4.408
  280SOL    HW1 1739   3.962   0.274   4.353
  280SOL    HW2 1740   3.939   0.330   4.504
  281SOL     OW 1741   5.078   6.311   3.765
  281SOL    HW1 1742   5.033   6.252   3.699
  281SOL    HW2 1743   5.102   6.398   3.721
  282SOL     OW 1744   4.367   1.890   0.202
  282SOL    HW1 1745   4.336   1.979   0.238
  282SOL    HW2 1746   4.302   1.819   0.229
  283SOL     OW 1747   6.203   1.228   5.164
  283SOL    HW1 1748   6.148   1.310   5.151
  283SOL    HW2 1749   6.259   1.212   5.083
  284SOL     OW 1750   6.229   5.213   4.483
  284SOL    HW1 1751   6.153   5.275   4.504
  284SOL    HW2 1752   6.254   5.162   4.565
  285SOL     OW 1753   4.353   0.474   6.622
  285SOL    HW1 1754   4.431   0.506   6.676
  285SOL    HW2 1755   4.341   0.532   6.541
  286SOL     OW 1756   3.925   4.903   4.773
  286SOL    HW1 1757   4.016   4.908   4.814
  286SOL    HW2 1758   3.876   4.988   4.791
  287SOL     OW 1759   2.787   6.268   5.520
  287SOL    HW1 1760   2.725   6.343   5.498
  287SOL    HW2 1761   2.878   6.305   5.540
  288SOL     OW 1762   3.427   1.232   0.273
  288SOL    HW1 1763   3.489   1.160   0.241
  288SOL    HW2 1764   3.479   1.316   0.288
  289SOL     OW 1765   0.594   6.518   4.058
  289SOL    HW1 1766   0.649   6.596   4.029
  289SOL    HW2 1767   0.575   6.525   4.156
  290SOL     OW 1768   3.729   0.727   4.356
  290SOL    HW1 1769   3.696   0.633   4.369
  290SOL    HW2 1770   3.800   0.727   4.286
  291SOL     OW 1771   4.283   0.583   4.666
  291SOL    HW1 1772   4.308   0.518   4.594
  291SOL    HW2 1773   4.210   0.643   4.634
  292SOL     OW 1774   3.612   0.023   3.467
  292SOL    HW1 1775   3.542   0.051   3.533
  292SOL    HW2 1776   3.602   0.075   3.383
  293SOL     OW 1777   5.713   6.673   3.284
  293SOL    HW1 1778   5.670   6.749   3.237
  293SOL    HW2 1779   5.809   6.666   3.257
  294SOL     OW 1780   5.748   1.273   5.834
  294SOL    HW1 1781   5.821   1.269   5.765
  294SOL    HW2 1782   5.746   1.364   5.874
  295SOL     OW 1783   1.200   1.784   5.355
  295SOL    HW1 1784   1.251   1.761   5.438
  295SOL    HW2 1785   1.264   1.804   5.281
  296SOL     OW 1786   6.666   1.459   1.526
  296SOL    HW1 1787   6.642   1.362   1.518
  296SOL    HW2 1788   6.764   1.470   1.512
  297SOL     OW 1789   5.646   4.138   3.911
  297SOL    HW1 1790   5.707   4.184   3.846
  297SOL    HW2 1791   5.613   4.053   3.871
  298SOL     OW 1792   3.813   0.895   0.147
  298SOL    HW1 1793   3.762   0.949   0.079
  298SOL    HW2 1794   3.748   0.855   0.212
  299SOL     OW 1795   2.542   1.560   6.816
  299SOL    HW1 1796   2.638   1.531   6.812
  299SOL    HW2 1797   2.509   1.551   6.910
  300SOL     OW 1798   3.902   1.059   3.147
  300SOL    HW1 1799   3.952   1.124   3.204
  300SOL    HW2 1800   3.817   1.032   3.192
  301SOL     OW 1801   6.029   6.045   1.430
  301SOL    HW1 1802   5.979   5.970   1.473
  301SOL    HW2 1803   6.066   6.105   1.501
  302SOL     OW 1804   6.374   6.320   0.961
  302SOL    HW1 1805   6.441   6.388   0.930
  302SOL    HW2 1806   6.283   6.348   0.931
  303SOL     OW 1807   6.136   5.780   2.363
  303SOL    HW1 1808   6.154   5.720   2.442
  303SOL    HW2 1809   6.193   5.751   2.286
  304SOL     OW 1810   1.595   0.144   5.208
  304SOL    HW1 1811   1.591   0.149   5.108
  304SOL    HW2 1812   1.545   0.063   5.239
  305SOL     OW 1813   1.683   2.551   2.521
  305SOL    HW1 1814   1.754   2.592   2.463
  305SOL    HW2 1815   1.726   2.507   2.600
  306SOL     OW 1816   6.255   0.899   3.280
  306SOL    HW1 1817   6.175   0.893   3.221
  306SOL    HW2 1818   6.254   0.986   3.329
  307SOL     OW 1819   3.217   3.267   2.269
  307SOL    HW1 1820   3.196   3.284   2.172
  307SOL    HW2 1821   3.132   3.259   2.320
  308SOL     OW 1822   5.477   1.423   4.040
  308SOL    HW1 1823   5.551   1.471   3.993
  308SOL    HW2 1824   5.506   1.399   4.133
  309SOL     OW 1825   0.939   6.426   6.359
  309SOL    HW1 1826   0.844   6.401   6.377
  309SOL    HW2 1827   0.972   6.377   6.279
  310SOL     OW 1828   5.252   5.539   5.062
  310SOL    HW1 1829   5.153   5.529   5.071
  310SOL    HW2 1830   5.275   5.636   5.056
  311SOL     OW 1831   1.847   5.482   2.930
  311SOL    HW1 1832   1.936   5.472   2.975
  311SOL    HW2 1833   1.856   5.457   2.834
  312SOL     OW 1834   4.712   2.415   3.320
  312SOL    HW1 1835   4.746   2.380   3.234
  312SOL    HW2 1836   4.645   2.351   3.358
  313SOL     OW 1837   3.674   3.422   3.122
  313SOL    HW1 1838   3.750   3.364   3.150
  313SOL    HW2 1839   3.647   3.400   3.028
  314SOL     OW 1840   2.087   6.712   5.171
  314SOL    HW1 1841   2.003   6.723   5.118
  314SOL    HW2 1842   2.068   6.727   5.268
  315SOL     OW 1843   6.445   1.283   3.855
  315SOL    HW1 1844   6.427   1.185   3.866
  315SOL    HW2 1845   6.527   1.307   3.907
  316SOL     OW 1846   3.822   1.494   5.155
  316SOL    HW1 1847   3.736   1.542   5.169
  316SOL    HW2 1848   3.828   1.463   5.060
  317SOL     OW 1849   1.258   1.492   1.763
  317SOL    HW1 1850   1.243   1.565   1.697
  317SOL    HW2 1851   1.356   1.486   1.784
  318SOL     OW 1852   0.043   0.731   5.329
  318SOL    HW1 1853   0.131   0.738   5.376
  318SOL    HW2 1854   0.042   0.650   5.271
  319SOL     OW 1855   1.066   2.244   2.236
  319SOL    HW1 1856   1.081   2.211   2.143
  319SOL    HW2 1857   1.151   2.281   2.273
  320SOL     OW 1858   5.987   2.331   6.822
  320SOL    HW1 1859   6.017   2.359   6.913
  320SOL    HW2 1860   5.892   2.300   6.827
  321SOL     OW 1861   4.103   3.205   0.654
  321SOL    HW1 1862   4.138   3.130   0.598
  321SOL    HW2 1863   4.047   3.265   0.597
  322SOL     OW 1864   4.401   3.105   6.666
  322SOL    HW1 1865   4.484   3.126   6.718
  322SOL    HW2 1866   4.358   3.023   6.703
  323SOL     OW 1867   0.622   3.250   3.684
  323SOL    HW1 1868   0.619   3.244   3.784
  323SOL    HW2 1869   0.712   3.282   3.655
  324SOL     OW 1870   1.437   0.236   2.992
  324SOL    HW1 1871   1.349   0.274   3.020
  324SOL    HW2 1872   1.434   0.213   2.895
  325SOL     OW 1873   0.888   3.450   2.599
  325SOL    HW1 1874   0.809   3.391   2.615
  325SOL    HW2 1875   0.874   3.539   2.642
  326SOL     OW 1876   2.104   6.290   6.376
  326SOL    HW1 1877   2.131   6.242   6.293
  326SOL    HW2 1878   2.123   6.234   6.456
  327SOL     OW 1879   4.003   5.345   3.698
  327SOL    HW1 1880   3.981   5.386   3.786
  327SOL    HW2 1881   4.025   5.417   3.632
  328SOL     OW 1882   2.463   4.561   2.208
  328SOL    HW1 1883   2.402   4.498   2.256
  328SOL    HW2 1884   2.418   4.650   2.199
  329SOL     OW 1885   3.085   3.973   1.644
  329SOL    HW1 1886   3.022   4.047   1.618
  329SOL    HW2 1887   3.153   3.961   1.572
  330SOL     OW 1888   4.170   4.914   0.124
  330SOL    HW1 1889   4.161   4.838   0.188
  330SOL    HW2 1890   4.234   4.888   0.051
  331SOL     OW 1891   4.583   5.458   0.370
  331SOL    HW1 1892   4.675   5.428   0.394
  331SOL    HW2 1893   4.587   5.548   0.326
  332SOL     OW 1894   5.265   2.117   2.836
  332SOL    HW1 1895   5.314   2.087   2.754
  332SOL    HW2 1896   5.303   2.204   2.867
  333SOL     OW 1897   3.620   1.074   5.459
  333SOL    HW1 1898   3.670   0.990   5.480
  333SOL    HW2 1899   3.548   1.054   5.393
  334SOL     OW 1900   4.001   3.786   3.084
  334SOL    HW1 1901   4.033   3.866   3.135
  334SOL    HW2 1902   3.987   3.710   3.147
  335SOL     OW 1903   3.832   0.212   6.628
  335SOL    HW1 1904   3.912   0.154   6.612
  335SOL    HW2 1905   3.777   0.216   6.544
  336SOL     OW 1906   2.359   1.681   3.379
  336SOL    HW1 1907   2.296   1.688   3.457
  336SOL    HW2 1908   2.316   1.719   3.297
  337SOL     OW 1909   1.490   1.831   5.866
  337SOL    HW1 1910   1.454   1.917   5.903
  337SOL    HW2 1911   1.449   1.754   5.916
  338SOL     OW 1912   4.539   2.581   1.235
  338SOL    HW1 1913   4.495   2.493   1.247
  338SOL    HW2 1914   4.476   2.654   1.261
  339SOL     OW 1915   3.991   5.166   4.564
  339SOL    HW1 1916   3.958   5.074   4.543
  339SOL    HW2 1917   3.959   5.194   4.654
  340SOL     OW 1918   4.644   2.197   4.421
  340SOL    HW1 1919   4.607   2.145   4.344
  340SOL    HW2 1920   4.739   2.169   4.438
  341SOL     OW 1921   5.855   6.410   3.540
  341SOL    HW1 1922   5.870   6.315   3.511
  341SOL    HW2 1923   5.776   6.447   3.492
  342SOL     OW 1924   4.669   2.950   0.926
  342SOL    HW1 1925   4.609   3.029   0.938
  342SOL    HW2 1926   4.721   2.935   1.010
  343SOL     OW 1927   1.381   5.370   3.267
  343SOL    HW1 1928   1.299   5.393   3.320
  343SOL    HW2 1929   1.454   5.434   3.288
  344SOL     OW 1930   1.902   1.175   1.627
  344SOL    HW1 1931   1.937   1.263   1.658
  344SOL    HW2 1932   1.871   1.183   1.532
  345SOL     OW 1933   6.139   2.383   4.175
  345SOL    HW1 1934   6.093   2.439   4.244
  345SOL    HW2 1935   6.119   2.420   4.084
  346SOL     OW 1936   1.606   0.389   2.688
  346SOL    HW1 1937   1.605   0.478   2.643
  346SOL    HW2 1938   1.535   0.331   2.648
  347SOL     OW 1939   2.862   5.357   0.490
  347SOL    HW1 1940   2.795   5.366   0.417
  347SOL    HW2 1941   2.942   5.414   0.469
  348SOL     OW 1942   5.015   5.582   2.096
  348SOL    HW1 1943   5.061   5.581   2.184
  348SOL    HW2 1944   4.991   5.489   2.069
  349SOL     OW 1945   7.002   3.832   1.221
  349SOL    HW1 1946   6.991   3.845   1.319
  349SOL    HW2 1947   6.952   3.904   1.172
  350SOL     OW 1948   3.714   3.012   6.959
  350SOL    HW1 1949   3.723   3.112   6.957
  350SOL    HW2 1950   3.662   2.986   0.016
  351SOL     OW 1951   3.614   4.413   0.483
  351SOL    HW1 1952   3.669   4.403   0.400
  351SOL    HW2 1953   3.658   4.478   0.545
  352SOL     OW 1954   4.400   5.693   3.325
  352SOL    HW1 1955   4.477   5.749   3.294
  352SOL    HW2 1956   4.338   5.677   3.247
  353SOL     OW 1957   2.572   6.898   6.336
  353SOL    HW1 1958   2.498   6.832   6.327
  353SOL    HW2 1959   2.569   6.940   6.427
  354SOL     OW 1960   5.785   2.707   0.849
  354SOL    HW1 1961   5.791   2.800   0.813
  354SOL    HW2 1962   5.867   2.655   0.823
  355SOL     OW 1963   1.991   2.880   2.524
  355SOL    HW1 1964   2.018   2.789   2.494
  355SOL    HW2 1965   1.930   2.873   2.603
  356SOL     OW 1966   1.632   0.420   5.632
  356SOL    HW1 1967   1.619   0.497   5.569
  356SOL    HW2 1968   1.551   0.409   5.689
  357SOL     OW 1969   5.609   7.000   4.727
  357SOL    HW1 1970   5.648   0.024   4.649
  357SOL    HW2 1971   5.683   6.964   4.784
  358SOL     OW 1972   5.169   5.814   0.616
  358SOL    HW1 1973   5.090   5.805   0.676
  358SOL    HW2 1974   5.139   5.810   0.521
  359SOL     OW 1975   3.270   1.855   2.213
  359SOL    HW1 1976   3.318   1.935   2.175
  359SOL    HW2 1977   3.338   1.789   2.245
  360SOL     OW 1978   0.749   5.233   4.202
  360SOL    HW1 1979   0.695   5.190   4.129
  360SOL    HW2 1980   0.751   5.171   4.281
  361SOL     OW 1981   6.580   5.935   3.285
  361SOL    HW1 1982   6.627   5.853   3.255
  361SOL    HW2 1983   6.485   5.914   3.307
  362SOL     OW 1984   4.054   4.282   0.686
  362SOL    HW1 1985   4.069   4.217   0.760
  362SOL    HW2 1986   3.983   4.247   0.625
  363SOL     OW 1987   6.196   4.876   2.588
  363SOL    HW1 1988   6.154   4.885   2.498
  363SOL    HW2 1989   6.193   4.965   2.634
  364SOL     OW 1990   0.782   5.443   6.556
  364SOL    HW1 1991   0.803   5.346   6.555
  364SOL    HW2 1992   0.686   5.458   6.531
  365SOL     OW 1993   3.262   0.931   2.214
  365SOL    HW1 1994   3.276   0.877   2.297
  365SOL    HW2 1995   3.193   1.001   2.231
  366SOL     OW 1996   5.869   3.446   0.349
  366SOL    HW1 1997   5.839   3.408   0.437
  366SOL    HW2 1998   5.789   3.481   0.300
  367SOL     OW 1999   4.773   1.896   5.592
  367SOL    HW1 2000   4.832   1.975   5.577
  367SOL    HW2 2001   4.701   1.894   5.523
  368SOL     OW 2002   6.373   2.351   6.040
  368SOL    HW1 2003   6.424   2.305   6.112
  368SOL    HW2 2004   6.430   2.357   5.957
  369SOL     OW 2005   5.895   3.932   3.061
  369SOL    HW1 2006   5.857   4.025   3.066
  369SOL    HW2 2007   5.826   3.866   3.093
  370SOL     OW 2008   1.933   2.472   4.107
  370SOL    HW1 2009   1.858   2.492   4.045
  370SOL    HW2 2010   1.897   2.431   4.191
  371SOL     OW 2011   1.945   3.971   6.940
  371SOL    HW1 2012   1.873   3.910   6.975
  371SOL    HW2 2013   1.981   3.933   6.855
  372SOL     OW 2014   2.334   6.815   5.089
  372SOL    HW1 2015   2.240   6.785   5.108
  372SOL    HW2 2016   2.398   6.753   5.133
  373SOL     OW 2017   5.878   6.920   4.790
  373SOL    HW1 2018   5.876   6.858   4.713
  373SOL    HW2 2019   5.923   7.006   4.763
  374SOL     OW 2020   2.724   1.817   2.312
  374SOL    HW1 2021   2.629   1.805   2.285
  374SOL    HW2 2022   2.779   1.741   2.278
  375SOL     OW 2023   0.554   5.550   5.189
  375SOL    HW1 2024   0.621   5.496   5.139
  375SOL    HW2 2025   0.461   5.521   5.165
  376SOL     OW 2026   2.948   1.260   4.115
  376SOL    HW1 2027   2.992   1.325   4.177
  376SOL    HW2 2028   2.869   1.219   4.161
  377SOL     OW 2029   1.515   2.272   6.948
  377SOL    HW1 2030   1.423   2.254   6.913
  377SOL    HW2 2031   1.565   2.330   6.884
  378SOL     OW 2032   2.787   1.496   6.958
  378SOL    HW1 2033   2.819   1.489   6.863
  378SOL    HW2 2034   2.863   1.524   7.016
  379SOL     OW 2035   5.728   2.359   6.403
  379SOL    HW1 2036   5.690   2.314   6.484
  379SOL    HW2 2037   5.717   2.458   6.411
  380SOL     OW 2038   3.332   1.273   1.246
  380SOL    HW1 2039   3.253   1.254   1.305
  380SOL    HW2 2040   3.347   1.371   1.242
  381SOL     OW 2041   1.132   4.963   4.335
  381SOL    HW1 2042   1.041   4.933   4.306
  381SOL    HW2 2043   1.184   4.883   4.367
  382SOL     OW 2044   6.076   0.530   0.176
  382SOL    HW1 2045   6.097   0.574   0.089
  382SOL    HW2 2046   5.976   0.526   0.189
  383SOL     OW 2047   3.875   3.050   0.963
  383SOL    HW1 2048   3.803   3.098   0.913
  383SOL    HW2 2049   3.866   3.070   1.060
  384SOL     OW 2050   0.054   3.908   4.387
  384SOL    HW1 2051   0.029   3.833   4.448
  384SOL    HW2 2052   7.008   3.918   4.316
  385SOL     OW 2053   4.018   5.181   6.050
  385SOL    HW1 2054   4.081   5.223   5.984
  385SOL    HW2 2055   4.070   5.122   6.112
  386SOL     OW 2056   4.658   0.207   4.118
  386SOL    HW1 2057   4.686   0.281   4.179
  386SOL    HW2 2058   4.574   0.165   4.153
  387SOL     OW 2059   2.136   5.138   2.917
  387SOL    HW1 2060   2.190   5.192   2.982
  387SOL    HW2 2061   2.064   5.089   2.967
  388SOL     OW 2062   2.344   2.304   6.585
  388SOL    HW1 2063   2.397   2.385   6.610
  388SOL    HW2 2064   2.265   2.297   6.646
  389SOL     OW 2065   3.653   4.079   2.765
  389SOL    HW1 2066   3.577   4.014   2.762
  389SOL    HW2 2067   3.718   4.053   2.836
  390SOL     OW 2068   2.426   1.001   3.693
  390SOL    HW1 2069   2.493   0.940   3.651
  390SOL    HW2 2070   2.462   1.034   3.781
  391SOL     OW 2071   1.838   2.837   0.309
  391SOL    HW1 2072   1.745   2.842   0.345
  391SOL    HW2 2073   1.839   2.781   0.226
  392SOL     OW 2074   2.107   5.043   1.606
  392SOL    HW1 2075   2.153   5.131   1.591
  392SOL    HW2 2076   2.174   4.969   1.599
  393SOL     OW 2077   6.238   4.647   5.508
  393SOL    HW1 2078   6.234   4.744   5.528
  393SOL    HW2 2079   6.239   4.633   5.409
  394SOL     OW 2080   0.568   6.999   0.420
  394SOL    HW1 2081   0.540   0.049   0.481
  394SOL    HW2 2082   0.595   0.013   0.331
  395SOL     OW 2083   5.016   3.717   2.262
  395SOL    HW1 2084   4.962   3.762   2.191
  395SOL    HW2 2085   4.989   3.620   2.267
  396SOL     OW 2086   3.681   3.650   2.773
  396SOL    HW1 2087   3.681   3.563   2.822
  396SOL    HW2 2088   3.749   3.646   2.699
  397SOL     OW 2089   4.155   2.706   5.569
  397SOL    HW1 2090   4.083   2.683   5.503
  397SOL    HW2 2091   4.206   2.623   5.592
  398SOL     OW 2092   1.013   5.630   2.254
  398SOL    HW1 2093   0.985   5.690   2.330
  398SOL    HW2 2094   1.104   5.593   2.273
  399SOL     OW 2095   4.891   5.745   2.398
  399SOL    HW1 2096   4.942   5.819   2.441
  399SOL    HW2 2097   4.954   5.674   2.368
  400SOL     OW 2098   7.003   0.557   5.592
  400SOL    HW1 2099   7.008   0.607   5.506
  400SOL    HW2 2100   6.908   0.536   5.614
  401SOL     OW 2101   4.911   0.931   6.359
  401SOL    HW1 2102   4.823   0.932   6.312
  401SOL    HW2 2103   4.980   0.890   6.298
  402SOL     OW 2104   6.173   6.495   3.301
  402SOL    HW1 2105   6.258   6.540   3.325
  402SOL    HW2 2106   6.111   6.560   3.256
  403SOL     OW 2107   4.826   2.434   5.836
  403SOL    HW1 2108   4.764   2.448   5.913
  403SOL    HW2 2109   4.883   2.353   5.855
  404SOL     OW 2110   1.594   6.990   3.313
  404SOL    HW1 2111   1.515   6.929   3.307
  404SOL    HW2 2112   1.621   7.019   3.221
  405SOL     OW 2113   1.822   2.050   1.206
  405SOL    HW1 2114   1.897   2.069   1.270
  405SOL    HW2 2115   1.858   2.020   1.118
  406SOL     OW 2116   1.372   2.786   4.230
  406SOL    HW1 2117   1.295   2.791   4.294
  406SOL    HW2 2118   1.441   2.855   4.255
  407SOL     OW 2119   2.557   6.914   4.237
  407SOL    HW1 2120   2.623   6.869   4.177
  407SOL    HW2 2121   2.599   6.996   4.276
  408SOL     OW 2122   1.705   0.772   3.410
  408SOL    HW1 2123   1.785   0.825   3.383
  408SOL    HW2 2124   1.679   0.711   3.336
  409SOL     OW 2125   5.668   3.234   2.961
  409SOL    HW1 2126   5.683   3.313   3.021
  409SOL    HW2 2127   5.633   3.157   3.014
  410SOL     OW 2128   2.432   0.158   0.304
  410SOL    HW1 2129   2.420   0.248   0.261
  410SOL    HW2 2130   2.516   0.157   0.358
  411SOL     OW 2131   5.865   5.988   6.773
  411SOL    HW1 2132   5.856   5.921   6.699
  411SOL    HW2 2133   5.940   5.961   6.833
  412SOL     OW 2134   4.082   6.720   2.575
  412SOL    HW1 2135   4.143   6.700   2.499
  412SOL    HW2 2136   4.039   6.636   2.608
  413SOL     OW 2137   3.965   4.539   0.810
  413SOL    HW1 2138   3.966   4.442   0.786
  413SOL    HW2 2139   3.889   4.584   0.763
  414SOL     OW 2140   4.453   5.298   2.299
  414SOL    HW1 2141   4.526   5.322   2.363
  414SOL    HW2 2142   4.367   5.341   2.329
  415SOL     OW 2143   1.717   5.726   0.351
  415SOL    HW1 2144   1.639   5.674   0.317
  415SOL    HW2 2145   1.691   5.822   0.361
  416SOL     OW 2146   4.516   5.595   4.836
  416SOL    HW1 2147   4.510   5.581   4.935
  416SOL    HW2 2148   4.505   5.508   4.789
  417SOL     OW 2149   3.019   6.628   1.212
  417SOL    HW1 2150   3.107   6.672   1.231
  417SOL    HW2 2151   3.009   6.548   1.271
  418SOL     OW 2152   4.759   6.094   0.274
  418SOL    HW1 2153   4.741   6.022   0.207
  418SOL    HW2 2154   4.796   6.175   0.228
  419SOL     OW 2155   1.033   0.474   1.530
  419SOL    HW1 2156   1.020   0.378   1.506
  419SOL    HW2 2157   1.075   0.481   1.621
  420SOL     OW 2158   6.292   3.779   1.136
  420SOL    HW1 2159   6.339   3.707   1.187
  420SOL    HW2 2160   6.205   3.743   1.100
  421SOL     OW 2161   0.520   5.210   6.266
  421SOL    HW1 2162   0.524   5.113   6.239
  421SOL    HW2 2163   0.569   5.222   6.352
  422SOL     OW 2164   6.538   5.767   0.744
  422SOL    HW1 2165   6.530   5.815   0.657
  422SOL    HW2 2166   6.587   5.681   0.731
  423SOL     OW 2167   6.207   3.383   0.029
  423SOL    HW1 2168   6.257   3.359   6.970
  423SOL    HW2 2169   6.257   3.348   0.109
  424SOL     OW 2170   3.128   3.309   0.383
  424SOL    HW1 2171   3.037   3.348   0.396
  424SOL    HW2 2172   3.127   3.246   0.306
  425SOL     OW 2173   5.246   1.121   1.794
  425SOL    HW1 2174   5.158   1.102   1.751
  425SOL    HW2 2175   5.249   1.218   1.821
  426SOL     OW 2176   5.610   2.376   5.341
  426SOL    HW1 2177   5.590   2.471   5.363
  426SOL    HW2 2178   5.708   2.366   5.324
  427SOL     OW 2179   5.630   5.072   2.839
  427SOL    HW1 2180   5.610   5.133   2.762
  427SOL    HW2 2181   5.552   5.011   2.853
  428SOL     OW 2182   4.415   0.245   5.200
  428SOL    HW1 2183   4.347   0.316   5.215
  428SOL    HW2 2184   4.369   0.159   5.178
  429SOL     OW 2185   2.832   5.354   0.761
  429SOL    HW1 2186   2.846   5.380   0.666
  429SOL    HW2 2187   2.879   5.268   0.779
  430SOL     OW 2188   0.834   6.861   4.181
  430SOL    HW1 2189   0.813   6.781   4.237
  430SOL    HW2 2190   0.929   6.856   4.150
  431SOL     OW 2191   2.935   1.278   0.248
  431SOL    HW1 2192   2.926   1.184   0.217
  431SOL    HW2 2193   2.912   1.283   0.345
  432SOL     OW 2194   6.590   2.716   0.883
  432SOL    HW1 2195   6.603   2.743   0.788
  432SOL    HW2 2196   6.678   2.687   0.921
  433SOL     OW 2197   2.449   0.264   3.883
  433SOL    HW1 2198   2.510   0.218   3.819
  433SOL    HW2 2199   2.405   0.341   3.838
  434SOL     OW 2200   4.907   5.055   1.449
  434SOL    HW1 2201   4.833   5.050   1.382
  434SOL    HW2 2202   4.983   4.997   1.420
  435SOL     OW 2203   3.747   2.705   5.421
  435SOL    HW1 2204   3.737   2.800   5.448
  435SOL    HW2 2205   3.843   2.678   5.429
  436SOL     OW 2206   2.139   6.731   0.870
  436SOL    HW1 2207   2.210   6.800   0.878
  436SOL    HW2 2208   2.070   6.761   0.803
  437SOL     OW 2209   0.319   0.228   6.358
  437SOL    HW1 2210   0.385   0.273   6.418
  437SOL    HW2 2211   0.335   0.258   6.263
  438SOL     OW 2212   1.650   3.191   2.468
  438SOL    HW1 2213   1.722   3.154   2.408
  438SOL    HW2 2214   1.568   3.209   2.414
  439SOL     OW 2215   5.746   4.193   3.616
  439SOL    HW1 2216   5.797   4.107   3.617
  439SOL    HW2 2217   5.806   4.267   3.586
  440SOL     OW 2218   1.179   1.936   4.804
  440SOL    HW1 2219   1.126   1.940   4.889
  440SOL    HW2 2220   1.192   2.029   4.769
  441SOL     OW 2221   0.362   1.732   3.046
  441SOL    HW1 2222   0.389   1.659   2.984
  441SOL    HW2 2223   0.443   1.783   3.076
  442SOL     OW 2224   1.717   4.585   0.132
  442SOL    HW1 2225   1.789   4.522   0.102
  442SOL    HW2 2226   1.631   4.535   0.141
  443SOL     OW 2227   1.135   4.037   4.947
  443SOL    HW1 2228   1.189   4.108   4.903
  443SOL    HW2 2229   1.195   3.973   4.995
  444SOL     OW 2230   4.967   2.231   5.933
  444SOL    HW1 2231   4.973   2.131   5.933
  444SOL    HW2 2232   4.941   2.263   6.024
  445SOL     OW 2233   1.863   5.719   3.104
  445SOL    HW1 2234   1.838   5.628   3.071
  445SOL    HW2 2235   1.902   5.711   3.196
  446SOL     OW 2236   3.985   4.802   3.365
  446SOL    HW1 2237   4.049   4.726   3.376
  446SOL    HW2 2238   4.005   4.850   3.280
  447SOL     OW 2239   0.355   3.502   6.854
  447SOL    HW1 2240   0.339   3.439   6.779
  447SOL    HW2 2241   0.268   3.522   6.900
  448SOL     OW 2242   3.497   0.496   4.893
  448SOL    HW1 2243   3.470   0.541   4.978
  448SOL    HW2 2244   3.417   0.450   4.853
  449SOL     OW 2245   4.602   0.781   5.589
  449SOL    HW1 2246   4.600   0.683   5.572
  449SOL    HW2 2247   4.696   0.814   5.583
  450SOL     OW 2248   1.034   5.898   2.851
  450SOL    HW1 2249   1.123   5.855   2.868
  450SOL    HW2 2250   0.964   5.828   2.845
  451SOL     OW 2251   1.025   2.195   2.540
  451SOL    HW1 2252   0.932   2.230   2.549
  451SOL    HW2 2253   1.056   2.209   2.446
  452SOL     OW 2254   6.261   5.719   0.668
  452SOL    HW1 2255   6.344   5.694   0.717
  452SOL    HW2 2256   6.278   5.721   0.570
  453SOL     OW 2257   2.979   0.096   5.421
  453SOL    HW1 2258   3.003   0.043   5.340
  453SOL    HW2 2259   2.992   0.040   5.503
  454SOL     OW 2260   0.293   5.500   5.903
  454SOL    HW1 2261   0.371   5.558   5.880
  454SOL    HW2 2262   0.291   5.484   6.002
  455SOL     OW 2263   6.419   0.554   4.126
  455SOL    HW1 2264   6.377   0.466   4.103
  455SOL    HW2 2265   6.469   0.588   4.046
  456SOL     OW 2266   4.547   6.044   4.839
  456SOL    HW1 2267   4.603   5.996   4.906
  456SOL    HW2 2268   4.463   5.992   4.822
  457SOL     OW 2269   2.117   3.613   3.539
  457SOL    HW1 2270   2.129   3.676   3.463
  457SOL    HW2 2271   2.095   3.664   3.622
  458SOL     OW 2272   4.740   5.760   4.855
  458SOL    HW1 2273   4.666   5.693   4.844
  458SOL    HW2 2274   4.755   5.809   4.769
  459SOL     OW 2275   1.350   0.279   3.928
  459SOL    HW1 2276   1.303   0.268   3.840
  459SOL    HW2 2277   1.345   0.194   3.980
  460SOL     OW 2278   0.634   0.812   2.178
  460SOL    HW1 2279   0.569   0.828   2.103
  460SOL    HW2 2280   0.651   0.898   2.226
  461SOL     OW 2281   5.909   6.515   4.620
  461SOL    HW1 2282   5.841   6.465   4.566
  461SOL    HW2 2283   5.903   6.613   4.599
  462SOL     OW 2284   4.203   2.160   5.675
  462SOL    HW1 2285   4.283   2.110   5.707
  462SOL    HW2 2286   4.129   2.096   5.654
  463SOL     OW 2287   6.116   6.290   2.827
  463SOL    HW1 2288   6.102   6.194   2.804
  463SOL    HW2 2289   6.138   6.297   2.924
  464SOL     OW 2290   2.712   2.039   6.151
  464SOL    HW1 2291   2.767   2.098   6.092
  464SOL    HW2 2292   2.767   2.010   6.229
  465SOL     OW 2293   1.361   2.088   3.967
  465SOL    HW1 2294   1.405   2.021   4.027
  465SOL    HW2 2295   1.406   2.176   3.977
  466SOL     OW 2296   0.853   5.679   3.097
  466SOL    HW1 2297   0.893   5.658   3.186
  466SOL    HW2 2298   0.821   5.595   3.054
  467SOL     OW 2299   1.332   0.523   6.348
  467SOL    HW1 2300   1.308   0.464   6.425
  467SOL    HW2 2301   1.313   0.475   6.263
  468SOL     OW 2302   3.085   6.203   0.228
  468SOL    HW1 2303   3.153   6.241   0.291
  468SOL    HW2 2304   2.994   6.229   0.258
  469SOL     OW 2305   2.593   4.430   1.023
  469SOL    HW1 2306   2.659   4.414   1.096
  469SOL    HW2 2307   2.506   4.459   1.063
  470SOL     OW 2308   3.417   0.547   2.591
  470SOL    HW1 2309   3.337   0.557   2.650
  470SOL    HW2 2310   3.493   0.508   2.643
  471SOL     OW 2311   1.634   2.269   4.713
  471SOL    HW1 2312   1.683   2.197   4.663
  471SOL    HW2 2313   1.686   2.292   4.796
  472SOL     OW 2314   5.299   3.820   6.919
  472SOL    HW1 2315   5.379   3.876   6.939
  472SOL    HW2 2316   5.325   3.746   6.857
  473SOL     OW 2317   0.264   3.205   1.498
  473SOL    HW1 2318   0.186   3.206   1.560
  473SOL    HW2 2319   0.274   3.294   1.454
  474SOL     OW 2320   4.495   4.939   3.911
  474SOL    HW1 2321   4.428   5.010   3.887
  474SOL    HW2 2322   4.524   4.890   3.829
  475SOL     OW 2323   6.169   0.878   6.683
  475SOL    HW1 2324   6.071   0.861   6.675
  475SOL    HW2 2325   6.217   0.831   6.608
  476SOL     OW 2326   0.595   4.260   2.300
  476SOL    HW1 2327   0.686   4.236   2.269
  476SOL    HW2 2328   0.592   4.259   2.400
  477SOL     OW 2329   1.888   4.562   5.202
  477SOL    HW1 2330   1.974   4.514   5.221
  477SOL    HW2 2331   1.899   4.659   5.224
  478SOL     OW 2332   3.398   6.644   2.413
  478SOL    HW1 2333   3.354   6.561   2.378
  478SOL    HW2 2334   3.331   6.718   2.417
  479SOL     OW 2335   4.568   2.190   0.112
  479SOL    HW1 2336   4.472   2.164   0.121
  479SOL    HW2 2337   4.608   2.145   0.032
  480SOL     OW 2338   2.428   0.775   0.425
  480SOL    HW1 2339   2.346   0.804   0.374
  480SOL    HW2 2340   2.498   0.748   0.360
  481SOL     OW 2341   1.710   6.763   0.081
  481SOL    HW1 2342   1.661   6.768   7.018
  481SOL    HW2 2343   1.710   6.854   0.124
  482SOL     OW 2344   4.354   5.005   2.745
  482SOL    HW1 2345   4.277   5.048   2.792
  482SOL    HW2 2346   4.354   5.033   2.649
  483SOL     OW 2347   6.525   2.257   1.710
  483SOL    HW1 2348   6.518   2.343   1.659
  483SOL    HW2 2349   6.597   2.200   1.669
  484SOL     OW 2350   0.964   3.104   5.180
  484SOL    HW1 2351   0.901   3.058   5.117
  484SOL    HW2 2352   1.050   3.054   5.183
  485SOL     OW 2353   4.283   5.953   1.775
  485SOL    HW1 2354   4.325   5.862   1.780
  485SOL    HW2 2355   4.348   6.017   1.733
  486SOL     OW 2356   0.106   1.679   1.062
  486SOL    HW1 2357   0.046   1.605   1.091
  486SOL    HW2 2358   0.178   1.643   1.003
  487SOL     OW 2359   0.510   2.131   0.725
  487SOL    HW1 2360   0.541   2.082   0.807
  487SOL    HW2 2361   0.566   2.105   0.647
  488SOL     OW 2362   0.407   1.372   1.606
  488SOL    HW1 2363   0.439   1.419   1.689
  488SOL    HW2 2364   0.310   1.351   1.616
  489SOL     OW 2365   3.855   6.114   6.470
  489SOL    HW1 2366   3.952   6.135   6.468
  489SOL    HW2 2367   3.809   6.174   6.536
  490SOL     OW 2368   6.788   6.324   3.466
  490SOL    HW1 2369   6.714   6.274   3.422
  490SOL    HW2 2370   6.860   6.260   3.493
  491SOL     OW 2371   0.190   2.872   2.717
  491SOL    HW1 2372   0.272   2.837   2.763
  491SOL    HW2 2373   0.113   2.811   2.735
  492SOL     OW 2374   2.937   0.428   4.996
  492SOL    HW1 2375   2.887   0.344   5.019
  492SOL    HW2 2376   2.907   0.461   4.907
  493SOL     OW 2377   5.423   6.006   5.487
  493SOL    HW1 2378   5.439   6.102   5.462
  493SOL    HW2 2379   5.510   5.965   5.515
  494SOL     OW 2380   0.600   0.196   6.730
  494SOL    HW1 2381   0.539   0.191   6.809
  494SOL    HW2 2382   0.694   0.178   6.760
  495SOL     OW 2383   5.114   6.154   2.809
  495SOL    HW1 2384   5.143   6.070   2.764
  495SOL    HW2 2385   5.143   6.153   2.904
  496SOL     OW 2386   5.345   3.544   2.811
  496SOL    HW1 2387   5.380   3.470   2.753
  496SOL    HW2 2388   5.265   3.585   2.768
  497SOL     OW 2389   3.124   1.515   5.636
  497SOL    HW1 2390   3.206   1.491   5.688
  497SOL    HW2 2391   3.059   1.562   5.696
  498SOL     OW 2392   1.348   3.739   1.856
  498SOL    HW1 2393   1.260   3.696   1.837
  498SOL    HW2 2394   1.391   3.766   1.770
  499SOL     OW 2395   2.965   0.190   4.279
  499SOL    HW1 2396   3.046   0.195   4.338
  499SOL    HW2 2397   2.940   0.095   4.264
  500SOL     OW 2398   1.169   3.341   2.595
  500SOL    HW1 2399   1.087   3.396   2.579
  500SOL    HW2 2400   1.236   3.394   2.647
  501SOL     OW 2401   3.108   0.167   0.434
  501SOL    HW1 2402   3.084   0.131   0.525
  501SOL    HW2 2403   3.040   0.236   0.407
  502SOL     OW 2404   6.476   4.776   6.226
  502SOL    HW1 2405   6.563   4.794   6.272
  502SOL    HW2 2406   6.420   4.859   6.228
  503SOL     OW 2407   5.668   5.759   5.854
  503SOL    HW1 2408   5.664   5.859   5.845
  503SOL    HW2 2409   5.659   5.735   5.951
  504SOL     OW 2410   2.521   5.785   2.972
  504SOL    HW1 2411   2.485   5.727   3.045
  504SOL    HW2 2412   2.486   5.879   2.983
  505SOL     OW 2413   3.393   6.692   5.618
  505SOL    HW1 2414   3.396   6.685   5.518
  505SOL    HW2 2415   3.384   6.601   5.657
  506SOL     OW 2416   1.379   5.363   4.715
  506SOL    HW1 2417   1.373   5.343   4.618
  506SOL    HW2 2418   1.448   5.433   4.731
  507SOL     OW 2419   3.662   0.977   4.288
  507SOL    HW1 2420   3.749   0.995   4.242
  507SOL    HW2 2421   3.663   0.884   4.326
  508SOL     OW 2422   6.502   3.822   2.887
  508SOL    HW1 2423   6.472   3.917   2.878
  508SOL    HW2 2424   6.487   3.792   2.982
  509SOL     OW 2425   2.909   1.045   0.760
  509SOL    HW1 2426   2.951   0.956   0.740
  509SOL    HW2 2427   2.841   1.034   0.832
  510SOL     OW 2428   6.349   5.061   5.703
  510SOL    HW1 2429   6.435   5.108   5.722
  510SOL    HW2 2430   6.273   5.113   5.743
  511SOL     OW 2431   0.503   6.745   6.742
  511SOL    HW1 2432   0.421   6.705   6.702
  511SOL    HW2 2433   0.562   6.672   6.778
  512SOL     OW 2434   6.829   3.027   0.431
  512SOL    HW1 2435   6.796   3.121   0.434
  512SOL    HW2 2436   6.929   3.026   0.432
  513SOL     OW 2437   5.642   6.187   3.101
  513SOL    HW1 2438   5.623   6.252   3.028
  513SOL    HW2 2439   5.717   6.126   3.073
  514SOL     OW 2440   6.817   2.696   3.813
  514SOL    HW1 2441   6.803   2.668   3.719
  514SOL    HW2 2442   6.908   2.668   3.843
  515SOL     OW 2443   1.532   0.547   6.729
  515SOL    HW1 2444   1.451   0.509   6.685
  515SOL    HW2 2445   1.507   0.588   6.816
  516SOL     OW 2446   3.146   4.566   1.641
  516SOL    HW1 2447   3.086   4.528   1.711
  516SOL    HW2 2448   3.192   4.647   1.676
  517SOL     OW 2449   4.901   6.374   2.307
  517SOL    HW1 2450   4.993   6.338   2.292
  517SOL    HW2 2451   4.836   6.326   2.248
  518SOL     OW 2452   3.028   2.134   2.250
  518SOL    HW1 2453   3.021   2.211   2.187
  518SOL    HW2 2454   2.978   2.056   2.212
  519SOL     OW 2455   0.268   0.514   4.653
  519SOL    HW1 2456   0.342   0.578   4.632
  519SOL    HW2 2457   0.270   0.438   4.588
  520SOL     OW 2458   6.115   4.962   6.840
  520SOL    HW1 2459   6.040   4.948   6.775
  520SOL    HW2 2460   6.129   5.060   6.856
  521SOL     OW 2461   6.059   2.689   6.330
  521SOL    HW1 2462   6.090   2.609   6.279
  521SOL    HW2 2463   5.978   2.665   6.384
  522SOL     OW 2464   3.649   2.905   5.129
  522SOL    HW1 2465   3.582   2.852   5.180
  522SOL    HW2 2466   3.614   2.998   5.117
  523SOL     OW 2467   0.078   4.687   2.520
  523SOL    HW1 2468   0.117   4.728   2.437
  523SOL    HW2 2469   0.029   4.604   2.495
  524SOL     OW 2470   1.932   1.207   6.778
  524SOL    HW1 2471   1.966   1.300   6.766
  524SOL    HW2 2472   1.998   1.142   6.741
  525SOL     OW 2473   2.792   3.657   6.269
  525SOL    HW1 2474   2.851   3.720   6.319
  525SOL    HW2 2475   2.698   3.689   6.272
  526SOL     OW 2476   2.471   0.300   4.642
  526SOL    HW1 2477   2.435   0.247   4.719
  526SOL    HW2 2478   2.489   0.394   4.671
  527SOL     OW 2479   5.778   3.179   6.156
  527SOL    HW1 2480   5.691   3.130   6.162
  527SOL    HW2 2481   5.830   3.145   6.078
  528SOL     OW 2482   0.953   1.836   4.384
  528SOL    HW1 2483   0.942   1.840   4.285
  528SOL    HW2 2484   0.864   1.819   4.427
  529SOL     OW 2485   0.398   5.528   4.333
  529SOL    HW1 2486   0.491   5.524   4.296
  529SOL    HW2 2487   0.366   5.623   4.333
  530SOL     OW 2488   2.966   2.745   5.313
  530SOL    HW1 2489   2.895   2.810   5.285
  530SOL    HW2 2490   3.055   2.791   5.311
  531SOL     OW 2491   0.258   0.744   1.892
  531SOL    HW1 2492   0.206   0.788   1.965
  531SOL    HW2 2493   0.264   0.646   1.909
  532SOL     OW 2494   1.017   2.552   6.746
  532SOL    HW1 2495   1.007   2.453   6.741
  532SOL    HW2 2496   0.938   2.592   6.792
  533SOL     OW 2497   4.197   6.005   4.258
  533SOL    HW1 2498   4.240   6.012   4.168
  533SOL    HW2 2499   4.264   5.969   4.324
  534SOL     OW 2500   5.314   5.152   3.638
  534SOL    HW1 2501   5.303   5.053   3.642
  534SOL    HW2 2502   5.302   5.183   3.543
  535SOL     OW 2503   1.080   3.953   4.694
  535SOL    HW1 2504   0.999   3.903   4.664
  535SOL    HW2 2505   1.078   3.964   4.793
  536SOL     OW 2506   0.001   4.820   2.049
  536SOL    HW1 2507   0.074   4.859   1.994
  536SOL    HW2 2508   6.938   4.826   1.999
  537SOL     OW 2509   1.953   6.118   3.881
  537SOL    HW1 2510   2.002   6.140   3.796
  537SOL    HW2 2511   1.981   6.183   3.952
  538SOL     OW 2512   1.864   5.851   3.911
  538SOL    HW1 2513   1.920   5.784   3.864
  538SOL    HW2 2514   1.909   5.940   3.909
  539SOL     OW 2515   0.545   5.951   0.079
  539SOL    HW1 2516   0.603   5.882   0.035
  539SOL    HW2 2517   0.509   5.914   0.165
  540SOL     OW 2518   7.005   1.361   1.831
  540SOL    HW1 2519   7.004   1.303   1.912
  540SOL    HW2 2520   0.041   1.321   1.762
  541SOL     OW 2521   2.944   6.960   4.276
  541SOL    HW1 2522   2.908   6.908   4.354
  541SOL    HW2 2523   2.992   6.897   4.215
  542SOL     OW 2524   0.057   7.018   0.742
  542SOL    HW1 2525   0.030   0.083   0.705
  542SOL    HW2 2526   0.052   6.949   0.669
  543SOL     OW 2527   0.086   5.381   5.388
  543SOL    HW1 2528   0.062   5.323   5.465
  543SOL    HW2 2529   0.155   5.336   5.332
  544SOL     OW 2530   1.889   4.170   1.297
  544SOL    HW1 2531   1.872   4.119   1.213
  544SOL    HW2 2532   1.935   4.256   1.275
  545SOL     OW 2533   3.766   1.265   3.448
  545SOL    HW1 2534   3.821   1.190   3.484
  545SOL    HW2 2535   3.747   1.249   3.351
  546SOL     OW 2536   1.638   3.215   1.019
  546SOL    HW1 2537   1.552   3.195   1.065
  546SOL    HW2 2538   1.641   3.312   0.994
  547SOL     OW 2539   2.669   1.113   6.730
  547SOL    HW1 2540   2.657   1.124   6.828
  547SOL    HW2 2541   2.676   1.016   6.707
  548SOL     OW 2542   3.844   3.029   2.598
  548SOL    HW1 2543   3.816   2.990   2.686
  548SOL    HW2 2544   3.785   2.995   2.526
  549SOL     OW 2545   4.375   3.826   1.610
  549SOL    HW1 2546   4.301   3.893   1.607
  549SOL    HW2 2547   4.366   3.763   1.532
  550SOL     OW 2548   0.071   3.650   3.585
  550SOL    HW1 2549   0.132   3.719   3.547
  550SOL    HW2 2550   0.058   3.667   3.683
  551SOL     OW 2551   0.016   1.016   1.073
  551SOL    HW1 2552   6.953   1.034   1.119
  551SOL    HW2 2553   0.038   0.918   1.080
  552SOL     OW 2554   4.573   5.126   0.768
  552SOL    HW1 2555   4.639   5.102   0.840
  552SOL    HW2 2556   4.504   5.054   0.760
  553SOL     OW 2557   1.782   6.870   2.239
  553SOL    HW1 2558   1.765   6.961   2.200
  553SOL    HW2 2559   1.784   6.877   2.338
  554SOL     OW 2560   4.915   6.672   6.414
  554SOL    HW1 2561   4.866   6.723   6.485
  554SOL    HW2 2562   5.013   6.687   6.425
  555SOL     OW 2563   2.489   5.242   4.541
  555SOL    HW1 2564   2.498   5.161   4.599
  555SOL    HW2 2565   2.485   5.324   4.598
  556SOL     OW 2566   6.156   1.880   4.268
  556SOL    HW1 2567   6.104   1.914   4.190
  556SOL    HW2 2568   6.213   1.953   4.305
  557SOL     OW 2569   7.009   5.513   6.658
  557SOL    HW1 2570   0.018   5.601   6.624
  557SOL    HW2 2571   0.025   5.439   6.605
  558SOL     OW 2572   4.016   3.888   4.528
  558SOL    HW1 2573   4.069   3.817   4.483
  558SOL    HW2 2574   4.041   3.892   4.625
  559SOL     OW 2575   6.200   6.164   6.827
  559SOL    HW1 2576   6.222   6.067   6.836
  559SOL    HW2 2577   6.229   6.213   6.909
  560SOL     OW 2578   3.821   6.341   0.832
  560SOL    HW1 2579   3.798   6.293   0.917
  560SOL    HW2 2580   3.777   6.295   0.755
  561SOL     OW 2581   6.555   0.073   6.623
  561SOL    HW1 2582   6.552   0.026   6.711
  561SOL    HW2 2583   6.461   0.091   6.592
  562SOL     OW 2584   4.905   0.250   6.293
  562SOL    HW1 2585   4.927   0.316   6.222
  562SOL    HW2 2586   4.848   0.293   6.363
  563SOL     OW 2587   2.675   0.227   3.210
  563SOL    HW1 2588   2.719   0.166   3.276
  563SOL    HW2 2589   2.707   0.321   3.226
  564SOL     OW 2590   2.436   2.090   5.905
  564SOL    HW1 2591   2.344   2.126   5.890
  564SOL    HW2 2592   2.447   2.064   6.001
  565SOL     OW 2593   4.419   3.196   5.431
  565SOL    HW1 2594   4.335   3.247   5.447
  565SOL    HW2 2595   4.495   3.260   5.419
  566SOL     OW 2596   4.439   4.502   3.429
  566SOL    HW1 2597   4.465   4.518   3.524
  566SOL    HW2 2598   4.520   4.511   3.371
  567SOL     OW 2599   3.402   3.711   3.818
  567SOL    HW1 2600   3.490   3.732   3.861
  567SOL    HW2 2601   3.415   3.640   3.749
  568SOL     OW 2602   3.718   2.621   1.151
  568SOL    HW1 2603   3.772   2.536   1.151
  568SOL    HW2 2604   3.756   2.685   1.084
  569SOL     OW 2605   1.565   3.132   0.574
  569SOL    HW1 2606   1.598   3.151   0.481
  569SOL    HW2 2607   1.627   3.067   0.619
  570SOL     OW 2608   1.414   6.735   6.393
  570SOL    HW1 2609   1.314   6.741   6.397
  570SOL    HW2 2610   1.443   6.646   6.430
  571SOL     OW 2611   3.400   6.190   2.530
  571SOL    HW1 2612   3.433   6.117   2.589
  571SOL    HW2 2613   3.317   6.161   2.483
  572SOL     OW 2614   2.764   4.892   5.933
  572SOL    HW1 2615   2.777   4.985   5.967
  572SOL    HW2 2616   2.700   4.893   5.857
  573SOL     OW 2617   3.680   1.737   4.994
  573SOL    HW1 2618   3.731   1.789   4.925
  573SOL    HW2 2619   3.582   1.754   4.983
  574SOL     OW 2620   2.242   2.412   4.371
  574SOL    HW1 2621   2.269   2.330   4.321
  574SOL    HW2 2622   2.303   2.487   4.347
  575SOL     OW 2623   6.192   4.342   6.643
  575SOL    HW1 2624   6.166   4.256   6.685
  575SOL    HW2 2625   6.289   4.359   6.658
  576SOL     OW 2626   1.587   1.862   1.859
  576SOL    HW1 2627   1.505   1.919   1.853
  576SOL    HW2 2628   1.579   1.799   1.936
  577SOL     OW 2629   2.120   1.485   3.493
  577SOL    HW1 2630   2.199   1.454   3.441
  577SOL    HW2 2631   2.054   1.410   3.503
  578SOL     OW 2632   0.099   3.325   3.620
  578SOL    HW1 2633   0.061   3.300   3.709
  578SOL    HW2 2634   0.199   3.320   3.623
  579SOL     OW 2635   3.594   2.329   1.119
  579SOL    HW1 2636   3.520   2.262   1.127
  579SOL    HW2 2637   3.680   2.283   1.102
  580SOL     OW 2638   0.647   4.878   6.058
  580SOL    HW1 2639   0.581   4.903   5.987
  580SOL    HW2 2640   0.723   4.827   6.017
  581SOL     OW 2641   3.012   3.096   3.102
  581SOL    HW1 2642   3.037   3.121   3.008
  581SOL    HW2 2643   2.968   3.006   3.102
  582SOL     OW 2644   5.753   4.599   2.711
  582SOL    HW1 2645   5.803   4.526   2.665
  582SOL    HW2 2646   5.750   4.680   2.652
  583SOL     OW 2647   2.771   4.689   6.527
  583SOL    HW1 2648   2.676   4.659   6.514
  583SOL    HW2 2649   2.774   4.758   6.599
  584SOL     OW 2650   0.403   4.970   5.926
  584SOL    HW1 2651   0.387   5.063   5.894
  584SOL    HW2 2652   0.322   4.914   5.910
  585SOL     OW 2653   6.320   2.746   6.062
  585SOL    HW1 2654   6.264   2.664   6.057
  585SOL    HW2 2655   6.385   2.737   6.137
  586SOL     OW 2656   3.273   6.765   0.512
  586SOL    HW1 2657   3.280   6.703   0.434
  586SOL    HW2 2658   3.178   6.771   0.542
  587SOL     OW 2659   1.916   1.891   4.915
  587SOL    HW1 2660   1.857   1.961   4.954
  587SOL    HW2 2661   1.966   1.845   4.988
  588SOL     OW 2662   3.561   6.824   1.422
  588SOL    HW1 2663   3.567   6.751   1.353
  588SOL    HW2 2664   3.572   6.912   1.376
  589SOL     OW 2665   4.085   5.135   1.912
  589SOL    HW1 2666   4.025   5.094   1.843
  589SOL    HW2 2667   4.176   5.096   1.905
  590SOL     OW 2668   6.909   2.860   2.617
  590SOL    HW1 2669   6.952   2.836   2.704
  590SOL    HW2 2670   6.822   2.906   2.635
  591SOL     OW 2671   3.966   6.889   3.663
  591SOL    HW1 2672   4.022   6.964   3.629
  591SOL    HW2 2673   3.999   6.860   3.753
  592SOL     OW 2674   4.384   0.945   0.547
  592SOL    HW1 2675   4.353   0.890   0.469
  592SOL    HW2 2676   4.401   1.039   0.517
  593SOL     OW 2677   4.569   1.928   3.750
  593SOL    HW1 2678   4.602   1.839   3.782
  593SOL    HW2 2679   4.639   1.971   3.692
  594SOL     OW 2680   4.084   2.910   6.322
  594SOL    HW1 2681   4.079   2.838   6.391
  594SOL    HW2 2682   4.119   2.872   6.236
  595SOL     OW 2683   4.678   6.883   3.961
  595SOL    HW1 2684   4.744   6.945   4.004
  595SOL    HW2 2685   4.703   6.868   3.866
  596SOL     OW 2686   1.363   4.076   1.410
  596SOL    HW1 2687   1.348   3.980   1.386
  596SOL    HW2 2688   1.297   4.133   1.361
  597SOL     OW 2689   4.226   6.735   6.030
  597SOL    HW1 2690   4.126   6.723   6.033
  597SOL    HW2 2691   4.267   6.659   5.979
  598SOL     OW 2692   3.604   4.166   0.614
  598SOL    HW1 2693   3.584   4.157   0.712
  598SOL    HW2 2694   3.595   4.261   0.586
  599SOL     OW 2695   0.337   0.845   3.058
  599SOL    HW1 2696   0.382   0.919   3.107
  599SOL    HW2 2697   0.274   0.883   2.990
  600SOL     OW 2698   0.298   0.099   0.793
  600SOL    HW1 2699   0.316   0.133   0.885
  600SOL    HW2 2700   0.226   0.030   0.796
  601SOL     OW 2701   2.747   5.721   3.214
  601SOL    HW1 2702   2.751   5.820   3.201
  601SOL    HW2 2703   2.833   5.689   3.253
  602SOL     OW 2704   0.986   0.895   0.610
  602SOL    HW1 2705   1.082   0.866   0.618
  602SOL    HW2 2706   0.956   0.937   0.696
  603SOL     OW 2707   3.952   1.886   3.886
  603SOL    HW1 2708   3.940   1.830   3.804
  603SOL    HW2 2709   3.903   1.972   3.875
  604SOL     OW 2710   0.925   3.063   0.360
  604SOL    HW1 2711   0.930   3.156   0.395
  604SOL    HW2 2712   0.979   3.056   0.276
  605SOL     OW 2713   6.849   6.054   3.325
  605SOL    HW1 2714   6.752   6.032   3.317
  605SOL    HW2 2715   6.899   6.016   3.247
  606SOL     OW 2716   4.803   0.736   5.276
  606SOL    HW1 2717   4.751   0.744   5.361
  606SOL    HW2 2718   4.839   0.826   5.251
  607SOL     OW 2719   5.566   1.403   4.310
  607SOL    HW1 2720   5.491   1.382   4.373
  607SOL    HW2 2721   5.630   1.326   4.309
  608SOL     OW 2722   3.205   0.078   0.753
  608SOL    HW1 2723   3.240   0.161   0.710
  608SOL    HW2 2724   3.105   0.076   0.748
  609SOL     OW 2725   3.472   3.023   4.781
  609SOL    HW1 2726   3.559   2.982   4.808
  609SOL    HW2 2727   3.397   2.979   4.831
  610SOL     OW 2728   5.561   2.530   3.004
  610SOL    HW1 2729   5.543   2.628   3.015
  610SOL    HW2 2730   5.635   2.502   3.065
  611SOL     OW 2731   0.476   0.698   6.759
  611SOL    HW1 2732   0.429   0.781   6.730
  611SOL    HW2 2733   0.473   0.692   6.859
  612SOL     OW 2734   3.485   5.701   5.928
  612SOL    HW1 2735   3.538   5.730   5.848
  612SOL    HW2 2736   3.527   5.620   5.968
  613SOL     OW 2737   4.089   1.105   5.460
  613SOL    HW1 2738   4.081   1.006   5.468
  613SOL    HW2 2739   4.097   1.131   5.364
  614SOL     OW 2740   5.950   5.154   0.930
  614SOL    HW1 2741   5.959   5.222   0.857
  614SOL    HW2 2742   5.896   5.192   1.005
  615SOL     OW 2743   0.933   0.448   6.550
  615SOL    HW1 2744   0.865   0.511   6.587
  615SOL    HW2 2745   0.937   0.458   6.450
  616SOL     OW 2746   5.610   1.994   3.853
  616SOL    HW1 2747   5.581   2.088   3.864
  616SOL    HW2 2748   5.623   1.973   3.756
  617SOL     OW 2749   0.236   4.709   6.175
  617SOL    HW1 2750   0.282   4.622   6.187
  617SOL    HW2 2751   0.303   4.783   6.169
  618SOL     OW 2752   6.294   3.225   1.549
  618SOL    HW1 2753   6.258   3.307   1.594
  618SOL    HW2 2754   6.221   3.158   1.538
  619SOL     OW 2755   3.491   6.681   6.704
  619SOL    HW1 2756   3.523   6.591   6.733
  619SOL    HW2 2757   3.395   6.692   6.727
  620SOL     OW 2758   5.998   3.424   2.348
  620SOL    HW1 2759   5.966   3.491   2.281
  620SOL    HW2 2760   5.934   3.347   2.350
  621SOL     OW 2761   2.563   6.990   5.235
  621SOL    HW1 2762   2.614   0.026   5.295
  621SOL    HW2 2763   2.491   0.017   5.188
  622SOL     OW 2764   0.841   2.830   5.767
  622SOL    HW1 2765   0.893   2.879   5.837
  622SOL    HW2 2766   0.843   2.881   5.681
  623SOL     OW 2767   5.971   6.245   5.102
  623SOL    HW1 2768   5.948   6.290   5.016
  623SOL    HW2 2769   6.036   6.171   5.085
  624SOL     OW 2770   6.280   1.061   6.871
  624SOL    HW1 2771   6.360   1.005   6.890
  624SOL    HW2 2772   6.231   1.023   6.792
  625SOL     OW 2773   2.170   0.967   0.471
  625SOL    HW1 2774   2.160   0.959   0.372
  625SOL    HW2 2775   2.197   1.060   0.494
  626SOL     OW 2776   1.613   5.945   3.453
  626SOL    HW1 2777   1.621   6.028   3.509
  626SOL    HW2 2778   1.593   5.971   3.359
  627SOL     OW 2779   6.577   6.390   0.729
  627SOL    HW1 2780   6.623   6.303   0.747
  627SOL    HW2 2781   6.639   6.466   0.749
  628SOL     OW 2782   5.418   3.746   5.188
  628SOL    HW1 2783   5.432   3.704   5.099
  628SOL    HW2 2784   5.501   3.738   5.243
  629SOL     OW 2785   0.303   0.938   0.060
  629SOL    HW1 2786   0.398   0.950   0.031
  629SOL    HW2 2787   0.266   1.026   0.091
  630SOL     OW 2788   6.753   0.718   1.156
  630SOL    HW1 2789   6.749   0.816   1.173
  630SOL    HW2 2790   6.817   0.700   1.081
  631SOL     OW 2791   2.665   2.448   4.801
  631SOL    HW1 2792   2.588   2.510   4.785
  631SOL    HW2 2793   2.679   2.436   4.900
  632SOL     OW 2794   4.710   3.289   0.491
  632SOL    HW1 2795   4.808   3.275   0.474
  632SOL    HW2 2796   4.677   3.219   0.555
  633SOL     OW 2797   2.155   5.072   1.126
  633SOL    HW1 2798   2.097   4.994   1.144
  633SOL    HW2 2799   2.229   5.045   1.064
  634SOL     OW 2800   3.698   3.649   3.490
  634SOL    HW1 2801   3.635   3.719   3.457
  634SOL    HW2 2802   3.732   3.675   3.581
  635SOL     OW 2803   4.607   0.860   0.150
  635SOL    HW1 2804   4.574   0.859   0.056
  635SOL    HW2 2805   4.562   0.788   0.202
  636SOL     OW 2806   3.176   0.392   5.125
  636SOL    HW1 2807   3.111   0.424   5.056
  636SOL    HW2 2808   3.214   0.303   5.096
  637SOL     OW 2809   6.359   1.699   2.372
  637SOL    HW1 2810   6.319   1.731   2.286
  637SOL    HW2 2811   6.309   1.618   2.404
  638SOL     OW 2812   5.960   3.429   4.162
  638SOL    HW1 2813   5.925   3.515   4.199
  638SOL    HW2 2814   6.029   3.391   4.224
  639SOL     OW 2815   5.649   4.882   3.192
  639SOL    HW1 2816   5.681   4.851   3.281
  639SOL    HW2 2817   5.597   4.967   3.203
  640SOL     OW 2818   0.194   3.461   3.386
  640SOL    HW1 2819   0.117   3.398   3.401
  640SOL    HW2 2820   0.190   3.535   3.453
  641SOL     OW 2821   1.595   4.330   5.372
  641SOL    HW1 2822   1.631   4.241   5.400
  641SOL    HW2 2823   1.588   4.390   5.452
  642SOL     OW 2824   1.503   3.829   4.467
  642SOL    HW1 2825   1.502   3.920   4.425
  642SOL    HW2 2826   1.442   3.768   4.416
  643SOL     OW 2827   6.663   6.445   0.078
  643SOL    HW1 2828   6.679   6.544   0.073
  643SOL    HW2 2829   6.588   6.420   0.017
  644SOL     OW 2830   0.178   0.345   4.422
  644SOL    HW1 2831   0.168   0.428   4.369
  644SOL    HW2 2832   0.273   0.313   4.417
  645SOL     OW 2833   3.391   4.966   2.892
  645SOL    HW1 2834   3.350   5.032   2.828
  645SOL    HW2 2835   3.361   4.986   2.985
  646SOL     OW 2836   3.886   0.671   4.771
  646SOL    HW1 2837   3.813   0.732   4.738
  646SOL    HW2 2838   3.902   0.688   4.868
  647SOL     OW 2839   4.847   2.408   4.880
  647SOL    HW1 2840   4.841   2.436   4.784
  647SOL    HW2 2841   4.767   2.353   4.904
  648SOL     OW 2842   6.426   2.571   3.495
  648SOL    HW1 2843   6.454   2.526   3.580
  648SOL    HW2 2844   6.377   2.505   3.438
  649SOL     OW 2845   2.479   4.304   0.623
  649SOL    HW1 2846   2.558   4.361   0.644
  649SOL    HW2 2847   2.484   4.273   0.528
  650SOL     OW 2848   6.632   5.469   0.553
  650SOL    HW1 2849   6.568   5.482   0.629
  650SOL    HW2 2850   6.723   5.500   0.581
  651SOL     OW 2851   1.572   0.751   5.999
  651SOL    HW1 2852   1.632   0.699   5.938
  651SOL    HW2 2853   1.484   0.767   5.954
  652SOL     OW 2854   3.891   0.293   1.965
  652SOL    HW1 2855   3.802   0.247   1.967
  652SOL    HW2 2856   3.880   0.387   1.934
  653SOL     OW 2857   0.498   6.271   0.497
  653SOL    HW1 2858   0.562   6.291   0.571
  653SOL    HW2 2859   0.404   6.271   0.533
  654SOL     OW 2860   0.038   6.081   5.758
  654SOL    HW1 2861   0.047   6.168   5.708
  654SOL    HW2 2862   0.122   6.028   5.749
  655SOL     OW 2863   0.050   5.435   1.892
  655SOL    HW1 2864   0.078   5.461   1.800
  655SOL    HW2 2865   0.050   5.516   1.951
  656SOL     OW 2866   2.958   6.272   0.600
  656SOL    HW1 2867   2.980   6.185   0.643
  656SOL    HW2 2868   2.894   6.323   0.658
  657SOL     OW 2869   3.098   3.288   1.598
  657SOL    HW1 2870   3.142   3.236   1.672
  657SOL    HW2 2871   3.072   3.378   1.632
  658SOL     OW 2872   1.662   4.265   4.528
  658SOL    HW1 2873   1.657   4.176   4.574
  658SOL    HW2 2874   1.726   4.324   4.578
  659SOL     OW 2875   3.470   5.943   5.193
  659SOL    HW1 2876   3.373   5.929   5.175
  659SOL    HW2 2877   3.484   6.033   5.235
  660SOL     OW 2878   4.889   5.122   2.675
  660SOL    HW1 2879   4.846   5.033   2.671
  660SOL    HW2 2880   4.842   5.185   2.612
  661SOL     OW 2881   5.016   4.428   4.299
  661SOL    HW1 2882   5.101   4.401   4.345
  661SOL    HW2 2883   5.010   4.528   4.295
  662SOL     OW 2884   4.696   2.068   6.919
  662SOL    HW1 2885   4.794   2.083   6.911
  662SOL    HW2 2886   4.654   2.079   6.829
  663SOL     OW 2887   0.363   4.987   6.761
  663SOL    HW1 2888   0.416   4.902   6.750
  663SOL    HW2 2889   0.310   5.004   6.678
  664SOL     OW 2890   1.829   5.271   6.713
  664SOL    HW1 2891   1.843   5.358   6.760
  664SOL    HW2 2892   1.827   5.287   6.614
  665SOL     OW 2893   4.134   5.548   1.391
  665SOL    HW1 2894   4.217   5.597   1.418
  665SOL    HW2 2895   4.105   5.580   1.300
  666SOL     OW 2896   3.639   2.130   0.305
  666SOL    HW1 2897   3.615   2.218   0.346
  666SOL    HW2 2898   3.706   2.084   0.364
  667SOL     OW 2899   0.055   2.388   4.406
  667SOL    HW1 2900   7.015   2.340   4.347
  667SOL    HW2 2901   0.018   2.479   4.428
  668SOL     OW 2902   4.055   6.292   0.091
  668SOL    HW1 2903   4.150   6.271   0.113
  668SOL    HW2 2904   4.051   6.383   0.049
  669SOL     OW 2905   1.654   6.692   3.106
  669SOL    HW1 2906   1.556   6.691   3.126
  669SOL    HW2 2907   1.676   6.771   3.049
  670SOL     OW 2908   2.865   3.580   2.999
  670SOL    HW1 2909   2.895   3.638   2.923
  670SOL    HW2 2910   2.925   3.500   3.005
  671SOL     OW 2911   2.087   5.432   6.104
  671SOL    HW1 2912   2.163   5.393   6.157
  671SOL    HW2 2913   2.118   5.446   6.010
  672SOL     OW 2914   1.015   3.325   3.908
  672SOL    HW1 2915   1.009   3.226   3.915
  672SOL    HW2 2916   1.111   3.353   3.904
  673SOL     OW 2917   4.661   0.142   6.968
  673SOL    HW1 2918   4.638   0.088   0.025
  673SOL    HW2 2919   4.581   0.196   6.942
  674SOL     OW 2920   0.745   2.628   4.517
  674SOL    HW1 2921   0.685   2.563   4.471
  674SOL    HW2 2922   0.749   2.607   4.615
  675SOL     OW 2923   1.057   2.271   4.978
  675SOL    HW1 2924   1.044   2.196   5.042
  675SOL    HW2 2925   0.974   2.327   4.973
  676SOL     OW 2926   2.829   4.773   4.088
  676SOL    HW1 2927   2.784   4.705   4.146
  676SOL    HW2 2928   2.760   4.826   4.039
  677SOL     OW 2929   5.907   0.254   0.088
  677SOL    HW1 2930   6.004   0.265   0.070
  677SOL    HW2 2931   5.865   0.345   0.102
  678SOL     OW 2932   2.325   1.678   5.105
  678SOL    HW1 2933   2.247   1.740   5.091
  678SOL    HW2 2934   2.347   1.674   5.202
  679SOL     OW 2935   3.918   0.818   3.734
  679SOL    HW1 2936   4.004   0.837   3.782
  679SOL    HW2 2937   3.843   0.862   3.782
  680SOL     OW 2938   6.180   4.231   6.366
  680SOL    HW1 2939   6.192   4.262   6.460
  680SOL    HW2 2940   6.246   4.158   6.347
  681SOL     OW 2941   6.807   6.499   0.730
  681SOL    HW1 2942   6.906   6.510   0.736
  681SOL    HW2 2943   6.780   6.494   0.633
  682SOL     OW 2944   2.226   6.841   6.525
  682SOL    HW1 2945   2.176   6.758   6.499
  682SOL    HW2 2946   2.191   6.918   6.472
  683SOL     OW 2947   4.035   0.617   5.971
  683SOL    HW1 2948   3.968   0.555   5.930
  683SOL    HW2 2949   4.061   0.687   5.904
  684SOL     OW 2950   6.857   0.408   6.426
  684SOL    HW1 2951   6.952   0.381   6.414
  684SOL    HW2 2952   6.798   0.346   6.373
  685SOL     OW 2953   5.271   0.496   6.198
  685SOL    HW1 2954   5.275   0.401   6.167
  685SOL    HW2 2955   5.264   0.498   6.298
  686SOL     OW 2956   5.440   3.307   3.666
  686SOL    HW1 2957   5.501   3.372   3.712
  686SOL    HW2 2958   5.364   3.357   3.623
  687SOL     OW 2959   6.958   3.267   6.318
  687SOL    HW1 2960   0.006   3.199   6.327
  687SOL    HW2 2961   6.871   3.227   6.347
  688SOL     OW 2962   1.928   3.245   0.444
  688SOL    HW1 2963   1.932   3.309   0.521
  688SOL    HW2 2964   1.927   3.151   0.480
  689SOL     OW 2965   1.010   4.469   5.743
  689SOL    HW1 2966   0.928   4.444   5.794
  689SOL    HW2 2967   0.996   4.451   5.646
  690SOL     OW 2968   1.361   2.715   3.606
  690SOL    HW1 2969   1.402   2.626   3.625
  690SOL    HW2 2970   1.371   2.775   3.686
  691SOL     OW 2971   1.631   2.352   6.088
  691SOL    HW1 2972   1.721   2.391   6.109
  691SOL    HW2 2973   1.561   2.423   6.097
  692SOL     OW 2974   3.030   6.834   3.164
  692SOL    HW1 2975   2.957   6.816   3.231
  692SOL    HW2 2976   2.992   6.879   3.084
  693SOL     OW 2977   6.585   1.664   3.351
  693SOL    HW1 2978   6.585   1.571   3.386
  693SOL    HW2 2979   6.606   1.663   3.253
  694SOL     OW 2980   3.819   5.797   1.210
  694SOL    HW1 2981   3.835   5.888   1.247
  694SOL    HW2 2982   3.738   5.798   1.152
  695SOL     OW 2983   4.826   5.168   4.687
  695SOL    HW1 2984   4.891   5.130   4.752
  695SOL    HW2 2985   4.741   5.116   4.690
  696SOL     OW 2986   3.345   5.334   2.667
  696SOL    HW1 2987   3.265   5.394   2.660
  696SOL    HW2 2988   3.314   5.239   2.668
  697SOL     OW 2989   0.930   3.467   5.365
  697SOL    HW1 2990   0.986   3.437   5.287
  697SOL    HW2 2991   0.973   3.545   5.409
  698SOL     OW 2992   5.164   0.055   3.963
  698SOL    HW1 2993   5.178   6.980   3.956
  698SOL    HW2 2994   5.080   0.080   3.915
  699SOL     OW 2995   1.909   4.418   1.136
  699SOL    HW1 2996   1.852   4.399   1.056
  699SOL    HW2 2997   1.863   4.485   1.194
  700SOL     OW 2998   3.069   1.826   3.541
  700SOL    HW1 2999   3.037   1.773   3.463
  700SOL    HW2 3000   3.053   1.923   3.523
  701SOL     OW 3001   1.573   4.818   0.122
  701SOL    HW1 3002   1.631   4.737   0.119
  701SOL    HW2 3003   1.620   4.891   0.172
  702SOL     OW 3004   5.195   6.316   5.797
  702SOL    HW1 3005   5.125   6.321   5.726
  702SOL    HW2 3006   5.162   6.362   5.879
  703SOL     OW 3007   4.528   3.431   6.925
  703SOL    HW1 3008   4.539   3.485   7.009
  703SOL    HW2 3009   4.563   3.484   6.847
  704SOL     OW 3010   0.824   1.248   6.035
  704SOL    HW1 3011   0.788   1.216   5.948
  704SOL    HW2 3012   0.914   1.290   6.022
  705SOL     OW 3013   5.069   0.598   3.609
  705SOL    HW1 3014   5.050   0.561   3.518
  705SOL    HW2 3015   5.092   0.695   3.601
  706SOL     OW 3016   3.843   1.739   3.648
  706SOL    HW1 3017   3.874   1.675   3.578
  706SOL    HW2 3018   3.743   1.745   3.647
  707SOL     OW 3019   4.327   0.100   1.754
  707SOL    HW1 3020   4.231   0.130   1.754
  707SOL    HW2 3021   4.350   0.064   1.664
  708SOL     OW 3022   4.742   0.329   0.749
  708SOL    HW1 3023   4.831   0.360   0.716
  708SOL    HW2 3024   4.728   0.233   0.724
  709SOL     OW 3025   1.619   5.095   1.549
  709SOL    HW1 3026   1.663   5.044   1.475
  709SOL    HW2 3027   1.659   5.186   1.555
  710SOL     OW 3028   3.291   4.025   2.957
  710SOL    HW1 3029   3.193   4.019   2.938
  710SOL    HW2 3030   3.342   3.998   2.876
  711SOL     OW 3031   6.756   2.469   5.336
  711SOL    HW1 3032   6.691   2.535   5.374
  711SOL    HW2 3033   6.769   2.393   5.401
  712SOL     OW 3034   1.216   3.799   1.147
  712SOL    HW1 3035   1.263   3.882   1.115
  712SOL    HW2 3036   1.247   3.778   1.240
  713SOL     OW 3037   3.205   3.585   1.966
  713SOL    HW1 3038   3.133   3.654   1.961
  713SOL    HW2 3039   3.291   3.625   1.934
  714SOL     OW 3040   5.441   4.024   5.491
  714SOL    HW1 3041   5.361   4.024   5.432
  714SOL    HW2 3042   5.522   4.001   5.437
  715SOL     OW 3043   4.557   5.826   6.843
  715SOL    HW1 3044   4.558   5.731   6.811
  715SOL    HW2 3045   4.583   5.886   6.768
  716SOL     OW 3046   0.818   5.062   1.039
  716SOL    HW1 3047   0.865   4.996   0.979
  716SOL    HW2 3048   0.719   5.046   1.035
  717SOL     OW 3049   6.146   4.781   6.515
  717SOL    HW1 3050   6.186   4.845   6.448
  717SOL    HW2 3051   6.198   4.696   6.514
  718SOL     OW 3052   4.227   2.394   6.098
  718SOL    HW1 3053   4.148   2.376   6.157
  718SOL    HW2 3054   4.310   2.359   6.141
  719SOL     OW 3055   6.815   2.758   1.390
  719SOL    HW1 3056   6.828   2.719   1.482
  719SOL    HW2 3057   6.772   2.848   1.399
  720SOL     OW 3058   2.425   1.649   5.368
  720SOL    HW1 3059   2.512   1.664   5.415
  720SOL    HW2 3060   2.358   1.715   5.402
  721SOL     OW 3061   1.313   1.063   5.423
  721SOL    HW1 3062   1.271   0.984   5.467
  721SOL    HW2 3063   1.255   1.094   5.348
  722SOL     OW 3064   4.280   6.737   4.875
  722SOL    HW1 3065   4.212   6.777   4.936
  722SOL    HW2 3066   4.234   6.685   4.803
  723SOL     OW 3067   2.418   2.645   2.370
  723SOL    HW1 3068   2.369   2.721   2.412
  723SOL    HW2 3069   2.475   2.600   2.438
  724SOL     OW 3070   0.999   1.730   5.841
  724SOL    HW1 3071   0.986   1.782   5.926
  724SOL    HW2 3072   0.954   1.641   5.850
  725SOL     OW 3073   2.712   5.021   2.168
  725SOL    HW1 3074   2.709   5.110   2.122
  725SOL    HW2 3075   2.774   5.026   2.246
  726SOL     OW 3076   3.388   4.717   6.866
  726SOL    HW1 3077   3.357   4.738   6.959
  726SOL    HW2 3078   3.427   4.799   6.825
  727SOL     OW 3079   3.990   6.404   4.256
  727SOL    HW1 3080   3.973   6.340   4.180
  727SOL    HW2 3081   3.991   6.353   4.342
  728SOL     OW 3082   6.885   3.623   5.362
  728SOL    HW1 3083   6.884   3.629   5.262
  728SOL    HW2 3084   6.976   3.648   5.395
  729SOL     OW 3085   2.173   0.566   0.706
  729SOL    HW1 3086   2.270   0.586   0.718
  729SOL    HW2 3087   2.127   0.645   0.666
  730SOL     OW 3088   5.324   0.836   3.244
  730SOL    HW1 3089   5.341   0.882   3.156
  730SOL    HW2 3090   5.255   0.765   3.231
  731SOL     OW 3091   5.571   2.987   5.492
  731SOL    HW1 3092   5.574   3.085   5.512
  731SOL    HW2 3093   5.494   2.967   5.432
  732SOL     OW 3094   0.749   3.136   1.540
  732SOL    HW1 3095   0.753   3.043   1.504
  732SOL    HW2 3096   0.664   3.148   1.592
  733SOL     OW 3097   5.192   4.016   4.262
  733SOL    HW1 3098   5.155   4.019   4.169
  733SOL    HW2 3099   5.292   4.012   4.259
  734SOL     OW 3100   0.216   5.216   1.930
  734SOL    HW1 3101   0.290   5.236   1.866
  734SOL    HW2 3102   0.133   5.266   1.903
  735SOL     OW 3103   2.145   3.202   0.932
  735SOL    HW1 3104   2.144   3.301   0.939
  735SOL    HW2 3105   2.200   3.175   0.852
  736SOL     OW 3106   6.439   6.941   2.421
  736SOL    HW1 3107   6.440   6.908   2.326
  736SOL    HW2 3108   6.494   6.880   2.478
  737SOL     OW 3109   4.670   3.243   1.321
  737SOL    HW1 3110   4.686   3.195   1.408
  737SOL    HW2 3111   4.657   3.340   1.339
  738SOL     OW 3112   1.086   5.045   3.859
  738SOL    HW1 3113   1.127   4.955   3.853
  738SOL    HW2 3114   1.100   5.083   3.950
  739SOL     OW 3115   4.646   6.708   5.663
  739SOL    HW1 3116   4.587   6.715   5.743
  739SOL    HW2 3117   4.686   6.797   5.643
  740SOL     OW 3118   5.166   0.167   0.788
  740SOL    HW1 3119   5.154   0.111   0.870
  740SOL    HW2 3120   5.250   0.141   0.741
  741SOL     OW 3121   1.807   6.605   3.338
  741SOL    HW1 3122   1.814   6.573   3.243
  741SOL    HW2 3123   1.711   6.625   3.359
  742SOL     OW 3124   2.153   6.746   2.732
  742SOL    HW1 3125   2.154   6.722   2.635
  742SOL    HW2 3126   2.231   6.805   2.753
  743SOL     OW 3127   1.752   4.361   4.077
  743SOL    HW1 3128   1.763   4.353   4.176
  743SOL    HW2 3129   1.715   4.275   4.042
  744SOL     OW 3130   0.216   6.545   6.673
  744SOL    HW1 3131   0.178   6.628   6.632
  744SOL    HW2 3132   0.270   6.496   6.605
  745SOL     OW 3133   0.885   6.058   4.075
  745SOL    HW1 3134   0.945   6.131   4.041
  745SOL    HW2 3135   0.816   6.097   4.136
  746SOL     OW 3136   0.079   6.413   5.427
  746SOL    HW1 3137   0.160   6.388   5.373
  746SOL    HW2 3138   0.061   6.511   5.415
  747SOL     OW 3139   4.325   5.186   4.203
  747SOL    HW1 3140   4.265   5.232   4.269
  747SOL    HW2 3141   4.354   5.098   4.240
  748SOL     OW 3142   4.588   5.147   1.946
  748SOL    HW1 3143   4.517   5.159   1.877
  748SOL    HW2 3144   4.546   5.128   2.035
  749SOL     OW 3145   6.897   3.029   5.115
  749SOL    HW1 3146   6.988   2.997   5.142
  749SOL    HW2 3147   6.877   3.115   5.163
  750SOL     OW 3148   2.432   3.117   0.524
  750SOL    HW1 3149   2.411   3.033   0.474
  750SOL    HW2 3150   2.349   3.156   0.562
  751SOL     OW 3151   4.366   2.260   6.329
  751SOL    HW1 3152   4.287   2.283   6.385
  751SOL    HW2 3153   4.354   2.170   6.289
  752SOL     OW 3154   4.518   2.545   1.898
  752SOL    HW1 3155   4.526   2.535   1.998
  752SOL    HW2 3156   4.565   2.629   1.869
  753SOL     OW 3157   2.195   3.139   4.634
  753SOL    HW1 3158   2.105   3.099   4.648
  753SOL    HW2 3159   2.193   3.235   4.660
  754SOL     OW 3160   6.001   3.614   6.629
  754SOL    HW1 3161   5.966   3.650   6.715
  754SOL    HW2 3162   5.927   3.610   6.562
  755SOL     OW 3163   1.182   5.677   0.061
  755SOL    HW1 3164   1.191   5.581   0.088
  755SOL    HW2 3165   1.268   5.725   0.082
  756SOL     OW 3166   4.938   0.265   1.843
  756SOL    HW1 3167   4.983   0.337   1.894
  756SOL    HW2 3168   4.989   0.179   1.853
  757SOL     OW 3169   1.087   6.125   2.952
  757SOL    HW1 3170   1.046   6.043   2.912
  757SOL    HW2 3171   1.160   6.099   3.016
  758SOL     OW 3172   3.169   1.379   1.728
  758SOL    HW1 3173   3.156   1.456   1.666
  758SOL    HW2 3174   3.091   1.317   1.722
  759SOL     OW 3175   0.092   0.908   0.769
  759SOL    HW1 3176   0.065   0.850   0.846
  759SOL    HW2 3177   0.014   0.962   0.738
  760SOL     OW 3178   4.887   1.554   6.183
  760SOL    HW1 3179   4.964   1.501   6.218
  760SOL    HW2 3180   4.802   1.524   6.227
  761SOL     OW 3181   5.649   3.708   0.011
  761SOL    HW1 3182   5.656   3.677   0.106
  761SOL    HW2 3183   5.720   3.663   6.980
  762SOL     OW 3184   1.938   6.137   3.240
  762SOL    HW1 3185   1.904   6.220   3.284
  762SOL    HW2 3186   1.863   6.073   3.226
  763SOL     OW 3187   4.021   5.499   6.352
  763SOL    HW1 3188   4.098   5.545   6.309
  763SOL    HW2 3189   3.935   5.537   6.316
  764SOL     OW 3190   4.018   0.152   4.225
  764SOL    HW1 3191   4.031   0.054   4.237
  764SOL    HW2 3192   3.944   0.168   4.160
  765SOL     OW 3193   1.365   6.234   0.800
  765SOL    HW1 3194   1.465   6.240   0.799
  765SOL    HW2 3195   1.338   6.151   0.849
  766SOL     OW 3196   6.674   1.184   0.112
  766SOL    HW1 3197   6.678   1.245   0.033
  766SOL    HW2 3198   6.683   1.237   0.196
  767SOL     OW 3199   0.684   6.337   1.988
  767SOL    HW1 3200   0.710   6.245   2.017
  767SOL    HW2 3201   0.595   6.361   2.028
  768SOL     OW 3202   2.222   1.021   2.589
  768SOL    HW1 3203   2.144   1.072   2.624
  768SOL    HW2 3204   2.302   1.081   2.583
  769SOL     OW 3205   3.261   6.601   4.289
  769SOL    HW1 3206   3.352   6.633   4.316
  769SOL    HW2 3207   3.216   6.558   4.368
  770SOL     OW 3208   2.375   4.918   2.585
  770SOL    HW1 3209   2.379   5.017   2.599
  770SOL    HW2 3210   2.468   4.883   2.568
  771SOL     OW 3211   1.895   5.399   2.665
  771SOL    HW1 3212   1.969   5.337   2.638
  771SOL    HW2 3213   1.811   5.374   2.617
  772SOL     OW 3214   6.729   4.932   0.792
  772SOL    HW1 3215   6.802   4.993   0.823
  772SOL    HW2 3216   6.730   4.849   0.848
  773SOL     OW 3217   0.434   2.821   3.792
  773SOL    HW1 3218   0.373   2.747   3.764
  773SOL    HW2 3219   0.468   2.869   3.711
  774SOL     OW 3220   1.582   1.748   1.604
  774SOL    HW1 3221   1.595   1.769   1.700
  774SOL    HW2 3222   1.607   1.653   1.587
  775SOL     OW 3223   1.583   2.140   4.253
  775SOL    HW1 3224   1.492   2.180   4.255
  775SOL    HW2 3225   1.578   2.048   4.215
  776SOL     OW 3226   0.319   0.387   6.143
  776SOL    HW1 3227   0.267   0.473   6.139
  776SOL    HW2 3228   0.416   0.408   6.154
  777SOL     OW 3229   3.460   0.360   0.916
  777SOL    HW1 3230   3.515   0.442   0.901
  777SOL    HW2 3231   3.435   0.320   0.828
  778SOL     OW 3232   3.782   1.292   3.819
  778SOL    HW1 3233   3.726   1.264   3.742
  778SOL    HW2 3234   3.772   1.226   3.894
  779SOL     OW 3235   0.227   1.916   2.154
  779SOL    HW1 3236   0.230   1.885   2.059
  779SOL    HW2 3237   0.172   1.999   2.161
  780SOL     OW 3238   5.446   3.433   4.486
  780SOL    HW1 3239   5.509   3.357   4.466
  780SOL    HW2 3240   5.465   3.469   4.578
  781SOL     OW 3241   6.205   1.322   5.787
  781SOL    HW1 3242   6.161   1.346   5.873
  781SOL    HW2 3243   6.291   1.274   5.806
  782SOL     OW 3244   1.738   4.055   0.785
  782SOL    HW1 3245   1.771   3.961   0.793
  782SOL    HW2 3246   1.768   4.093   0.698
  783SOL     OW 3247   3.882   4.703   0.364
  783SOL    HW1 3248   3.897   4.645   0.284
  783SOL    HW2 3249   3.907   4.798   0.342
  784SOL     OW 3250   4.631   0.438   5.235
  784SOL    HW1 3251   4.578   0.356   5.255
  784SOL    HW2 3252   4.570   0.512   5.207
  785SOL     OW 3253   6.452   2.262   2.654
  785SOL    HW1 3254   6.447   2.353   2.612
  785SOL    HW2 3255   6.538   2.218   2.629
  786SOL     OW 3256   0.529   0.623   0.299
  786SOL    HW1 3257   0.499   0.674   0.218
  786SOL    HW2 3258   0.458   0.628   0.369
  787SOL     OW 3259   2.708   0.921   5.841
  787SOL    HW1 3260   2.790   0.942   5.788
  787SOL    HW2 3261   2.640   0.994   5.828
  788SOL     OW 3262   2.175   2.550   4.613
  788SOL    HW1 3263   2.223   2.488   4.551
  788SOL    HW2 3264   2.125   2.618   4.560
  789SOL     OW 3265   6.068   4.103   1.875
  789SOL    HW1 3266   6.091   4.200   1.883
  789SOL    HW2 3267   6.068   4.061   1.966
  790SOL     OW 3268   2.195   1.785   4.030
  790SOL    HW1 3269   2.177   1.877   3.997
  790SOL    HW2 3270   2.289   1.759   4.008
  791SOL     OW 3271   3.715   6.970   3.792
  791SOL    HW1 3272   3.713   0.042   3.765
  791SOL    HW2 3273   3.801   6.929   3.761
  792SOL     OW 3274   6.533   6.821   1.550
  792SOL    HW1 3275   6.614   6.877   1.530
  792SOL    HW2 3276   6.457   6.881   1.574
  793SOL     OW 3277   4.585   6.428   1.858
  793SOL    HW1 3278   4.591   6.332   1.829
  793SOL    HW2 3279   4.588   6.433   1.958
  794SOL     OW 3280   2.341   4.338   5.754
  794SOL    HW1 3281   2.414   4.306   5.815
  794SOL    HW2 3282   2.380   4.361   5.665
  795SOL     OW 3283   3.165   5.099   5.389
  795SOL    HW1 3284   3.220   5.027   5.431
  795SOL    HW2 3285   3.206   5.126   5.302
  796SOL     OW 3286   0.244   2.230   6.667
  796SOL    HW1 3287   0.174   2.263   6.730
  796SOL    HW2 3288   0.332   2.272   6.689
  797SOL     OW 3289   5.194   2.622   2.384
  797SOL    HW1 3290   5.147   2.710   2.375
  797SOL    HW2 3291   5.268   2.629   2.451
  798SOL     OW 3292   4.858   0.630   0.943
  798SOL    HW1 3293   4.942   0.608   0.992
  798SOL    HW2 3294   4.829   0.551   0.889
  799SOL     OW 3295   6.695   1.635   3.628
  799SOL    HW1 3296   6.711   1.536   3.622
  799SOL    HW2 3297   6.673   1.671   3.537
  800SOL     OW 3298   5.528   0.764   2.443
  800SOL    HW1 3299   5.555   0.763   2.540
  800SOL    HW2 3300   5.565   0.845   2.398
  801SOL     OW 3301   1.489   3.183   3.267
  801SOL    HW1 3302   1.439   3.097   3.258
  801SOL    HW2 3303   1.425   3.259   3.258
  802SOL     OW 3304   4.936   1.252   0.427
  802SOL    HW1 3305   4.871   1.287   0.360
  802SOL    HW2 3306   4.906   1.277   0.519
  803SOL     OW 3307   6.463   6.060   5.063
  803SOL    HW1 3308   6.421   6.072   5.153
  803SOL    HW2 3309   6.531   5.987   5.068
  804SOL     OW 3310   6.600   6.235   0.264
  804SOL    HW1 3311   6.601   6.158   0.200
  804SOL    HW2 3312   6.639   6.316   0.219
  805SOL     OW 3313   4.564   2.726   5.862
  805SOL    HW1 3314   4.476   2.704   5.906
  805SOL    HW2 3315   4.604   2.642   5.825
  806SOL     OW 3316   3.590   2.069   5.134
  806SOL    HW1 3317   3.506   2.086   5.083
  806SOL    HW2 3318   3.636   1.988   5.098
  807SOL     OW 3319   1.021   1.473   3.747
  807SOL    HW1 3320   1.063   1.505   3.662
  807SOL    HW2 3321   0.923   1.459   3.732
  808SOL     OW 3322   5.270   3.137   6.437
  808SOL    HW1 3323   5.315   3.214   6.482
  808SOL    HW2 3324   5.227   3.168   6.352
  809SOL     OW 3325   1.520   4.848   1.427
  809SOL    HW1 3326   1.485   4.942   1.420
  809SOL    HW2 3327   1.474   4.790   1.359
  810SOL     OW 3328   4.381   2.955   0.719
  810SOL    HW1 3329   4.448   2.929   0.650
  810SOL    HW2 3330   4.408   3.042   0.760
  811SOL     OW 3331   4.709   5.217   3.808
  811SOL    HW1 3332   4.778   5.287   3.826
  811SOL    HW2 3333   4.751   5.126   3.809
  812SOL     OW 3334   0.072   0.800   1.675
  812SOL    HW1 3335   7.007   0.840   1.696
  812SOL    HW2 3336   0.122   0.782   1.760
  813SOL     OW 3337   4.205   5.712   3.154
  813SOL    HW1 3338   4.126   5.747   3.203
  813SOL    HW2 3339   4.175   5.648   3.083
  814SOL     OW 3340   5.132   6.749   3.138
  814SOL    HW1 3341   5.165   6.838   3.169
  814SOL    HW2 3342   5.203   6.704   3.085
  815SOL     OW 3343   6.105   2.853   2.342
  815SOL    HW1 3344   6.100   2.775   2.280
  815SOL    HW2 3345   6.107   2.820   2.437
  816SOL     OW 3346   0.529   6.907   0.131
  816SOL    HW1 3347   0.451   6.925   0.191
  816SOL    HW2 3348   0.538   6.808   0.117
  817SOL     OW 3349   1.954   4.257   2.085
  817SOL    HW1 3350   1.877   4.256   2.149
  817SOL    HW2 3351   1.921   4.233   1.993
  818SOL     OW 3352   6.594   2.833   0.634
  818SOL    HW1 3353   6.576   2.931   0.633
  818SOL    HW2 3354   6.549   2.790   0.555
  819SOL     OW 3355   6.389   2.896   4.343
  819SOL    HW1 3356   6.422   2.875   4.435
  819SOL    HW2 3357   6.416   2.989   4.318
  820SOL     OW 3358   1.502   3.116   5.894
  820SOL    HW1 3359   1.501   3.122   5.794
  820SOL    HW2 3360   1.457   3.031   5.923
  821SOL     OW 3361   2.762   4.420   0.670
  821SOL    HW1 3362   2.745   4.502   0.723
  821SOL    HW2 3363   2.797   4.445   0.580
  822SOL     OW 3364   0.644   5.508   4.153
  822SOL    HW1 3365   0.736   5.531   4.122
  822SOL    HW2 3366   0.643   5.414   4.188
  823SOL     OW 3367   4.715   4.210   6.589
  823SOL    HW1 3368   4.770   4.294   6.586
  823SOL    HW2 3369   4.636   4.224   6.649
  824SOL     OW 3370   5.256   1.226   5.159
  824SOL    HW1 3371   5.193   1.284   5.212
  824SOL    HW2 3372   5.248   1.132   5.190
  825SOL     OW 3373   2.203   2.994   2.191
  825SOL    HW1 3374   2.195   3.087   2.156
  825SOL    HW2 3375   2.174   2.991   2.287
  826SOL     OW 3376   6.162   4.239   0.493
  826SOL    HW1 3377   6.159   4.203   0.400
  826SOL    HW2 3378   6.074   4.282   0.515
  827SOL     OW 3379   3.244   5.555   5.646
  827SOL    HW1 3380   3.299   5.476   5.618
  827SOL    HW2 3381   3.176   5.574   5.575
  828SOL     OW 3382   6.213   0.596   5.174
  828SOL    HW1 3383   6.267   0.525   5.130
  828SOL    HW2 3384   6.250   0.616   5.265
  829SOL     OW 3385   3.004   3.327   4.469
  829SOL    HW1 3386   3.024   3.407   4.527
  829SOL    HW2 3387   2.935   3.352   4.401
  830SOL     OW 3388   5.257   4.531   5.911
  830SOL    HW1 3389   5.298   4.500   5.825
  830SOL    HW2 3390   5.298   4.618   5.938
  831SOL     OW 3391   0.169   6.694   4.385
  831SOL    HW1 3392   0.228   6.691   4.304
  831SOL    HW2 3393   0.082   6.650   4.363
  832SOL     OW 3394   2.118   1.218   0.296
  832SOL    HW1 3395   2.031   1.257   0.267
  832SOL    HW2 3396   2.138   1.138   0.240
  833SOL     OW 3397   6.937   6.190   6.243
  833SOL    HW1 3398   6.889   6.162   6.159
  833SOL    HW2 3399   0.004   6.224   6.220
  834SOL     OW 3400   3.755   3.725   2.387
  834SOL    HW1 3401   3.665   3.741   2.428
  834SOL    HW2 3402   3.818   3.797   2.416
  835SOL     OW 3403   4.266   6.304   3.839
  835SOL    HW1 3404   4.290   6.347   3.752
  835SOL    HW2 3405   4.265   6.374   3.911
  836SOL     OW 3406   3.152   6.103   6.706
  836SOL    HW1 3407   3.071   6.053   6.674
  836SOL    HW2 3408   3.144   6.121   6.804
  837SOL     OW 3409   4.778   0.494   6.953
  837SOL    HW1 3410   4.810   0.585   6.924
  837SOL    HW2 3411   4.846   0.453   7.013
  838SOL     OW 3412   0.883   0.045   4.910
  838SOL    HW1 3413   0.885   0.018   4.814
  838SOL    HW2 3414   0.887   6.987   4.967
  839SOL     OW 3415   2.813   1.476   2.912
  839SOL    HW1 3416   2.854   1.545   2.853
  839SOL    HW2 3417   2.722   1.505   2.940
  840SOL     OW 3418   6.769   1.290   5.722
  840SOL    HW1 3419   6.782   1.274   5.820
  840SOL    HW2 3420   6.855   1.274   5.674
  841SOL     OW 3421   5.919   4.351   0.501
  841SOL    HW1 3422   5.907   4.448   0.480
  841SOL    HW2 3423   5.843   4.299   0.461
  842SOL     OW 3424   4.368   5.404   3.123
  842SOL    HW1 3425   4.338   5.379   3.216
  842SOL    HW2 3426   4.287   5.415   3.065
  843SOL     OW 3427   5.666   2.193   0.138
  843SOL    HW1 3428   5.717   2.278   0.150
  843SOL    HW2 3429   5.718   2.118   0.180
  844SOL     OW 3430   4.583   6.185   0.463
  844SOL    HW1 3431   4.648   6.135   0.405
  844SOL    HW2 3432   4.558   6.128   0.541
  845SOL     OW 3433   6.143   2.781   5.052
  845SOL    HW1 3434   6.236   2.784   5.017
  845SOL    HW2 3435   6.142   2.812   5.147
  846SOL     OW 3436   5.588   1.678   6.731
  846SOL    HW1 3437   5.661   1.681   6.663
  846SOL    HW2 3438   5.499   1.680   6.686
  847SOL     OW 3439   6.173   3.229   0.722
  847SOL    HW1 3440   6.225   3.181   0.792
  847SOL    HW2 3441   6.076   3.209   0.732
  848SOL     OW 3442   5.979   0.847   6.477
  848SOL    HW1 3443   6.036   0.895   6.410
  848SOL    HW2 3444   5.901   0.905   6.501
  849SOL     OW 3445   6.949   5.520   4.981
  849SOL    HW1 3446   6.931   5.614   4.952
  849SOL    HW2 3447   7.023   5.481   4.926
  850SOL     OW 3448   4.396   0.307   3.409
  850SOL    HW1 3449   4.448   0.259   3.480
  850SOL    HW2 3450   4.438   0.291   3.320
  851SOL     OW 3451   0.159   1.448   0.616
  851SOL    HW1 3452   0.106   1.380   0.667
  851SOL    HW2 3453   0.099   1.524   0.591
  852SOL     OW 3454   2.462   2.538   6.728
  852SOL    HW1 3455   2.529   2.538   6.802
  852SOL    HW2 3456   2.503   2.577   6.646
  853SOL     OW 3457   0.826   3.743   3.092
  853SOL    HW1 3458   0.761   3.713   3.021
  853SOL    HW2 3459   0.871   3.827   3.063
  854SOL     OW 3460   5.301   6.549   2.148
  854SOL    HW1 3461   5.389   6.509   2.174
  854SOL    HW2 3462   5.313   6.645   2.125
  855SOL     OW 3463   6.169   0.187   1.558
  855SOL    HW1 3464   6.091   0.132   1.528
  855SOL    HW2 3465   6.136   0.269   1.604
  856SOL     OW 3466   1.900   0.935   5.417
  856SOL    HW1 3467   1.967   0.874   5.375
  856SOL    HW2 3468   1.948   1.011   5.461
  857SOL     OW 3469   5.512   4.873   1.514
  857SOL    HW1 3470   5.528   4.945   1.581
  857SOL    HW2 3471   5.533   4.784   1.554
  858SOL     OW 3472   2.892   4.829   1.876
  858SOL    HW1 3473   2.811   4.888   1.879
  858SOL    HW2 3474   2.863   4.734   1.886
  859SOL     OW 3475   5.486   5.268   6.963
  859SOL    HW1 3476   5.549   5.267   0.016
  859SOL    HW2 3477   5.489   5.180   6.916
  860SOL     OW 3478   4.259   3.764   0.131
  860SOL    HW1 3479   4.241   3.823   0.209
  860SOL    HW2 3480   4.337   3.705   0.151
  861SOL     OW 3481   2.374   6.833   4.415
  861SOL    HW1 3482   2.423   6.849   4.501
  861SOL    HW2 3483   2.437   6.848   4.339
  862SOL     OW 3484   5.742   4.558   5.112
  862SOL    HW1 3485   5.772   4.475   5.160
  862SOL    HW2 3486   5.803   4.634   5.134
  863SOL     OW 3487   1.315   0.189   0.949
  863SOL    HW1 3488   1.325   0.151   0.857
  863SOL    HW2 3489   1.405   0.217   0.984
  864SOL     OW 3490   5.038   4.397   3.704
  864SOL    HW1 3491   5.036   4.412   3.605
  864SOL    HW2 3492   5.080   4.476   3.748
  865SOL     OW 3493   0.796   0.044   4.365
  865SOL    HW1 3494   0.793   6.989   4.304
  865SOL    HW2 3495   0.744   0.119   4.325
  866SOL     OW 3496   2.749   1.420   2.045
  866SOL    HW1 3497   2.786   1.471   2.123
  866SOL    HW2 3498   2.761   1.474   1.961
  867SOL     OW 3499   3.309   2.743   0.193
  867SOL    HW1 3500   3.379   2.675   0.215
  867SOL    HW2 3501   3.237   2.701   0.137
  868SOL     OW 3502   6.104   0.231   2.006
  868SOL    HW1 3503   6.025   0.291   1.997
  868SOL    HW2 3504   6.075   0.143   2.044
  869SOL     OW 3505   6.644   5.564   2.963
  869SOL    HW1 3506   6.719   5.597   2.906
  869SOL    HW2 3507   6.584   5.640   2.988
  870SOL     OW 3508   6.507   2.715   1.476
  870SOL    HW1 3509   6.566   2.777   1.424
  870SOL    HW2 3510   6.422   2.763   1.500
  871SOL     OW 3511   6.870   2.999   2.001
  871SOL    HW1 3512   6.812   2.918   2.007
  871SOL    HW2 3513   6.966   2.973   2.007
  872SOL     OW 3514   6.538   2.911   4.587
  872SOL    HW1 3515   6.616   2.973   4.587
  872SOL    HW2 3516   6.568   2.821   4.619
  873SOL     OW 3517   3.964   0.157   2.987
  873SOL    HW1 3518   3.931   0.096   3.059
  873SOL    HW2 3519   3.959   0.252   3.019
  874SOL     OW 3520   2.045   4.209   5.269
  874SOL    HW1 3521   2.104   4.287   5.249
  874SOL    HW2 3522   2.051   4.143   5.194
  875SOL     OW 3523   5.304   4.858   0.662
  875SOL    HW1 3524   5.373   4.927   0.684
  875SOL    HW2 3525   5.292   4.797   0.740
  876SOL     OW 3526   6.768   3.832   3.121
  876SOL    HW1 3527   6.839   3.764   3.106
  876SOL    HW2 3528   6.798   3.897   3.190
  877SOL     OW 3529   4.823   4.740   6.991
  877SOL    HW1 3530   4.891   4.801   0.009
  877SOL    HW2 3531   4.806   4.663   0.028
  878SOL     OW 3532   3.458   5.189   6.754
  878SOL    HW1 3533   3.542   5.219   6.799
  878SOL    HW2 3534   3.406   5.269   6.722
  879SOL     OW 3535   4.538   1.702   2.600
  879SOL    HW1 3536   4.483   1.776   2.638
  879SOL    HW2 3537   4.479   1.636   2.555
  880SOL     OW 3538   3.511   4.151   6.863
  880SOL    HW1 3539   3.412   4.165   6.864
  880SOL    HW2 3540   3.556   4.233   6.829
  881SOL     OW 3541   4.325   4.683   4.756
  881SOL    HW1 3542   4.279   4.768   4.781
  881SOL    HW2 3543   4.343   4.630   4.839
  882SOL     OW 3544   1.757   1.072   4.720
  882SOL    HW1 3545   1.780   1.143   4.653
  882SOL    HW2 3546   1.825   0.999   4.715
  883SOL     OW 3547   3.992   5.113   5.341
  883SOL    HW1 3548   3.958   5.185   5.282
  883SOL    HW2 3549   4.082   5.082   5.309
  884SOL     OW 3550   6.471   3.250   1.784
  884SOL    HW1 3551   6.431   3.177   1.840
  884SOL    HW2 3552   6.426   3.253   1.695
  885SOL     OW 3553   5.627   6.230   0.124
  885SOL    HW1 3554   5.694   6.204   0.055
  885SOL    HW2 3555   5.642   6.176   0.207
  886SOL     OW 3556   4.101   1.296   6.692
  886SOL    HW1 3557   4.195   1.330   6.697
  886SOL    HW2 3558   4.045   1.344   6.760
  887SOL     OW 3559   4.323   6.895   6.244
  887SOL    HW1 3560   4.290   6.869   6.154
  887SOL    HW2 3561   4.276   6.978   6.274
  888SOL     OW 3562   7.002   6.311   3.794
  888SOL    HW1 3563   0.015   6.402   3.772
  888SOL    HW2 3564   7.015   6.250   3.716
  889SOL     OW 3565   0.059   6.383   5.748
  889SOL    HW1 3566   0.053   6.451   5.675
  889SOL    HW2 3567   7.007   6.396   5.812
  890SOL     OW 3568   2.789   4.749   2.152
  890SOL    HW1 3569   2.743   4.837   2.140
  890SOL    HW2 3570   2.797   4.703   2.063
  891SOL     OW 3571   5.582   3.563   1.519
  891SOL    HW1 3572   5.586   3.535   1.615
  891SOL    HW2 3573   5.615   3.658   1.511
  892SOL     OW 3574   2.952   4.245   0.746
  892SOL    HW1 3575   2.868   4.300   0.744
  892SOL    HW2 3576   2.929   4.148   0.738
  893SOL     OW 3577   1.568   0.217   0.410
  893SOL    HW1 3578   1.577   0.127   0.451
  893SOL    HW2 3579   1.474   0.229   0.376
  894SOL     OW 3580   1.159   5.152   4.131
  894SOL    HW1 3581   1.153   5.075   4.194
  894SOL    HW2 3582   1.241   5.206   4.151
  895SOL     OW 3583   2.005   0.058   4.319
  895SOL    HW1 3584   1.970   0.111   4.396
  895SOL    HW2 3585   2.080   0.108   4.275
  896SOL     OW 3586   5.959   6.236   3.893
  896SOL    HW1 3587   5.864   6.205   3.894
  896SOL    HW2 3588   5.966   6.323   3.941
  897SOL     OW 3589   5.096   2.013   0.478
  897SOL    HW1 3590   5.050   1.946   0.420
  897SOL    HW2 3591   5.076   2.105   0.445
  898SOL     OW 3592   5.390   6.501   3.770
  898SOL    HW1 3593   5.314   6.493   3.705
  898SOL    HW2 3594   5.360   6.467   3.860
  899SOL     OW 3595   0.538   4.800   6.703
  899SOL    HW1 3596   0.636   4.818   6.688
  899SOL    HW2 3597   0.505   4.735   6.634
  900SOL     OW 3598   6.687   6.001   1.933
  900SOL    HW1 3599   6.644   5.918   1.969
  900SOL    HW2 3600   6.745   5.977   1.856
  901SOL     OW 3601   6.912   1.401   4.323
  901SOL    HW1 3602   6.972   1.441   4.254
  901SOL    HW2 3603   6.937   1.436   4.413
  902SOL     OW 3604   6.503   0.459   6.522
  902SOL    HW1 3605   6.491   0.419   6.431
  902SOL    HW2 3606   6.418   0.503   6.550
  903SOL     OW 3607   6.742   4.397   0.901
  903SOL    HW1 3608   6.651   4.438   0.909
  903SOL    HW2 3609   6.742   4.332   0.825
  904SOL     OW 3610   1.385   1.464   3.285
  904SOL    HW1 3611   1.329   1.439   3.207
  904SOL    HW2 3612   1.416   1.381   3.332
  905SOL     OW 3613   4.898   2.045   6.183
  905SOL    HW1 3614   4.859   1.974   6.124
  905SOL    HW2 3615   4.994   2.059   6.161
  906SOL     OW 3616   0.415   4.209   6.961
  906SOL    HW1 3617   0.403   4.183   6.865
  906SOL    HW2 3618   0.366   4.144   7.019
  907SOL     OW 3619   6.207   2.213   2.399
  907SOL    HW1 3620   6.259   2.231   2.483
  907SOL    HW2 3621   6.213   2.116   2.376
  908SOL     OW 3622   1.299   0.025   4.274
  908SOL    HW1 3623   1.346   6.999   4.347
  908SOL    HW2 3624   1.329   7.016   4.185
  909SOL     OW 3625   2.603   0.652   0.234
  909SOL    HW1 3626   2.585   0.652   0.136
  909SOL    HW2 3627   2.702   0.660   0.250
  910SOL     OW 3628   1.293   0.550   0.384
  910SOL    HW1 3629   1.361   0.624   0.382
  910SOL    HW2 3630   1.209   0.584   0.428
  911SOL     OW 3631   0.197   5.004   1.375
  911SOL    HW1 3632   0.202   5.038   1.468
  911SOL    HW2 3633   0.275   4.944   1.356
  912SOL     OW 3634   0.302   1.632   5.626
  912SOL    HW1 3635   0.210   1.667   5.642
  912SOL    HW2 3636   0.369   1.692   5.669
  913SOL     OW 3637   2.155   0.657   3.893
  913SOL    HW1 3638   2.078   0.605   3.856
  913SOL    HW2 3639   2.151   0.752   3.861
  914SOL     OW 3640   2.512   5.992   3.973
  914SOL    HW1 3641   2.496   5.917   4.037
  914SOL    HW2 3642   2.571   5.961   3.899
  915SOL     OW 3643   0.747   3.684   0.244
  915SOL    HW1 3644   0.841   3.672   0.275
  915SOL    HW2 3645   0.747   3.710   0.147
  916SOL     OW 3646   2.403   2.023   2.564
  916SOL    HW1 3647   2.401   2.121   2.543
  916SOL    HW2 3648   2.472   2.005   2.634
  917SOL     OW 3649   3.575   0.790   1.045
  917SOL    HW1 3650   3.499   0.818   0.986
  917SOL    HW2 3651   3.542   0.779   1.139
  918SOL     OW 3652   2.722   6.065   6.216
  918SOL    HW1 3653   2.655   6.134   6.189
  918SOL    HW2 3654   2.714   5.985   6.155
  919SOL     OW 3655   1.341   5.097   2.278
  919SOL    HW1 3656   1.439   5.101   2.295
  919SOL    HW2 3657   1.322   5.128   2.185
  920SOL     OW 3658   2.632   0.394   2.712
  920SOL    HW1 3659   2.713   0.402   2.770
  920SOL    HW2 3660   2.660   0.373   2.619
  921SOL     OW 3661   6.292   4.655   4.338
  921SOL    HW1 3662   6.234   4.678   4.416
  921SOL    HW2 3663   6.345   4.735   4.310
  922SOL     OW 3664   2.785   3.746   6.701
  922SOL    HW1 3665   2.837   3.798   6.770
  922SOL    HW2 3666   2.688   3.749   6.724
  923SOL     OW 3667   2.516   5.860   6.940
  923SOL    HW1 3668   2.532   5.934   7.005
  923SOL    HW2 3669   2.460   5.894   6.865
  924SOL     OW 3670   5.423   3.327   3.220
  924SOL    HW1 3671   5.440   3.232   3.247
  924SOL    HW2 3672   5.442   3.388   3.297
  925SOL     OW 3673   0.564   1.999   5.850
  925SOL    HW1 3674   0.601   2.075   5.903
  925SOL    HW2 3675   0.566   2.023   5.753
  926SOL     OW 3676   5.977   6.258   0.628
  926SOL    HW1 3677   5.896   6.306   0.595
  926SOL    HW2 3678   6.001   6.185   0.563
  927SOL     OW 3679   4.716   4.122   4.108
  927SOL    HW1 3680   4.740   4.173   4.190
  927SOL    HW2 3681   4.670   4.183   4.043
  928SOL     OW 3682   1.554   6.982   0.579
  928SOL    HW1 3683   1.553   6.916   0.504
  928SOL    HW2 3684   1.609   6.947   0.654
  929SOL     OW 3685   0.564   2.737   2.166
  929SOL    HW1 3686   0.524   2.744   2.075
  929SOL    HW2 3687   0.491   2.730   2.235
  930SOL     OW 3688   5.178   4.607   4.539
  930SOL    HW1 3689   5.270   4.647   4.546
  930SOL    HW2 3690   5.133   4.642   4.457
  931SOL     OW 3691   0.653   2.615   2.923
  931SOL    HW1 3692   0.652   2.648   3.018
  931SOL    HW2 3693   0.664   2.516   2.923
  932SOL     OW 3694   4.056   6.046   1.248
  932SOL    HW1 3695   4.071   5.979   1.320
  932SOL    HW2 3696   4.142   6.060   1.198
  933SOL     OW 3697   1.433   4.498   3.014
  933SOL    HW1 3698   1.415   4.464   3.107
  933SOL    HW2 3699   1.405   4.594   3.008
  934SOL     OW 3700   3.404   0.647   5.112
  934SOL    HW1 3701   3.322   0.637   5.167
  934SOL    HW2 3702   3.394   0.725   5.050
  935SOL     OW 3703   4.712   3.568   6.334
  935SOL    HW1 3704   4.657   3.624   6.395
  935SOL    HW2 3705   4.652   3.519   6.270
  936SOL     OW 3706   0.593   0.231   1.289
  936SOL    HW1 3707   0.638   0.189   1.367
  936SOL    HW2 3708   0.596   0.331   1.298
  937SOL     OW 3709   4.501   1.576   4.342
  937SOL    HW1 3710   4.568   1.558   4.270
  937SOL    HW2 3711   4.471   1.671   4.338
  938SOL     OW 3712   6.692   3.854   5.769
  938SOL    HW1 3713   6.625   3.829   5.839
  938SOL    HW2 3714   6.782   3.865   5.811
  939SOL     OW 3715   5.288   1.224   6.175
  939SOL    HW1 3716   5.263   1.203   6.080
  939SOL    HW2 3717   5.295   1.139   6.226
  940SOL     OW 3718   6.921   0.802   2.878
  940SOL    HW1 3719   6.845   0.852   2.919
  940SOL    HW2 3720   6.947   0.726   2.938
  941SOL     OW 3721   5.258   1.294   3.903
  941SOL    HW1 3722   5.338   1.339   3.943
  941SOL    HW2 3723   5.224   1.349   3.827
  942SOL     OW 3724   5.345   6.708   5.243
  942SOL    HW1 3725   5.267   6.706   5.180
  942SOL    HW2 3726   5.420   6.759   5.200
  943SOL     OW 3727   6.512   3.077   2.519
  943SOL    HW1 3728   6.482   3.167   2.553
  943SOL    HW2 3729   6.519   3.081   2.419
  944SOL     OW 3730   6.282   3.138   4.510
  944SOL    HW1 3731   6.247   3.082   4.436
  944SOL    HW2 3732   6.261   3.096   4.598
  945SOL     OW 3733   4.628   4.350   3.962
  945SOL    HW1 3734   4.724   4.375   3.948
  945SOL    HW2 3735   4.580   4.425   4.006
  946SOL     OW 3736   5.765   2.736   5.892
  946SOL    HW1 3737   5.687   2.751   5.833
  946SOL    HW2 3738   5.754   2.789   5.976
  947SOL     OW 3739   3.301   3.293   6.073
  947SOL    HW1 3740   3.202   3.280   6.080
  947SOL    HW2 3741   3.348   3.206   6.087
  948SOL     OW 3742   3.295   1.180   0.494
  948SOL    HW1 3743   3.347   1.201   0.411
  948SOL    HW2 3744   3.218   1.243   0.501
  949SOL     OW 3745   6.141   5.213   6.572
  949SOL    HW1 3746   6.185   5.124   6.561
  949SOL    HW2 3747   6.143   5.240   6.668
  950SOL     OW 3748   4.072   5.021   1.624
  950SOL    HW1 3749   4.069   5.117   1.596
  950SOL    HW2 3750   4.161   4.981   1.599
  951SOL     OW 3751   0.888   0.621   1.914
  951SOL    HW1 3752   0.889   0.708   1.963
  951SOL    HW2 3753   0.975   0.609   1.866
  952SOL     OW 3754   5.010   1.051   2.753
  952SOL    HW1 3755   5.023   1.032   2.851
  952SOL    HW2 3756   5.007   1.150   2.739
  953SOL     OW 3757   4.408   6.510   5.361
  953SOL    HW1 3758   4.428   6.427   5.414
  953SOL    HW2 3759   4.477   6.579   5.380
  954SOL     OW 3760   6.378   0.023   1.668
  954SOL    HW1 3761   6.466   0.071   1.666
  954SOL    HW2 3762   6.305   0.086   1.642
  955SOL     OW 3763   0.713   4.850   3.580
  955SOL    HW1 3764   0.735   4.906   3.660
  955SOL    HW2 3765   0.626   4.802   3.595
  956SOL     OW 3766   1.413   1.346   1.468
  956SOL    HW1 3767   1.317   1.374   1.474
  956SOL    HW2 3768   1.437   1.292   1.548
  957SOL     OW 3769   1.228   4.917   5.736
  957SOL    HW1 3770   1.204   4.877   5.825
  957SOL    HW2 3771   1.303   4.981   5.748
  958SOL     OW 3772   4.881   2.206   1.044
  958SOL    HW1 3773   4.937   2.185   0.964
  958SOL    HW2 3774   4.936   2.199   1.126
  959SOL     OW 3775   2.919   5.012   2.612
  959SOL    HW1 3776   3.010   4.981   2.588
  959SOL    HW2 3777   2.922   5.057   2.702
  960SOL     OW 3778   2.028   6.156   4.198
  960SOL    HW1 3779   2.118   6.162   4.241
  960SOL    HW2 3780   2.000   6.246   4.167
  961SOL     OW 3781   3.930   0.135   2.325
  961SOL    HW1 3782   3.869   0.213   2.339
  961SOL    HW2 3783   3.891   0.074   2.256
  962SOL     OW 3784   1.891   0.976   3.347
  962SOL    HW1 3785   1.882   0.941   3.253
  962SOL    HW2 3786   1.985   1.006   3.363
  963SOL     OW 3787   6.026   0.054   1.321
  963SOL    HW1 3788   5.969   0.132   1.347
  963SOL    HW2 3789   5.968   7.005   1.284
  964SOL     OW 3790   5.461   3.291   0.754
  964SOL    HW1 3791   5.429   3.276   0.660
  964SOL    HW2 3792   5.398   3.355   0.800
  965SOL     OW 3793   6.507   1.625   0.846
  965SOL    HW1 3794   6.414   1.658   0.831
  965SOL    HW2 3795   6.513   1.582   0.937
  966SOL     OW 3796   6.031   1.622   3.308
  966SOL    HW1 3797   6.023   1.620   3.407
  966SOL    HW2 3798   6.036   1.717   3.277
  967SOL     OW 3799   1.573   5.403   0.415
  967SOL    HW1 3800   1.667   5.386   0.447
  967SOL    HW2 3801   1.576   5.465   0.337
  968SOL     OW 3802   4.681   2.682   2.638
  968SOL    HW1 3803   4.670   2.712   2.543
  968SOL    HW2 3804   4.737   2.749   2.687
  969SOL     OW 3805   3.863   6.514   6.271
  969SOL    HW1 3806   3.925   6.492   6.196
  969SOL    HW2 3807   3.769   6.491   6.244
  970SOL     OW 3808   4.331   1.576   5.156
  970SOL    HW1 3809   4.389   1.588   5.076
  970SOL    HW2 3810   4.236   1.596   5.132
  971SOL     OW 3811   6.695   1.512   2.420
  971SOL    HW1 3812   6.638   1.435   2.449
  971SOL    HW2 3813   6.781   1.510   2.470
  972SOL     OW 3814   6.505   4.569   0.749
  972SOL    HW1 3815   6.504   4.665   0.722
  972SOL    HW2 3816   6.476   4.561   0.844
  973SOL     OW 3817   6.877   4.513   6.427
  973SOL    HW1 3818   6.955   4.575   6.419
  973SOL    HW2 3819   6.875   4.452   6.348
  974SOL     OW 3820   3.175   0.561   2.756
  974SOL    HW1 3821   3.252   0.584   2.815
  974SOL    HW2 3822   3.101   0.521   2.811
  975SOL     OW 3823   3.038   6.096   6.108
  975SOL    HW1 3824   3.108   6.042   6.155
  975SOL    HW2 3825   2.964   6.118   6.172
  976SOL     OW 3826   6.996   3.282   2.546
  976SOL    HW1 3827   6.901   3.258   2.565
  976SOL    HW2 3828   7.017   3.262   2.450
  977SOL     OW 3829   1.231   1.119   3.836
  977SOL    HW1 3830   1.250   1.023   3.858
  977SOL    HW2 3831   1.249   1.175   3.917
  978SOL     OW 3832   6.078   4.344   4.432
  978SOL    HW1 3833   6.082   4.271   4.500
  978SOL    HW2 3834   6.033   4.424   4.472
  979SOL     OW 3835   5.883   1.529   3.560
  979SOL    HW1 3836   5.924   1.438   3.553
  979SOL    HW2 3837   5.791   1.528   3.520
  980SOL     OW 3838   5.645   2.649   3.587
  980SOL    HW1 3839   5.558   2.698   3.578
  980SOL    HW2 3840   5.643   2.566   3.531
  981SOL     OW 3841   1.167   1.608   5.088
  981SOL    HW1 3842   1.130   1.667   5.160
  981SOL    HW2 3843   1.240   1.657   5.040
  982SOL     OW 3844   1.600   2.654   2.023
  982SOL    HW1 3845   1.633   2.575   2.074
  982SOL    HW2 3846   1.503   2.669   2.042
  983SOL     OW 3847   5.982   2.303   3.331
  983SOL    HW1 3848   6.069   2.323   3.376
  983SOL    HW2 3849   6.000   2.267   3.239
  984SOL     OW 3850   4.443   0.999   5.500
  984SOL    HW1 3851   4.420   0.902   5.490
  984SOL    HW2 3852   4.407   1.050   5.421
  985SOL     OW 3853   4.239   5.561   0.202
  985SOL    HW1 3854   4.204   5.587   0.112
  985SOL    HW2 3855   4.163   5.527   0.258
  986SOL     OW 3856   5.277   5.394   6.114
  986SOL    HW1 3857   5.350   5.345   6.162
  986SOL    HW2 3858   5.317   5.455   6.045
  987SOL     OW 3859   3.158   6.822   1.815
  987SOL    HW1 3860   3.102   6.768   1.753
  987SOL    HW2 3861   3.164   6.776   1.904
  988SOL     OW 3862   3.719   2.624   0.762
  988SOL    HW1 3863   3.761   2.675   0.837
  988SOL    HW2 3864   3.664   2.550   0.800
  989SOL     OW 3865   0.660   0.652   6.240
  989SOL    HW1 3866   0.578   0.596   6.250
  989SOL    HW2 3867   0.651   0.735   6.295
  990SOL     OW 3868   4.849   0.024   4.101
  990SOL    HW1 3869   4.776   0.092   4.107
  990SOL    HW2 3870   4.927   0.055   4.156
  991SOL     OW 3871   1.182   2.211   4.743
  991SOL    HW1 3872   1.155   2.285   4.682
  991SOL    HW2 3873   1.140   2.225   4.833
  992SOL     OW 3874   0.235   2.873   6.826
  992SOL    HW1 3875   0.197   2.834   6.742
  992SOL    HW2 3876   0.292   2.951   6.803
  993SOL     OW 3877   3.005   5.342   2.478
  993SOL    HW1 3878   2.913   5.323   2.512
  993SOL    HW2 3879   3.047   5.412   2.536
  994SOL     OW 3880   3.649   4.145   2.285
  994SOL    HW1 3881   3.647   4.154   2.385
  994SOL    HW2 3882   3.725   4.085   2.259
  995SOL     OW 3883   1.686   2.623   5.908
  995SOL    HW1 3884   1.640   2.614   5.820
  995SOL    HW2 3885   1.620   2.647   5.979
  996SOL     OW 3886   1.748   3.650   3.589
  996SOL    HW1 3887   1.696   3.578   3.635
  996SOL    HW2 3888   1.842   3.618   3.573
  997SOL     OW 3889   0.731   0.575   1.381
  997SOL    HW1 3890   0.749   0.662   1.336
  997SOL    HW2 3891   0.817   0.538   1.417
  998SOL     OW 3892   4.265   0.100   2.930
  998SOL    HW1 3893   4.315   0.185   2.914
  998SOL    HW2 3894   4.167   0.119   2.931
  999SOL     OW 3895   5.526   5.655   1.238
  999SOL    HW1 3896   5.571   5.572   1.272
  999SOL    HW2 3897   5.557   5.673   1.145
 1000SOL     OW 3898   2.238   1.612   2.455
 1000SOL    HW1 3899   2.261   1.671   2.377
 1000SOL    HW2 3900   2.142   1.585   2.448
 1001SOL     OW 3901   4.092   6.820   6.618
 1001SOL    HW1 3902   4.192   6.820   6.608
 1001SOL    HW2 3903   4.062   6.735   6.662
 1002SOL     OW 3904   5.499   1.540   6.932
 1002SOL    HW1 3905   5.509   1.443   6.914
 1002SOL    HW2 3906   5.539   1.593   6.856
 1003SOL     OW 3907   2.172   6.880   2.472
 1003SOL    HW1 3908   2.260   6.835   2.456
 1003SOL    HW2 3909   2.099   6.825   2.433
 1004SOL     OW 3910   6.760   0.478   6.946
 1004SOL    HW1 3911   6.710   0.416   6.885
 1004SOL    HW2 3912   6.696   0.520   7.011
 1005SOL     OW 3913   0.318   0.456   2.767
 1005SOL    HW1 3914   0.298   0.362   2.794
 1005SOL    HW2 3915   0.241   0.515   2.792
 1006SOL     OW 3916   2.495   5.612   1.978
 1006SOL    HW1 3917   2.533   5.622   2.070
 1006SOL    HW2 3918   2.483   5.515   1.958
 1007SOL     OW 3919   5.947   0.862   3.432
 1007SOL    HW1 3920   5.983   0.933   3.493
 1007SOL    HW2 3921   6.011   0.786   3.427
 1008SOL     OW 3922   0.866   2.404   4.164
 1008SOL    HW1 3923   0.939   2.382   4.100
 1008SOL    HW2 3924   0.792   2.451   4.115
 1009SOL     OW 3925   6.685   5.623   3.908
 1009SOL    HW1 3926   6.641   5.707   3.877
 1009SOL    HW2 3927   6.622   5.573   3.969
 1010SOL     OW 3928   4.103   1.838   6.987
 1010SOL    HW1 3929   4.005   1.820   6.987
 1010SOL    HW2 3930   4.138   1.836   0.057
 1011SOL     OW 3931   3.161   5.653   3.818
 1011SOL    HW1 3932   3.062   5.638   3.817
 1011SOL    HW2 3933   3.207   5.578   3.770
 1012SOL     OW 3934   6.252   5.257   0.289
 1012SOL    HW1 3935   6.259   5.338   0.230
 1012SOL    HW2 3936   6.183   5.195   0.252
 1013SOL     OW 3937   0.463   0.980   6.743
 1013SOL    HW1 3938   0.457   1.074   6.708
 1013SOL    HW2 3939   0.498   0.981   6.836
 1014SOL     OW 3940   5.420   5.432   6.460
 1014SOL    HW1 3941   5.366   5.353   6.489
 1014SOL    HW2 3942   5.364   5.491   6.402
 1015SOL     OW 3943   3.756   6.783   4.852
 1015SOL    HW1 3944   3.742   6.696   4.899
 1015SOL    HW2 3945   3.675   6.804   4.797
 1016SOL     OW 3946   2.600   2.712   1.162
 1016SOL    HW1 3947   2.558   2.655   1.092
 1016SOL    HW2 3948   2.579   2.808   1.143
 1017SOL     OW 3949   5.188   2.450   0.947
 1017SOL    HW1 3950   5.226   2.412   1.032
 1017SOL    HW2 3951   5.263   2.478   0.887
 1018SOL     OW 3952   1.778   3.113   4.168
 1018SOL    HW1 3953   1.748   3.191   4.113
 1018SOL    HW2 3954   1.854   3.067   4.123
 1019SOL     OW 3955   0.274   1.291   0.413
 1019SOL    HW1 3956   0.239   1.339   0.494
 1019SOL    HW2 3957   0.286   1.357   0.338
 1020SOL     OW 3958   1.169   6.779   0.781
 1020SOL    HW1 3959   1.226   6.702   0.808
 1020SOL    HW2 3960   1.224   6.844   0.728
 1021SOL     OW 3961   5.866   1.413   1.914
 1021SOL    HW1 3962   5.964   1.405   1.929
 1021SOL    HW2 3963   5.822   1.325   1.934
 1022SOL     OW 3964   4.247   4.591   6.094
 1022SOL    HW1 3965   4.191   4.510   6.112
 1022SOL    HW2 3966   4.328   4.566   6.043
 1023SOL     OW 3967   6.323   6.833   1.819
 1023SOL    HW1 3968   6.330   6.910   1.756
 1023SOL    HW2 3969   6.227   6.804   1.826
 1024SOL     OW 3970   6.939   2.239   4.203
 1024SOL    HW1 3971   6.956   2.318   4.144
 1024SOL    HW2 3972   6.842   2.215   4.200
 1025SOL     OW 3973   3.942   4.561   0.135
 1025SOL    HW1 3974   4.015   4.497   0.111
 1025SOL    HW2 3975   3.893   4.588   0.051
 1026SOL     OW 3976   1.100   1.276   1.010
 1026SOL    HW1 3977   1.171   1.346   1.003
 1026SOL    HW2 3978   1.141   1.186   1.002
 1027SOL     OW 3979   3.043   5.518   0.987
 1027SOL    HW1 3980   3.131   5.525   1.033
 1027SOL    HW2 3981   2.970   5.533   1.053
 1028SOL     OW 3982   2.818   5.965   0.356
 1028SOL    HW1 3983   2.888   5.899   0.328
 1028SOL    HW2 3984   2.736   5.952   0.301
 1029SOL     OW 3985   1.893   0.615   0.392
 1029SOL    HW1 3986   1.844   0.547   0.447
 1029SOL    HW2 3987   1.938   0.569   0.315
 1030SOL     OW 3988   3.260   2.921   3.759
 1030SOL    HW1 3989   3.193   2.917   3.833
 1030SOL    HW2 3990   3.346   2.878   3.788
 1031SOL     OW 3991   3.710   5.208   1.572
 1031SOL    HW1 3992   3.722   5.184   1.476
 1031SOL    HW2 3993   3.718   5.307   1.582
 1032SOL     OW 3994   2.358   1.304   5.704
 1032SOL    HW1 3995   2.271   1.256   5.701
 1032SOL    HW2 3996   2.356   1.381   5.641
 1033SOL     OW 3997   1.900   5.742   1.335
 1033SOL    HW1 3998   1.948   5.819   1.378
 1033SOL    HW2 3999   1.929   5.734   1.240
 1034SOL     OW 4000   1.931   6.382   4.101
 1034SOL    HW1 4001   1.905   6.462   4.156
 1034SOL    HW2 4002   1.952   6.412   4.008
 1035SOL     OW 4003   3.002   2.141   3.786
 1035SOL    HW1 4004   2.991   2.041   3.785
 1035SOL    HW2 4005   2.982   2.176   3.878
 1036SOL     OW 4006   3.729   1.061   0.986
 1036SOL    HW1 4007   3.672   0.984   1.013
 1036SOL    HW2 4008   3.686   1.147   1.015
 1037SOL     OW 4009   0.670   1.194   1.143
 1037SOL    HW1 4010   0.749   1.191   1.204
 1037SOL    HW2 4011   0.603   1.126   1.172
 1038SOL     OW 4012   0.647   1.486   6.045
 1038SOL    HW1 4013   0.697   1.400   6.032
 1038SOL    HW2 4014   0.674   1.528   6.131
 1039SOL     OW 4015   4.506   1.632   4.952
 1039SOL    HW1 4016   4.565   1.698   4.906
 1039SOL    HW2 4017   4.455   1.579   4.885
 1040SOL     OW 4018   5.680   3.516   3.694
 1040SOL    HW1 4019   5.705   3.469   3.779
 1040SOL    HW2 4020   5.738   3.597   3.682
 1041SOL     OW 4021   6.416   6.955   4.011
 1041SOL    HW1 4022   6.319   6.949   4.036
 1041SOL    HW2 4023   6.473   6.930   4.089
 1042SOL     OW 4024   4.365   4.850   2.352
 1042SOL    HW1 4025   4.391   4.802   2.435
 1042SOL    HW2 4026   4.284   4.807   2.312
 1043SOL     OW 4027   4.032   1.522   6.311
 1043SOL    HW1 4028   4.070   1.435   6.344
 1043SOL    HW2 4029   3.958   1.503   6.247
 1044SOL     OW 4030   3.503   2.421   1.486
 1044SOL    HW1 4031   3.563   2.347   1.456
 1044SOL    HW2 4032   3.408   2.390   1.479
 1045SOL     OW 4033   3.284   0.701   1.432
 1045SOL    HW1 4034   3.186   0.700   1.415
 1045SOL    HW2 4035   3.304   0.758   1.511
 1046SOL     OW 4036   2.478   6.806   6.658
 1046SOL    HW1 4037   2.394   6.794   6.605
 1046SOL    HW2 4038   2.469   6.886   6.717
 1047SOL     OW 4039   1.645   5.353   3.078
 1047SOL    HW1 4040   1.713   5.400   3.022
 1047SOL    HW2 4041   1.569   5.415   3.097
 1048SOL     OW 4042   4.977   5.844   5.297
 1048SOL    HW1 4043   4.939   5.827   5.206
 1048SOL    HW2 4044   5.039   5.922   5.293
 1049SOL     OW 4045   6.856   3.648   5.084
 1049SOL    HW1 4046   6.766   3.692   5.075
 1049SOL    HW2 4047   6.902   3.647   4.996
 1050SOL     OW 4048   3.902   6.622   0.746
 1050SOL    HW1 4049   3.832   6.657   0.683
 1050SOL    HW2 4050   3.875   6.531   0.778
 1051SOL     OW 4051   4.160   4.656   6.959
 1051SOL    HW1 4052   4.141   4.628   6.865
 1051SOL    HW2 4053   4.154   4.576   7.020
 1052SOL     OW 4054   3.698   0.858   4.635
 1052SOL    HW1 4055   3.638   0.782   4.659
 1052SOL    HW2 4056   3.712   0.859   4.536
 1053SOL     OW 4057   5.697   5.979   3.564
 1053SOL    HW1 4058   5.600   6.003   3.558
 1053SOL    HW2 4059   5.751   6.041   3.507
 1054SOL     OW 4060   2.348   5.053   5.722
 1054SOL    HW1 4061   2.447   5.046   5.735
 1054SOL    HW2 4062   2.325   5.146   5.693
 1055SOL     OW 4063   5.854   5.222   4.321
 1055SOL    HW1 4064   5.864   5.249   4.226
 1055SOL    HW2 4065   5.767   5.175   4.333
 1056SOL     OW 4066   1.739   6.300   5.498
 1056SOL    HW1 4067   1.771   6.207   5.481
 1056SOL    HW2 4068   1.666   6.323   5.433
 1057SOL     OW 4069   3.424   3.851   3.497
 1057SOL    HW1 4070   3.447   3.933   3.549
 1057SOL    HW2 4071   3.418   3.772   3.558
 1058SOL     OW 4072   4.159   1.781   1.953
 1058SOL    HW1 4073   4.248   1.816   1.982
 1058SOL    HW2 4074   4.139   1.696   2.002
 1059SOL     OW 4075   3.934   0.578   1.523
 1059SOL    HW1 4076   3.870   0.650   1.496
 1059SOL    HW2 4077   4.011   0.576   1.459
 1060SOL     OW 4078   0.113   3.809   5.863
 1060SOL    HW1 4079   0.026   3.857   5.863
 1060SOL    HW2 4080   0.117   3.746   5.785
 1061SOL     OW 4081   3.575   4.205   0.887
 1061SOL    HW1 4082   3.511   4.258   0.943
 1061SOL    HW2 4083   3.667   4.212   0.926
 1062SOL     OW 4084   6.523   5.898   5.334
 1062SOL    HW1 4085   6.471   5.823   5.294
 1062SOL    HW2 4086   6.598   5.862   5.390
 1063SOL     OW 4087   1.109   3.744   0.898
 1063SOL    HW1 4088   1.159   3.762   0.983
 1063SOL    HW2 4089   1.142   3.806   0.827
 1064SOL     OW 4090   1.502   3.194   2.172
 1064SOL    HW1 4091   1.486   3.281   2.126
 1064SOL    HW2 4092   1.572   3.143   2.123
 1065SOL     OW 4093   5.147   0.328   4.022
 1065SOL    HW1 4094   5.176   0.233   4.010
 1065SOL    HW2 4095   5.138   0.371   3.932
 1066SOL     OW 4096   5.229   0.360   4.293
 1066SOL    HW1 4097   5.304   0.295   4.301
 1066SOL    HW2 4098   5.199   0.365   4.198
 1067SOL     OW 4099   1.808   2.324   1.129
 1067SOL    HW1 4100   1.799   2.224   1.123
 1067SOL    HW2 4101   1.718   2.364   1.145
 1068SOL     OW 4102   0.010   3.984   2.045
 1068SOL    HW1 4103   7.016   4.033   1.960
 1068SOL    HW2 4104   7.001   3.890   2.036
 1069SOL     OW 4105   4.230   4.559   0.895
 1069SOL    HW1 4106   4.285   4.513   0.826
 1069SOL    HW2 4107   4.133   4.550   0.873
 1070SOL     OW 4108   1.927   0.882   0.072
 1070SOL    HW1 4109   1.965   0.815   0.008
 1070SOL    HW2 4110   1.892   0.961   0.020
 1071SOL     OW 4111   3.904   6.970   3.168
 1071SOL    HW1 4112   3.876   6.949   3.262
 1071SOL    HW2 4113   3.823   6.968   3.108
 1072SOL     OW 4114   2.523   5.920   2.103
 1072SOL    HW1 4115   2.570   5.832   2.099
 1072SOL    HW2 4116   2.425   5.905   2.115
 1073SOL     OW 4117   3.598   5.296   2.233
 1073SOL    HW1 4118   3.530   5.370   2.240
 1073SOL    HW2 4119   3.638   5.297   2.141
 1074SOL     OW 4120   1.425   5.385   1.997
 1074SOL    HW1 4121   1.420   5.425   1.905
 1074SOL    HW2 4122   1.516   5.348   2.013
 1075SOL     OW 4123   5.029   4.914   3.367
 1075SOL    HW1 4124   4.946   4.883   3.413
 1075SOL    HW2 4125   5.005   4.971   3.289
 1076SOL     OW 4126   1.252   4.269   4.848
 1076SOL    HW1 4127   1.350   4.253   4.835
 1076SOL    HW2 4128   1.219   4.330   4.776
 1077SOL     OW 4129   5.821   6.727   0.653
 1077SOL    HW1 4130   5.841   6.658   0.723
 1077SOL    HW2 4131   5.903   6.782   0.637
 1078SOL     OW 4132   1.773   1.472   2.363
 1078SOL    HW1 4133   1.708   1.496   2.435
 1078SOL    HW2 4134   1.800   1.376   2.372
 1079SOL     OW 4135   2.467   5.366   3.313
 1079SOL    HW1 4136   2.552   5.371   3.259
 1079SOL    HW2 4137   2.484   5.313   3.396
 1080SOL     OW 4138   2.878   5.391   3.437
 1080SOL    HW1 4139   2.809   5.434   3.497
 1080SOL    HW2 4140   2.894   5.298   3.468
 1081SOL     OW 4141   1.267   1.305   5.884
 1081SOL    HW1 4142   1.268   1.292   5.784
 1081SOL    HW2 4143   1.344   1.363   5.911
 1082SOL     OW 4144   1.387   6.954   5.472
 1082SOL    HW1 4145   1.293   6.937   5.444
 1082SOL    HW2 4146   1.444   6.875   5.451
 1083SOL     OW 4147   3.718   3.264   2.338
 1083SOL    HW1 4148   3.635   3.211   2.323
 1083SOL    HW2 4149   3.724   3.337   2.269
 1084SOL     OW 4150   6.421   5.595   1.125
 1084SOL    HW1 4151   6.411   5.680   1.073
 1084SOL    HW2 4152   6.366   5.523   1.082
 1085SOL     OW 4153   2.194   4.612   3.971
 1085SOL    HW1 4154   2.187   4.566   4.060
 1085SOL    HW2 4155   2.230   4.548   3.903
 1086SOL     OW 4156   6.080   5.315   3.592
 1086SOL    HW1 4157   6.039   5.383   3.532
 1086SOL    HW2 4158   6.120   5.242   3.537
 1087SOL     OW 4159   5.019   3.182   4.848
 1087SOL    HW1 4160   5.074   3.233   4.913
 1087SOL    HW2 4161   4.956   3.122   4.897
 1088SOL     OW 4162   5.088   4.654   3.331
 1088SOL    HW1 4163   5.076   4.620   3.238
 1088SOL    HW2 4164   5.076   4.753   3.333
 1089SOL     OW 4165   7.016   0.156   4.430
 1089SOL    HW1 4166   0.023   0.088   4.363
 1089SOL    HW2 4167   0.059   0.229   4.437
 1090SOL     OW 4168   2.780   1.132   4.904
 1090SOL    HW1 4169   2.804   1.229   4.917
 1090SOL    HW2 4170   2.862   1.076   4.910
 1091SOL     OW 4171   1.535   1.900   4.121
 1091SOL    HW1 4172   1.538   1.818   4.178
 1091SOL    HW2 4173   1.553   1.876   4.026
 1092SOL     OW 4174   2.111   3.457   1.083
 1092SOL    HW1 4175   2.203   3.438   1.119
 1092SOL    HW2 4176   2.118   3.514   1.002
 1093SOL     OW 4177   1.456   2.093   2.678
 1093SOL    HW1 4178   1.489   2.117   2.587
 1093SOL    HW2 4179   1.511   2.139   2.748
 1094SOL     OW 4180   0.315   6.682   1.620
 1094SOL    HW1 4181   0.402   6.633   1.620
 1094SOL    HW2 4182   0.264   6.659   1.703
 1095SOL     OW 4183   6.072   2.479   6.593
 1095SOL    HW1 4184   6.026   2.427   6.665
 1095SOL    HW2 4185   6.095   2.419   6.517
 1096SOL     OW 4186   3.752   5.306   1.024
 1096SOL    HW1 4187   3.748   5.228   0.963
 1096SOL    HW2 4188   3.823   5.369   0.993
 1097SOL     OW 4189   1.594   5.509   4.777
 1097SOL    HW1 4190   1.624   5.544   4.866
 1097SOL    HW2 4191   1.576   5.585   4.715
 1098SOL     OW 4192   5.000   2.481   0.761
 1098SOL    HW1 4193   4.904   2.458   0.778
 1098SOL    HW2 4194   5.051   2.476   0.847
 1099SOL     OW 4195   3.987   2.230   4.644
 1099SOL    HW1 4196   3.930   2.230   4.562
 1099SOL    HW2 4197   4.069   2.284   4.629
 1100SOL     OW 4198   0.624   1.310   6.374
 1100SOL    HW1 4199   0.525   1.300   6.381
 1100SOL    HW2 4200   0.663   1.227   6.333
 1101SOL     OW 4201   5.765   3.410   1.367
 1101SOL    HW1 4202   5.803   3.472   1.298
 1101SOL    HW2 4203   5.720   3.464   1.438
 1102SOL     OW 4204   0.812   4.818   4.075
 1102SOL    HW1 4205   0.783   4.864   3.990
 1102SOL    HW2 4206   0.890   4.759   4.056
 1103SOL     OW 4207   1.930   1.607   2.145
 1103SOL    HW1 4208   2.022   1.579   2.170
 1103SOL    HW2 4209   1.864   1.555   2.199
 1104SOL     OW 4210   2.075   4.393   6.117
 1104SOL    HW1 4211   2.134   4.320   6.082
 1104SOL    HW2 4212   2.025   4.434   6.041
 1105SOL     OW 4213   4.923   4.039   6.629
 1105SOL    HW1 4214   4.844   4.100   6.623
 1105SOL    HW2 4215   5.007   4.093   6.634
 1106SOL     OW 4216   0.676   2.247   6.469
 1106SOL    HW1 4217   0.696   2.185   6.545
 1106SOL    HW2 4218   0.647   2.193   6.390
 1107SOL     OW 4219   0.892   0.240   6.752
 1107SOL    HW1 4220   0.943   0.301   6.812
 1107SOL    HW2 4221   0.890   0.279   6.659
 1108SOL     OW 4222   2.303   0.786   5.115
 1108SOL    HW1 4223   2.283   0.756   5.208
 1108SOL    HW2 4224   2.293   0.708   5.052
 1109SOL     OW 4225   3.972   5.882   4.492
 1109SOL    HW1 4226   3.882   5.919   4.468
 1109SOL    HW2 4227   3.965   5.831   4.578
 1110SOL     OW 4228   2.599   2.456   1.311
 1110SOL    HW1 4229   2.570   2.543   1.351
 1110SOL    HW2 4230   2.672   2.472   1.245
 1111SOL     OW 4231   4.970   7.006   6.811
 1111SOL    HW1 4232   4.977   0.032   6.897
 1111SOL    HW2 4233   4.929   0.041   6.741
 1112SOL     OW 4234   6.058   0.962   2.750
 1112SOL    HW1 4235   6.143   0.951   2.801
 1112SOL    HW2 4236   5.994   1.018   2.804
 1113SOL     OW 4237   6.408   3.314   2.599
 1113SOL    HW1 4238   6.470   3.384   2.564
 1113SOL    HW2 4239   6.316   3.352   2.611
 1114SOL     OW 4240   5.147   0.595   6.450
 1114SOL    HW1 4241   5.222   0.616   6.512
 1114SOL    HW2 4242   5.128   0.675   6.392
 1115SOL     OW 4243   3.976   2.531   0.634
 1115SOL    HW1 4244   4.061   2.553   0.682
 1115SOL    HW2 4245   3.933   2.616   0.604
 1116SOL     OW 4246   5.192   5.954   3.959
 1116SOL    HW1 4247   5.207   5.968   4.056
 1116SOL    HW2 4248   5.259   5.890   3.922
 1117SOL     OW 4249   2.437   2.653   1.452
 1117SOL    HW1 4250   2.455   2.751   1.436
 1117SOL    HW2 4251   2.339   2.639   1.462
 1118SOL     OW 4252   1.870   5.103   3.264
 1118SOL    HW1 4253   1.770   5.099   3.258
 1118SOL    HW2 4254   1.910   5.063   3.181
 1119SOL     OW 4255   4.182   4.079   1.717
 1119SOL    HW1 4256   4.277   4.109   1.724
 1119SOL    HW2 4257   4.127   4.151   1.676
 1120SOL     OW 4258   5.431   6.882   6.022
 1120SOL    HW1 4259   5.343   6.851   6.057
 1120SOL    HW2 4260   5.490   6.803   6.004
 1121SOL     OW 4261   5.239   2.918   1.927
 1121SOL    HW1 4262   5.299   2.923   1.847
 1121SOL    HW2 4263   5.144   2.922   1.897
 1122SOL     OW 4264   6.044   2.727   6.682
 1122SOL    HW1 4265   6.118   2.763   6.738
 1122SOL    HW2 4266   6.076   2.648   6.630
 1123SOL     OW 4267   4.738   1.632   2.053
 1123SOL    HW1 4268   4.655   1.584   2.080
 1123SOL    HW2 4269   4.714   1.719   2.009
 1124SOL     OW 4270   6.584   3.750   5.075
 1124SOL    HW1 4271   6.560   3.828   5.017
 1124SOL    HW2 4272   6.545   3.667   5.037
 1125SOL     OW 4273   2.654   2.631   5.299
 1125SOL    HW1 4274   2.653   2.621   5.398
 1125SOL    HW2 4275   2.676   2.726   5.275
 1126SOL     OW 4276   4.419   6.889   0.329
 1126SOL    HW1 4277   4.456   6.872   0.420
 1126SOL    HW2 4278   4.319   6.887   0.332
 1127SOL     OW 4279   2.385   4.140   6.813
 1127SOL    HW1 4280   2.461   4.100   6.761
 1127SOL    HW2 4281   2.308   4.156   6.751
 1128SOL     OW 4282   4.254   2.209   4.020
 1128SOL    HW1 4283   4.176   2.187   3.962
 1128SOL    HW2 4284   4.339   2.198   3.968
 1129SOL     OW 4285   4.321   0.303   0.559
 1129SOL    HW1 4286   4.222   0.297   0.543
 1129SOL    HW2 4287   4.348   0.399   0.564
 1130SOL     OW 4288   1.344   3.782   1.403
 1130SOL    HW1 4289   1.430   3.730   1.399
 1130SOL    HW2 4290   1.297   3.762   1.489
 1131SOL     OW 4291   0.394   6.210   5.906
 1131SOL    HW1 4292   0.307   6.254   5.925
 1131SOL    HW2 4293   0.459   6.278   5.871
 1132SOL     OW 4294   5.283   6.932   5.572
 1132SOL    HW1 4295   5.276   6.833   5.555
 1132SOL    HW2 4296   5.234   6.954   5.657
 1133SOL     OW 4297   0.421   2.386   1.225
 1133SOL    HW1 4298   0.327   2.372   1.255
 1133SOL    HW2 4299   0.469   2.298   1.225
 1134SOL     OW 4300   5.598   2.519   6.730
 1134SOL    HW1 4301   5.650   2.562   6.804
 1134SOL    HW2 4302   5.545   2.588   6.682
 1135SOL     OW 4303   3.214   2.045   3.310
 1135SOL    HW1 4304   3.162   2.089   3.382
 1135SOL    HW2 4305   3.219   2.106   3.230
 1136SOL     OW 4306   2.122   5.750   3.540
 1136SOL    HW1 4307   2.183   5.746   3.620
 1136SOL    HW2 4308   2.138   5.835   3.490
 1137SOL     OW 4309   1.069   1.803   0.147
 1137SOL    HW1 4310   0.971   1.792   0.167
 1137SOL    HW2 4311   1.094   1.743   0.070
 1138SOL     OW 4312   2.362   3.506   6.359
 1138SOL    HW1 4313   2.397   3.449   6.434
 1138SOL    HW2 4314   2.372   3.457   6.272
 1139SOL     OW 4315   1.185   6.011   3.206
 1139SOL    HW1 4316   1.185   5.945   3.281
 1139SOL    HW2 4317   1.098   6.061   3.205
 1140SOL     OW 4318   3.501   1.869   3.260
 1140SOL    HW1 4319   3.559   1.950   3.255
 1140SOL    HW2 4320   3.407   1.892   3.235
 1141SOL     OW 4321   5.264   5.768   5.886
 1141SOL    HW1 4322   5.320   5.840   5.927
 1141SOL    HW2 4323   5.170   5.776   5.917
 1142SOL     OW 4324   4.893   0.244   4.390
 1142SOL    HW1 4325   4.805   0.241   4.438
 1142SOL    HW2 4326   4.959   0.296   4.444
 1143SOL     OW 4327   3.916   2.155   2.533
 1143SOL    HW1 4328   3.928   2.076   2.594
 1143SOL    HW2 4329   3.842   2.136   2.469
 1144SOL     OW 4330   0.057   4.232   4.119
 1144SOL    HW1 4331   0.099   4.322   4.128
 1144SOL    HW2 4332   0.129   4.163   4.108
 1145SOL     OW 4333   6.914   5.755   3.881
 1145SOL    HW1 4334   6.933   5.839   3.933
 1145SOL    HW2 4335   6.835   5.708   3.920
 1146SOL     OW 4336   5.655   2.101   0.830
 1146SOL    HW1 4337   5.555   2.103   0.837
 1146SOL    HW2 4338   5.694   2.173   0.887
 1147SOL     OW 4339   0.880   3.717   1.467
 1147SOL    HW1 4340   0.786   3.745   1.488
 1147SOL    HW2 4341   0.913   3.657   1.539
 1148SOL     OW 4342   3.462   6.096   6.222
 1148SOL    HW1 4343   3.421   6.068   6.136
 1148SOL    HW2 4344   3.536   6.161   6.205
 1149SOL     OW 4345   6.504   3.400   3.226
 1149SOL    HW1 4346   6.529   3.427   3.133
 1149SOL    HW2 4347   6.421   3.344   3.224
 1150SOL     OW 4348   2.697   4.757   1.281
 1150SOL    HW1 4349   2.678   4.788   1.374
 1150SOL    HW2 4350   2.718   4.659   1.282
 1151SOL     OW 4351   5.861   5.842   6.554
 1151SOL    HW1 4352   5.831   5.853   6.459
 1151SOL    HW2 4353   5.849   5.747   6.582
 1152SOL     OW 4354   1.265   0.263   4.993
 1152SOL    HW1 4355   1.312   0.346   4.964
 1152SOL    HW2 4356   1.220   0.221   4.914
 1153SOL     OW 4357   2.713   6.323   3.080
 1153SOL    HW1 4358   2.756   6.369   3.002
 1153SOL    HW2 4359   2.629   6.279   3.050
 1154SOL     OW 4360   0.758   3.791   2.284
 1154SOL    HW1 4361   0.676   3.839   2.253
 1154SOL    HW2 4362   0.741   3.692   2.282
 1155SOL     OW 4363   3.349   6.119   0.422
 1155SOL    HW1 4364   3.375   6.113   0.519
 1155SOL    HW2 4365   3.431   6.119   0.365
 1156SOL     OW 4366   2.374   0.509   3.789
 1156SOL    HW1 4367   2.302   0.559   3.838
 1156SOL    HW2 4368   2.368   0.530   3.691
 1157SOL     OW 4369   6.933   2.363   4.954
 1157SOL    HW1 4370   6.955   2.363   4.857
 1157SOL    HW2 4371   7.017   2.347   5.007
 1158SOL     OW 4372   5.409   4.467   5.696
 1158SOL    HW1 4373   5.433   4.522   5.615
 1158SOL    HW2 4374   5.454   4.378   5.690
 1159SOL     OW 4375   3.468   6.449   2.608
 1159SOL    HW1 4376   3.446   6.534   2.559
 1159SOL    HW2 4377   3.438   6.371   2.554
 1160SOL     OW 4378   3.632   3.819   2.156
 1160SOL    HW1 4379   3.695   3.892   2.131
 1160SOL    HW2 4380   3.679   3.753   2.214
 1161SOL     OW 4381   5.494   0.474   4.569
 1161SOL    HW1 4382   5.522   0.499   4.476
 1161SOL    HW2 4383   5.576   0.466   4.626
 1162SOL     OW 4384   3.104   3.106   1.199
 1162SOL    HW1 4385   3.044   3.027   1.189
 1162SOL    HW2 4386   3.177   3.100   1.130
 1163SOL     OW 4387   4.864   2.584   1.812
 1163SOL    HW1 4388   4.930   2.598   1.886
 1163SOL    HW2 4389   4.901   2.619   1.726
 1164SOL     OW 4390   5.347   3.210   2.971
 1164SOL    HW1 4391   5.362   3.112   2.959
 1164SOL    HW2 4392   5.380   3.239   3.061
 1165SOL     OW 4393   1.410   3.452   3.605
 1165SOL    HW1 4394   1.496   3.402   3.614
 1165SOL    HW2 4395   1.346   3.399   3.551
 1166SOL     OW 4396   4.356   1.999   6.261
 1166SOL    HW1 4397   4.382   1.959   6.349
 1166SOL    HW2 4398   4.404   1.952   6.187
 1167SOL     OW 4399   3.633   0.740   5.234
 1167SOL    HW1 4400   3.714   0.763   5.180
 1167SOL    HW2 4401   3.565   0.696   5.175
 1168SOL     OW 4402   6.181   6.725   2.786
 1168SOL    HW1 4403   6.229   6.686   2.708
 1168SOL    HW2 4404   6.104   6.667   2.811
 1169SOL     OW 4405   0.416   3.410   0.658
 1169SOL    HW1 4406   0.416   3.502   0.697
 1169SOL    HW2 4407   0.489   3.402   0.590
 1170SOL     OW 4408   3.570   1.023   2.789
 1170SOL    HW1 4409   3.505   1.090   2.753
 1170SOL    HW2 4410   3.660   1.066   2.800
 1171SOL     OW 4411   3.078   6.358   1.021
 1171SOL    HW1 4412   3.171   6.391   1.009
 1171SOL    HW2 4413   3.014   6.435   1.016
 1172SOL     OW 4414   3.952   3.798   4.144
 1172SOL    HW1 4415   3.890   3.876   4.137
 1172SOL    HW2 4416   4.005   3.790   4.060
 1173SOL     OW 4417   3.399   0.291   5.555
 1173SOL    HW1 4418   3.401   0.204   5.505
 1173SOL    HW2 4419   3.435   0.364   5.497
 1174SOL     OW 4420   2.731   5.729   0.742
 1174SOL    HW1 4421   2.774   5.708   0.830
 1174SOL    HW2 4422   2.800   5.721   0.669
 1175SOL     OW 4423   6.029   4.546   6.727
 1175SOL    HW1 4424   6.108   4.490   6.703
 1175SOL    HW2 4425   5.990   4.585   6.644
 1176SOL     OW 4426   5.698   4.964   1.120
 1176SOL    HW1 4427   5.687   5.060   1.093
 1176SOL    HW2 4428   5.755   4.959   1.202
 1177SOL     OW 4429   0.108   2.541   5.548
 1177SOL    HW1 4430   0.142   2.625   5.505
 1177SOL    HW2 4431   0.048   2.565   5.625
 1178SOL     OW 4432   4.766   4.035   2.503
 1178SOL    HW1 4433   4.802   4.061   2.413
 1178SOL    HW2 4434   4.727   3.943   2.498
 1179SOL     OW 4435   1.792   3.789   0.821
 1179SOL    HW1 4436   1.720   3.738   0.775
 1179SOL    HW2 4437   1.870   3.729   0.839
 1180SOL     OW 4438   2.134   1.065   3.205
 1180SOL    HW1 4439   2.205   1.026   3.146
 1180SOL    HW2 4440   2.098   1.148   3.164
 1181SOL     OW 4441   0.752   5.073   4.446
 1181SOL    HW1 4442   0.781   5.102   4.537
 1181SOL    HW2 4443   0.672   5.013   4.454
 1182SOL     OW 4444   2.388   4.561   3.591
 1182SOL    HW1 4445   2.404   4.540   3.495
 1182SOL    HW2 4446   2.313   4.626   3.600
 1183SOL     OW 4447   4.482   5.426   1.458
 1183SOL    HW1 4448   4.407   5.417   1.523
 1183SOL    HW2 4449   4.569   5.420   1.506
 1184SOL     OW 4450   3.403   2.984   5.473
 1184SOL    HW1 4451   3.309   2.960   5.448
 1184SOL    HW2 4452   3.467   2.925   5.424
 1185SOL     OW 4453   2.390   0.431   0.241
 1185SOL    HW1 4454   2.309   0.426   0.300
 1185SOL    HW2 4455   2.439   0.517   0.259
 1186SOL     OW 4456   6.118   0.199   5.185
 1186SOL    HW1 4457   6.031   0.247   5.175
 1186SOL    HW2 4458   6.163   0.228   5.269
 1187SOL     OW 4459   5.964   6.065   4.713
 1187SOL    HW1 4460   6.004   6.144   4.667
 1187SOL    HW2 4461   5.983   6.071   4.811
 1188SOL     OW 4462   2.251   6.778   6.076
 1188SOL    HW1 4463   2.241   6.877   6.073
 1188SOL    HW2 4464   2.329   6.750   6.019
 1189SOL     OW 4465   5.511   1.544   1.883
 1189SOL    HW1 4466   5.477   1.508   1.796
 1189SOL    HW2 4467   5.543   1.638   1.870
 1190SOL     OW 4468   3.836   5.192   3.529
 1190SOL    HW1 4469   3.898   5.251   3.580
 1190SOL    HW2 4470   3.745   5.232   3.527
 1191SOL     OW 4471   3.385   5.004   6.187
 1191SOL    HW1 4472   3.425   4.939   6.251
 1191SOL    HW2 4473   3.318   4.958   6.130
 1192SOL     OW 4474   6.210   4.849   3.353
 1192SOL    HW1 4475   6.285   4.808   3.300
 1192SOL    HW2 4476   6.142   4.779   3.375
 1193SOL     OW 4477   5.195   6.998   4.579
 1193SOL    HW1 4478   5.267   6.992   4.510
 1193SOL    HW2 4479   5.126   6.928   4.561
 1194SOL     OW 4480   6.561   0.322   0.864
 1194SOL    HW1 4481   6.506   0.363   0.937
 1194SOL    HW2 4482   6.657   0.323   0.891
 1195SOL     OW 4483   6.529   1.208   6.275
 1195SOL    HW1 4484   6.463   1.218   6.200
 1195SOL    HW2 4485   6.483   1.171   6.355
 1196SOL     OW 4486   0.444   5.025   2.324
 1196SOL    HW1 4487   0.528   4.977   2.350
 1196SOL    HW2 4488   0.461   5.081   2.243
 1197SOL     OW 4489   3.919   5.973   5.591
 1197SOL    HW1 4490   4.016   5.984   5.614
 1197SOL    HW2 4491   3.907   5.985   5.493
 1198SOL     OW 4492   3.228   2.077   2.722
 1198SOL    HW1 4493   3.233   2.109   2.627
 1198SOL    HW2 4494   3.205   1.980   2.723
 1199SOL     OW 4495   3.110   4.032   2.338
 1199SOL    HW1 4496   3.098   4.023   2.239
 1199SOL    HW2 4497   3.030   4.078   2.377
 1200SOL     OW 4498   4.356   3.977   5.376
 1200SOL    HW1 4499   4.338   3.970   5.474
 1200SOL    HW2 4500   4.295   4.044   5.335
 1201SOL     OW 4501   1.329   1.387   5.141
 1201SOL    HW1 4502   1.262   1.458   5.121
 1201SOL    HW2 4503   1.352   1.338   5.056
 1202SOL     OW 4504   5.625   0.055   5.623
 1202SOL    HW1 4505   5.585   7.021   5.694
 1202SOL    HW2 4506   5.552   0.101   5.573
 1203SOL     OW 4507   5.376   0.252   1.240
 1203SOL    HW1 4508   5.295   0.287   1.286
 1203SOL    HW2 4509   5.364   0.259   1.141
 1204SOL     OW 4510   3.558   1.512   0.546
 1204SOL    HW1 4511   3.633   1.457   0.510
 1204SOL    HW2 4512   3.505   1.549   0.469
 1205SOL     OW 4513   5.542   2.760   6.088
 1205SOL    HW1 4514   5.559   2.664   6.069
 1205SOL    HW2 4515   5.452   2.786   6.053
 1206SOL     OW 4516   2.010   1.590   4.813
 1206SOL    HW1 4517   1.941   1.626   4.750
 1206SOL    HW2 4518   1.980   1.501   4.848
 1207SOL     OW 4519   6.252   6.773   0.397
 1207SOL    HW1 4520   6.222   6.695   0.452
 1207SOL    HW2 4521   6.172   6.825   0.368
 1208SOL     OW 4522   3.565   3.847   2.975
 1208SOL    HW1 4523   3.625   3.775   2.940
 1208SOL    HW2 4524   3.471   3.829   2.947
 1209SOL     OW 4525   6.048   5.850   5.467
 1209SOL    HW1 4526   6.077   5.943   5.489
 1209SOL    HW2 4527   5.968   5.826   5.522
 1210SOL     OW 4528   3.828   0.170   2.752
 1210SOL    HW1 4529   3.860   0.169   2.846
 1210SOL    HW2 4530   3.892   0.121   2.694
 1211SOL     OW 4531   1.196   3.254   4.267
 1211SOL    HW1 4532   1.110   3.246   4.216
 1211SOL    HW2 4533   1.272   3.231   4.207
 1212SOL     OW 4534   1.528   3.693   5.940
 1212SOL    HW1 4535   1.541   3.689   6.039
 1212SOL    HW2 4536   1.528   3.600   5.903
 1213SOL     OW 4537   6.629   2.756   5.181
 1213SOL    HW1 4538   6.580   2.761   5.268
 1213SOL    HW2 4539   6.723   2.728   5.198
 1214SOL     OW 4540   1.790   3.459   4.750
 1214SOL    HW1 4541   1.776   3.455   4.651
 1214SOL    HW2 4542   1.888   3.468   4.769
 1215SOL     OW 4543   2.273   4.645   2.550
 1215SOL    HW1 4544   2.322   4.565   2.585
 1215SOL    HW2 4545   2.315   4.728   2.588
 1216SOL     OW 4546   1.583   6.654   1.312
 1216SOL    HW1 4547   1.525   6.578   1.343
 1216SOL    HW2 4548   1.581   6.728   1.379
 1217SOL     OW 4549   1.238   6.491   6.947
 1217SOL    HW1 4550   1.330   6.461   6.924
 1217SOL    HW2 4551   1.241   6.584   6.984
 1218SOL     OW 4552   1.264   3.544   5.138
 1218SOL    HW1 4553   1.204   3.579   5.066
 1218SOL    HW2 4554   1.221   3.466   5.182
 1219SOL     OW 4555   4.413   5.324   0.183
 1219SOL    HW1 4556   4.320   5.358   0.169
 1219SOL    HW2 4557   4.457   5.376   0.256
 1220SOL     OW 4558   5.785   3.292   2.732
 1220SOL    HW1 4559   5.722   3.249   2.797
 1220SOL    HW2 4560   5.732   3.338   2.661
 1221SOL     OW 4561   5.755   4.034   0.084
 1221SOL    HW1 4562   5.801   3.945   0.093
 1221SOL    HW2 4563   5.795   4.084   0.008
 1222SOL     OW 4564   6.788   6.787   0.770
 1222SOL    HW1 4565   6.843   6.829   0.842
 1222SOL    HW2 4566   6.836   6.707   0.734
 1223SOL     OW 4567   6.132   6.670   6.615
 1223SOL    HW1 4568   6.136   6.647   6.518
 1223SOL    HW2 4569   6.148   6.768   6.627
 1224SOL     OW 4570   4.002   6.031   0.045
 1224SOL    HW1 4571   4.079   6.015   7.007
 1224SOL    HW2 4572   4.005   6.126   0.078
 1225SOL     OW 4573   4.143   1.641   0.753
 1225SOL    HW1 4574   4.121   1.702   0.829
 1225SOL    HW2 4575   4.183   1.694   0.679
 1226SOL     OW 4576   5.865   6.265   1.047
 1226SOL    HW1 4577   5.932   6.338   1.062
 1226SOL    HW2 4578   5.901   6.199   0.981
 1227SOL     OW 4579   6.003   4.422   5.756
 1227SOL    HW1 4580   6.004   4.356   5.680
 1227SOL    HW2 4581   6.064   4.390   5.828
 1228SOL     OW 4582   3.883   3.009   1.862
 1228SOL    HW1 4583   3.874   2.931   1.801
 1228SOL    HW2 4584   3.952   3.072   1.827
 1229SOL     OW 4585   1.969   6.298   2.111
 1229SOL    HW1 4586   2.027   6.376   2.087
 1229SOL    HW2 4587   1.997   6.262   2.201
 1230SOL     OW 4588   5.539   5.337   2.690
 1230SOL    HW1 4589   5.554   5.289   2.604
 1230SOL    HW2 4590   5.445   5.373   2.692
 1231SOL     OW 4591   1.569   2.717   6.295
 1231SOL    HW1 4592   1.626   2.682   6.369
 1231SOL    HW2 4593   1.598   2.809   6.270
 1232SOL     OW 4594   3.843   1.022   4.820
 1232SOL    HW1 4595   3.756   0.989   4.783
 1232SOL    HW2 4596   3.902   1.054   4.746
 1233SOL     OW 4597   1.151   4.370   3.597
 1233SOL    HW1 4598   1.090   4.315   3.656
 1233SOL    HW2 4599   1.100   4.400   3.516
 1234SOL     OW 4600   6.841   3.331   6.725
 1234SOL    HW1 4601   6.875   3.245   6.763
 1234SOL    HW2 4602   6.776   3.372   6.789
 1235SOL     OW 4603   6.113   4.926   0.181
 1235SOL    HW1 4604   6.181   4.854   0.166
 1235SOL    HW2 4605   6.031   4.906   0.126
 1236SOL     OW 4606   3.206   1.354   6.948
 1236SOL    HW1 4607   3.123   1.304   6.971
 1236SOL    HW2 4608   3.285   1.309   6.991
 1237SOL     OW 4609   1.447   0.854   4.837
 1237SOL    HW1 4610   1.475   0.947   4.814
 1237SOL    HW2 4611   1.508   0.816   4.906
 1238SOL     OW 4612   0.519   0.253   3.278
 1238SOL    HW1 4613   0.539   0.237   3.375
 1238SOL    HW2 4614   0.604   0.278   3.231
 1239SOL     OW 4615   6.854   4.976   4.426
 1239SOL    HW1 4616   6.775   4.959   4.485
 1239SOL    HW2 4617   6.937   4.944   4.472
 1240SOL     OW 4618   6.174   5.570   3.325
 1240SOL    HW1 4619   6.132   5.529   3.406
 1240SOL    HW2 4620   6.152   5.515   3.245
 1241SOL     OW 4621   6.652   5.280   4.557
 1241SOL    HW1 4622   6.607   5.311   4.473
 1241SOL    HW2 4623   6.612   5.328   4.635
 1242SOL     OW 4624   1.301   3.281   6.969
 1242SOL    HW1 4625   1.310   3.280   0.044
 1242SOL    HW2 4626   1.386   3.250   6.927
 1243SOL     OW 4627   0.922   3.756   5.639
 1243SOL    HW1 4628   0.990   3.737   5.710
 1243SOL    HW2 4629   0.968   3.792   5.557
 1244SOL     OW 4630   5.796   6.521   5.137
 1244SOL    HW1 4631   5.871   6.488   5.079
 1244SOL    HW2 4632   5.774   6.615   5.113
 1245SOL     OW 4633   5.511   5.742   0.975
 1245SOL    HW1 4634   5.454   5.714   0.898
 1245SOL    HW2 4635   5.499   5.840   0.992
 1246SOL     OW 4636   4.979   1.387   0.784
 1246SOL    HW1 4637   4.904   1.368   0.721
 1246SOL    HW2 4638   4.943   1.405   0.875
 1247SOL     OW 4639   6.588   6.847   3.716
 1247SOL    HW1 4640   6.634   6.797   3.789
 1247SOL    HW2 4641   6.656   6.890   3.657
 1248SOL     OW 4642   0.030   6.739   4.639
 1248SOL    HW1 4643   0.094   6.702   4.572
 1248SOL    HW2 4644   7.001   6.813   4.597
 1249SOL     OW 4645   0.314   4.739   1.254
 1249SOL    HW1 4646   0.237   4.678   1.274
 1249SOL    HW2 4647   0.400   4.690   1.268
 1250SOL     OW 4648   5.680   4.017   5.316
 1250SOL    HW1 4649   5.740   4.068   5.377
 1250SOL    HW2 4650   5.704   4.037   5.221
 1251SOL     OW 4651   2.279   1.035   2.953
 1251SOL    HW1 4652   2.364   0.996   2.918
 1251SOL    HW2 4653   2.279   1.134   2.939
 1252SOL     OW 4654   2.999   5.313   0.132
 1252SOL    HW1 4655   2.933   5.380   0.098
 1252SOL    HW2 4656   3.036   5.261   0.056
 1253SOL     OW 4657   3.193   0.578   0.751
 1253SOL    HW1 4658   3.244   0.503   0.791
 1253SOL    HW2 4659   3.118   0.542   0.695
 1254SOL     OW 4660   6.172   1.867   2.578
 1254SOL    HW1 4661   6.095   1.863   2.514
 1254SOL    HW2 4662   6.216   1.778   2.584
 1255SOL     OW 4663   5.655   2.522   5.101
 1255SOL    HW1 4664   5.569   2.506   5.148
 1255SOL    HW2 4665   5.666   2.453   5.029
 1256SOL     OW 4666   0.106   5.981   4.119
 1256SOL    HW1 4667   0.136   6.075   4.133
 1256SOL    HW2 4668   0.179   5.929   4.074
 1257SOL     OW 4669   0.769   4.347   3.620
 1257SOL    HW1 4670   0.680   4.358   3.575
 1257SOL    HW2 4671   0.765   4.387   3.712
 1258SOL     OW 4672   2.488   6.270   3.588
 1258SOL    HW1 4673   2.574   6.309   3.622
 1258SOL    HW2 4674   2.449   6.210   3.658
 1259SOL     OW 4675   4.468   0.392   4.946
 1259SOL    HW1 4676   4.455   0.369   5.042
 1259SOL    HW2 4677   4.452   0.490   4.932
 1260SOL     OW 4678   2.305   0.576   2.074
 1260SOL    HW1 4679   2.378   0.631   2.114
 1260SOL    HW2 4680   2.344   0.505   2.016
 1261SOL     OW 4681   0.141   3.639   6.634
 1261SOL    HW1 4682   0.085   3.602   6.709
 1261SOL    HW2 4683   0.090   3.711   6.587
 1262SOL     OW 4684   4.806   5.264   1.100
 1262SOL    HW1 4685   4.721   5.211   1.098
 1262SOL    HW2 4686   4.823   5.302   1.009
 1263SOL     OW 4687   6.590   2.245   0.879
 1263SOL    HW1 4688   6.573   2.155   0.839
 1263SOL    HW2 4689   6.667   2.239   0.942
 1264SOL     OW 4690   0.720   4.282   3.191
 1264SOL    HW1 4691   0.759   4.250   3.105
 1264SOL    HW2 4692   0.793   4.286   3.260
 1265SOL     OW 4693   0.296   3.426   4.350
 1265SOL    HW1 4694   0.312   3.356   4.420
 1265SOL    HW2 4695   0.379   3.481   4.339
 1266SOL     OW 4696   2.982   1.261   5.541
 1266SOL    HW1 4697   3.034   1.318   5.477
 1266SOL    HW2 4698   3.009   1.281   5.635
 1267SOL     OW 4699   0.065   5.501   2.803
 1267SOL    HW1 4700   0.083   5.467   2.710
 1267SOL    HW2 4701   0.037   5.425   2.861
 1268SOL     OW 4702   5.599   2.266   6.629
 1268SOL    HW1 4703   5.615   2.358   6.665
 1268SOL    HW2 4704   5.510   2.232   6.660
 1269SOL     OW 4705   6.568   6.742   4.902
 1269SOL    HW1 4706   6.583   6.823   4.845
 1269SOL    HW2 4707   6.471   6.719   4.903
 1270SOL     OW 4708   1.991   4.092   4.392
 1270SOL    HW1 4709   1.937   4.021   4.437
 1270SOL    HW2 4710   2.088   4.078   4.411
 1271SOL     OW 4711   3.360   1.815   2.922
 1271SOL    HW1 4712   3.304   1.808   3.005
 1271SOL    HW2 4713   3.304   1.794   2.842
 1272SOL     OW 4714   0.704   5.578   0.734
 1272SOL    HW1 4715   0.708   5.479   0.736
 1272SOL    HW2 4716   0.795   5.616   0.755
 1273SOL     OW 4717   2.673   4.654   0.876
 1273SOL    HW1 4718   2.743   4.688   0.938
 1273SOL    HW2 4719   2.630   4.573   0.917
 1274SOL     OW 4720   0.122   3.049   1.797
 1274SOL    HW1 4721   0.128   3.144   1.765
 1274SOL    HW2 4722   0.142   3.045   1.895
 1275SOL     OW 4723   4.486   0.496   3.947
 1275SOL    HW1 4724   4.562   0.512   4.011
 1275SOL    HW2 4725   4.521   0.457   3.862
 1276SOL     OW 4726   6.975   0.617   3.064
 1276SOL    HW1 4727   0.006   0.534   3.065
 1276SOL    HW2 4728   6.979   0.660   3.154
 1277SOL     OW 4729   0.365   1.023   4.770
 1277SOL    HW1 4730   0.280   0.971   4.764
 1277SOL    HW2 4731   0.410   1.023   4.681
 1278SOL     OW 4732   1.763   2.023   5.531
 1278SOL    HW1 4733   1.718   1.980   5.609
 1278SOL    HW2 4734   1.705   2.014   5.450
 1279SOL     OW 4735   2.811   6.630   0.279
 1279SOL    HW1 4736   2.801   6.701   0.349
 1279SOL    HW2 4737   2.735   6.565   0.286
 1280SOL     OW 4738   1.918   0.813   2.671
 1280SOL    HW1 4739   1.928   0.749   2.747
 1280SOL    HW2 4740   1.878   0.765   2.592
 1281SOL     OW 4741   1.406   5.873   3.090
 1281SOL    HW1 4742   1.488   5.928   3.075
 1281SOL    HW2 4743   1.333   5.931   3.125
 1282SOL     OW 4744   0.294   1.303   1.008
 1282SOL    HW1 4745   0.293   1.222   0.950
 1282SOL    HW2 4746   0.335   1.280   1.097
 1283SOL     OW 4747   5.593   3.718   5.637
 1283SOL    HW1 4748   5.577   3.638   5.579
 1283SOL    HW2 4749   5.506   3.751   5.673
 1284SOL     OW 4750   3.027   2.304   1.704
 1284SOL    HW1 4751   3.009   2.362   1.784
 1284SOL    HW2 4752   3.010   2.209   1.727
 1285SOL     OW 4753   5.666   3.254   6.449
 1285SOL    HW1 4754   5.666   3.174   6.510
 1285SOL    HW2 4755   5.654   3.224   6.355
 1286SOL     OW 4756   4.744   4.565   2.368
 1286SOL    HW1 4757   4.724   4.543   2.463
 1286SOL    HW2 4758   4.715   4.489   2.309
 1287SOL     OW 4759   6.190   4.916   6.282
 1287SOL    HW1 4760   6.096   4.884   6.270
 1287SOL    HW2 4761   6.200   5.008   6.242
 1288SOL     OW 4762   0.306   3.292   0.243
 1288SOL    HW1 4763   0.368   3.360   0.203
 1288SOL    HW2 4764   0.236   3.339   0.297
 1289SOL     OW 4765   0.401   6.320   1.727
 1289SOL    HW1 4766   0.499   6.309   1.743
 1289SOL    HW2 4767   0.355   6.341   1.814
 1290SOL     OW 4768   0.150   0.371   6.670
 1290SOL    HW1 4769   0.200   0.307   6.729
 1290SOL    HW2 4770   0.215   0.426   6.618
 1291SOL     OW 4771   2.189   4.872   6.449
 1291SOL    HW1 4772   2.287   4.864   6.428
 1291SOL    HW2 4773   2.156   4.784   6.484
 1292SOL     OW 4774   6.890   4.574   1.764
 1292SOL    HW1 4775   6.892   4.673   1.774
 1292SOL    HW2 4776   6.932   4.531   1.844
 1293SOL     OW 4777   2.422   1.100   6.277
 1293SOL    HW1 4778   2.442   1.164   6.203
 1293SOL    HW2 4779   2.469   1.128   6.360
 1294SOL     OW 4780   6.943   3.263   2.083
 1294SOL    HW1 4781   6.888   3.183   2.058
 1294SOL    HW2 4782   0.006   3.260   2.034
 1295SOL     OW 4783   6.128   3.931   2.854
 1295SOL    HW1 4784   6.206   3.986   2.883
 1295SOL    HW2 4785   6.062   3.925   2.929
 1296SOL     OW 4786   3.257   1.430   6.329
 1296SOL    HW1 4787   3.287   1.411   6.235
 1296SOL    HW2 4788   3.320   1.388   6.393
 1297SOL     OW 4789   5.860   1.810   5.679
 1297SOL    HW1 4790   5.773   1.847   5.711
 1297SOL    HW2 4791   5.857   1.799   5.580
 1298SOL     OW 4792   6.322   3.388   3.870
 1298SOL    HW1 4793   6.234   3.434   3.860
 1298SOL    HW2 4794   6.316   3.295   3.834
 1299SOL     OW 4795   2.117   4.284   3.285
 1299SOL    HW1 4796   2.149   4.362   3.339
 1299SOL    HW2 4797   2.145   4.199   3.329
 1300SOL     OW 4798   3.024   3.843   1.870
 1300SOL    HW1 4799   3.049   3.891   1.786
 1300SOL    HW2 4800   2.954   3.775   1.849
 1301SOL     OW 4801   1.494   6.520   2.846
 1301SOL    HW1 4802   1.589   6.493   2.864
 1301SOL    HW2 4803   1.491   6.576   2.762
 1302SOL     OW 4804   2.097   6.865   4.443
 1302SOL    HW1 4805   2.197   6.870   4.442
 1302SOL    HW2 4806   2.060   6.945   4.394
 1303SOL     OW 4807   3.673   1.327   0.899
 1303SOL    HW1 4808   3.683   1.426   0.895
 1303SOL    HW2 4809   3.580   1.302   0.873
 1304SOL     OW 4810   1.126   0.931   6.227
 1304SOL    HW1 4811   1.060   0.943   6.300
 1304SOL    HW2 4812   1.146   1.020   6.185
 1305SOL     OW 4813   5.407   5.751   4.956
 1305SOL    HW1 4814   5.365   5.800   4.880
 1305SOL    HW2 4815   5.505   5.771   4.959
 1306SOL     OW 4816   1.546   3.569   5.132
 1306SOL    HW1 4817   1.555   3.500   5.060
 1306SOL    HW2 4818   1.461   3.554   5.182
 1307SOL     OW 4819   1.829   3.224   5.072
 1307SOL    HW1 4820   1.893   3.207   5.147
 1307SOL    HW2 4821   1.876   3.210   4.984
 1308SOL     OW 4822   4.072   6.171   4.431
 1308SOL    HW1 4823   4.093   6.127   4.344
 1308SOL    HW2 4824   4.015   6.109   4.487
 1309SOL     OW 4825   5.884   3.158   5.394
 1309SOL    HW1 4826   5.911   3.114   5.479
 1309SOL    HW2 4827   5.784   3.166   5.390
 1310SOL     OW 4828   5.570   3.528   4.713
 1310SOL    HW1 4829   5.603   3.582   4.636
 1310SOL    HW2 4830   5.648   3.490   4.763
 1311SOL     OW 4831   5.765   6.864   4.089
 1311SOL    HW1 4832   5.671   6.862   4.125
 1311SOL    HW2 4833   5.801   6.957   4.095
 1312SOL     OW 4834   0.752   0.970   6.607
 1312SOL    HW1 4835   0.734   1.026   6.688
 1312SOL    HW2 4836   0.795   0.884   6.635
 1313SOL     OW 4837   2.860   5.429   5.097
 1313SOL    HW1 4838   2.892   5.522   5.078
 1313SOL    HW2 4839   2.925   5.363   5.058
 1314SOL     OW 4840   1.888   1.548   5.882
 1314SOL    HW1 4841   1.895   1.605   5.800
 1314SOL    HW2 4842   1.903   1.605   5.963
 1315SOL     OW 4843   0.950   1.224   0.774
 1315SOL    HW1 4844   0.873   1.288   0.781
 1315SOL    HW2 4845   1.018   1.245   0.844
 1316SOL     OW 4846   2.039   6.893   3.112
 1316SOL    HW1 4847   1.986   6.963   3.065
 1316SOL    HW2 4848   1.986   6.855   3.188
 1317SOL     OW 4849   0.607   4.363   4.625
 1317SOL    HW1 4850   0.575   4.275   4.590
 1317SOL    HW2 4851   0.574   4.376   4.719
 1318SOL     OW 4852   0.538   1.051   0.550
 1318SOL    HW1 4853   0.449   1.020   0.518
 1318SOL    HW2 4854   0.606   1.041   0.477
 1319SOL     OW 4855   6.325   0.962   0.484
 1319SOL    HW1 4856   6.263   0.988   0.410
 1319SOL    HW2 4857   6.414   0.938   0.445
 1320SOL     OW 4858   5.673   4.435   0.299
 1320SOL    HW1 4859   5.648   4.512   0.359
 1320SOL    HW2 4860   5.647   4.457   0.205
 1321SOL     OW 4861   4.260   3.121   7.002
 1321SOL    HW1 4862   4.162   3.136   6.993
 1321SOL    HW2 4863   4.288   3.047   6.940
 1322SOL     OW 4864   5.994   0.960   3.164
 1322SOL    HW1 4865   5.977   1.036   3.227
 1322SOL    HW2 4866   5.982   0.873   3.212
 1323SOL     OW 4867   5.798   1.725   5.422
 1323SOL    HW1 4868   5.821   1.639   5.467
 1323SOL    HW2 4869   5.809   1.716   5.323
 1324SOL     OW 4870   1.695   2.219   2.189
 1324SOL    HW1 4871   1.775   2.228   2.248
 1324SOL    HW2 4872   1.715   2.152   2.117
 1325SOL     OW 4873   1.666   6.893   2.914
 1325SOL    HW1 4874   1.747   6.879   2.857
 1325SOL    HW2 4875   1.584   6.894   2.857
 1326SOL     OW 4876   4.835   2.557   4.620
 1326SOL    HW1 4877   4.748   2.595   4.591
 1326SOL    HW2 4878   4.897   2.631   4.646
 1327SOL     OW 4879   2.375   5.174   2.653
 1327SOL    HW1 4880   2.283   5.213   2.660
 1327SOL    HW2 4881   2.438   5.230   2.707
 1328SOL     OW 4882   1.291   2.328   6.786
 1328SOL    HW1 4883   1.195   2.310   6.807
 1328SOL    HW2 4884   1.329   2.251   6.735
 1329SOL     OW 4885   6.958   1.296   0.754
 1329SOL    HW1 4886   6.957   1.196   0.756
 1329SOL    HW2 4887   6.866   1.330   0.735
 1330SOL     OW 4888   6.357   6.950   0.887
 1330SOL    HW1 4889   6.366   6.854   0.913
 1330SOL    HW2 4890   6.383   7.009   0.964
 1331SOL     OW 4891   5.230   1.420   2.791
 1331SOL    HW1 4892   5.246   1.502   2.846
 1331SOL    HW2 4893   5.182   1.445   2.707
 1332SOL     OW 4894   4.007   0.874   1.093
 1332SOL    HW1 4895   4.076   0.812   1.057
 1332SOL    HW2 4896   3.969   0.929   1.019
 1333SOL     OW 4897   3.562   4.219   5.099
 1333SOL    HW1 4898   3.655   4.197   5.071
 1333SOL    HW2 4899   3.498   4.190   5.028
 1334SOL     OW 4900   1.507   2.906   5.310
 1334SOL    HW1 4901   1.540   2.855   5.390
 1334SOL    HW2 4902   1.542   3.000   5.314
 1335SOL     OW 4903   2.309   6.490   2.550
 1335SOL    HW1 4904   2.391   6.432   2.541
 1335SOL    HW2 4905   2.327   6.579   2.508
 1336SOL     OW 4906   1.369   1.492   6.998
 1336SOL    HW1 4907   1.415   1.449   6.921
 1336SOL    HW2 4908   1.288   1.541   6.966
 1337SOL     OW 4909   1.733   2.743   5.510
 1337SOL    HW1 4910   1.779   2.675   5.567
 1337SOL    HW2 4911   1.800   2.810   5.477
 1338SOL     OW 4912   4.588   3.760   6.513
 1338SOL    HW1 4913   4.499   3.714   6.505
 1338SOL    HW2 4914   4.576   3.858   6.499
 1339SOL     OW 4915   0.056   4.861   6.620
 1339SOL    HW1 4916   6.982   4.869   6.640
 1339SOL    HW2 4917   0.106   4.925   6.678
 1340SOL     OW 4918   0.969   1.764   0.971
 1340SOL    HW1 4919   0.974   1.810   0.882
 1340SOL    HW2 4920   0.881   1.716   0.978
 1341SOL     OW 4921   4.078   1.101   5.168
 1341SOL    HW1 4922   3.979   1.102   5.179
 1341SOL    HW2 4923   4.106   1.182   5.116
 1342SOL     OW 4924   1.636   5.890   5.909
 1342SOL    HW1 4925   1.548   5.849   5.934
 1342SOL    HW2 4926   1.691   5.823   5.858
 1343SOL     OW 4927   3.703   6.695   2.345
 1343SOL    HW1 4928   3.670   6.768   2.285
 1343SOL    HW2 4929   3.625   6.648   2.387
 1344SOL     OW 4930   6.388   2.027   2.960
 1344SOL    HW1 4931   6.290   2.018   2.939
 1344SOL    HW2 4932   6.441   1.993   2.882
 1345SOL     OW 4933   0.721   1.597   3.694
 1345SOL    HW1 4934   0.698   1.520   3.633
 1345SOL    HW2 4935   0.697   1.573   3.788
 1346SOL     OW 4936   0.865   6.541   3.319
 1346SOL    HW1 4937   0.889   6.601   3.396
 1346SOL    HW2 4938   0.908   6.575   3.236
 1347SOL     OW 4939   6.449   6.606   3.423
 1347SOL    HW1 4940   6.441   6.603   3.323
 1347SOL    HW2 4941   6.543   6.582   3.450
 1348SOL     OW 4942   6.052   4.977   4.400
 1348SOL    HW1 4943   5.981   5.023   4.347
 1348SOL    HW2 4944   6.115   5.045   4.437
 1349SOL     OW 4945   4.580   2.514   6.949
 1349SOL    HW1 4946   4.506   2.474   6.894
 1349SOL    HW2 4947   4.650   2.445   6.966
 1350SOL     OW 4948   3.711   4.594   6.612
 1350SOL    HW1 4949   3.734   4.500   6.637
 1350SOL    HW2 4950   3.659   4.593   6.526
 1351SOL     OW 4951   1.190   0.310   3.051
 1351SOL    HW1 4952   1.219   0.330   3.144
 1351SOL    HW2 4953   1.201   0.392   2.994
 1352SOL     OW 4954   6.733   0.510   3.714
 1352SOL    HW1 4955   6.703   0.585   3.655
 1352SOL    HW2 4956   6.688   0.425   3.686
 1353SOL     OW 4957   6.496   4.512   5.331
 1353SOL    HW1 4958   6.547   4.491   5.415
 1353SOL    HW2 4959   6.475   4.427   5.283
 1354SOL     OW 4960   6.550   0.995   0.993
 1354SOL    HW1 4961   6.560   0.929   0.919
 1354SOL    HW2 4962   6.461   0.983   1.038
 1355SOL     OW 4963   5.009   4.294   0.816
 1355SOL    HW1 4964   4.923   4.246   0.803
 1355SOL    HW2 4965   5.080   4.252   0.760
 1356SOL     OW 4966   3.534   4.123   3.078
 1356SOL    HW1 4967   3.510   4.193   3.010
 1356SOL    HW2 4968   3.530   4.032   3.035
 1357SOL     OW 4969   2.761   3.203   5.971
 1357SOL    HW1 4970   2.682   3.179   6.027
 1357SOL    HW2 4971   2.828   3.129   5.974
 1358SOL     OW 4972   2.155   2.715   6.530
 1358SOL    HW1 4973   2.093   2.732   6.452
 1358SOL    HW2 4974   2.203   2.800   6.553
 1359SOL     OW 4975   6.313   3.738   1.723
 1359SOL    HW1 4976   6.325   3.836   1.737
 1359SOL    HW2 4977   6.376   3.706   1.652
 1360SOL     OW 4978   3.772   3.471   2.553
 1360SOL    HW1 4979   3.749   3.388   2.502
 1360SOL    HW2 4980   3.780   3.548   2.490
 1361SOL     OW 4981   1.026   0.178   5.865
 1361SOL    HW1 4982   1.000   0.142   5.775
 1361SOL    HW2 4983   1.041   0.103   5.929
 1362SOL     OW 4984   2.978   3.422   5.394
 1362SOL    HW1 4985   2.930   3.334   5.397
 1362SOL    HW2 4986   3.076   3.407   5.408
 1363SOL     OW 4987   6.556   6.211   3.360
 1363SOL    HW1 4988   6.487   6.282   3.366
 1363SOL    HW2 4989   6.512   6.124   3.336
 1364SOL     OW 4990   6.790   3.306   0.480
 1364SOL    HW1 4991   6.877   3.317   0.528
 1364SOL    HW2 4992   6.724   3.372   0.515
 1365SOL     OW 4993   1.483   3.522   5.573
 1365SOL    HW1 4994   1.454   3.427   5.573
 1365SOL    HW2 4995   1.446   3.568   5.492
 1366SOL     OW 4996   0.049   3.178   1.107
 1366SOL    HW1 4997   0.121   3.123   1.149
 1366SOL    HW2 4998   7.010   3.118   1.058
 1367SOL     OW 4999   1.359   4.889   3.637
 1367SOL    HW1 5000   1.435   4.954   3.648
 1367SOL    HW2 5001   1.322   4.865   3.727
 1368SOL     OW 5002   6.505   6.648   4.580
 1368SOL    HW1 5003   6.599   6.621   4.560
 1368SOL    HW2 5004   6.450   6.640   4.497
 1369SOL     OW 5005   2.004   5.952   1.499
 1369SOL    HW1 5006   1.997   5.923   1.594
 1369SOL    HW2 5007   1.928   6.014   1.477
 1370SOL     OW 5008   0.533   2.198   3.792
 1370SOL    HW1 5009   0.466   2.214   3.719
 1370SOL    HW2 5010   0.583   2.282   3.810
 1371SOL     OW 5011   5.445   1.095   4.622
 1371SOL    HW1 5012   5.531   1.139   4.649
 1371SOL    HW2 5013   5.383   1.094   4.700
 1372SOL     OW 5014   6.317   2.516   0.589
 1372SOL    HW1 5015   6.380   2.485   0.661
 1372SOL    HW2 5016   6.257   2.588   0.626
 1373SOL     OW 5017   4.620   2.339   1.064
 1373SOL    HW1 5018   4.642   2.436   1.075
 1373SOL    HW2 5019   4.704   2.287   1.049
 1374SOL     OW 5020   5.513   4.194   0.661
 1374SOL    HW1 5021   5.570   4.181   0.579
 1374SOL    HW2 5022   5.507   4.107   0.711
 1375SOL     OW 5023   6.851   5.747   6.137
 1375SOL    HW1 5024   6.943   5.726   6.171
 1375SOL    HW2 5025   6.858   5.799   6.052
 1376SOL     OW 5026   3.015   4.327   6.058
 1376SOL    HW1 5027   3.075   4.254   6.024
 1376SOL    HW2 5028   2.980   4.380   5.981
 1377SOL     OW 5029   1.259   2.430   4.215
 1377SOL    HW1 5030   1.173   2.443   4.165
 1377SOL    HW2 5031   1.253   2.347   4.270
 1378SOL     OW 5032   4.253   2.224   4.836
 1378SOL    HW1 5033   4.212   2.278   4.910
 1378SOL    HW2 5034   4.289   2.139   4.874
 1379SOL     OW 5035   4.783   5.906   2.136
 1379SOL    HW1 5036   4.794   5.846   2.057
 1379SOL    HW2 5037   4.855   5.888   2.202
 1380SOL     OW 5038   6.645   6.427   2.265
 1380SOL    HW1 5039   6.546   6.422   2.251
 1380SOL    HW2 5040   6.688   6.462   2.181
 1381SOL     OW 5041   5.734   2.171   6.168
 1381SOL    HW1 5042   5.833   2.176   6.157
 1381SOL    HW2 5043   5.708   2.219   6.252
 1382SOL     OW 5044   4.467   3.095   1.216
 1382SOL    HW1 5045   4.531   3.155   1.264
 1382SOL    HW2 5046   4.375   3.132   1.223
 1383SOL     OW 5047   1.434   6.393   1.645
 1383SOL    HW1 5048   1.399   6.318   1.590
 1383SOL    HW2 5049   1.378   6.404   1.727
 1384SOL     OW 5050   4.503   0.303   0.981
 1384SOL    HW1 5051   4.508   0.218   1.034
 1384SOL    HW2 5052   4.589   0.316   0.932
 1385SOL     OW 5053   2.256   5.263   4.099
 1385SOL    HW1 5054   2.187   5.237   4.166
 1385SOL    HW2 5055   2.288   5.356   4.119
 1386SOL     OW 5056   3.072   6.375   3.903
 1386SOL    HW1 5057   3.106   6.423   3.822
 1386SOL    HW2 5058   2.977   6.402   3.920
 1387SOL     OW 5059   3.735   5.544   1.313
 1387SOL    HW1 5060   3.746   5.479   1.237
 1387SOL    HW2 5061   3.783   5.629   1.290
 1388SOL     OW 5062   6.007   6.531   1.105
 1388SOL    HW1 5063   5.907   6.529   1.102
 1388SOL    HW2 5064   6.037   6.616   1.148
 1389SOL     OW 5065   5.547   1.588   3.056
 1389SOL    HW1 5066   5.644   1.604   3.041
 1389SOL    HW2 5067   5.522   1.498   3.020
 1390SOL     OW 5068   0.704   3.775   6.994
 1390SOL    HW1 5069   0.612   3.814   6.990
 1390SOL    HW2 5070   0.765   3.825   6.933
 1391SOL     OW 5071   6.539   0.669   3.900
 1391SOL    HW1 5072   6.574   0.638   3.812
 1391SOL    HW2 5073   6.589   0.751   3.929
 1392SOL     OW 5074   5.101   5.926   6.186
 1392SOL    HW1 5075   5.099   6.026   6.189
 1392SOL    HW2 5076   5.012   5.892   6.154
 1393SOL     OW 5077   6.251   5.178   5.202
 1393SOL    HW1 5078   6.202   5.232   5.134
 1393SOL    HW2 5079   6.189   5.153   5.276
 1394SOL     OW 5080   2.996   6.367   4.991
 1394SOL    HW1 5081   2.932   6.428   5.037
 1394SOL    HW2 5082   3.028   6.297   5.055
 1395SOL     OW 5083   2.339   4.504   6.282
 1395SOL    HW1 5084   2.240   4.492   6.274
 1395SOL    HW2 5085   2.382   4.487   6.193
 1396SOL     OW 5086   1.904   0.905   4.156
 1396SOL    HW1 5087   2.003   0.892   4.151
 1396SOL    HW2 5088   1.876   0.920   4.251
 1397SOL     OW 5089   0.055   0.402   3.922
 1397SOL    HW1 5090   0.116   0.367   3.994
 1397SOL    HW2 5091   0.089   0.373   3.833
 1398SOL     OW 5092   1.956   1.055   5.903
 1398SOL    HW1 5093   2.009   1.018   5.978
 1398SOL    HW2 5094   1.888   1.119   5.938
 1399SOL     OW 5095   4.153   6.923   0.802
 1399SOL    HW1 5096   4.101   6.997   0.844
 1399SOL    HW2 5097   4.115   6.901   0.712
 1400SOL     OW 5098   6.720   1.798   2.873
 1400SOL    HW1 5099   6.644   1.862   2.880
 1400SOL    HW2 5100   6.805   1.843   2.902
 1401SOL     OW 5101   6.901   1.773   4.783
 1401SOL    HW1 5102   6.859   1.706   4.845
 1401SOL    HW2 5103   6.866   1.864   4.804
 1402SOL     OW 5104   0.954   4.288   0.584
 1402SOL    HW1 5105   1.006   4.370   0.560
 1402SOL    HW2 5106   0.859   4.313   0.606
 1403SOL     OW 5107   3.123   1.765   1.810
 1403SOL    HW1 5108   3.208   1.747   1.761
 1403SOL    HW2 5109   3.053   1.796   1.746
 1404SOL     OW 5110   5.171   6.841   7.002
 1404SOL    HW1 5111   5.199   6.783   0.055
 1404SOL    HW2 5112   5.076   6.822   6.978
 1405SOL     OW 5113   2.091   3.244   1.358
 1405SOL    HW1 5114   2.021   3.316   1.361
 1405SOL    HW2 5115   2.179   3.282   1.386
 1406SOL     OW 5116   1.407   5.446   1.424
 1406SOL    HW1 5117   1.357   5.440   1.511
 1406SOL    HW2 5118   1.493   5.395   1.432
 1407SOL     OW 5119   0.622   1.821   2.274
 1407SOL    HW1 5120   0.633   1.802   2.176
 1407SOL    HW2 5121   0.711   1.817   2.319
 1408SOL     OW 5122   5.147   0.823   5.985
 1408SOL    HW1 5123   5.122   0.918   5.967
 1408SOL    HW2 5124   5.138   0.770   5.902
 1409SOL     OW 5125   0.569   0.025   5.176
 1409SOL    HW1 5126   0.543   0.013   5.080
 1409SOL    HW2 5127   0.492   0.001   5.235
 1410SOL     OW 5128   2.083   3.725   6.810
 1410SOL    HW1 5129   2.063   3.786   6.734
 1410SOL    HW2 5130   2.177   3.737   6.840
 1411SOL     OW 5131   2.953   6.537   2.485
 1411SOL    HW1 5132   2.942   6.620   2.429
 1411SOL    HW2 5133   2.882   6.471   2.461
 1412SOL     OW 5134   0.618   2.330   0.899
 1412SOL    HW1 5135   0.518   2.323   0.906
 1412SOL    HW2 5136   0.646   2.303   0.807
 1413SOL     OW 5137   2.299   1.232   4.966
 1413SOL    HW1 5138   2.299   1.179   5.051
 1413SOL    HW2 5139   2.368   1.195   4.904
 1414SOL     OW 5140   2.313   0.667   1.001
 1414SOL    HW1 5141   2.218   0.695   0.986
 1414SOL    HW2 5142   2.336   0.677   1.097
 1415SOL     OW 5143   2.507   1.094   4.818
 1415SOL    HW1 5144   2.597   1.130   4.843
 1415SOL    HW2 5145   2.513   0.995   4.805
 1416SOL     OW 5146   4.332   4.615   4.317
 1416SOL    HW1 5147   4.371   4.566   4.394
 1416SOL    HW2 5148   4.245   4.656   4.344
 1417SOL     OW 5149   2.455   1.824   0.173
 1417SOL    HW1 5150   2.444   1.866   0.083
 1417SOL    HW2 5151   2.551   1.800   0.188
 1418SOL     OW 5152   2.966   3.724   3.408
 1418SOL    HW1 5153   3.027   3.803   3.403
 1418SOL    HW2 5154   3.010   3.644   3.366
 1419SOL     OW 5155   2.904   6.441   4.326
 1419SOL    HW1 5156   2.982   6.483   4.373
 1419SOL    HW2 5157   2.890   6.348   4.362
 1420SOL     OW 5158   2.175   6.647   1.571
 1420SOL    HW1 5159   2.202   6.742   1.584
 1420SOL    HW2 5160   2.120   6.639   1.488
 1421SOL     OW 5161   2.114   3.349   3.446
 1421SOL    HW1 5162   2.117   3.337   3.545
 1421SOL    HW2 5163   2.110   3.447   3.424
 1422SOL     OW 5164   2.242   4.116   1.621
 1422SOL    HW1 5165   2.142   4.113   1.626
 1422SOL    HW2 5166   2.274   4.036   1.570
 1423SOL     OW 5167   5.007   6.557   2.911
 1423SOL    HW1 5168   5.031   6.524   2.820
 1423SOL    HW2 5169   4.976   6.479   2.967
 1424SOL     OW 5170   6.678   4.071   4.463
 1424SOL    HW1 5171   6.672   4.169   4.441
 1424SOL    HW2 5172   6.630   4.018   4.394
 1425SOL     OW 5173   1.249   6.184   4.568
 1425SOL    HW1 5174   1.289   6.133   4.644
 1425SOL    HW2 5175   1.321   6.235   4.521
 1426SOL     OW 5176   1.421   2.131   5.777
 1426SOL    HW1 5177   1.451   2.210   5.723
 1426SOL    HW2 5178   1.361   2.073   5.722
 1427SOL     OW 5179   0.055   6.510   3.053
 1427SOL    HW1 5180   0.099   6.420   3.047
 1427SOL    HW2 5181   0.103   6.574   2.994
 1428SOL     OW 5182   5.458   2.898   0.794
 1428SOL    HW1 5183   5.468   2.948   0.708
 1428SOL    HW2 5184   5.368   2.918   0.834
 1429SOL     OW 5185   5.555   2.038   0.438
 1429SOL    HW1 5186   5.535   1.942   0.458
 1429SOL    HW2 5187   5.651   2.056   0.459
 1430SOL     OW 5188   1.718   4.777   4.360
 1430SOL    HW1 5189   1.785   4.850   4.369
 1430SOL    HW2 5190   1.627   4.816   4.349
 1431SOL     OW 5191   1.988   1.827   0.949
 1431SOL    HW1 5192   1.975   1.920   0.915
 1431SOL    HW2 5193   1.999   1.828   1.048
 1432SOL     OW 5194   3.524   1.443   2.898
 1432SOL    HW1 5195   3.582   1.520   2.873
 1432SOL    HW2 5196   3.472   1.466   2.981
 1433SOL     OW 5197   4.131   1.337   4.113
 1433SOL    HW1 5198   4.041   1.376   4.129
 1433SOL    HW2 5199   4.189   1.352   4.194
 1434SOL     OW 5200   6.705   0.970   5.486
 1434SOL    HW1 5201   6.799   0.945   5.506
 1434SOL    HW2 5202   6.695   0.986   5.387
 1435SOL     OW 5203   5.715   0.818   2.166
 1435SOL    HW1 5204   5.688   0.913   2.183
 1435SOL    HW2 5205   5.813   0.808   2.183
 1436SOL     OW 5206   6.005   3.851   0.674
 1436SOL    HW1 5207   6.022   3.843   0.575
 1436SOL    HW2 5208   6.088   3.826   0.724
 1437SOL     OW 5209   2.449   2.419   3.719
 1437SOL    HW1 5210   2.515   2.354   3.757
 1437SOL    HW2 5211   2.428   2.489   3.787
 1438SOL     OW 5212   2.898   6.865   1.225
 1438SOL    HW1 5213   2.935   6.773   1.210
 1438SOL    HW2 5214   2.936   6.902   1.310
 1439SOL     OW 5215   0.013   5.549   0.966
 1439SOL    HW1 5216   0.077   5.582   1.035
 1439SOL    HW2 5217   0.054   5.560   0.875
 1440SOL     OW 5218   3.116   4.026   0.549
 1440SOL    HW1 5219   3.192   4.033   0.613
 1440SOL    HW2 5220   3.029   4.037   0.598
 1441SOL     OW 5221   5.794   0.566   2.666
 1441SOL    HW1 5222   5.805   0.483   2.722
 1441SOL    HW2 5223   5.836   0.551   2.576
 1442SOL     OW 5224   6.765   5.654   7.019
 1442SOL    HW1 5225   6.783   5.674   6.923
 1442SOL    HW2 5226   6.840   5.690   0.051
 1443SOL     OW 5227   0.842   2.635   2.167
 1443SOL    HW1 5228   0.918   2.649   2.231
 1443SOL    HW2 5229   0.755   2.650   2.215
 1444SOL     OW 5230   5.312   6.534   0.466
 1444SOL    HW1 5231   5.331   6.476   0.545
 1444SOL    HW2 5232   5.333   6.483   0.382
 1445SOL     OW 5233   1.062   3.103   2.122
 1445SOL    HW1 5234   1.019   3.015   2.103
 1445SOL    HW2 5235   1.029   3.138   2.210
 1446SOL     OW 5236   6.253   0.598   6.571
 1446SOL    HW1 5237   6.159   0.588   6.604
 1446SOL    HW2 5238   6.252   0.622   6.474
 1447SOL     OW 5239   5.902   5.562   4.064
 1447SOL    HW1 5240   5.978   5.608   4.109
 1447SOL    HW2 5241   5.909   5.463   4.080
 1448SOL     OW 5242   6.701   2.984   4.941
 1448SOL    HW1 5243   6.729   3.006   4.848
 1448SOL    HW2 5244   6.775   3.006   5.005
 1449SOL     OW 5245   1.425   4.107   5.631
 1449SOL    HW1 5246   1.388   4.147   5.548
 1449SOL    HW2 5247   1.476   4.176   5.682
 1450SOL     OW 5248   1.218   2.029   0.067
 1450SOL    HW1 5249   1.260   2.001   7.006
 1450SOL    HW2 5250   1.160   1.955   0.102
 1451SOL     OW 5251   1.578   6.468   2.439
 1451SOL    HW1 5252   1.638   6.495   2.363
 1451SOL    HW2 5253   1.570   6.543   2.504
 1452SOL     OW 5254   4.356   2.529   5.300
 1452SOL    HW1 5255   4.262   2.532   5.266
 1452SOL    HW2 5256   4.358   2.567   5.393
 1453SOL     OW 5257   0.271   4.399   5.526
 1453SOL    HW1 5258   0.232   4.454   5.452
 1453SOL    HW2 5259   0.323   4.459   5.587
 1454SOL     OW 5260   1.686   1.859   2.421
 1454SOL    HW1 5261   1.739   1.883   2.503
 1454SOL    HW2 5262   1.748   1.854   2.342
 1455SOL     OW 5263   1.484   6.716   2.357
 1455SOL    HW1 5264   1.498   6.720   2.258
 1455SOL    HW2 5265   1.572   6.718   2.404
 1456SOL     OW 5266   6.384   6.709   5.956
 1456SOL    HW1 5267   6.356   6.764   5.877
 1456SOL    HW2 5268   6.306   6.700   6.018
 1457SOL     OW 5269   1.771   5.010   0.195
 1457SOL    HW1 5270   1.809   5.067   0.121
 1457SOL    HW2 5271   1.829   4.930   0.207
 1458SOL     OW 5272   5.399   4.759   5.405
 1458SOL    HW1 5273   5.457   4.693   5.357
 1458SOL    HW2 5274   5.375   4.834   5.344
 1459SOL     OW 5275   4.114   6.954   5.819
 1459SOL    HW1 5276   4.050   6.880   5.801
 1459SOL    HW2 5277   4.203   6.916   5.845
 1460SOL     OW 5278   1.859   6.722   4.992
 1460SOL    HW1 5279   1.888   6.814   4.963
 1460SOL    HW2 5280   1.800   6.730   5.073
 1461SOL     OW 5281   0.432   4.068   3.445
 1461SOL    HW1 5282   0.521   4.097   3.480
 1461SOL    HW2 5283   0.436   3.972   3.419
 1462SOL     OW 5284   1.378   0.942   6.660
 1462SOL    HW1 5285   1.393   0.951   6.562
 1462SOL    HW2 5286   1.466   0.934   6.707
 1463SOL     OW 5287   0.925   4.842   5.729
 1463SOL    HW1 5288   0.940   4.938   5.704
 1463SOL    HW2 5289   1.013   4.799   5.750
 1464SOL     OW 5290   6.689   5.137   2.217
 1464SOL    HW1 5291   6.770   5.079   2.219
 1464SOL    HW2 5292   6.711   5.226   2.177
 1465SOL     OW 5293   1.655   1.582   3.703
 1465SOL    HW1 5294   1.632   1.629   3.618
 1465SOL    HW2 5295   1.624   1.487   3.699
 1466SOL     OW 5296   3.598   1.580   2.000
 1466SOL    HW1 5297   3.530   1.519   1.960
 1466SOL    HW2 5298   3.571   1.675   1.987
 1467SOL     OW 5299   1.919   1.402   4.079
 1467SOL    HW1 5300   1.989   1.389   4.148
 1467SOL    HW2 5301   1.960   1.394   3.988
 1468SOL     OW 5302   2.269   5.796   2.014
 1468SOL    HW1 5303   2.217   5.788   1.928
 1468SOL    HW2 5304   2.354   5.745   2.006
 1469SOL     OW 5305   6.770   6.556   2.542
 1469SOL    HW1 5306   6.803   6.468   2.509
 1469SOL    HW2 5307   6.825   6.630   2.504
 1470SOL     OW 5308   6.920   1.953   2.080
 1470SOL    HW1 5309   6.969   2.036   2.107
 1470SOL    HW2 5310   6.831   1.978   2.041
 1471SOL     OW 5311   1.010   0.327   0.416
 1471SOL    HW1 5312   0.942   0.394   0.386
 1471SOL    HW2 5313   1.007   0.318   0.515
 1472SOL     OW 5314   3.391   5.498   0.280
 1472SOL    HW1 5315   3.384   5.571   0.348
 1472SOL    HW2 5316   3.336   5.521   0.201
 1473SOL     OW 5317   2.665   5.965   5.159
 1473SOL    HW1 5318   2.624   5.875   5.143
 1473SOL    HW2 5319   2.604   6.020   5.216
 1474SOL     OW 5320   4.193   4.557   1.318
 1474SOL    HW1 5321   4.259   4.508   1.261
 1474SOL    HW2 5322   4.126   4.493   1.354
 1475SOL     OW 5323   5.368   0.955   0.228
 1475SOL    HW1 5324   5.271   0.950   0.253
 1475SOL    HW2 5325   5.378   1.009   0.145
 1476SOL     OW 5326   2.533   0.967   1.065
 1476SOL    HW1 5327   2.491   0.896   1.121
 1476SOL    HW2 5328   2.462   1.028   1.029
 1477SOL     OW 5329   3.493   6.628   6.994
 1477SOL    HW1 5330   3.472   6.721   6.965
 1477SOL    HW2 5331   3.446   6.563   6.934
 1478SOL     OW 5332   5.725   5.957   5.482
 1478SOL    HW1 5333   5.747   6.046   5.524
 1478SOL    HW2 5334   5.774   5.885   5.530
 1479SOL     OW 5335   3.082   2.849   1.553
 1479SOL    HW1 5336   3.168   2.898   1.535
 1479SOL    HW2 5337   3.093   2.753   1.528
 1480SOL     OW 5338   2.452   0.342   5.031
 1480SOL    HW1 5339   2.440   0.243   5.024
 1480SOL    HW2 5340   2.534   0.370   4.981
 1481SOL     OW 5341   5.782   3.547   5.465
 1481SOL    HW1 5342   5.700   3.513   5.510
 1481SOL    HW2 5343   5.760   3.574   5.372
 1482SOL     OW 5344   4.652   0.666   1.098
 1482SOL    HW1 5345   4.625   0.576   1.133
 1482SOL    HW2 5346   4.739   0.658   1.049
 1483SOL     OW 5347   5.870   2.310   5.225
 1483SOL    HW1 5348   5.901   2.398   5.190
 1483SOL    HW2 5349   5.883   2.240   5.154
 1484SOL     OW 5350   4.915   4.949   4.080
 1484SOL    HW1 5351   4.914   4.939   3.981
 1484SOL    HW2 5352   5.010   4.960   4.112
 1485SOL     OW 5353   5.363   0.682   4.075
 1485SOL    HW1 5354   5.392   0.590   4.050
 1485SOL    HW2 5355   5.263   0.688   4.069
 1486SOL     OW 5356   5.163   0.638   3.169
 1486SOL    HW1 5357   5.219   0.629   3.086
 1486SOL    HW2 5358   5.201   0.581   3.241
 1487SOL     OW 5359   6.962   1.548   0.199
 1487SOL    HW1 5360   6.987   1.633   0.244
 1487SOL    HW2 5361   6.927   1.568   0.107
 1488SOL     OW 5362   4.782   0.403   3.352
 1488SOL    HW1 5363   4.804   0.408   3.255
 1488SOL    HW2 5364   4.702   0.460   3.371
 1489SOL     OW 5365   4.146   4.470   5.621
 1489SOL    HW1 5366   4.077   4.538   5.643
 1489SOL    HW2 5367   4.104   4.396   5.568
 1490SOL     OW 5368   0.046   3.354   0.584
 1490SOL    HW1 5369   0.115   3.282   0.576
 1490SOL    HW2 5370   0.060   3.404   0.670
 1491SOL     OW 5371   6.574   3.510   2.874
 1491SOL    HW1 5372   6.672   3.492   2.862
 1491SOL    HW2 5373   6.558   3.609   2.870
 1492SOL     OW 5374   5.950   0.435   2.445
 1492SOL    HW1 5375   5.960   0.336   2.438
 1492SOL    HW2 5376   5.964   0.477   2.355
 1493SOL     OW 5377   3.794   0.690   6.374
 1493SOL    HW1 5378   3.804   0.591   6.382
 1493SOL    HW2 5379   3.832   0.733   6.456
 1494SOL     OW 5380   5.964   2.948   7.002
 1494SOL    HW1 5381   6.059   2.966   6.974
 1494SOL    HW2 5382   5.921   3.034   0.005
 1495SOL     OW 5383   6.684   4.471   4.702
 1495SOL    HW1 5384   6.682   4.436   4.608
 1495SOL    HW2 5385   6.779   4.477   4.732
 1496SOL     OW 5386   1.117   0.829   0.345
 1496SOL    HW1 5387   1.089   0.900   0.409
 1496SOL    HW2 5388   1.081   0.850   0.254
 1497SOL     OW 5389   5.158   3.078   2.159
 1497SOL    HW1 5390   5.186   3.003   2.100
 1497SOL    HW2 5391   5.063   3.065   2.189
 1498SOL     OW 5392   3.182   4.228   0.899
 1498SOL    HW1 5393   3.200   4.317   0.941
 1498SOL    HW2 5394   3.103   4.235   0.838
 1499SOL     OW 5395   0.416   3.326   6.340
 1499SOL    HW1 5396   0.422   3.229   6.364
 1499SOL    HW2 5397   0.346   3.340   6.270
 1500SOL     OW 5398   0.718   6.581   6.823
 1500SOL    HW1 5399   0.752   6.604   6.915
 1500SOL    HW2 5400   0.747   6.652   6.759
 1501SOL     OW 5401   6.075   1.746   6.205
 1501SOL    HW1 5402   6.105   1.832   6.245
 1501SOL    HW2 5403   5.988   1.760   6.158
 1502SOL     OW 5404   5.301   1.278   6.857
 1502SOL    HW1 5405   5.261   1.369   6.868
 1502SOL    HW2 5406   5.234   1.217   6.815
 1503SOL     OW 5407   0.759   2.881   2.659
 1503SOL    HW1 5408   0.813   2.906   2.740
 1503SOL    HW2 5409   0.715   2.963   2.622
 1504SOL     OW 5410   0.905   0.369   3.056
 1504SOL    HW1 5411   0.849   0.288   3.075
 1504SOL    HW2 5412   1.001   0.343   3.054
 1505SOL     OW 5413   5.283   0.278   5.665
 1505SOL    HW1 5414   5.243   0.352   5.720
 1505SOL    HW2 5415   5.285   0.194   5.719
 1506SOL     OW 5416   1.240   7.013   0.085
 1506SOL    HW1 5417   1.149   6.974   0.076
 1506SOL    HW2 5418   1.261   0.044   0.004
 1507SOL     OW 5419   0.232   1.935   5.294
 1507SOL    HW1 5420   0.208   1.966   5.202
 1507SOL    HW2 5421   0.167   1.973   5.360
 1508SOL     OW 5422   6.574   1.672   1.423
 1508SOL    HW1 5423   6.551   1.757   1.471
 1508SOL    HW2 5424   6.636   1.618   1.479
 1509SOL     OW 5425   4.880   1.875   4.738
 1509SOL    HW1 5426   4.979   1.861   4.741
 1509SOL    HW2 5427   4.861   1.967   4.706
 1510SOL     OW 5428   5.390   6.711   4.711
 1510SOL    HW1 5429   5.294   6.699   4.686
 1510SOL    HW2 5430   5.410   6.657   4.793
 1511SOL     OW 5431   3.955   3.315   3.996
 1511SOL    HW1 5432   3.985   3.331   3.902
 1511SOL    HW2 5433   3.954   3.402   4.046
 1512SOL     OW 5434   6.347   5.487   1.657
 1512SOL    HW1 5435   6.327   5.396   1.693
 1512SOL    HW2 5436   6.307   5.496   1.566
 1513SOL     OW 5437   3.336   0.204   4.742
 1513SOL    HW1 5438   3.259   0.152   4.707
 1513SOL    HW2 5439   3.319   0.302   4.729
 1514SOL     OW 5440   3.997   2.821   5.749
 1514SOL    HW1 5441   4.051   2.782   5.674
 1514SOL    HW2 5442   3.956   2.907   5.720
 1515SOL     OW 5443   6.297   1.385   2.713
 1515SOL    HW1 5444   6.307   1.313   2.644
 1515SOL    HW2 5445   6.385   1.430   2.726
 1516SOL     OW 5446   5.383   5.142   5.257
 1516SOL    HW1 5447   5.477   5.151   5.290
 1516SOL    HW2 5448   5.329   5.219   5.290
 1517SOL     OW 5449   4.348   6.122   2.815
 1517SOL    HW1 5450   4.299   6.096   2.732
 1517SOL    HW2 5451   4.292   6.100   2.896
 1518SOL     OW 5452   6.550   3.277   0.791
 1518SOL    HW1 5453   6.642   3.273   0.830
 1518SOL    HW2 5454   6.510   3.367   0.808
 1519SOL     OW 5455   6.601   4.649   1.242
 1519SOL    HW1 5456   6.544   4.673   1.320
 1519SOL    HW2 5457   6.697   4.656   1.267
 1520SOL     OW 5458   0.621   4.696   1.493
 1520SOL    HW1 5459   0.706   4.644   1.483
 1520SOL    HW2 5460   0.617   4.735   1.585
 1521SOL     OW 5461   1.894   4.904   6.725
 1521SOL    HW1 5462   1.990   4.877   6.720
 1521SOL    HW2 5463   1.880   4.964   6.804
 1522SOL     OW 5464   5.987   5.599   4.805
 1522SOL    HW1 5465   5.894   5.565   4.792
 1522SOL    HW2 5466   5.990   5.663   4.881
 1523SOL     OW 5467   3.493   6.672   6.427
 1523SOL    HW1 5468   3.506   6.764   6.389
 1523SOL    HW2 5469   3.488   6.678   6.527
 1524SOL     OW 5470   2.514   1.900   2.796
 1524SOL    HW1 5471   2.605   1.883   2.834
 1524SOL    HW2 5472   2.447   1.899   2.870
 1525SOL     OW 5473   5.591   2.947   0.536
 1525SOL    HW1 5474   5.633   2.913   0.452
 1525SOL    HW2 5475   5.514   3.006   0.514
 1526SOL     OW 5476   6.921   0.696   6.430
 1526SOL    HW1 5477   6.997   0.715   6.492
 1526SOL    HW2 5478   6.910   0.597   6.419
 1527SOL     OW 5479   3.363   0.997   4.503
 1527SOL    HW1 5480   3.314   0.917   4.468
 1527SOL    HW2 5481   3.365   1.068   4.432
 1528SOL     OW 5482   4.102   4.708   1.968
 1528SOL    HW1 5483   4.184   4.651   1.965
 1528SOL    HW2 5484   4.049   4.694   1.885
 1529SOL     OW 5485   4.774   1.184   6.952
 1529SOL    HW1 5486   4.757   1.262   7.013
 1529SOL    HW2 5487   4.855   1.135   6.984
 1530SOL     OW 5488   3.138   1.587   1.083
 1530SOL    HW1 5489   3.192   1.530   1.021
 1530SOL    HW2 5490   3.058   1.622   1.034
 1531SOL     OW 5491   4.605   0.825   4.892
 1531SOL    HW1 5492   4.644   0.739   4.926
 1531SOL    HW2 5493   4.573   0.812   4.798
 1532SOL     OW 5494   3.494   4.275   5.902
 1532SOL    HW1 5495   3.407   4.303   5.861
 1532SOL    HW2 5496   3.547   4.223   5.836
 1533SOL     OW 5497   5.555   5.437   0.252
 1533SOL    HW1 5498   5.456   5.428   0.258
 1533SOL    HW2 5499   5.597   5.347   0.256
 1534SOL     OW 5500   3.221   5.950   6.233
 1534SOL    HW1 5501   3.316   5.962   6.265
 1534SOL    HW2 5502   3.174   5.885   6.293
 1535SOL     OW 5503   5.569   5.861   4.648
 1535SOL    HW1 5504   5.487   5.890   4.697
 1535SOL    HW2 5505   5.580   5.762   4.657
 1536SOL     OW 5506   3.973   4.846   6.349
 1536SOL    HW1 5507   4.072   4.848   6.338
 1536SOL    HW2 5508   3.939   4.755   6.327
 1537SOL     OW 5509   4.317   5.925   3.990
 1537SOL    HW1 5510   4.362   5.859   4.050
 1537SOL    HW2 5511   4.363   5.925   3.901
 1538SOL     OW 5512   3.482   6.954   6.634
 1538SOL    HW1 5513   3.485   6.880   6.702
 1538SOL    HW2 5514   3.550   6.935   6.563
 1539SOL     OW 5515   4.933   3.436   2.250
 1539SOL    HW1 5516   4.908   3.369   2.319
 1539SOL    HW2 5517   4.927   3.395   2.159
 1540SOL     OW 5518   0.320   6.673   5.485
 1540SOL    HW1 5519   0.396   6.642   5.542
 1540SOL    HW2 5520   0.340   6.653   5.389
 1541SOL     OW 5521   3.488   3.206   3.882
 1541SOL    HW1 5522   3.514   3.299   3.909
 1541SOL    HW2 5523   3.434   3.211   3.798
 1542SOL     OW 5524   6.614   0.476   2.073
 1542SOL    HW1 5525   6.562   0.487   1.989
 1542SOL    HW2 5526   6.699   0.529   2.067
 1543SOL     OW 5527   3.874   5.244   5.132
 1543SOL    HW1 5528   3.802   5.310   5.154
 1543SOL    HW2 5529   3.834   5.152   5.126
 1544SOL     OW 5530   3.866   4.062   3.798
 1544SOL    HW1 5531   3.931   4.127   3.759
 1544SOL    HW2 5532   3.868   3.977   3.747
 1545SOL     OW 5533   4.698   0.832   2.752
 1545SOL    HW1 5534   4.728   0.848   2.846
 1545SOL    HW2 5535   4.603   0.801   2.753
 1546SOL     OW 5536   5.617   6.318   5.903
 1546SOL    HW1 5537   5.519   6.302   5.893
 1546SOL    HW2 5538   5.647   6.384   5.834
 1547SOL     OW 5539   1.267   3.468   1.183
 1547SOL    HW1 5540   1.233   3.558   1.210
 1547SOL    HW2 5541   1.353   3.449   1.231
 1548SOL     OW 5542   5.089   3.913   0.029
 1548SOL    HW1 5543   5.174   3.883   7.009
 1548SOL    HW2 5544   5.088   3.881   0.123
 1549SOL     OW 5545   3.752   1.057   2.101
 1549SOL    HW1 5546   3.721   1.056   2.006
 1549SOL    HW2 5547   3.849   1.084   2.103
 1550SOL     OW 5548   3.367   3.502   1.605
 1550SOL    HW1 5549   3.297   3.475   1.671
 1550SOL    HW2 5550   3.326   3.559   1.534
 1551SOL     OW 5551   1.757   4.630   6.694
 1551SOL    HW1 5552   1.679   4.592   6.743
 1551SOL    HW2 5553   1.782   4.718   6.735
 1552SOL     OW 5554   1.744   5.548   0.860
 1552SOL    HW1 5555   1.721   5.623   0.798
 1552SOL    HW2 5556   1.802   5.482   0.813
 1553SOL     OW 5557   6.980   1.677   6.624
 1553SOL    HW1 5558   6.914   1.725   6.681
 1553SOL    HW2 5559   0.007   1.743   6.569
 1554SOL     OW 5560   3.386   2.099   3.524
 1554SOL    HW1 5561   3.484   2.084   3.513
 1554SOL    HW2 5562   3.343   2.103   3.433
 1555SOL     OW 5563   5.527   3.471   6.765
 1555SOL    HW1 5564   5.610   3.414   6.757
 1555SOL    HW2 5565   5.456   3.420   6.812
 1556SOL     OW 5566   1.600   1.676   6.301
 1556SOL    HW1 5567   1.625   1.707   6.393
 1556SOL    HW2 5568   1.653   1.727   6.233
 1557SOL     OW 5569   2.550   3.170   5.749
 1557SOL    HW1 5570   2.462   3.216   5.738
 1557SOL    HW2 5571   2.622   3.223   5.703
 1558SOL     OW 5572   5.973   0.799   4.819
 1558SOL    HW1 5573   5.896   0.743   4.789
 1558SOL    HW2 5574   6.011   0.849   4.741
 1559SOL     OW 5575   1.813   3.000   6.652
 1559SOL    HW1 5576   1.803   3.096   6.679
 1559SOL    HW2 5577   1.725   2.966   6.620
 1560SOL     OW 5578   0.073   0.601   5.840
 1560SOL    HW1 5579   0.006   0.551   5.895
 1560SOL    HW2 5580   0.050   0.591   5.744
 1561SOL     OW 5581   4.854   6.257   3.501
 1561SOL    HW1 5582   4.855   6.321   3.424
 1561SOL    HW2 5583   4.942   6.210   3.505
 1562SOL     OW 5584   4.880   6.329   2.557
 1562SOL    HW1 5585   4.877   6.363   2.463
 1562SOL    HW2 5586   4.957   6.370   2.605
 1563SOL     OW 5587   2.838   0.710   5.414
 1563SOL    HW1 5588   2.796   0.649   5.347
 1563SOL    HW2 5589   2.768   0.773   5.450
 1564SOL     OW 5590   1.378   0.742   3.439
 1564SOL    HW1 5591   1.281   0.765   3.441
 1564SOL    HW2 5592   1.424   0.798   3.370
 1565SOL     OW 5593   4.702   4.594   3.306
 1565SOL    HW1 5594   4.627   4.656   3.281
 1565SOL    HW2 5595   4.742   4.555   3.223
 1566SOL     OW 5596   5.807   4.283   2.859
 1566SOL    HW1 5597   5.771   4.353   2.920
 1566SOL    HW2 5598   5.753   4.199   2.869
 1567SOL     OW 5599   6.812   6.186   1.032
 1567SOL    HW1 5600   6.833   6.191   0.934
 1567SOL    HW2 5601   6.888   6.223   1.085
 1568SOL     OW 5602   1.376   0.016   0.312
 1568SOL    HW1 5603   1.328   0.088   0.362
 1568SOL    HW2 5604   1.341   0.011   0.218
 1569SOL     OW 5605   4.609   6.222   3.216
 1569SOL    HW1 5606   4.569   6.246   3.128
 1569SOL    HW2 5607   4.539   6.231   3.288
 1570SOL     OW 5608   1.712   6.860   0.749
 1570SOL    HW1 5609   1.734   6.934   0.812
 1570SOL    HW2 5610   1.790   6.842   0.690
 1571SOL     OW 5611   5.621   3.033   0.985
 1571SOL    HW1 5612   5.624   2.950   1.041
 1571SOL    HW2 5613   5.554   3.022   0.912
 1572SOL     OW 5614   0.495   0.071   1.734
 1572SOL    HW1 5615   0.441   0.080   1.817
 1572SOL    HW2 5616   0.590   0.050   1.758
 1573SOL     OW 5617   5.101   1.914   2.066
 1573SOL    HW1 5618   5.051   1.948   2.146
 1573SOL    HW2 5619   5.194   1.889   2.092
 1574SOL     OW 5620   6.452   1.543   1.689
 1574SOL    HW1 5621   6.537   1.503   1.652
 1574SOL    HW2 5622   6.460   1.552   1.788
 1575SOL     OW 5623   2.712   1.510   0.414
 1575SOL    HW1 5624   2.810   1.528   0.402
 1575SOL    HW2 5625   2.691   1.505   0.511
 1576SOL     OW 5626   6.325   6.532   4.394
 1576SOL    HW1 5627   6.326   6.476   4.311
 1576SOL    HW2 5628   6.274   6.484   4.466
 1577SOL     OW 5629   2.903   1.914   4.303
 1577SOL    HW1 5630   2.920   1.921   4.401
 1577SOL    HW2 5631   2.985   1.881   4.257
 1578SOL     OW 5632   6.155   3.527   5.616
 1578SOL    HW1 5633   6.157   3.475   5.531
 1578SOL    HW2 5634   6.225   3.493   5.679
 1579SOL     OW 5635   0.022   1.527   3.576
 1579SOL    HW1 5636   0.121   1.519   3.571
 1579SOL    HW2 5637   7.022   1.597   3.643
 1580SOL     OW 5638   2.836   3.794   5.176
 1580SOL    HW1 5639   2.885   3.868   5.130
 1580SOL    HW2 5640   2.764   3.832   5.233
 1581SOL     OW 5641   0.226   4.610   4.518
 1581SOL    HW1 5642   0.186   4.585   4.606
 1581SOL    HW2 5643   0.173   4.684   4.477
 1582SOL     OW 5644   1.380   6.573   4.599
 1582SOL    HW1 5645   1.417   6.646   4.540
 1582SOL    HW2 5646   1.409   6.484   4.564
 1583SOL     OW 5647   1.145   2.780   4.406
 1583SOL    HW1 5648   1.211   2.734   4.466
 1583SOL    HW2 5649   1.076   2.714   4.375
 1584SOL     OW 5650   1.731   6.728   4.490
 1584SOL    HW1 5651   1.754   6.699   4.583
 1584SOL    HW2 5652   1.690   6.819   4.493
 1585SOL     OW 5653   5.604   1.802   3.301
 1585SOL    HW1 5654   5.554   1.830   3.219
 1585SOL    HW2 5655   5.678   1.740   3.275
 1586SOL     OW 5656   3.560   4.150   1.917
 1586SOL    HW1 5657   3.576   4.247   1.935
 1586SOL    HW2 5658   3.633   4.096   1.959
 1587SOL     OW 5659   2.837   5.072   0.091
 1587SOL    HW1 5660   2.881   5.127   0.162
 1587SOL    HW2 5661   2.906   5.034   0.030
 1588SOL     OW 5662   4.487   1.496   3.551
 1588SOL    HW1 5663   4.460   1.509   3.646
 1588SOL    HW2 5664   4.469   1.401   3.525
 1589SOL     OW 5665   5.493   4.090   3.510
 1589SOL    HW1 5666   5.575   4.117   3.560
 1589SOL    HW2 5667   5.424   4.162   3.518
 1590SOL     OW 5668   2.180   0.023   5.917
 1590SOL    HW1 5669   2.095   7.012   5.956
 1590SOL    HW2 5670   2.170   0.120   5.895
 1591SOL     OW 5671   1.588   5.129   3.229
 1591SOL    HW1 5672   1.609   5.214   3.180
 1591SOL    HW2 5673   1.489   5.121   3.240
 1592SOL     OW 5674   2.481   4.149   1.787
 1592SOL    HW1 5675   2.392   4.126   1.747
 1592SOL    HW2 5676   2.468   4.177   1.882
 1593SOL     OW 5677   0.941   6.642   3.606
 1593SOL    HW1 5678   0.885   6.559   3.609
 1593SOL    HW2 5679   0.894   6.715   3.655
 1594SOL     OW 5680   0.498   4.731   3.117
 1594SOL    HW1 5681   0.480   4.829   3.120
 1594SOL    HW2 5682   0.561   4.706   3.191
 1595SOL     OW 5683   0.422   4.930   6.224
 1595SOL    HW1 5684   0.521   4.925   6.236
 1595SOL    HW2 5685   0.401   4.954   6.129
 1596SOL     OW 5686   1.305   3.727   5.766
 1596SOL    HW1 5687   1.325   3.704   5.671
 1596SOL    HW2 5688   1.382   3.780   5.804
 1597SOL     OW 5689   2.961   5.693   0.587
 1597SOL    HW1 5690   2.984   5.751   0.509
 1597SOL    HW2 5691   3.004   5.603   0.575
 1598SOL     OW 5692   0.420   4.105   0.467
 1598SOL    HW1 5693   0.440   4.056   0.552
 1598SOL    HW2 5694   0.500   4.105   0.408
 1599SOL     OW 5695   4.400   3.670   5.620
 1599SOL    HW1 5696   4.430   3.637   5.709
 1599SOL    HW2 5697   4.473   3.654   5.552
 1600SOL     OW 5698   5.169   2.034   4.792
 1600SOL    HW1 5699   5.172   2.104   4.863
 1600SOL    HW2 5700   5.178   2.078   4.702
 1601SOL     OW 5701   0.857   5.146   4.883
 1601SOL    HW1 5702   0.944   5.096   4.889
 1601SOL    HW2 5703   0.854   5.197   4.797
 1602SOL     OW 5704   2.045   5.641   4.182
 1602SOL    HW1 5705   2.002   5.729   4.200
 1602SOL    HW2 5706   2.072   5.636   4.086
 1603SOL     OW 5707   1.260   6.323   1.853
 1603SOL    HW1 5708   1.287   6.228   1.842
 1603SOL    HW2 5709   1.160   6.330   1.846
 1604SOL     OW 5710   5.518   4.997   6.871
 1604SOL    HW1 5711   5.489   4.902   6.856
 1604SOL    HW2 5712   5.595   4.998   6.935
 1605SOL     OW 5713   6.534   0.262   1.737
 1605SOL    HW1 5714   6.540   0.358   1.709
 1605SOL    HW2 5715   6.498   0.256   1.830
 1606SOL     OW 5716   4.446   0.633   5.153
 1606SOL    HW1 5717   4.396   0.674   5.076
 1606SOL    HW2 5718   4.526   0.689   5.175
 1607SOL     OW 5719   5.230   2.476   1.238
 1607SOL    HW1 5720   5.307   2.536   1.258
 1607SOL    HW2 5721   5.150   2.505   1.292
 1608SOL     OW 5722   1.424   0.367   5.827
 1608SOL    HW1 5723   1.364   0.427   5.880
 1608SOL    HW2 5724   1.461   0.296   5.886
 1609SOL     OW 5725   5.139   1.487   6.588
 1609SOL    HW1 5726   5.100   1.441   6.508
 1609SOL    HW2 5727   5.065   1.520   6.646
 1610SOL     OW 5728   5.414   4.266   5.269
 1610SOL    HW1 5729   5.480   4.326   5.316
 1610SOL    HW2 5730   5.429   4.271   5.170
 1611SOL     OW 5731   3.934   3.544   2.034
 1611SOL    HW1 5732   3.975   3.456   2.059
 1611SOL    HW2 5733   4.002   3.617   2.046
 1612SOL     OW 5734   2.660   0.885   5.516
 1612SOL    HW1 5735   2.569   0.904   5.553
 1612SOL    HW2 5736   2.729   0.933   5.570
 1613SOL     OW 5737   2.343   5.848   1.080
 1613SOL    HW1 5738   2.255   5.824   1.119
 1613SOL    HW2 5739   2.335   5.854   0.980
 1614SOL     OW 5740   6.521   4.156   0.402
 1614SOL    HW1 5741   6.556   4.238   0.357
 1614SOL    HW2 5742   6.475   4.181   0.487
 1615SOL     OW 5743   6.473   4.873   1.451
 1615SOL    HW1 5744   6.571   4.871   1.469
 1615SOL    HW2 5745   6.451   4.951   1.392
 1616SOL     OW 5746   4.702   1.794   5.838
 1616SOL    HW1 5747   4.673   1.700   5.818
 1616SOL    HW2 5748   4.706   1.845   5.752
 1617SOL     OW 5749   6.033   6.878   1.750
 1617SOL    HW1 5750   5.976   6.947   1.705
 1617SOL    HW2 5751   6.009   6.788   1.716
 1618SOL     OW 5752   0.656   4.063   0.956
 1618SOL    HW1 5753   0.591   4.117   0.902
 1618SOL    HW2 5754   0.699   3.994   0.899
 1619SOL     OW 5755   1.742   2.889   4.470
 1619SOL    HW1 5756   1.742   2.849   4.562
 1619SOL    HW2 5757   1.794   2.831   4.408
 1620SOL     OW 5758   2.049   5.743   0.693
 1620SOL    HW1 5759   2.077   5.693   0.611
 1620SOL    HW2 5760   1.997   5.683   0.753
 1621SOL     OW 5761   0.550   0.992   7.014
 1621SOL    HW1 5762   0.591   1.075   0.025
 1621SOL    HW2 5763   0.608   0.913   0.012
 1622SOL     OW 5764   1.441   2.124   4.866
 1622SOL    HW1 5765   1.359   2.118   4.808
 1622SOL    HW2 5766   1.517   2.159   4.812
 1623SOL     OW 5767   2.572   2.777   6.077
 1623SOL    HW1 5768   2.584   2.775   6.176
 1623SOL    HW2 5769   2.627   2.704   6.036
 1624SOL     OW 5770   2.438   0.815   6.213
 1624SOL    HW1 5771   2.455   0.905   6.251
 1624SOL    HW2 5772   2.499   0.748   6.256
 1625SOL     OW 5773   1.466   5.202   2.878
 1625SOL    HW1 5774   1.455   5.269   2.805
 1625SOL    HW2 5775   1.540   5.231   2.939
 1626SOL     OW 5776   2.222   1.882   6.556
 1626SOL    HW1 5777   2.211   1.814   6.484
 1626SOL    HW2 5778   2.299   1.856   6.614
 1627SOL     OW 5779   0.023   2.091   4.434
 1627SOL    HW1 5780   6.978   2.089   4.505
 1627SOL    HW2 5781   7.011   2.138   4.353
 1628SOL     OW 5782   4.324   5.012   6.501
 1628SOL    HW1 5783   4.261   4.972   6.567
 1628SOL    HW2 5784   4.283   5.009   6.410
 1629SOL     OW 5785   2.743   2.234   4.058
 1629SOL    HW1 5786   2.735   2.242   4.157
 1629SOL    HW2 5787   2.837   2.214   4.033
 1630SOL     OW 5788   0.892   6.397   5.676
 1630SOL    HW1 5789   0.842   6.321   5.717
 1630SOL    HW2 5790   0.869   6.404   5.579
 1631SOL     OW 5791   6.750   0.527   5.706
 1631SOL    HW1 5792   6.738   0.614   5.755
 1631SOL    HW2 5793   6.691   0.458   5.748
 1632SOL     OW 5794   0.029   1.131   6.850
 1632SOL    HW1 5795   0.019   1.231   6.856
 1632SOL    HW2 5796   7.019   1.089   6.934
 1633SOL     OW 5797   5.333   2.657   3.263
 1633SOL    HW1 5798   5.365   2.580   3.318
 1633SOL    HW2 5799   5.235   2.647   3.246
 1634SOL     OW 5800   4.428   6.051   5.592
 1634SOL    HW1 5801   4.456   6.072   5.685
 1634SOL    HW2 5802   4.383   5.962   5.590
 1635SOL     OW 5803   6.217   5.316   4.782
 1635SOL    HW1 5804   6.187   5.405   4.748
 1635SOL    HW2 5805   6.291   5.282   4.724
 1636SOL     OW 5806   2.215   4.437   1.374
 1636SOL    HW1 5807   2.252   4.530   1.384
 1636SOL    HW2 5808   2.123   4.434   1.414
 1637SOL     OW 5809   6.638   1.621   3.094
 1637SOL    HW1 5810   6.688   1.537   3.074
 1637SOL    HW2 5811   6.642   1.681   3.014
 1638SOL     OW 5812   0.476   3.646   4.375
 1638SOL    HW1 5813   0.562   3.688   4.344
 1638SOL    HW2 5814   0.399   3.695   4.335
 1639SOL     OW 5815   5.324   6.314   2.503
 1639SOL    HW1 5816   5.375   6.396   2.479
 1639SOL    HW2 5817   5.284   6.274   2.420
 1640SOL     OW 5818   5.891   1.798   0.382
 1640SOL    HW1 5819   5.856   1.809   0.475
 1640SOL    HW2 5820   5.859   1.874   0.325
 1641SOL     OW 5821   6.214   2.886   3.685
 1641SOL    HW1 5822   6.149   2.811   3.696
 1641SOL    HW2 5823   6.227   2.932   3.773
 1642SOL     OW 5824   6.742   3.266   0.163
 1642SOL    HW1 5825   6.651   3.278   0.123
 1642SOL    HW2 5826   6.734   3.263   0.263
 1643SOL     OW 5827   3.310   6.195   4.474
 1643SOL    HW1 5828   3.216   6.165   4.491
 1643SOL    HW2 5829   3.341   6.156   4.387
 1644SOL     OW 5830   2.378   2.422   1.170
 1644SOL    HW1 5831   2.399   2.455   1.078
 1644SOL    HW2 5832   2.451   2.448   1.233
 1645SOL     OW 5833   3.169   6.555   5.202
 1645SOL    HW1 5834   3.191   6.540   5.106
 1645SOL    HW2 5835   3.088   6.613   5.209
 1646SOL     OW 5836   3.097   5.234   1.188
 1646SOL    HW1 5837   3.026   5.304   1.192
 1646SOL    HW2 5838   3.059   5.147   1.220
 1647SOL     OW 5839   5.604   2.458   4.272
 1647SOL    HW1 5840   5.604   2.505   4.361
 1647SOL    HW2 5841   5.543   2.507   4.209
 1648SOL     OW 5842   5.289   6.262   1.853
 1648SOL    HW1 5843   5.376   6.288   1.895
 1648SOL    HW2 5844   5.295   6.272   1.754
 1649SOL     OW 5845   3.248   0.555   3.179
 1649SOL    HW1 5846   3.342   0.577   3.205
 1649SOL    HW2 5847   3.184   0.610   3.233
 1650SOL     OW 5848   3.128   6.789   4.159
 1650SOL    HW1 5849   3.182   6.716   4.201
 1650SOL    HW2 5850   3.119   6.771   4.061
 1651SOL     OW 5851   0.658   0.688   1.099
 1651SOL    HW1 5852   0.683   0.622   1.028
 1651SOL    HW2 5853   0.737   0.747   1.119
 1652SOL     OW 5854   1.705   1.775   1.217
 1652SOL    HW1 5855   1.770   1.844   1.248
 1652SOL    HW2 5856   1.746   1.684   1.227
 1653SOL     OW 5857   0.612   5.556   1.357
 1653SOL    HW1 5858   0.592   5.553   1.454
 1653SOL    HW2 5859   0.553   5.623   1.312
 1654SOL     OW 5860   0.054   3.198   2.319
 1654SOL    HW1 5861   7.010   3.204   2.246
 1654SOL    HW2 5862   0.142   3.168   2.280
 1655SOL     OW 5863   5.553   3.840   6.082
 1655SOL    HW1 5864   5.554   3.782   6.164
 1655SOL    HW2 5865   5.629   3.904   6.087
 1656SOL     OW 5866   1.859   4.179   3.265
 1656SOL    HW1 5867   1.848   4.132   3.178
 1656SOL    HW2 5868   1.933   4.246   3.259
 1657SOL     OW 5869   0.651   1.418   5.312
 1657SOL    HW1 5870   0.709   1.489   5.272
 1657SOL    HW2 5871   0.558   1.454   5.323
 1658SOL     OW 5872   6.745   6.893   2.856
 1658SOL    HW1 5873   6.707   6.815   2.907
 1658SOL    HW2 5874   6.830   6.867   2.812
 1659SOL     OW 5875   3.473   1.710   6.374
 1659SOL    HW1 5876   3.412   1.772   6.325
 1659SOL    HW2 5877   3.418   1.645   6.426
 1660SOL     OW 5878   1.181   5.591   3.834
 1660SOL    HW1 5879   1.187   5.512   3.896
 1660SOL    HW2 5880   1.223   5.567   3.746
 1661SOL     OW 5881   3.611   1.448   1.484
 1661SOL    HW1 5882   3.534   1.396   1.522
 1661SOL    HW2 5883   3.691   1.436   1.543
 1662SOL     OW 5884   6.068   1.292   3.563
 1662SOL    HW1 5885   6.135   1.275   3.491
 1662SOL    HW2 5886   6.106   1.357   3.629
 1663SOL     OW 5887   2.562   0.628   3.193
 1663SOL    HW1 5888   2.557   0.650   3.096
 1663SOL    HW2 5889   2.587   0.710   3.245
 1664SOL     OW 5890   1.898   0.436   4.159
 1664SOL    HW1 5891   1.994   0.459   4.176
 1664SOL    HW2 5892   1.854   0.511   4.109
 1665SOL     OW 5893   6.984   1.505   3.312
 1665SOL    HW1 5894   0.006   1.418   3.291
 1665SOL    HW2 5895   6.964   1.510   3.409
 1666SOL     OW 5896   6.004   2.725   0.478
 1666SOL    HW1 5897   6.006   2.707   0.380
 1666SOL    HW2 5898   6.087   2.687   0.520
 1667SOL     OW 5899   5.303   6.950   0.244
 1667SOL    HW1 5900   5.357   6.872   0.212
 1667SOL    HW2 5901   5.364   7.018   0.285
 1668SOL     OW 5902   4.882   6.553   5.122
 1668SOL    HW1 5903   4.842   6.535   5.032
 1668SOL    HW2 5904   4.854   6.643   5.154
 1669SOL     OW 5905   6.333   6.451   0.298
 1669SOL    HW1 5906   6.268   6.467   0.373
 1669SOL    HW2 5907   6.425   6.477   0.327
 1670SOL     OW 5908   7.022   5.829   5.907
 1670SOL    HW1 5909   7.005   5.771   5.827
 1670SOL    HW2 5910   0.009   5.924   5.876
 1671SOL     OW 5911   4.153   2.475   1.146
 1671SOL    HW1 5912   4.057   2.462   1.124
 1671SOL    HW2 5913   4.162   2.537   1.224
 1672SOL     OW 5914   2.033   3.792   2.876
 1672SOL    HW1 5915   2.088   3.874   2.862
 1672SOL    HW2 5916   1.938   3.810   2.853
 1673SOL     OW 5917   0.756   2.579   4.776
 1673SOL    HW1 5918   0.802   2.498   4.740
 1673SOL    HW2 5919   0.657   2.561   4.782
 1674SOL     OW 5920   1.537   3.754   1.635
 1674SOL    HW1 5921   1.616   3.813   1.652
 1674SOL    HW2 5922   1.564   3.658   1.642
 1675SOL     OW 5923   4.446   0.206   6.581
 1675SOL    HW1 5924   4.392   0.126   6.555
 1675SOL    HW2 5925   4.385   0.285   6.588
 1676SOL     OW 5926   3.090   1.651   2.920
 1676SOL    HW1 5927   3.095   1.742   2.878
 1676SOL    HW2 5928   3.103   1.581   2.849
 1677SOL     OW 5929   4.741   2.368   5.455
 1677SOL    HW1 5930   4.742   2.464   5.483
 1677SOL    HW2 5931   4.742   2.362   5.356
 1678SOL     OW 5932   5.889   4.575   4.231
 1678SOL    HW1 5933   5.959   4.575   4.160
 1678SOL    HW2 5934   5.807   4.619   4.196
 1679SOL     OW 5935   1.790   3.705   5.562
 1679SOL    HW1 5936   1.792   3.714   5.462
 1679SOL    HW2 5937   1.708   3.752   5.597
 1680SOL     OW 5938   0.799   1.112   4.199
 1680SOL    HW1 5939   0.870   1.181   4.215
 1680SOL    HW2 5940   0.823   1.028   4.247
 1681SOL     OW 5941   6.680   5.580   1.223
 1681SOL    HW1 5942   6.641   5.558   1.312
 1681SOL    HW2 5943   6.606   5.595   1.157
 1682SOL     OW 5944   0.247   2.963   5.087
 1682SOL    HW1 5945   0.194   3.030   5.035
 1682SOL    HW2 5946   0.344   2.972   5.064
 1683SOL     OW 5947   4.224   5.075   0.765
 1683SOL    HW1 5948   4.300   5.046   0.824
 1683SOL    HW2 5949   4.137   5.053   0.809
 1684SOL     OW 5950   1.385   6.189   3.554
 1684SOL    HW1 5951   1.300   6.214   3.507
 1684SOL    HW2 5952   1.369   6.106   3.607
 1685SOL     OW 5953   1.788   1.244   6.291
 1685SOL    HW1 5954   1.861   1.292   6.242
 1685SOL    HW2 5955   1.809   1.146   6.295
 1686SOL     OW 5956   1.852   5.173   5.712
 1686SOL    HW1 5957   1.936   5.152   5.762
 1686SOL    HW2 5958   1.773   5.139   5.763
 1687SOL     OW 5959   2.114   2.918   1.929
 1687SOL    HW1 5960   2.094   3.000   1.875
 1687SOL    HW2 5961   2.119   2.943   2.026
 1688SOL     OW 5962   1.086   1.725   3.451
 1688SOL    HW1 5963   1.083   1.802   3.515
 1688SOL    HW2 5964   1.134   1.648   3.494
 1689SOL     OW 5965   3.350   1.054   1.994
 1689SOL    HW1 5966   3.332   0.996   2.073
 1689SOL    HW2 5967   3.447   1.046   1.968
 1690SOL     OW 5968   1.556   2.518   3.223
 1690SOL    HW1 5969   1.466   2.495   3.188
 1690SOL    HW2 5970   1.547   2.587   3.295
 1691SOL     OW 5971   5.236   4.398   3.222
 1691SOL    HW1 5972   5.242   4.331   3.149
 1691SOL    HW2 5973   5.161   4.461   3.204
 1692SOL     OW 5974   6.975   0.252   1.439
 1692SOL    HW1 5975   6.896   0.301   1.403
 1692SOL    HW2 5976   7.011   0.191   1.369
 1693SOL     OW 5977   1.888   2.862   3.203
 1693SOL    HW1 5978   1.943   2.944   3.183
 1693SOL    HW2 5979   1.891   2.800   3.125
 1694SOL     OW 5980   3.909   6.231   4.041
 1694SOL    HW1 5981   3.984   6.193   3.988
 1694SOL    HW2 5982   3.872   6.161   4.103
 1695SOL     OW 5983   2.623   1.464   4.427
 1695SOL    HW1 5984   2.532   1.491   4.394
 1695SOL    HW2 5985   2.689   1.537   4.408
 1696SOL     OW 5986   5.107   5.288   0.718
 1696SOL    HW1 5987   5.206   5.272   0.725
 1696SOL    HW2 5988   5.091   5.380   0.682
 1697SOL     OW 5989   0.476   6.762   1.186
 1697SOL    HW1 5990   0.548   6.815   1.232
 1697SOL    HW2 5991   0.401   6.744   1.251
 1698SOL     OW 5992   4.492   1.727   1.449
 1698SOL    HW1 5993   4.404   1.688   1.421
 1698SOL    HW2 5994   4.531   1.780   1.375
 1699SOL     OW 5995   2.799   2.046   1.676
 1699SOL    HW1 5996   2.766   2.141   1.676
 1699SOL    HW2 5997   2.873   2.037   1.743
 1700SOL     OW 5998   6.273   2.166   3.326
 1700SOL    HW1 5999   6.316   2.096   3.269
 1700SOL    HW2 6000   6.306   2.156   3.420
 1701SOL     OW 6001   5.453   2.828   4.511
 1701SOL    HW1 6002   5.489   2.737   4.532
 1701SOL    HW2 6003   5.365   2.818   4.465
 1702SOL     OW 6004   6.222   3.794   0.804
 1702SOL    HW1 6005   6.212   3.702   0.843
 1702SOL    HW2 6006   6.286   3.847   0.859
 1703SOL     OW 6007   3.295   4.076   2.541
 1703SOL    HW1 6008   3.379   4.115   2.503
 1703SOL    HW2 6009   3.230   4.059   2.468
 1704SOL     OW 6010   0.306   1.027   0.912
 1704SOL    HW1 6011   0.217   1.014   0.870
 1704SOL    HW2 6012   0.327   0.949   0.971
 1705SOL     OW 6013   3.292   2.077   1.861
 1705SOL    HW1 6014   3.344   2.145   1.810
 1705SOL    HW2 6015   3.326   2.072   1.955
 1706SOL     OW 6016   3.932   0.060   1.433
 1706SOL    HW1 6017   4.002   0.127   1.406
 1706SOL    HW2 6018   3.859   0.060   1.364
 1707SOL     OW 6019   3.854   1.652   1.925
 1707SOL    HW1 6020   3.756   1.639   1.939
 1707SOL    HW2 6021   3.900   1.653   2.014
 1708SOL     OW 6022   5.895   6.053   3.080
 1708SOL    HW1 6023   5.967   6.016   3.021
 1708SOL    HW2 6024   5.917   6.148   3.102
 1709SOL     OW 6025   2.789   6.791   1.559
 1709SOL    HW1 6026   2.705   6.841   1.540
 1709SOL    HW2 6027   2.796   6.712   1.497
 1710SOL     OW 6028   6.769   4.088   3.755
 1710SOL    HW1 6029   6.823   4.143   3.819
 1710SOL    HW2 6030   6.732   4.147   3.684
 1711SOL     OW 6031   1.491   4.478   5.143
 1711SOL    HW1 6032   1.540   4.433   5.218
 1711SOL    HW2 6033   1.409   4.425   5.120
 1712SOL     OW 6034   0.362   3.683   6.471
 1712SOL    HW1 6035   0.451   3.649   6.500
 1712SOL    HW2 6036   0.298   3.677   6.547
 1713SOL     OW 6037   2.633   2.038   1.209
 1713SOL    HW1 6038   2.564   2.103   1.241
 1713SOL    HW2 6039   2.720   2.056   1.255
 1714SOL     OW 6040   3.844   1.892   6.101
 1714SOL    HW1 6041   3.799   1.917   6.187
 1714SOL    HW2 6042   3.786   1.827   6.051
 1715SOL     OW 6043   0.057   3.363   3.013
 1715SOL    HW1 6044   0.134   3.380   2.953
 1715SOL    HW2 6045   7.004   3.328   2.960
 1716SOL     OW 6046   5.685   6.266   1.531
 1716SOL    HW1 6047   5.624   6.343   1.509
 1716SOL    HW2 6048   5.740   6.244   1.450
 1717SOL     OW 6049   2.586   6.263   6.432
 1717SOL    HW1 6050   2.586   6.362   6.418
 1717SOL    HW2 6051   2.645   6.220   6.363
 1718SOL     OW 6052   1.786   2.323   0.459
 1718SOL    HW1 6053   1.726   2.258   0.413
 1718SOL    HW2 6054   1.761   2.330   0.556
 1719SOL     OW 6055   2.365   3.849   1.274
 1719SOL    HW1 6056   2.304   3.897   1.336
 1719SOL    HW2 6057   2.330   3.855   1.181
 1720SOL     OW 6058   6.521   1.938   1.608
 1720SOL    HW1 6059   6.584   2.007   1.572
 1720SOL    HW2 6060   6.571   1.875   1.668
 1721SOL     OW 6061   1.218   6.653   2.430
 1721SOL    HW1 6062   1.203   6.555   2.445
 1721SOL    HW2 6063   1.316   6.669   2.415
 1722SOL     OW 6064   5.073   1.221   3.241
 1722SOL    HW1 6065   5.129   1.293   3.284
 1722SOL    HW2 6066   4.979   1.253   3.232
 1723SOL     OW 6067   6.780   2.041   3.751
 1723SOL    HW1 6068   6.831   1.980   3.690
 1723SOL    HW2 6069   6.739   2.115   3.697
 1724SOL     OW 6070   5.945   0.994   0.607
 1724SOL    HW1 6071   6.031   1.031   0.641
 1724SOL    HW2 6072   5.951   0.895   0.602
 1725SOL     OW 6073   3.371   4.448   0.403
 1725SOL    HW1 6074   3.304   4.374   0.412
 1725SOL    HW2 6075   3.459   4.418   0.440
 1726SOL     OW 6076   6.706   4.324   4.411
 1726SOL    HW1 6077   6.749   4.349   4.324
 1726SOL    HW2 6078   6.610   4.351   4.408
 1727SOL     OW 6079   3.523   2.938   3.927
 1727SOL    HW1 6080   3.514   3.036   3.908
 1727SOL    HW2 6081   3.479   2.917   4.014
 1728SOL     OW 6082   5.042   4.734   4.309
 1728SOL    HW1 6083   5.032   4.809   4.374
 1728SOL    HW2 6084   4.974   4.744   4.236
 1729SOL     OW 6085   2.036   3.740   3.765
 1729SOL    HW1 6086   1.941   3.769   3.776
 1729SOL    HW2 6087   2.079   3.733   3.855
 1730SOL     OW 6088   6.704   1.001   5.195
 1730SOL    HW1 6089   6.649   1.085   5.197
 1730SOL    HW2 6090   6.701   0.962   5.103
 1731SOL     OW 6091   1.267   5.071   2.682
 1731SOL    HW1 6092   1.301   5.009   2.611
 1731SOL    HW2 6093   1.344   5.110   2.732
 1732SOL     OW 6094   1.804   4.125   6.410
 1732SOL    HW1 6095   1.892   4.120   6.364
 1732SOL    HW2 6096   1.818   4.141   6.508
 1733SOL     OW 6097   1.864   3.113   2.334
 1733SOL    HW1 6098   1.848   3.039   2.270
 1733SOL    HW2 6099   1.956   3.105   2.372
 1734SOL     OW 6100   4.638   3.073   1.599
 1734SOL    HW1 6101   4.629   3.060   1.697
 1734SOL    HW2 6102   4.574   3.012   1.551
 1735SOL     OW 6103   5.865   5.642   1.881
 1735SOL    HW1 6104   5.861   5.547   1.850
 1735SOL    HW2 6105   5.775   5.683   1.874
 1736SOL     OW 6106   5.046   2.177   0.158
 1736SOL    HW1 6107   5.115   2.118   0.116
 1736SOL    HW2 6108   5.087   2.266   0.179
 1737SOL     OW 6109   3.074   0.145   3.901
 1737SOL    HW1 6110   3.169   0.162   3.924
 1737SOL    HW2 6111   3.065   0.054   3.859
 1738SOL     OW 6112   2.080   2.504   3.845
 1738SOL    HW1 6113   2.029   2.492   3.930
 1738SOL    HW2 6114   2.158   2.565   3.861
 1739SOL     OW 6115   4.650   2.730   4.952
 1739SOL    HW1 6116   4.578   2.734   5.021
 1739SOL    HW2 6117   4.621   2.671   4.877
 1740SOL     OW 6118   0.192   0.948   6.714
 1740SOL    HW1 6119   0.291   0.955   6.725
 1740SOL    HW2 6120   0.147   1.005   6.783
 1741SOL     OW 6121   2.442   1.160   2.542
 1741SOL    HW1 6122   2.515   1.175   2.608
 1741SOL    HW2 6123   2.432   1.241   2.484
 1742SOL     OW 6124   3.911   5.825   5.874
 1742SOL    HW1 6125   4.008   5.808   5.856
 1742SOL    HW2 6126   3.856   5.753   5.830
 1743SOL     OW 6127   2.284   1.446   2.676
 1743SOL    HW1 6128   2.376   1.471   2.647
 1743SOL    HW2 6129   2.220   1.518   2.648
 1744SOL     OW 6130   1.386   6.736   1.730
 1744SOL    HW1 6131   1.315   6.763   1.665
 1744SOL    HW2 6132   1.444   6.814   1.752
 1745SOL     OW 6133   6.529   1.756   4.460
 1745SOL    HW1 6134   6.539   1.657   4.446
 1745SOL    HW2 6135   6.594   1.786   4.530
 1746SOL     OW 6136   2.365   5.563   5.643
 1746SOL    HW1 6137   2.284   5.609   5.607
 1746SOL    HW2 6138   2.446   5.592   5.592
 1747SOL     OW 6139   5.125   6.797   2.840
 1747SOL    HW1 6140   5.051   6.862   2.859
 1747SOL    HW2 6141   5.120   6.720   2.904
 1748SOL     OW 6142   6.756   0.827   3.954
 1748SOL    HW1 6143   6.756   0.864   4.047
 1748SOL    HW2 6144   6.790   0.734   3.954
 1749SOL     OW 6145   3.352   6.401   5.702
 1749SOL    HW1 6146   3.408   6.327   5.738
 1749SOL    HW2 6147   3.261   6.398   5.742
 1750SOL     OW 6148   5.453   1.526   3.315
 1750SOL    HW1 6149   5.459   1.555   3.219
 1750SOL    HW2 6150   5.519   1.579   3.369
 1751SOL     OW 6151   2.892   5.002   4.452
 1751SOL    HW1 6152   2.884   5.081   4.513
 1751SOL    HW2 6153   2.850   4.922   4.495
 1752SOL     OW 6154   6.809   2.662   1.625
 1752SOL    HW1 6155   6.799   2.562   1.623
 1752SOL    HW2 6156   6.870   2.687   1.700
 1753SOL     OW 6157   0.556   1.306   0.288
 1753SOL    HW1 6158   0.619   1.331   0.362
 1753SOL    HW2 6159   0.471   1.272   0.327
 1754SOL     OW 6160   3.680   3.176   0.807
 1754SOL    HW1 6161   3.638   3.266   0.802
 1754SOL    HW2 6162   3.643   3.118   0.734
 1755SOL     OW 6163   5.652   5.140   2.002
 1755SOL    HW1 6164   5.556   5.113   2.014
 1755SOL    HW2 6165   5.697   5.074   1.942
 1756SOL     OW 6166   5.567   4.510   5.404
 1756SOL    HW1 6167   5.646   4.475   5.352
 1756SOL    HW2 6168   5.599   4.570   5.477
 1757SOL     OW 6169   2.075   6.740   4.673
 1757SOL    HW1 6170   2.058   6.784   4.585
 1757SOL    HW2 6171   1.990   6.739   4.726
 1758SOL     OW 6172   2.656   0.624   3.784
 1758SOL    HW1 6173   2.658   0.692   3.712
 1758SOL    HW2 6174   2.567   0.577   3.784
 1759SOL     OW 6175   0.353   5.537   6.319
 1759SOL    HW1 6176   0.357   5.627   6.363
 1759SOL    HW2 6177   0.261   5.501   6.326
 1760SOL     OW 6178   6.045   1.791   1.464
 1760SOL    HW1 6179   6.130   1.752   1.500
 1760SOL    HW2 6180   6.067   1.861   1.397
 1761SOL     OW 6181   6.782   7.022   0.489
 1761SOL    HW1 6182   6.870   0.044   0.501
 1761SOL    HW2 6183   6.714   0.040   0.549
 1762SOL     OW 6184   6.415   1.936   5.115
 1762SOL    HW1 6185   6.400   1.947   5.017
 1762SOL    HW2 6186   6.432   1.839   5.135
 1763SOL     OW 6187   1.467   4.101   4.145
 1763SOL    HW1 6188   1.523   4.122   4.225
 1763SOL    HW2 6189   1.464   4.001   4.132
 1764SOL     OW 6190   2.031   3.594   2.640
 1764SOL    HW1 6191   1.953   3.653   2.618
 1764SOL    HW2 6192   2.033   3.575   2.738
 1765SOL     OW 6193   3.512   1.879   6.738
 1765SOL    HW1 6194   3.495   1.795   6.789
 1765SOL    HW2 6195   3.607   1.881   6.708
 1766SOL     OW 6196   5.373   3.004   4.108
 1766SOL    HW1 6197   5.323   3.057   4.176
 1766SOL    HW2 6198   5.466   3.040   4.099
 1767SOL     OW 6199   5.074   3.978   2.777
 1767SOL    HW1 6200   5.060   3.955   2.873
 1767SOL    HW2 6201   5.032   3.908   2.719
 1768SOL     OW 6202   4.029   0.892   4.974
 1768SOL    HW1 6203   3.971   0.940   4.908
 1768SOL    HW2 6204   4.075   0.959   5.032
 1769SOL     OW 6205   4.134   2.276   4.350
 1769SOL    HW1 6206   4.175   2.312   4.267
 1769SOL    HW2 6207   4.195   2.291   4.428
 1770SOL     OW 6208   1.841   6.127   4.930
 1770SOL    HW1 6209   1.877   6.220   4.931
 1770SOL    HW2 6210   1.760   6.121   4.988
 1771SOL     OW 6211   2.772   5.208   6.828
 1771SOL    HW1 6212   2.848   5.261   6.792
 1771SOL    HW2 6213   2.741   5.249   6.914
 1772SOL     OW 6214   3.439   6.679   3.680
 1772SOL    HW1 6215   3.455   6.744   3.754
 1772SOL    HW2 6216   3.378   6.719   3.611
 1773SOL     OW 6217   2.312   4.804   5.872
 1773SOL    HW1 6218   2.344   4.801   5.967
 1773SOL    HW2 6219   2.312   4.898   5.840
 1774SOL     OW 6220   4.588   6.113   1.448
 1774SOL    HW1 6221   4.667   6.172   1.431
 1774SOL    HW2 6222   4.614   6.018   1.432
 1775SOL     OW 6223   1.747   4.373   3.394
 1775SOL    HW1 6224   1.692   4.327   3.464
 1775SOL    HW2 6225   1.774   4.308   3.324
 1776SOL     OW 6226   3.091   6.931   3.674
 1776SOL    HW1 6227   3.116   6.990   3.597
 1776SOL    HW2 6228   3.005   6.884   3.654
 1777SOL     OW 6229   3.758   5.197   5.682
 1777SOL    HW1 6230   3.729   5.278   5.632
 1777SOL    HW2 6231   3.685   5.128   5.680
 1778SOL     OW 6232   4.239   3.397   5.477
 1778SOL    HW1 6233   4.326   3.445   5.484
 1778SOL    HW2 6234   4.165   3.463   5.468
 1779SOL     OW 6235   4.626   1.107   4.512
 1779SOL    HW1 6236   4.647   1.043   4.586
 1779SOL    HW2 6237   4.624   1.200   4.548
 1780SOL     OW 6238   3.537   3.199   6.626
 1780SOL    HW1 6239   3.531   3.272   6.557
 1780SOL    HW2 6240   3.622   3.208   6.677
 1781SOL     OW 6241   4.116   5.835   3.519
 1781SOL    HW1 6242   4.187   5.773   3.553
 1781SOL    HW2 6243   4.126   5.924   3.562
 1782SOL     OW 6244   3.081   1.874   2.486
 1782SOL    HW1 6245   3.073   1.938   2.410
 1782SOL    HW2 6246   3.007   1.890   2.551
 1783SOL     OW 6247   1.511   5.248   6.426
 1783SOL    HW1 6248   1.534   5.151   6.432
 1783SOL    HW2 6249   1.457   5.265   6.344
 1784SOL     OW 6250   4.144   1.286   5.928
 1784SOL    HW1 6251   4.111   1.379   5.942
 1784SOL    HW2 6252   4.230   1.288   5.878
 1785SOL     OW 6253   6.274   3.835   3.456
 1785SOL    HW1 6254   6.361   3.879   3.434
 1785SOL    HW2 6255   6.244   3.779   3.378
 1786SOL     OW 6256   2.017   2.436   0.162
 1786SOL    HW1 6257   2.031   2.407   0.257
 1786SOL    HW2 6258   2.104   2.462   0.122
 1787SOL     OW 6259   3.321   1.119   5.046
 1787SOL    HW1 6260   3.245   1.166   5.090
 1787SOL    HW2 6261   3.338   1.160   4.956
 1788SOL     OW 6262   2.934   2.841   6.966
 1788SOL    HW1 6263   2.972   2.800   0.025
 1788SOL    HW2 6264   2.929   2.773   6.894
 1789SOL     OW 6265   6.022   1.902   3.235
 1789SOL    HW1 6266   6.051   1.899   3.140
 1789SOL    HW2 6267   6.054   1.987   3.278
 1790SOL     OW 6268   3.986   5.828   3.949
 1790SOL    HW1 6269   4.020   5.759   4.012
 1790SOL    HW2 6270   4.012   5.919   3.981
 1791SOL     OW 6271   5.729   0.711   3.379
 1791SOL    HW1 6272   5.642   0.750   3.411
 1791SOL    HW2 6273   5.805   0.766   3.415
 1792SOL     OW 6274   6.785   3.286   4.817
 1792SOL    HW1 6275   6.692   3.309   4.848
 1792SOL    HW2 6276   6.839   3.369   4.811
 1793SOL     OW 6277   6.094   6.896   3.438
 1793SOL    HW1 6278   6.052   6.810   3.469
 1793SOL    HW2 6279   6.191   6.880   3.417
 1794SOL     OW 6280   5.412   6.146   5.834
 1794SOL    HW1 6281   5.392   6.103   5.923
 1794SOL    HW2 6282   5.331   6.192   5.800
 1795SOL     OW 6283   1.063   2.065   0.625
 1795SOL    HW1 6284   1.163   2.063   0.627
 1795SOL    HW2 6285   1.032   2.049   0.531
 1796SOL     OW 6286   2.351   0.870   4.403
 1796SOL    HW1 6287   2.433   0.818   4.425
 1796SOL    HW2 6288   2.361   0.964   4.436
 1797SOL     OW 6289   1.418   6.602   0.279
 1797SOL    HW1 6290   1.362   6.525   0.306
 1797SOL    HW2 6291   1.371   6.655   0.208
 1798SOL     OW 6292   5.412   2.783   3.634
 1798SOL    HW1 6293   5.398   2.797   3.732
 1798SOL    HW2 6294   5.343   2.721   3.599
 1799SOL     OW 6295   0.046   2.543   6.055
 1799SOL    HW1 6296   0.016   2.509   5.966
 1799SOL    HW2 6297   0.073   2.466   6.112
 1800SOL     OW 6298   3.898   4.889   2.031
 1800SOL    HW1 6299   3.982   4.837   2.011
 1800SOL    HW2 6300   3.822   4.825   2.045
 1801SOL     OW 6301   0.198   0.468   1.910
 1801SOL    HW1 6302   0.159   0.409   1.838
 1801SOL    HW2 6303   0.196   0.419   1.997
 1802SOL     OW 6304   5.236   5.445   3.455
 1802SOL    HW1 6305   5.286   5.511   3.399
 1802SOL    HW2 6306   5.249   5.353   3.417
 1803SOL     OW 6307   0.700   5.739   7.020
 1803SOL    HW1 6308   0.773   5.714   6.957
 1803SOL    HW2 6309   0.680   5.661   0.056
 1804SOL     OW 6310   2.613   3.892   5.298
 1804SOL    HW1 6311   2.586   3.866   5.390
 1804SOL    HW2 6312   2.531   3.917   5.245
 1805SOL     OW 6313   6.032   3.868   5.989
 1805SOL    HW1 6314   5.949   3.924   5.991
 1805SOL    HW2 6315   6.059   3.853   5.894
 1806SOL     OW 6316   0.128   0.556   0.276
 1806SOL    HW1 6317   0.055   0.565   0.207
 1806SOL    HW2 6318   0.141   0.645   0.321
 1807SOL     OW 6319   5.456   2.656   4.906
 1807SOL    HW1 6320   5.370   2.617   4.873
 1807SOL    HW2 6321   5.532   2.622   4.851
 1808SOL     OW 6322   0.129   4.462   5.814
 1808SOL    HW1 6323   0.227   4.444   5.803
 1808SOL    HW2 6324   0.100   4.431   5.904
 1809SOL     OW 6325   1.976   2.251   4.748
 1809SOL    HW1 6326   2.033   2.253   4.665
 1809SOL    HW2 6327   1.882   2.229   4.723
 1810SOL     OW 6328   2.839   6.824   3.378
 1810SOL    HW1 6329   2.750   6.778   3.375
 1810SOL    HW2 6330   2.830   6.917   3.342
 1811SOL     OW 6331   6.157   5.460   3.816
 1811SOL    HW1 6332   6.093   5.536   3.827
 1811SOL    HW2 6333   6.134   5.408   3.734
 1812SOL     OW 6334   4.537   6.466   5.025
 1812SOL    HW1 6335   4.609   6.430   4.966
 1812SOL    HW2 6336   4.504   6.394   5.086
 1813SOL     OW 6337   6.267   5.067   1.145
 1813SOL    HW1 6338   6.343   5.100   1.201
 1813SOL    HW2 6339   6.269   5.113   1.056
 1814SOL     OW 6340   6.193   0.586   1.421
 1814SOL    HW1 6341   6.131   0.563   1.496
 1814SOL    HW2 6342   6.271   0.524   1.421
 1815SOL     OW 6343   0.019   2.152   2.479
 1815SOL    HW1 6344   6.989   2.078   2.437
 1815SOL    HW2 6345   0.089   2.112   2.538
 1816SOL     OW 6346   2.933   2.920   1.136
 1816SOL    HW1 6347   2.904   2.906   1.042
 1816SOL    HW2 6348   2.854   2.946   1.192
 1817SOL     OW 6349   2.671   0.049   2.763
 1817SOL    HW1 6350   2.673   0.038   2.863
 1817SOL    HW2 6351   2.585   0.091   2.736
 1818SOL     OW 6352   1.413   6.866   2.788
 1818SOL    HW1 6353   1.348   6.842   2.860
 1818SOL    HW2 6354   1.363   6.896   2.707
 1819SOL     OW 6355   1.714   4.291   1.495
 1819SOL    HW1 6356   1.651   4.229   1.541
 1819SOL    HW2 6357   1.739   4.254   1.406
 1820SOL     OW 6358   4.373   0.999   2.460
 1820SOL    HW1 6359   4.346   0.910   2.423
 1820SOL    HW2 6360   4.441   0.987   2.532
 1821SOL     OW 6361   0.509   1.112   2.005
 1821SOL    HW1 6362   0.489   1.031   1.950
 1821SOL    HW2 6363   0.562   1.085   2.086
 1822SOL     OW 6364   2.590   3.193   1.165
 1822SOL    HW1 6365   2.623   3.101   1.188
 1822SOL    HW2 6366   2.612   3.213   1.069
 1823SOL     OW 6367   3.163   5.813   3.135
 1823SOL    HW1 6368   3.090   5.796   3.069
 1823SOL    HW2 6369   3.136   5.777   3.224
 1824SOL     OW 6370   2.992   2.297   0.983
 1824SOL    HW1 6371   2.939   2.328   1.062
 1824SOL    HW2 6372   2.995   2.197   0.982
 1825SOL     OW 6373   1.218   1.018   2.771
 1825SOL    HW1 6374   1.317   1.027   2.776
 1825SOL    HW2 6375   1.192   0.990   2.678
 1826SOL     OW 6376   2.893   0.476   1.297
 1826SOL    HW1 6377   2.892   0.380   1.268
 1826SOL    HW2 6378   2.821   0.526   1.250
 1827SOL     OW 6379   0.247   5.497   2.257
 1827SOL    HW1 6380   0.285   5.534   2.342
 1827SOL    HW2 6381   0.226   5.400   2.268
 1828SOL     OW 6382   0.280   2.625   0.408
 1828SOL    HW1 6383   0.349   2.587   0.469
 1828SOL    HW2 6384   0.323   2.694   0.349
 1829SOL     OW 6385   4.168   7.009   3.305
 1829SOL    HW1 6386   4.085   6.976   3.259
 1829SOL    HW2 6387   4.177   0.083   3.287
 1830SOL     OW 6388   5.590   5.799   4.244
 1830SOL    HW1 6389   5.627   5.710   4.270
 1830SOL    HW2 6390   5.509   5.818   4.298
 1831SOL     OW 6391   5.816   0.300   2.787
 1831SOL    HW1 6392   5.779   0.270   2.699
 1831SOL    HW2 6393   5.749   0.284   2.859
 1832SOL     OW 6394   5.625   1.660   0.845
 1832SOL    HW1 6395   5.660   1.682   0.754
 1832SOL    HW2 6396   5.701   1.656   0.910
 1833SOL     OW 6397   5.883   1.177   5.057
 1833SOL    HW1 6398   5.851   1.228   4.977
 1833SOL    HW2 6399   5.978   1.150   5.044
 1834SOL     OW 6400   3.075   3.813   0.204
 1834SOL    HW1 6401   3.149   3.770   0.256
 1834SOL    HW2 6402   3.106   3.831   0.111
 1835SOL     OW 6403   1.594   4.216   2.029
 1835SOL    HW1 6404   1.547   4.298   1.995
 1835SOL    HW2 6405   1.526   4.145   2.050
 1836SOL     OW 6406   5.874   1.667   1.017
 1836SOL    HW1 6407   5.794   1.646   1.074
 1836SOL    HW2 6408   5.878   1.765   0.999
 1837SOL     OW 6409   0.913   2.725   3.661
 1837SOL    HW1 6410   0.921   2.645   3.602
 1837SOL    HW2 6411   0.821   2.763   3.653
 1838SOL     OW 6412   0.045   2.041   4.035
 1838SOL    HW1 6413   0.076   2.116   3.977
 1838SOL    HW2 6414   7.013   2.078   4.110
 1839SOL     OW 6415   4.510   2.559   4.798
 1839SOL    HW1 6416   4.516   2.536   4.700
 1839SOL    HW2 6417   4.471   2.482   4.848
 1840SOL     OW 6418   3.659   6.078   1.438
 1840SOL    HW1 6419   3.620   6.134   1.365
 1840SOL    HW2 6420   3.736   6.127   1.479
 1841SOL     OW 6421   2.388   2.748   4.443
 1841SOL    HW1 6422   2.422   2.790   4.527
 1841SOL    HW2 6423   2.288   2.752   4.442
 1842SOL     OW 6424   1.387   5.631   0.563
 1842SOL    HW1 6425   1.397   5.725   0.595
 1842SOL    HW2 6426   1.462   5.575   0.599
 1843SOL     OW 6427   0.718   2.291   4.711
 1843SOL    HW1 6428   0.652   2.283   4.636
 1843SOL    HW2 6429   0.671   2.314   4.795
 1844SOL     OW 6430   3.887   0.479   5.374
 1844SOL    HW1 6431   3.850   0.395   5.413
 1844SOL    HW2 6432   3.882   0.475   5.275
 1845SOL     OW 6433   2.319   6.872   5.427
 1845SOL    HW1 6434   2.322   6.931   5.508
 1845SOL    HW2 6435   2.345   6.926   5.347
 1846SOL     OW 6436   3.809   1.850   6.993
 1846SOL    HW1 6437   3.837   1.946   7.003
 1846SOL    HW2 6438   3.711   1.842   7.016
 1847SOL     OW 6439   1.493   1.266   6.880
 1847SOL    HW1 6440   1.440   1.263   6.965
 1847SOL    HW2 6441   1.433   1.245   6.803
 1848SOL     OW 6442   1.786   6.472   2.248
 1848SOL    HW1 6443   1.784   6.477   2.148
 1848SOL    HW2 6444   1.818   6.381   2.276
 1849SOL     OW 6445   3.927   1.586   0.592
 1849SOL    HW1 6446   4.018   1.590   0.633
 1849SOL    HW2 6447   3.880   1.504   0.624
 1850SOL     OW 6448   6.666   2.951   2.683
 1850SOL    HW1 6449   6.593   2.973   2.617
 1850SOL    HW2 6450   6.641   2.987   2.773
 1851SOL     OW 6451   0.389   1.556   0.876
 1851SOL    HW1 6452   0.379   1.457   0.889
 1851SOL    HW2 6453   0.407   1.600   0.964
 1852SOL     OW 6454   5.361   3.767   0.947
 1852SOL    HW1 6455   5.455   3.754   0.978
 1852SOL    HW2 6456   5.298   3.754   1.024
 1853SOL     OW 6457   0.764   2.890   2.311
 1853SOL    HW1 6458   0.683   2.873   2.255
 1853SOL    HW2 6459   0.760   2.982   2.350
 1854SOL     OW 6460   2.713   5.722   3.513
 1854SOL    HW1 6461   2.774   5.708   3.434
 1854SOL    HW2 6462   2.654   5.642   3.524
 1855SOL     OW 6463   4.417   3.984   7.008
 1855SOL    HW1 6464   4.348   3.919   0.015
 1855SOL    HW2 6465   4.402   4.005   6.911
 1856SOL     OW 6466   6.691   3.426   5.324
 1856SOL    HW1 6467   6.720   3.520   5.344
 1856SOL    HW2 6468   6.765   3.378   5.278
 1857SOL     OW 6469   3.399   1.171   5.868
 1857SOL    HW1 6470   3.321   1.110   5.874
 1857SOL    HW2 6471   3.483   1.122   5.893
 1858SOL     OW 6472   5.980   2.777   3.834
 1858SOL    HW1 6473   5.921   2.787   3.753
 1858SOL    HW2 6474   5.924   2.753   3.913
 1859SOL     OW 6475   4.079   1.589   3.349
 1859SOL    HW1 6476   4.111   1.644   3.426
 1859SOL    HW2 6477   3.983   1.566   3.362
 1860SOL     OW 6478   6.214   0.417   3.670
 1860SOL    HW1 6479   6.145   0.357   3.630
 1860SOL    HW2 6480   6.295   0.364   3.695
 1861SOL     OW 6481   4.770   6.862   2.601
 1861SOL    HW1 6482   4.760   6.909   2.689
 1861SOL    HW2 6483   4.865   6.870   2.570
 1862SOL     OW 6484   2.317   0.207   6.467
 1862SOL    HW1 6485   2.306   0.287   6.407
 1862SOL    HW2 6486   2.229   0.181   6.505
 1863SOL     OW 6487   2.227   2.034   0.066
 1863SOL    HW1 6488   2.136   2.072   0.086
 1863SOL    HW2 6489   2.217   1.939   0.036
 1864SOL     OW 6490   1.326   6.689   5.731
 1864SOL    HW1 6491   1.250   6.753   5.747
 1864SOL    HW2 6492   1.324   6.660   5.635
 1865SOL     OW 6493   3.473   6.858   5.807
 1865SOL    HW1 6494   3.548   6.907   5.762
 1865SOL    HW2 6495   3.446   6.780   5.750
 1866SOL     OW 6496   4.210   5.060   3.180
 1866SOL    HW1 6497   4.287   5.085   3.120
 1866SOL    HW2 6498   4.165   4.979   3.144
 1867SOL     OW 6499   1.270   4.516   0.572
 1867SOL    HW1 6500   1.356   4.558   0.600
 1867SOL    HW2 6501   1.214   4.498   0.653
 1868SOL     OW 6502   4.748   3.902   0.773
 1868SOL    HW1 6503   4.699   3.883   0.688
 1868SOL    HW2 6504   4.743   3.822   0.833
 1869SOL     OW 6505   6.728   2.271   5.124
 1869SOL    HW1 6506   6.723   2.350   5.185
 1869SOL    HW2 6507   6.786   2.294   5.045
 1870SOL     OW 6508   2.082   3.511   5.916
 1870SOL    HW1 6509   2.178   3.485   5.929
 1870SOL    HW2 6510   2.029   3.481   5.996
 1871SOL     OW 6511   1.051   0.001   6.565
 1871SOL    HW1 6512   1.122   0.040   6.623
 1871SOL    HW2 6513   0.962   0.013   6.608
 1872SOL     OW 6514   3.361   3.232   6.813
 1872SOL    HW1 6515   3.427   3.197   6.747
 1872SOL    HW2 6516   3.380   3.328   6.832
 1873SOL     OW 6517   4.935   0.929   5.113
 1873SOL    HW1 6518   4.930   0.863   5.038
 1873SOL    HW2 6519   4.919   1.021   5.077
 1874SOL     OW 6520   2.628   0.807   0.826
 1874SOL    HW1 6521   2.600   0.871   0.755
 1874SOL    HW2 6522   2.603   0.843   0.916
 1875SOL     OW 6523   0.311   1.219   0.065
 1875SOL    HW1 6524   0.279   1.297   0.119
 1875SOL    HW2 6525   0.327   1.248   6.995
 1876SOL     OW 6526   3.884   0.406   5.876
 1876SOL    HW1 6527   3.918   0.354   5.954
 1876SOL    HW2 6528   3.843   0.342   5.810
 1877SOL     OW 6529   0.553   0.111   2.397
 1877SOL    HW1 6530   0.500   0.118   2.313
 1877SOL    HW2 6531   0.493   0.119   2.476
 1878SOL     OW 6532   6.384   1.649   3.904
 1878SOL    HW1 6533   6.376   1.562   3.855
 1878SOL    HW2 6534   6.368   1.725   3.841
 1879SOL     OW 6535   0.981   4.221   3.899
 1879SOL    HW1 6536   0.946   4.231   3.993
 1879SOL    HW2 6537   0.960   4.129   3.866
 1880SOL     OW 6538   0.068   1.647   5.024
 1880SOL    HW1 6539   0.129   1.663   4.946
 1880SOL    HW2 6540   7.012   1.596   4.993
 1881SOL     OW 6541   5.916   2.197   2.934
 1881SOL    HW1 6542   5.941   2.186   2.838
 1881SOL    HW2 6543   5.853   2.124   2.960
 1882SOL     OW 6544   0.863   4.241   6.419
 1882SOL    HW1 6545   0.932   4.203   6.481
 1882SOL    HW2 6546   0.906   4.304   6.355
 1883SOL     OW 6547   6.715   2.301   2.754
 1883SOL    HW1 6548   6.748   2.224   2.699
 1883SOL    HW2 6549   6.668   2.266   2.836
 1884SOL     OW 6550   6.993   1.759   0.346
 1884SOL    HW1 6551   6.979   1.712   0.434
 1884SOL    HW2 6552   0.063   1.791   0.340
 1885SOL     OW 6553   1.971   2.042   6.442
 1885SOL    HW1 6554   2.070   2.027   6.434
 1885SOL    HW2 6555   1.950   2.137   6.418
 1886SOL     OW 6556   1.390   0.330   1.992
 1886SOL    HW1 6557   1.378   0.247   1.938
 1886SOL    HW2 6558   1.477   0.372   1.969
 1887SOL     OW 6559   0.450   5.237   5.414
 1887SOL    HW1 6560   0.427   5.141   5.403
 1887SOL    HW2 6561   0.391   5.277   5.485
 1888SOL     OW 6562   3.276   2.568   6.475
 1888SOL    HW1 6563   3.262   2.559   6.376
 1888SOL    HW2 6564   3.214   2.506   6.523
 1889SOL     OW 6565   0.102   3.674   5.189
 1889SOL    HW1 6566   0.109   3.695   5.286
 1889SOL    HW2 6567   0.055   3.749   5.142
 1890SOL     OW 6568   1.360   5.611   4.198
 1890SOL    HW1 6569   1.290   5.558   4.246
 1890SOL    HW2 6570   1.344   5.709   4.213
 1891SOL     OW 6571   4.682   2.692   1.498
 1891SOL    HW1 6572   4.623   2.756   1.448
 1891SOL    HW2 6573   4.649   2.599   1.486
 1892SOL     OW 6574   0.937   6.672   2.335
 1892SOL    HW1 6575   1.030   6.670   2.372
 1892SOL    HW2 6576   0.930   6.606   2.260
 1893SOL     OW 6577   3.455   3.015   1.717
 1893SOL    HW1 6578   3.468   3.106   1.756
 1893SOL    HW2 6579   3.377   3.016   1.655
 1894SOL     OW 6580   3.957   3.389   3.448
 1894SOL    HW1 6581   3.905   3.400   3.363
 1894SOL    HW2 6582   3.895   3.394   3.526
 1895SOL     OW 6583   4.290   0.233   0.838
 1895SOL    HW1 6584   4.289   0.273   0.746
 1895SOL    HW2 6585   4.367   0.270   0.889
 1896SOL     OW 6586   5.620   1.933   1.367
 1896SOL    HW1 6587   5.552   1.917   1.439
 1896SOL    HW2 6588   5.684   1.857   1.364
 1897SOL     OW 6589   2.161   5.226   1.895
 1897SOL    HW1 6590   2.156   5.316   1.938
 1897SOL    HW2 6591   2.091   5.166   1.936
 1898SOL     OW 6592   1.934   5.004   4.018
 1898SOL    HW1 6593   2.013   5.023   4.077
 1898SOL    HW2 6594   1.894   4.916   4.043
 1899SOL     OW 6595   0.055   1.820   0.816
 1899SOL    HW1 6596   0.141   1.860   0.784
 1899SOL    HW2 6597   0.069   1.779   0.907
 1900SOL     OW 6598   2.254   0.313   0.042
 1900SOL    HW1 6599   2.289   0.229   7.023
 1900SOL    HW2 6600   2.331   0.365   0.080
 1901SOL     OW 6601   2.220   2.339   0.744
 1901SOL    HW1 6602   2.214   2.274   0.819
 1901SOL    HW2 6603   2.292   2.309   0.680
 1902SOL     OW 6604   2.287   1.137   4.457
 1902SOL    HW1 6605   2.205   1.097   4.498
 1902SOL    HW2 6606   2.335   1.191   4.526
 1903SOL     OW 6607   0.926   2.956   2.882
 1903SOL    HW1 6608   0.988   3.030   2.856
 1903SOL    HW2 6609   0.868   2.987   2.958
 1904SOL     OW 6610   5.561   5.131   3.278
 1904SOL    HW1 6611   5.501   5.198   3.322
 1904SOL    HW2 6612   5.618   5.178   3.211
 1905SOL     OW 6613   0.583   0.090   3.546
 1905SOL    HW1 6614   0.639   0.016   3.507
 1905SOL    HW2 6615   0.614   0.111   3.638
 1906SOL     OW 6616   3.441   0.665   5.762
 1906SOL    HW1 6617   3.428   0.743   5.701
 1906SOL    HW2 6618   3.532   0.626   5.747
 1907SOL     OW 6619   4.214   2.279   1.607
 1907SOL    HW1 6620   4.178   2.192   1.574
 1907SOL    HW2 6621   4.140   2.333   1.647
 1908SOL     OW 6622   3.858   5.842   6.519
 1908SOL    HW1 6623   3.863   5.942   6.513
 1908SOL    HW2 6624   3.940   5.803   6.476
 1909SOL     OW 6625   0.726   2.852   3.522
 1909SOL    HW1 6626   0.780   2.886   3.445
 1909SOL    HW2 6627   0.650   2.915   3.540
 1910SOL     OW 6628   0.026   5.392   5.923
 1910SOL    HW1 6629   6.997   5.407   5.840
 1910SOL    HW2 6630   0.122   5.377   5.900
 1911SOL     OW 6631   0.190   3.716   4.714
 1911SOL    HW1 6632   0.180   3.617   4.707
 1911SOL    HW2 6633   0.286   3.741   4.701
 1912SOL     OW 6634   2.854   5.974   1.669
 1912SOL    HW1 6635   2.778   5.976   1.605
 1912SOL    HW2 6636   2.926   6.037   1.638
 1913SOL     OW 6637   2.960   0.710   5.109
 1913SOL    HW1 6638   2.991   0.702   5.204
 1913SOL    HW2 6639   2.926   0.621   5.079
 1914SOL     OW 6640   3.365   3.142   0.032
 1914SOL    HW1 6641   3.406   3.054   0.059
 1914SOL    HW2 6642   3.379   3.156   6.958
 1915SOL     OW 6643   4.937   2.723   6.266
 1915SOL    HW1 6644   4.944   2.789   6.340
 1915SOL    HW2 6645   4.861   2.747   6.206
 1916SOL     OW 6646   4.756   6.159   0.871
 1916SOL    HW1 6647   4.816   6.199   0.802
 1916SOL    HW2 6648   4.691   6.229   0.903
 1917SOL     OW 6649   2.209   3.389   0.188
 1917SOL    HW1 6650   2.294   3.438   0.209
 1917SOL    HW2 6651   2.216   3.295   0.221
 1918SOL     OW 6652   0.503   0.831   5.001
 1918SOL    HW1 6653   0.483   0.927   4.977
 1918SOL    HW2 6654   0.530   0.825   5.097
 1919SOL     OW 6655   1.727   1.352   1.764
 1919SOL    HW1 6656   1.701   1.403   1.682
 1919SOL    HW2 6657   1.766   1.264   1.738
 1920SOL     OW 6658   6.464   3.792   3.156
 1920SOL    HW1 6659   6.558   3.825   3.164
 1920SOL    HW2 6660   6.438   3.744   3.240
 1921SOL     OW 6661   2.148   2.799   0.233
 1921SOL    HW1 6662   2.132   2.763   0.141
 1921SOL    HW2 6663   2.074   2.861   0.258
 1922SOL     OW 6664   2.856   3.439   1.849
 1922SOL    HW1 6665   2.863   3.339   1.854
 1922SOL    HW2 6666   2.799   3.464   1.771
 1923SOL     OW 6667   4.055   1.982   6.586
 1923SOL    HW1 6668   4.037   1.884   6.581
 1923SOL    HW2 6669   4.050   2.021   6.494
 1924SOL     OW 6670   4.701   0.047   0.670
 1924SOL    HW1 6671   4.664   0.077   0.582
 1924SOL    HW2 6672   4.782   7.016   0.656
 1925SOL     OW 6673   1.194   4.863   1.723
 1925SOL    HW1 6674   1.105   4.842   1.683
 1925SOL    HW2 6675   1.250   4.911   1.655
 1926SOL     OW 6676   2.862   0.155   2.162
 1926SOL    HW1 6677   2.922   0.230   2.190
 1926SOL    HW2 6678   2.917   0.081   2.123
 1927SOL     OW 6679   2.431   3.713   0.418
 1927SOL    HW1 6680   2.523   3.704   0.381
 1927SOL    HW2 6681   2.433   3.773   0.498
 1928SOL     OW 6682   5.524   4.617   4.403
 1928SOL    HW1 6683   5.464   4.584   4.330
 1928SOL    HW2 6684   5.512   4.560   4.484
 1929SOL     OW 6685   1.985   0.719   2.102
 1929SOL    HW1 6686   2.062   0.665   2.136
 1929SOL    HW2 6687   2.012   0.815   2.097
 1930SOL     OW 6688   5.511   3.137   6.826
 1930SOL    HW1 6689   5.523   3.055   6.882
 1930SOL    HW2 6690   5.600   3.170   6.795
 1931SOL     OW 6691   1.011   2.270   6.811
 1931SOL    HW1 6692   0.921   2.273   6.855
 1931SOL    HW2 6693   1.027   2.178   6.773
 1932SOL     OW 6694   4.944   2.680   3.560
 1932SOL    HW1 6695   4.863   2.621   3.563
 1932SOL    HW2 6696   4.940   2.737   3.477
 1933SOL     OW 6697   1.078   2.322   0.564
 1933SOL    HW1 6698   1.081   2.228   0.596
 1933SOL    HW2 6699   0.996   2.367   0.600
 1934SOL     OW 6700   0.263   1.048   5.364
 1934SOL    HW1 6701   0.338   1.063   5.428
 1934SOL    HW2 6702   0.301   1.019   5.276
 1935SOL     OW 6703   4.290   4.981   3.676
 1935SOL    HW1 6704   4.352   5.059   3.666
 1935SOL    HW2 6705   4.207   5.011   3.722
 1936SOL     OW 6706   5.027   3.775   4.117
 1936SOL    HW1 6707   5.013   3.697   4.056
 1936SOL    HW2 6708   4.970   3.852   4.087
 1937SOL     OW 6709   4.390   6.302   0.094
 1937SOL    HW1 6710   4.385   6.285   0.192
 1937SOL    HW2 6711   4.438   6.227   0.049
 1938SOL     OW 6712   1.154   2.068   0.925
 1938SOL    HW1 6713   1.134   2.089   0.829
 1938SOL    HW2 6714   1.252   2.075   0.941
 1939SOL     OW 6715   0.384   6.074   4.253
 1939SOL    HW1 6716   0.340   5.990   4.283
 1939SOL    HW2 6717   0.328   6.153   4.279
 1940SOL     OW 6718   5.899   4.133   1.362
 1940SOL    HW1 6719   5.827   4.102   1.300
 1940SOL    HW2 6720   5.913   4.065   1.434
 1941SOL     OW 6721   1.156   3.095   3.576
 1941SOL    HW1 6722   1.223   3.098   3.650
 1941SOL    HW2 6723   1.139   3.000   3.549
 1942SOL     OW 6724   5.379   4.191   2.755
 1942SOL    HW1 6725   5.331   4.106   2.735
 1942SOL    HW2 6726   5.356   4.259   2.686
 1943SOL     OW 6727   1.235   1.617   2.940
 1943SOL    HW1 6728   1.228   1.672   3.023
 1943SOL    HW2 6729   1.322   1.568   2.939
 1944SOL     OW 6730   6.411   4.400   6.804
 1944SOL    HW1 6731   6.450   4.311   6.826
 1944SOL    HW2 6732   6.389   4.450   6.888
 1945SOL     OW 6733   3.803   6.397   1.143
 1945SOL    HW1 6734   3.742   6.321   1.119
 1945SOL    HW2 6735   3.792   6.418   1.240
 1946SOL     OW 6736   6.119   6.258   1.571
 1946SOL    HW1 6737   6.127   6.304   1.482
 1946SOL    HW2 6738   6.036   6.289   1.617
 1947SOL     OW 6739   6.165   5.636   4.251
 1947SOL    HW1 6740   6.124   5.622   4.341
 1947SOL    HW2 6741   6.262   5.613   4.254
 1948SOL     OW 6742   5.900   5.027   2.842
 1948SOL    HW1 6743   5.803   5.050   2.852
 1948SOL    HW2 6744   5.926   4.964   2.915
 1949SOL     OW 6745   3.979   3.900   0.554
 1949SOL    HW1 6746   4.065   3.951   0.554
 1949SOL    HW2 6747   3.902   3.963   0.564
 1950SOL     OW 6748   4.068   3.464   3.120
 1950SOL    HW1 6749   4.148   3.485   3.177
 1950SOL    HW2 6750   3.985   3.499   3.165
 1951SOL     OW 6751   6.853   4.481   5.808
 1951SOL    HW1 6752   6.931   4.460   5.867
 1951SOL    HW2 6753   6.828   4.399   5.756
 1952SOL     OW 6754   5.382   4.495   1.543
 1952SOL    HW1 6755   5.289   4.511   1.575
 1952SOL    HW2 6756   5.389   4.522   1.447
 1953SOL     OW 6757   0.078   1.488   6.348
 1953SOL    HW1 6758   7.008   1.521   6.353
 1953SOL    HW2 6759   0.103   1.472   6.253
 1954SOL     OW 6760   5.533   0.284   1.536
 1954SOL    HW1 6761   5.443   0.240   1.539
 1954SOL    HW2 6762   5.530   0.363   1.476
 1955SOL     OW 6763   0.102   1.185   1.267
 1955SOL    HW1 6764   0.192   1.230   1.263
 1955SOL    HW2 6765   0.089   1.131   1.184
 1956SOL     OW 6766   4.584   7.002   2.856
 1956SOL    HW1 6767   4.633   6.915   2.853
 1956SOL    HW2 6768   4.486   6.986   2.870
 1957SOL     OW 6769   5.257   3.424   4.174
 1957SOL    HW1 6770   5.213   3.487   4.238
 1957SOL    HW2 6771   5.349   3.401   4.207
 1958SOL     OW 6772   4.553   1.537   1.644
 1958SOL    HW1 6773   4.579   1.441   1.634
 1958SOL    HW2 6774   4.536   1.576   1.553
 1959SOL     OW 6775   6.631   6.343   3.972
 1959SOL    HW1 6776   6.601   6.298   3.888
 1959SOL    HW2 6777   6.588   6.300   4.051
 1960SOL     OW 6778   0.242   3.025   2.984
 1960SOL    HW1 6779   0.158   3.043   2.934
 1960SOL    HW2 6780   0.247   2.928   3.009
 1961SOL     OW 6781   6.337   4.252   4.399
 1961SOL    HW1 6782   6.245   4.257   4.361
 1961SOL    HW2 6783   6.371   4.158   4.391
 1962SOL     OW 6784   1.336   5.898   2.181
 1962SOL    HW1 6785   1.364   5.803   2.197
 1962SOL    HW2 6786   1.416   5.957   2.187
 1963SOL     OW 6787   0.768   1.755   1.315
 1963SOL    HW1 6788   0.860   1.794   1.309
 1963SOL    HW2 6789   0.771   1.667   1.362
 1964SOL     OW 6790   5.151   4.545   1.884
 1964SOL    HW1 6791   5.189   4.632   1.918
 1964SOL    HW2 6792   5.136   4.552   1.786
 1965SOL     OW 6793   1.565   3.498   4.295
 1965SOL    HW1 6794   1.471   3.511   4.329
 1965SOL    HW2 6795   1.618   3.448   4.363
 1966SOL     OW 6796   1.586   4.642   0.963
 1966SOL    HW1 6797   1.658   4.580   0.934
 1966SOL    HW2 6798   1.623   4.735   0.973
 1967SOL     OW 6799   6.987   2.476   3.995
 1967SOL    HW1 6800   6.915   2.424   3.951
 1967SOL    HW2 6801   0.020   2.519   3.925
 1968SOL     OW 6802   2.415   0.965   5.622
 1968SOL    HW1 6803   2.322   0.998   5.603
 1968SOL    HW2 6804   2.422   0.940   5.718
 1969SOL     OW 6805   2.839   0.701   1.704
 1969SOL    HW1 6806   2.785   0.781   1.676
 1969SOL    HW2 6807   2.915   0.689   1.639
 1970SOL     OW 6808   6.647   6.816   5.491
 1970SOL    HW1 6809   6.739   6.803   5.454
 1970SOL    HW2 6810   6.591   6.736   5.470
 1971SOL     OW 6811   0.402   0.257   5.278
 1971SOL    HW1 6812   0.492   0.289   5.249
 1971SOL    HW2 6813   0.411   0.198   5.358
 1972SOL     OW 6814   5.478   2.495   1.425
 1972SOL    HW1 6815   5.485   2.403   1.464
 1972SOL    HW2 6816   5.413   2.549   1.478
 1973SOL     OW 6817   2.632   3.893   1.683
 1973SOL    HW1 6818   2.623   3.908   1.585
 1973SOL    HW2 6819   2.600   3.974   1.732
 1974SOL     OW 6820   4.726   6.674   4.619
 1974SOL    HW1 6821   4.657   6.700   4.552
 1974SOL    HW2 6822   4.756   6.755   4.670
 1975SOL     OW 6823   1.963   2.929   4.064
 1975SOL    HW1 6824   2.051   2.976   4.075
 1975SOL    HW2 6825   1.960   2.882   3.976
 1976SOL     OW 6826   5.535   6.957   6.580
 1976SOL    HW1 6827   5.442   6.926   6.601
 1976SOL    HW2 6828   5.536   0.033   6.575
 1977SOL     OW 6829   2.461   3.353   6.123
 1977SOL    HW1 6830   2.481   3.262   6.088
 1977SOL    HW2 6831   2.427   3.411   6.049
 1978SOL     OW 6832   1.717   5.945   3.183
 1978SOL    HW1 6833   1.673   6.002   3.113
 1978SOL    HW2 6834   1.774   5.876   3.138
 1979SOL     OW 6835   5.905   4.866   0.001
 1979SOL    HW1 6836   5.994   4.889   6.986
 1979SOL    HW2 6837   5.873   4.779   6.987
 1980SOL     OW 6838   3.613   0.401   2.737
 1980SOL    HW1 6839   3.691   0.339   2.750
 1980SOL    HW2 6840   3.529   0.356   2.766
 1981SOL     OW 6841   5.405   2.686   2.550
 1981SOL    HW1 6842   5.467   2.608   2.554
 1981SOL    HW2 6843   5.375   2.710   2.642
 1982SOL     OW 6844   6.889   3.950   4.185
 1982SOL    HW1 6845   6.828   4.029   4.182
 1982SOL    HW2 6846   6.874   3.893   4.105
 1983SOL     OW 6847   0.609   0.391   0.946
 1983SOL    HW1 6848   0.574   0.346   0.863
 1983SOL    HW2 6849   0.694   0.347   0.974
 1984SOL     OW 6850   5.078   2.672   5.124
 1984SOL    HW1 6851   5.088   2.615   5.043
 1984SOL    HW2 6852   4.981   2.680   5.146
 1985SOL     OW 6853   6.803   5.592   1.741
 1985SOL    HW1 6854   6.707   5.572   1.721
 1985SOL    HW2 6855   6.849   5.508   1.771
 1986SOL     OW 6856   2.604   1.197   6.477
 1986SOL    HW1 6857   2.607   1.162   6.571
 1986SOL    HW2 6858   2.612   1.297   6.479
 1987SOL     OW 6859   2.209   1.396   3.928
 1987SOL    HW1 6860   2.294   1.382   3.878
 1987SOL    HW2 6861   2.142   1.441   3.868
 1988SOL     OW 6862   6.597   1.328   1.152
 1988SOL    HW1 6863   6.575   1.302   1.058
 1988SOL    HW2 6864   6.677   1.389   1.151
 1989SOL     OW 6865   2.802   6.187   4.740
 1989SOL    HW1 6866   2.759   6.233   4.818
 1989SOL    HW2 6867   2.786   6.089   4.746
 1990SOL     OW 6868   3.889   0.008   0.514
 1990SOL    HW1 6869   3.883   7.017   0.612
 1990SOL    HW2 6870   3.985   0.008   0.486
 1991SOL     OW 6871   2.569   4.817   0.177
 1991SOL    HW1 6872   2.563   4.916   0.167
 1991SOL    HW2 6873   2.555   4.773   0.089
 1992SOL     OW 6874   0.035   6.914   0.992
 1992SOL    HW1 6875   0.125   6.869   0.994
 1992SOL    HW2 6876   0.032   6.980   0.917
 1993SOL     OW 6877   2.910   2.029   4.544
 1993SOL    HW1 6878   2.894   2.107   4.606
 1993SOL    HW2 6879   2.867   1.947   4.583
 1994SOL     OW 6880   4.681   2.001   0.998
 1994SOL    HW1 6881   4.749   2.075   0.999
 1994SOL    HW2 6882   4.708   1.932   0.931
 1995SOL     OW 6883   5.876   3.210   4.455
 1995SOL    HW1 6884   5.966   3.212   4.412
 1995SOL    HW2 6885   5.808   3.247   4.391
 1996SOL     OW 6886   2.856   1.481   1.342
 1996SOL    HW1 6887   2.814   1.391   1.356
 1996SOL    HW2 6888   2.924   1.474   1.269
 1997SOL     OW 6889   3.301   1.518   4.067
 1997SOL    HW1 6890   3.331   1.460   4.143
 1997SOL    HW2 6891   3.237   1.586   4.102
 1998SOL     OW 6892   1.384   3.331   0.637
 1998SOL    HW1 6893   1.376   3.329   0.736
 1998SOL    HW2 6894   1.434   3.250   0.606
 1999SOL     OW 6895   0.116   0.944   4.785
 1999SOL    HW1 6896   0.097   0.971   4.879
 1999SOL    HW2 6897   0.101   0.845   4.775
 2000SOL     OW 6898   3.876   3.749   6.061
 2000SOL    HW1 6899   3.877   3.652   6.083
 2000SOL    HW2 6900   3.968   3.787   6.075
 2001SOL     OW 6901   1.363   1.929   6.898
 2001SOL    HW1 6902   1.428   1.896   6.966
 2001SOL    HW2 6903   1.412   1.953   6.813
 2002SOL     OW 6904   1.047   5.443   0.955
 2002SOL    HW1 6905   1.082   5.360   0.913
 2002SOL    HW2 6906   1.109   5.473   1.027
 2003SOL     OW 6907   6.307   5.324   2.112
 2003SOL    HW1 6908   6.380   5.391   2.099
 2003SOL    HW2 6909   6.218   5.370   2.113
 2004SOL     OW 6910   4.589   1.065   3.902
 2004SOL    HW1 6911   4.512   1.009   3.933
 2004SOL    HW2 6912   4.671   1.009   3.896
 2005SOL     OW 6913   6.587   5.994   0.137
 2005SOL    HW1 6914   6.498   5.954   0.160
 2005SOL    HW2 6915   6.657   5.952   0.194
 2006SOL     OW 6916   5.144   6.959   4.274
 2006SOL    HW1 6917   5.080   6.931   4.346
 2006SOL    HW2 6918   5.095   6.965   4.187
 2007SOL     OW 6919   5.419   4.167   1.051
 2007SOL    HW1 6920   5.512   4.149   1.020
 2007SOL    HW2 6921   5.418   4.177   1.150
 2008SOL     OW 6922   2.067   3.406   4.089
 2008SOL    HW1 6923   2.079   3.505   4.077
 2008SOL    HW2 6924   2.065   3.384   4.186
 2009SOL     OW 6925   5.368   5.860   1.714
 2009SOL    HW1 6926   5.431   5.917   1.662
 2009SOL    HW2 6927   5.292   5.916   1.748
 2010SOL     OW 6928   1.911   1.723   1.477
 2010SOL    HW1 6929   1.957   1.760   1.558
 2010SOL    HW2 6930   1.814   1.712   1.497
 2011SOL     OW 6931   6.677   0.347   5.352
 2011SOL    HW1 6932   6.640   0.262   5.312
 2011SOL    HW2 6933   6.775   0.335   5.370
 2012SOL     OW 6934   1.628   3.907   2.166
 2012SOL    HW1 6935   1.665   3.899   2.073
 2012SOL    HW2 6936   1.700   3.885   2.232
 2013SOL     OW 6937   0.124   3.050   3.484
 2013SOL    HW1 6938   0.071   3.090   3.409
 2013SOL    HW2 6939   0.130   3.115   3.560
 2014SOL     OW 6940   2.816   0.527   2.988
 2014SOL    HW1 6941   2.797   0.515   3.085
 2014SOL    HW2 6942   2.884   0.461   2.958
 2015SOL     OW 6943   3.653   0.585   0.904
 2015SOL    HW1 6944   3.608   0.657   0.956
 2015SOL    HW2 6945   3.727   0.546   0.957
 2016SOL     OW 6946   1.617   6.051   5.686
 2016SOL    HW1 6947   1.636   6.015   5.778
 2016SOL    HW2 6948   1.696   6.035   5.627
 2017SOL     OW 6949   4.193   0.449   3.571
 2017SOL    HW1 6950   4.268   0.400   3.527
 2017SOL    HW2 6951   4.213   0.460   3.668
 2018SOL     OW 6952   0.073   2.196   3.680
 2018SOL    HW1 6953   0.029   2.175   3.593
 2018SOL    HW2 6954   0.015   2.258   3.733
 2019SOL     OW 6955   6.364   4.615   6.449
 2019SOL    HW1 6956   6.451   4.567   6.440
 2019SOL    HW2 6957   6.359   4.689   6.382
 2020SOL     OW 6958   1.399   5.916   6.135
 2020SOL    HW1 6959   1.406   5.838   6.197
 2020SOL    HW2 6960   1.474   5.981   6.155
 2021SOL     OW 6961   6.009   6.668   3.160
 2021SOL    HW1 6962   6.013   6.766   3.139
 2021SOL    HW2 6963   5.979   6.617   3.080
 2022SOL     OW 6964   1.728   4.227   5.022
 2022SOL    HW1 6965   1.742   4.326   5.032
 2022SOL    HW2 6966   1.760   4.198   4.932
 2023SOL     OW 6967   0.172   6.782   6.553
 2023SOL    HW1 6968   0.186   6.881   6.550
 2023SOL    HW2 6969   0.132   6.751   6.467
 2024SOL     OW 6970   0.337   5.784   4.237
 2024SOL    HW1 6971   0.277   5.810   4.161
 2024SOL    HW2 6972   0.425   5.751   4.201
 2025SOL     OW 6973   3.148   0.730   3.388
 2025SOL    HW1 6974   3.187   0.805   3.441
 2025SOL    HW2 6975   3.088   0.675   3.446
 2026SOL     OW 6976   5.964   1.266   6.374
 2026SOL    HW1 6977   6.050   1.307   6.343
 2026SOL    HW2 6978   5.888   1.303   6.321
 2027SOL     OW 6979   0.819   6.061   1.712
 2027SOL    HW1 6980   0.741   6.015   1.669
 2027SOL    HW2 6981   0.862   5.999   1.778
 2028SOL     OW 6982   3.951   5.587   2.775
 2028SOL    HW1 6983   3.903   5.674   2.765
 2028SOL    HW2 6984   3.884   5.514   2.791
 2029SOL     OW 6985   6.483   1.619   6.952
 2029SOL    HW1 6986   6.452   1.632   0.022
 2029SOL    HW2 6987   6.472   1.705   6.901
 2030SOL     OW 6988   3.198   6.434   2.461
 2030SOL    HW1 6989   3.108   6.469   2.486
 2030SOL    HW2 6990   3.206   6.338   2.488
 2031SOL     OW 6991   6.958   5.809   2.636
 2031SOL    HW1 6992   6.944   5.894   2.584
 2031SOL    HW2 6993   6.999   5.740   2.577
 2032SOL     OW 6994   3.571   1.839   0.115
 2032SOL    HW1 6995   3.492   1.794   0.158
 2032SOL    HW2 6996   3.600   1.917   0.171
 2033SOL     OW 6997   1.410   1.229   0.466
 2033SOL    HW1 6998   1.330   1.179   0.499
 2033SOL    HW2 6999   1.417   1.220   0.366
 2034SOL     OW 7000   1.535   5.050   5.584
 2034SOL    HW1 7001   1.542   5.084   5.490
 2034SOL    HW2 7002   1.464   5.102   5.632
 2035SOL     OW 7003   6.742   0.526   2.405
 2035SOL    HW1 7004   6.837   0.529   2.375
 2035SOL    HW2 7005   6.694   0.454   2.354
 2036SOL     OW 7006   1.196   3.330   3.476
 2036SOL    HW1 7007   1.166   3.345   3.382
 2036SOL    HW2 7008   1.184   3.233   3.500
 2037SOL     OW 7009   6.990   2.784   6.145
 2037SOL    HW1 7010   0.024   2.855   6.106
 2037SOL    HW2 7011   0.002   2.694   6.118
 2038SOL     OW 7012   2.660   1.260   7.004
 2038SOL    HW1 7013   2.641   1.268   0.078
 2038SOL    HW2 7014   2.698   1.347   6.971
 2039SOL     OW 7015   0.093   5.630   2.088
 2039SOL    HW1 7016   0.139   5.578   2.160
 2039SOL    HW2 7017   0.071   5.721   2.123
 2040SOL     OW 7018   1.882   2.673   0.097
 2040SOL    HW1 7019   1.920   2.587   0.131
 2040SOL    HW2 7020   1.943   2.709   0.026
 2041SOL     OW 7021   1.970   6.639   5.433
 2041SOL    HW1 7022   2.058   6.635   5.482
 2041SOL    HW2 7023   1.896   6.644   5.500
 2042SOL     OW 7024   5.073   0.193   5.906
 2042SOL    HW1 7025   5.019   0.146   5.976
 2042SOL    HW2 7026   5.060   0.292   5.915
 2043SOL     OW 7027   6.268   2.472   1.706
 2043SOL    HW1 7028   6.307   2.453   1.615
 2043SOL    HW2 7029   6.336   2.517   1.763
 2044SOL     OW 7030   5.845   0.983   1.735
 2044SOL    HW1 7031   5.832   1.023   1.644
 2044SOL    HW2 7032   5.851   0.883   1.727
 2045SOL     OW 7033   1.589   5.445   5.333
 2045SOL    HW1 7034   1.604   5.531   5.381
 2045SOL    HW2 7035   1.677   5.404   5.310
 2046SOL     OW 7036   6.895   1.729   5.491
 2046SOL    HW1 7037   6.949   1.722   5.407
 2046SOL    HW2 7038   6.956   1.747   5.568
 2047SOL     OW 7039   6.310   2.205   0.961
 2047SOL    HW1 7040   6.388   2.143   0.953
 2047SOL    HW2 7041   6.343   2.300   0.953
 2048SOL     OW 7042   0.525   2.024   4.709
 2048SOL    HW1 7043   0.467   1.986   4.637
 2048SOL    HW2 7044   0.584   1.952   4.745
 2049SOL     OW 7045   4.804   1.182   4.841
 2049SOL    HW1 7046   4.738   1.242   4.795
 2049SOL    HW2 7047   4.819   1.215   4.934
 2050SOL     OW 7048   0.142   2.034   4.821
 2050SOL    HW1 7049   0.137   1.968   4.746
 2050SOL    HW2 7050   0.144   2.127   4.784
 2051SOL     OW 7051   2.182   6.560   6.732
 2051SOL    HW1 7052   2.226   6.634   6.784
 2051SOL    HW2 7053   2.083   6.569   6.739
 2052SOL     OW 7054   1.655   2.915   0.717
 2052SOL    HW1 7055   1.670   2.982   0.789
 2052SOL    HW2 7056   1.665   2.823   0.754
 2053SOL     OW 7057   0.800   5.647   4.475
 2053SOL    HW1 7058   0.844   5.567   4.435
 2053SOL    HW2 7059   0.720   5.619   4.526
 2054SOL     OW 7060   3.496   2.785   1.993
 2054SOL    HW1 7061   3.477   2.750   1.901
 2054SOL    HW2 7062   3.585   2.830   1.994
 2055SOL     OW 7063   0.206   2.732   5.224
 2055SOL    HW1 7064   0.227   2.776   5.311
 2055SOL    HW2 7065   0.220   2.797   5.149
 2056SOL     OW 7066   4.393   4.944   0.939
 2056SOL    HW1 7067   4.310   4.944   0.994
 2056SOL    HW2 7068   4.447   4.862   0.960
 2057SOL     OW 7069   5.872   2.901   4.231
 2057SOL    HW1 7070   5.779   2.898   4.267
 2057SOL    HW2 7071   5.875   2.960   4.150
 2058SOL     OW 7072   0.703   6.105   2.678
 2058SOL    HW1 7073   0.694   6.121   2.777
 2058SOL    HW2 7074   0.736   6.188   2.634
 2059SOL     OW 7075   2.448   0.455   5.288
 2059SOL    HW1 7076   2.450   0.427   5.192
 2059SOL    HW2 7077   2.525   0.516   5.307
 2060SOL     OW 7078   0.921   3.316   0.505
 2060SOL    HW1 7079   0.928   3.346   0.600
 2060SOL    HW2 7080   0.852   3.369   0.457
 2061SOL     OW 7081   1.986   2.885   2.852
 2061SOL    HW1 7082   1.939   2.965   2.812
 2061SOL    HW2 7083   2.083   2.889   2.828
 2062SOL     OW 7084   6.634   4.856   5.112
 2062SOL    HW1 7085   6.619   4.761   5.085
 2062SOL    HW2 7086   6.670   4.858   5.205
 2063SOL     OW 7087   1.644   6.132   5.127
 2063SOL    HW1 7088   1.602   6.181   5.203
 2063SOL    HW2 7089   1.634   6.034   5.141
 2064SOL     OW 7090   1.002   3.808   4.048
 2064SOL    HW1 7091   0.924   3.865   4.075
 2064SOL    HW2 7092   1.026   3.827   3.953
 2065SOL     OW 7093   5.364   2.958   5.329
 2065SOL    HW1 7094   5.364   2.886   5.260
 2065SOL    HW2 7095   5.271   2.971   5.364
 2066SOL     OW 7096   5.964   3.728   5.557
 2066SOL    HW1 7097   6.052   3.685   5.579
 2066SOL    HW2 7098   5.897   3.658   5.534
 2067SOL     OW 7099   6.373   4.659   2.137
 2067SOL    HW1 7100   6.290   4.605   2.125
 2067SOL    HW2 7101   6.408   4.646   2.230
 2068SOL     OW 7102   3.671   1.302   4.107
 2068SOL    HW1 7103   3.707   1.303   4.200
 2068SOL    HW2 7104   3.684   1.392   4.065
 2069SOL     OW 7105   6.905   1.802   4.281
 2069SOL    HW1 7106   6.993   1.764   4.257
 2069SOL    HW2 7107   6.852   1.821   4.198
 2070SOL     OW 7108   1.460   3.019   1.586
 2070SOL    HW1 7109   1.439   3.117   1.586
 2070SOL    HW2 7110   1.434   2.979   1.499
 2071SOL     OW 7111   6.623   1.462   6.191
 2071SOL    HW1 7112   6.552   1.412   6.240
 2071SOL    HW2 7113   6.599   1.468   6.094
 2072SOL     OW 7114   3.762   4.721   5.346
 2072SOL    HW1 7115   3.783   4.770   5.430
 2072SOL    HW2 7116   3.847   4.702   5.297
 2073SOL     OW 7117   3.733   6.222   6.251
 2073SOL    HW1 7118   3.753   6.158   6.325
 2073SOL    HW2 7119   3.695   6.306   6.289
 2074SOL     OW 7120   1.820   3.349   5.947
 2074SOL    HW1 7121   1.829   3.419   6.017
 2074SOL    HW2 7122   1.778   3.388   5.865
 2075SOL     OW 7123   6.897   2.617   1.942
 2075SOL    HW1 7124   6.973   2.658   1.993
 2075SOL    HW2 7125   6.816   2.676   1.951
 2076SOL     OW 7126   6.096   0.138   4.875
 2076SOL    HW1 7127   6.012   0.192   4.883
 2076SOL    HW2 7128   6.127   0.111   4.966
 2077SOL     OW 7129   0.308   2.624   1.369
 2077SOL    HW1 7130   0.345   2.713   1.343
 2077SOL    HW2 7131   0.367   2.551   1.333
 2078SOL     OW 7132   1.626   4.699   5.691
 2078SOL    HW1 7133   1.614   4.612   5.643
 2078SOL    HW2 7134   1.537   4.732   5.723
 2079SOL     OW 7135   5.004   0.765   1.880
 2079SOL    HW1 7136   4.952   0.847   1.858
 2079SOL    HW2 7137   4.982   0.692   1.816
 2080SOL     OW 7138   2.807   2.233   4.702
 2080SOL    HW1 7139   2.728   2.175   4.681
 2080SOL    HW2 7140   2.776   2.325   4.726
 2081SOL     OW 7141   0.193   6.615   3.442
 2081SOL    HW1 7142   0.263   6.657   3.384
 2081SOL    HW2 7143   0.175   6.522   3.411
 2082SOL     OW 7144   0.639   6.215   2.365
 2082SOL    HW1 7145   0.711   6.156   2.401
 2082SOL    HW2 7146   0.681   6.293   2.318
 2083SOL     OW 7147   0.377   6.160   3.419
 2083SOL    HW1 7148   0.341   6.088   3.479
 2083SOL    HW2 7149   0.419   6.118   3.339
 2084SOL     OW 7150   1.031   1.792   1.247
 2084SOL    HW1 7151   1.007   1.775   1.151
 2084SOL    HW2 7152   1.076   1.711   1.284
 2085SOL     OW 7153   4.881   6.006   0.480
 2085SOL    HW1 7154   4.974   6.010   0.444
 2085SOL    HW2 7155   4.815   6.011   0.405
 2086SOL     OW 7156   3.794   6.873   6.992
 2086SOL    HW1 7157   3.730   6.950   6.994
 2086SOL    HW2 7158   3.787   6.827   6.904
 2087SOL     OW 7159   4.149   2.080   6.840
 2087SOL    HW1 7160   4.122   2.060   6.746
 2087SOL    HW2 7161   4.147   1.996   6.894
 2088SOL     OW 7162   0.574   5.999   6.310
 2088SOL    HW1 7163   0.649   6.066   6.309
 2088SOL    HW2 7164   0.501   6.032   6.370
 2089SOL     OW 7165   4.004   2.684   5.358
 2089SOL    HW1 7166   4.036   2.620   5.288
 2089SOL    HW2 7167   3.983   2.772   5.316
 2090SOL     OW 7168   4.640   3.339   5.376
 2090SOL    HW1 7169   4.660   3.437   5.382
 2090SOL    HW2 7170   4.709   3.295   5.319
 2091SOL     OW 7171   6.342   5.872   1.537
 2091SOL    HW1 7172   6.373   5.965   1.518
 2091SOL    HW2 7173   6.312   5.829   1.451
 2092SOL     OW 7174   5.161   4.021   1.046
 2092SOL    HW1 7175   5.250   4.047   1.009
 2092SOL    HW2 7176   5.131   4.091   1.111
 2093SOL     OW 7177   3.784   2.135   2.275
 2093SOL    HW1 7178   3.731   2.171   2.199
 2093SOL    HW2 7179   3.878   2.117   2.245
 2094SOL     OW 7180   6.145   2.953   0.343
 2094SOL    HW1 7181   6.137   3.050   0.365
 2094SOL    HW2 7182   6.205   2.908   0.409
 2095SOL     OW 7183   6.152   6.051   4.018
 2095SOL    HW1 7184   6.102   6.131   3.982
 2095SOL    HW2 7185   6.246   6.054   3.985
 2096SOL     OW 7186   4.551   6.373   2.222
 2096SOL    HW1 7187   4.563   6.299   2.288
 2096SOL    HW2 7188   4.456   6.406   2.226
 2097SOL     OW 7189   2.131   4.395   6.674
 2097SOL    HW1 7190   2.091   4.434   6.757
 2097SOL    HW2 7191   2.067   4.405   6.598
 2098SOL     OW 7192   3.922   5.836   3.231
 2098SOL    HW1 7193   3.967   5.925   3.225
 2098SOL    HW2 7194   3.884   5.824   3.323
 2099SOL     OW 7195   4.391   1.626   0.318
 2099SOL    HW1 7196   4.385   1.570   0.236
 2099SOL    HW2 7197   4.484   1.664   0.326
 2100SOL     OW 7198   5.364   1.156   0.553
 2100SOL    HW1 7199   5.337   1.104   0.634
 2100SOL    HW2 7200   5.294   1.145   0.482
 2101SOL     OW 7201   0.366   5.992   1.164
 2101SOL    HW1 7202   0.377   6.092   1.168
 2101SOL    HW2 7203   0.278   5.970   1.121
 2102SOL     OW 7204   3.810   2.931   1.393
 2102SOL    HW1 7205   3.879   2.860   1.403
 2102SOL    HW2 7206   3.733   2.912   1.454
 2103SOL     OW 7207   3.325   4.802   0.107
 2103SOL    HW1 7208   3.370   4.879   0.152
 2103SOL    HW2 7209   3.287   4.741   0.177
 2104SOL     OW 7210   2.044   4.459   2.767
 2104SOL    HW1 7211   2.053   4.409   2.853
 2104SOL    HW2 7212   2.084   4.550   2.776
 2105SOL     OW 7213   4.998   4.489   0.378
 2105SOL    HW1 7214   4.922   4.483   0.443
 2105SOL    HW2 7215   5.048   4.574   0.393
 2106SOL     OW 7216   5.294   3.568   1.448
 2106SOL    HW1 7217   5.302   3.469   1.438
 2106SOL    HW2 7218   5.380   3.606   1.480
 2107SOL     OW 7219   5.112   3.525   6.099
 2107SOL    HW1 7220   5.143   3.596   6.161
 2107SOL    HW2 7221   5.120   3.556   6.004
 2108SOL     OW 7222   5.701   6.797   6.138
 2108SOL    HW1 7223   5.785   6.790   6.085
 2108SOL    HW2 7224   5.631   6.845   6.084
 2109SOL     OW 7225   3.532   5.188   2.501
 2109SOL    HW1 7226   3.562   5.221   2.411
 2109SOL    HW2 7227   3.463   5.250   2.538
 2110SOL     OW 7228   4.120   1.020   6.657
 2110SOL    HW1 7229   4.209   0.992   6.622
 2110SOL    HW2 7230   4.121   1.119   6.675
 2111SOL     OW 7231   0.990   2.896   6.000
 2111SOL    HW1 7232   1.022   2.987   6.027
 2111SOL    HW2 7233   0.916   2.867   6.060
 2112SOL     OW 7234   6.113   0.977   0.270
 2112SOL    HW1 7235   6.020   0.954   0.297
 2112SOL    HW2 7236   6.129   0.946   0.176
 2113SOL     OW 7237   1.751   6.811   3.945
 2113SOL    HW1 7238   1.660   6.778   3.970
 2113SOL    HW2 7239   1.747   6.856   3.856
 2114SOL     OW 7240   2.651   2.822   0.208
 2114SOL    HW1 7241   2.701   2.905   0.185
 2114SOL    HW2 7242   2.703   2.769   0.275
 2115SOL     OW 7243   0.828   4.733   2.774
 2115SOL    HW1 7244   0.766   4.721   2.696
 2115SOL    HW2 7245   0.801   4.671   2.847
 2116SOL     OW 7246   1.158   2.303   0.164
 2116SOL    HW1 7247   1.231   2.313   0.231
 2116SOL    HW2 7248   1.168   2.216   0.116
 2117SOL     OW 7249   5.630   2.541   2.581
 2117SOL    HW1 7250   5.690   2.522   2.658
 2117SOL    HW2 7251   5.615   2.457   2.529
 2118SOL     OW 7252   6.884   3.584   2.821
 2118SOL    HW1 7253   6.959   3.538   2.773
 2118SOL    HW2 7254   6.872   3.675   2.783
 2119SOL     OW 7255   2.404   0.555   6.579
 2119SOL    HW1 7256   2.360   0.503   6.505
 2119SOL    HW2 7257   2.498   0.522   6.591
 2120SOL     OW 7258   6.724   2.246   2.072
 2120SOL    HW1 7259   6.749   2.287   2.160
 2120SOL    HW2 7260   6.624   2.248   2.062
 2121SOL     OW 7261   1.792   1.271   5.949
 2121SOL    HW1 7262   1.778   1.358   5.902
 2121SOL    HW2 7263   1.704   1.229   5.969
 2122SOL     OW 7264   6.031   0.519   5.540
 2122SOL    HW1 7265   6.097   0.593   5.549
 2122SOL    HW2 7266   6.077   0.431   5.552
 2123SOL     OW 7267   0.805   5.755   2.753
 2123SOL    HW1 7268   0.743   5.733   2.828
 2123SOL    HW2 7269   0.776   5.841   2.711
 2124SOL     OW 7270   3.648   2.882   5.887
 2124SOL    HW1 7271   3.605   2.840   5.967
 2124SOL    HW2 7272   3.680   2.811   5.825
 2125SOL     OW 7273   1.676   5.682   3.487
 2125SOL    HW1 7274   1.655   5.780   3.494
 2125SOL    HW2 7275   1.761   5.671   3.436
 2126SOL     OW 7276   3.545   3.426   0.411
 2126SOL    HW1 7277   3.626   3.479   0.436
 2126SOL    HW2 7278   3.549   3.405   0.313
 2127SOL     OW 7279   0.101   2.994   6.044
 2127SOL    HW1 7280   0.055   3.051   5.976
 2127SOL    HW2 7281   0.200   3.007   6.036
 2128SOL     OW 7282   5.711   4.017   1.214
 2128SOL    HW1 7283   5.708   3.925   1.252
 2128SOL    HW2 7284   5.689   4.014   1.116
 2129SOL     OW 7285   5.142   3.936   3.593
 2129SOL    HW1 7286   5.207   3.987   3.536
 2129SOL    HW2 7287   5.074   3.891   3.534
 2130SOL     OW 7288   2.377   1.355   1.462
 2130SOL    HW1 7289   2.448   1.289   1.437
 2130SOL    HW2 7290   2.409   1.447   1.442
 2131SOL     OW 7291   5.611   1.753   6.006
 2131SOL    HW1 7292   5.694   1.789   6.048
 2131SOL    HW2 7293   5.569   1.824   5.949
 2132SOL     OW 7294   2.611   1.463   6.507
 2132SOL    HW1 7295   2.666   1.518   6.444
 2132SOL    HW2 7296   2.641   1.481   6.601
 2133SOL     OW 7297   2.327   1.563   1.922
 2133SOL    HW1 7298   2.389   1.640   1.940
 2133SOL    HW2 7299   2.365   1.507   1.848
 2134SOL     OW 7300   0.324   6.681   4.168
 2134SOL    HW1 7301   0.364   6.746   4.103
 2134SOL    HW2 7302   0.388   6.606   4.184
 2135SOL     OW 7303   0.948   1.165   3.636
 2135SOL    HW1 7304   0.887   1.161   3.714
 2135SOL    HW2 7305   1.041   1.141   3.664
 2136SOL     OW 7306   1.110   3.651   4.916
 2136SOL    HW1 7307   1.167   3.729   4.891
 2136SOL    HW2 7308   1.106   3.587   4.840
 2137SOL     OW 7309   1.250   6.136   5.559
 2137SOL    HW1 7310   1.206   6.098   5.641
 2137SOL    HW2 7311   1.265   6.234   5.572
 2138SOL     OW 7312   6.967   3.008   0.731
 2138SOL    HW1 7313   0.022   2.955   0.761
 2138SOL    HW2 7314   6.961   3.004   0.631
 2139SOL     OW 7315   2.664   0.883   4.212
 2139SOL    HW1 7316   2.628   0.794   4.182
 2139SOL    HW2 7317   2.743   0.869   4.271
 2140SOL     OW 7318   2.526   6.118   3.018
 2140SOL    HW1 7319   2.473   6.134   2.935
 2140SOL    HW2 7320   2.465   6.104   3.096
 2141SOL     OW 7321   6.423   2.863   1.051
 2141SOL    HW1 7322   6.460   2.808   0.976
 2141SOL    HW2 7323   6.395   2.803   1.126
 2142SOL     OW 7324   1.415   1.830   3.463
 2142SOL    HW1 7325   1.357   1.790   3.535
 2142SOL    HW2 7326   1.368   1.909   3.423
 2143SOL     OW 7327   4.133   6.748   1.503
 2143SOL    HW1 7328   4.164   6.660   1.539
 2143SOL    HW2 7329   4.066   6.788   1.565
 2144SOL     OW 7330   1.257   0.560   2.991
 2144SOL    HW1 7331   1.226   0.588   2.900
 2144SOL    HW2 7332   1.331   0.619   3.021
 2145SOL     OW 7333   3.225   5.784   4.036
 2145SOL    HW1 7334   3.224   5.721   3.959
 2145SOL    HW2 7335   3.293   5.856   4.019
 2146SOL     OW 7336   2.899   3.655   2.042
 2146SOL    HW1 7337   2.896   3.581   1.975
 2146SOL    HW2 7338   2.814   3.708   2.037
 2147SOL     OW 7339   0.547   1.906   6.674
 2147SOL    HW1 7340   0.615   1.979   6.670
 2147SOL    HW2 7341   0.513   1.897   6.768
 2148SOL     OW 7342   5.024   3.583   3.912
 2148SOL    HW1 7343   5.100   3.530   3.876
 2148SOL    HW2 7344   4.962   3.523   3.963
 2149SOL     OW 7345   4.019   0.671   1.897
 2149SOL    HW1 7346   3.952   0.601   1.871
 2149SOL    HW2 7347   4.111   0.639   1.875
 2150SOL     OW 7348   3.985   1.690   2.787
 2150SOL    HW1 7349   4.072   1.644   2.765
 2150SOL    HW2 7350   3.947   1.650   2.871
 2151SOL     OW 7351   3.950   2.567   5.762
 2151SOL    HW1 7352   4.033   2.516   5.786
 2151SOL    HW2 7353   3.973   2.664   5.752
 2152SOL     OW 7354   6.118   6.657   2.218
 2152SOL    HW1 7355   6.139   6.595   2.293
 2152SOL    HW2 7356   6.142   6.614   2.131
 2153SOL     OW 7357   4.705   1.677   3.852
 2153SOL    HW1 7358   4.754   1.653   3.769
 2153SOL    HW2 7359   4.770   1.686   3.928
 2154SOL     OW 7360   3.152   5.314   4.667
 2154SOL    HW1 7361   3.184   5.246   4.734
 2154SOL    HW2 7362   3.126   5.268   4.583
 2155SOL     OW 7363   2.107   4.585   0.145
 2155SOL    HW1 7364   2.119   4.489   0.168
 2155SOL    HW2 7365   2.185   4.638   0.178
 2156SOL     OW 7366   1.697   0.591   1.560
 2156SOL    HW1 7367   1.604   0.592   1.525
 2156SOL    HW2 7368   1.738   0.501   1.546
 2157SOL     OW 7369   0.195   1.455   5.303
 2157SOL    HW1 7370   0.159   1.546   5.323
 2157SOL    HW2 7371   0.119   1.390   5.295
 2158SOL     OW 7372   4.166   0.073   1.175
 2158SOL    HW1 7373   4.114   7.018   1.209
 2158SOL    HW2 7374   4.147   0.152   1.233
 2159SOL     OW 7375   1.596   6.796   4.924
 2159SOL    HW1 7376   1.696   6.797   4.936
 2159SOL    HW2 7377   1.563   6.702   4.925
 2160SOL     OW 7378   3.832   4.174   1.098
 2160SOL    HW1 7379   3.771   4.220   1.163
 2160SOL    HW2 7380   3.909   4.234   1.078
 2161SOL     OW 7381   4.871   3.838   3.270
 2161SOL    HW1 7382   4.866   3.862   3.367
 2161SOL    HW2 7383   4.825   3.908   3.216
 2162SOL     OW 7384   2.166   0.514   6.763
 2162SOL    HW1 7385   2.192   0.446   6.831
 2162SOL    HW2 7386   2.240   0.523   6.696
 2163SOL     OW 7387   1.895   6.984   0.345
 2163SOL    HW1 7388   1.911   6.887   0.365
 2163SOL    HW2 7389   1.812   6.993   0.289
 2164SOL     OW 7390   2.021   0.643   6.561
 2164SOL    HW1 7391   1.924   0.642   6.586
 2164SOL    HW2 7392   2.073   0.591   6.629
 2165SOL     OW 7393   1.123   0.605   2.766
 2165SOL    HW1 7394   1.191   0.620   2.694
 2165SOL    HW2 7395   1.077   0.518   2.750
 2166SOL     OW 7396   1.402   1.987   5.429
 2166SOL    HW1 7397   1.399   1.944   5.338
 2166SOL    HW2 7398   1.310   1.989   5.468
 2167SOL     OW 7399   2.486   0.768   2.168
 2167SOL    HW1 7400   2.485   0.753   2.267
 2167SOL    HW2 7401   2.557   0.834   2.145
 2168SOL     OW 7402   5.826   3.609   4.314
 2168SOL    HW1 7403   5.775   3.680   4.266
 2168SOL    HW2 7404   5.898   3.651   4.369
 2169SOL     OW 7405   5.434   2.988   5.824
 2169SOL    HW1 7406   5.375   3.035   5.759
 2169SOL    HW2 7407   5.496   2.926   5.775
 2170SOL     OW 7408   4.772   4.800   5.372
 2170SOL    HW1 7409   4.869   4.813   5.350
 2170SOL    HW2 7410   4.756   4.824   5.468
 2171SOL     OW 7411   6.550   3.409   7.020
 2171SOL    HW1 7412   6.477   3.366   6.968
 2171SOL    HW2 7413   6.611   3.458   6.957
 2172SOL     OW 7414   3.366   1.643   0.384
 2172SOL    HW1 7415   3.311   1.645   0.467
 2172SOL    HW2 7416   3.321   1.697   0.313
 2173SOL     OW 7417   4.143   0.328   5.668
 2173SOL    HW1 7418   4.174   0.326   5.763
 2173SOL    HW2 7419   4.210   0.282   5.611
 2174SOL     OW 7420   6.729   4.697   4.472
 2174SOL    HW1 7421   6.756   4.762   4.402
 2174SOL    HW2 7422   6.689   4.616   4.429
 2175SOL     OW 7423   2.427   0.276   3.113
 2175SOL    HW1 7424   2.366   0.199   3.095
 2175SOL    HW2 7425   2.520   0.242   3.131
 2176SOL     OW 7426   2.231   2.451   2.451
 2176SOL    HW1 7427   2.255   2.366   2.404
 2176SOL    HW2 7428   2.269   2.529   2.401
 2177SOL     OW 7429   6.443   2.138   1.281
 2177SOL    HW1 7430   6.521   2.126   1.343
 2177SOL    HW2 7431   6.439   2.061   1.217
 2178SOL     OW 7432   1.033   5.001   0.527
 2178SOL    HW1 7433   1.105   5.005   0.458
 2178SOL    HW2 7434   0.951   4.962   0.487
 2179SOL     OW 7435   1.164   5.419   4.381
 2179SOL    HW1 7436   1.133   5.513   4.367
 2179SOL    HW2 7437   1.245   5.419   4.439
 2180SOL     OW 7438   3.020   3.906   2.912
 2180SOL    HW1 7439   2.939   3.904   2.854
 2180SOL    HW2 7440   2.995   3.876   3.004
 2181SOL     OW 7441   4.820   5.648   5.743
 2181SOL    HW1 7442   4.839   5.745   5.760
 2181SOL    HW2 7443   4.903   5.602   5.713
 2182SOL     OW 7444   6.860   3.948   6.611
 2182SOL    HW1 7445   6.941   3.967   6.666
 2182SOL    HW2 7446   6.878   3.972   6.515
 2183SOL     OW 7447   3.153   2.924   0.320
 2183SOL    HW1 7448   3.110   2.879   0.242
 2183SOL    HW2 7449   3.250   2.898   0.324
 2184SOL     OW 7450   3.693   1.417   6.515
 2184SOL    HW1 7451   3.743   1.382   6.436
 2184SOL    HW2 7452   3.700   1.516   6.518
 2185SOL     OW 7453   1.796   0.399   0.517
 2185SOL    HW1 7454   1.807   0.327   0.449
 2185SOL    HW2 7455   1.718   0.377   0.577
 2186SOL     OW 7456   6.932   4.645   2.766
 2186SOL    HW1 7457   6.935   4.663   2.667
 2186SOL    HW2 7458   7.020   4.669   2.806
 2187SOL     OW 7459   6.274   1.822   0.929
 2187SOL    HW1 7460   6.252   1.761   1.005
 2187SOL    HW2 7461   6.201   1.818   0.861
 2188SOL     OW 7462   5.267   6.331   3.322
 2188SOL    HW1 7463   5.239   6.424   3.343
 2188SOL    HW2 7464   5.328   6.297   3.394
 2189SOL     OW 7465   2.252   0.387   5.818
 2189SOL    HW1 7466   2.169   0.331   5.813
 2189SOL    HW2 7467   2.228   0.483   5.804
 2190SOL     OW 7468   6.461   2.438   1.510
 2190SOL    HW1 7469   6.489   2.534   1.513
 2190SOL    HW2 7470   6.434   2.414   1.417
 2191SOL     OW 7471   3.585   3.068   6.291
 2191SOL    HW1 7472   3.507   3.128   6.311
 2191SOL    HW2 7473   3.555   2.973   6.293
 2192SOL     OW 7474   4.280   6.041   5.129
 2192SOL    HW1 7475   4.324   6.127   5.105
 2192SOL    HW2 7476   4.337   5.964   5.099
 2193SOL     OW 7477   0.857   5.319   5.569
 2193SOL    HW1 7478   0.762   5.349   5.565
 2193SOL    HW2 7479   0.917   5.398   5.576
 2194SOL     OW 7480   2.443   6.369   0.480
 2194SOL    HW1 7481   2.516   6.350   0.546
 2194SOL    HW2 7482   2.358   6.389   0.528
 2195SOL     OW 7483   1.489   5.461   2.782
 2195SOL    HW1 7484   1.391   5.462   2.802
 2195SOL    HW2 7485   1.525   5.554   2.788
 2196SOL     OW 7486   3.495   1.791   5.846
 2196SOL    HW1 7487   3.525   1.866   5.788
 2196SOL    HW2 7488   3.483   1.708   5.791
 2197SOL     OW 7489   5.003   4.609   1.389
 2197SOL    HW1 7490   4.903   4.612   1.390
 2197SOL    HW2 7491   5.036   4.599   1.295
 2198SOL     OW 7492   6.699   4.325   0.255
 2198SOL    HW1 7493   6.725   4.238   0.212
 2198SOL    HW2 7494   6.687   4.394   0.183
 2199SOL     OW 7495   4.943   6.906   0.700
 2199SOL    HW1 7496   4.884   6.837   0.742
 2199SOL    HW2 7497   5.016   6.861   0.649
 2200SOL     OW 7498   4.078   0.757   4.595
 2200SOL    HW1 7499   4.003   0.729   4.655
 2200SOL    HW2 7500   4.066   0.852   4.568
 2201SOL     OW 7501   6.128   3.072   2.199
 2201SOL    HW1 7502   6.140   2.993   2.258
 2201SOL    HW2 7503   6.192   3.144   2.225
 2202SOL     OW 7504   3.916   5.485   3.912
 2202SOL    HW1 7505   3.931   5.563   3.973
 2202SOL    HW2 7506   3.887   5.406   3.966
 2203SOL     OW 7507   3.571   2.138   3.189
 2203SOL    HW1 7508   3.666   2.163   3.168
 2203SOL    HW2 7509   3.519   2.131   3.104
 2204SOL     OW 7510   3.081   1.888   0.021
 2204SOL    HW1 7511   2.986   1.890   7.013
 2204SOL    HW2 7512   3.089   1.944   0.104
 2205SOL     OW 7513   1.919   6.719   0.402
 2205SOL    HW1 7514   1.927   6.730   0.501
 2205SOL    HW2 7515   1.990   6.656   0.369
 2206SOL     OW 7516   3.082   3.605   6.880
 2206SOL    HW1 7517   3.127   3.598   6.791
 2206SOL    HW2 7518   3.058   3.700   6.898
 2207SOL     OW 7519   1.671   4.753   6.334
 2207SOL    HW1 7520   1.634   4.774   6.244
 2207SOL    HW2 7521   1.643   4.661   6.361
 2208SOL     OW 7522   0.467   3.715   1.960
 2208SOL    HW1 7523   0.544   3.753   1.910
 2208SOL    HW2 7524   0.399   3.787   1.976
 2209SOL     OW 7525   1.170   5.244   6.413
 2209SOL    HW1 7526   1.088   5.298   6.431
 2209SOL    HW2 7527   1.175   5.222   6.316
 2210SOL     OW 7528   0.976   5.934   3.614
 2210SOL    HW1 7529   0.921   6.004   3.658
 2210SOL    HW2 7530   0.928   5.846   3.618
 2211SOL     OW 7531   6.329   1.480   5.571
 2211SOL    HW1 7532   6.275   1.446   5.648
 2211SOL    HW2 7533   6.372   1.404   5.523
 2212SOL     OW 7534   1.208   0.518   5.897
 2212SOL    HW1 7535   1.156   0.517   5.812
 2212SOL    HW2 7536   1.146   0.512   5.975
 2213SOL     OW 7537   4.215   2.222   3.379
 2213SOL    HW1 7538   4.215   2.244   3.281
 2213SOL    HW2 7539   4.179   2.129   3.391
 2214SOL     OW 7540   5.573   0.153   4.500
 2214SOL    HW1 7541   5.504   0.094   4.457
 2214SOL    HW2 7542   5.605   0.221   4.435
 2215SOL     OW 7543   7.017   2.069   5.477
 2215SOL    HW1 7544   6.984   2.045   5.568
 2215SOL    HW2 7545   6.940   2.069   5.412
 2216SOL     OW 7546   0.849   6.853   0.973
 2216SOL    HW1 7547   0.853   6.792   0.894
 2216SOL    HW2 7548   0.939   6.859   1.016
 2217SOL     OW 7549   4.498   0.036   1.353
 2217SOL    HW1 7550   4.454   0.126   1.347
 2217SOL    HW2 7551   4.597   0.047   1.353
 2218SOL     OW 7552   0.779   5.724   6.536
 2218SOL    HW1 7553   0.798   5.630   6.565
 2218SOL    HW2 7554   0.863   5.778   6.543
 2219SOL     OW 7555   1.684   4.147   3.063
 2219SOL    HW1 7556   1.623   4.115   2.990
 2219SOL    HW2 7557   1.687   4.247   3.064
 2220SOL     OW 7558   0.511   2.059   5.317
 2220SOL    HW1 7559   0.486   2.145   5.360
 2220SOL    HW2 7560   0.436   1.993   5.328
 2221SOL     OW 7561   6.680   2.112   1.441
 2221SOL    HW1 7562   6.721   2.201   1.422
 2221SOL    HW2 7563   6.746   2.040   1.421
 2222SOL     OW 7564   4.465   6.788   2.250
 2222SOL    HW1 7565   4.547   6.732   2.239
 2222SOL    HW2 7566   4.448   6.839   2.165
 2223SOL     OW 7567   5.773   5.235   4.028
 2223SOL    HW1 7568   5.690   5.274   4.067
 2223SOL    HW2 7569   5.762   5.136   4.019
 2224SOL     OW 7570   2.357   4.595   1.724
 2224SOL    HW1 7571   2.422   4.597   1.799
 2224SOL    HW2 7572   2.287   4.525   1.742
 2225SOL     OW 7573   6.566   5.053   2.466
 2225SOL    HW1 7574   6.635   5.090   2.404
 2225SOL    HW2 7575   6.563   4.953   2.457
 2226SOL     OW 7576   3.551   3.142   1.170
 2226SOL    HW1 7577   3.595   3.066   1.220
 2226SOL    HW2 7578   3.538   3.219   1.233
 2227SOL     OW 7579   6.525   3.868   6.031
 2227SOL    HW1 7580   6.486   3.944   6.084
 2227SOL    HW2 7581   6.458   3.836   5.965
 2228SOL     OW 7582   3.127   4.827   6.130
 2228SOL    HW1 7583   3.060   4.790   6.194
 2228SOL    HW2 7584   3.086   4.837   6.040
 2229SOL     OW 7585   4.706   1.259   3.293
 2229SOL    HW1 7586   4.638   1.257   3.366
 2229SOL    HW2 7587   4.678   1.199   3.218
 2230SOL     OW 7588   0.983   5.848   5.215
 2230SOL    HW1 7589   0.949   5.759   5.244
 2230SOL    HW2 7590   0.913   5.918   5.232
 2231SOL     OW 7591   1.729   0.237   1.830
 2231SOL    HW1 7592   1.699   0.218   1.737
 2231SOL    HW2 7593   1.723   0.335   1.849
 2232SOL     OW 7594   6.632   2.681   2.690
 2232SOL    HW1 7595   6.707   2.635   2.736
 2232SOL    HW2 7596   6.643   2.780   2.696
 2233SOL     OW 7597   3.522   6.549   0.219
 2233SOL    HW1 7598   3.449   6.583   0.279
 2233SOL    HW2 7599   3.496   6.565   0.124
 2234SOL     OW 7600   3.388   1.366   0.712
 2234SOL    HW1 7601   3.359   1.282   0.667
 2234SOL    HW2 7602   3.424   1.430   0.643
 2235SOL     OW 7603   0.957   0.115   0.854
 2235SOL    HW1 7604   0.881   0.128   0.917
 2235SOL    HW2 7605   1.018   0.044   0.888
 2236SOL     OW 7606   0.743   4.682   1.179
 2236SOL    HW1 7607   0.716   4.772   1.214
 2236SOL    HW2 7608   0.668   4.643   1.125
 2237SOL     OW 7609   6.753   3.066   4.641
 2237SOL    HW1 7610   6.802   3.070   4.554
 2237SOL    HW2 7611   6.758   3.156   4.686
 2238SOL     OW 7612   0.537   5.921   1.897
 2238SOL    HW1 7613   0.581   5.986   1.959
 2238SOL    HW2 7614   0.530   5.832   1.941
 2239SOL     OW 7615   3.929   4.870   3.654
 2239SOL    HW1 7616   3.953   4.832   3.565
 2239SOL    HW2 7617   3.985   4.951   3.671
 2240SOL     OW 7618   6.571   4.980   3.098
 2240SOL    HW1 7619   6.670   4.979   3.081
 2240SOL    HW2 7620   6.554   4.977   3.197
 2241SOL     OW 7621   6.876   6.509   1.852
 2241SOL    HW1 7622   6.853   6.412   1.864
 2241SOL    HW2 7623   6.807   6.553   1.794
 2242SOL     OW 7624   4.733   2.258   3.108
 2242SOL    HW1 7625   4.691   2.309   3.033
 2242SOL    HW2 7626   4.830   2.243   3.088
 2243SOL     OW 7627   2.199   6.203   4.956
 2243SOL    HW1 7628   2.292   6.240   4.948
 2243SOL    HW2 7629   2.137   6.276   4.986
 2244SOL     OW 7630   2.333   0.151   4.449
 2244SOL    HW1 7631   2.333   0.059   4.488
 2244SOL    HW2 7632   2.386   0.212   4.508
 2245SOL     OW 7633   0.550   1.271   2.519
 2245SOL    HW1 7634   0.461   1.243   2.482
 2245SOL    HW2 7635   0.585   1.348   2.465
 2246SOL     OW 7636   1.172   3.826   6.162
 2246SOL    HW1 7637   1.111   3.878   6.223
 2246SOL    HW2 7638   1.255   3.879   6.146
 2247SOL     OW 7639   1.962   2.773   6.336
 2247SOL    HW1 7640   1.879   2.752   6.387
 2247SOL    HW2 7641   1.940   2.781   6.239
 2248SOL     OW 7642   4.935   4.075   5.500
 2248SOL    HW1 7643   4.891   4.133   5.431
 2248SOL    HW2 7644   4.872   4.061   5.576
 2249SOL     OW 7645   5.464   5.965   3.445
 2249SOL    HW1 7646   5.387   5.913   3.483
 2249SOL    HW2 7647   5.478   5.940   3.350
 2250SOL     OW 7648   6.333   4.298   1.073
 2250SOL    HW1 7649   6.267   4.222   1.069
 2250SOL    HW2 7650   6.426   4.261   1.073
 2251SOL     OW 7651   5.839   0.866   0.266
 2251SOL    HW1 7652   5.802   0.916   0.345
 2251SOL    HW2 7653   5.787   0.890   0.184
 2252SOL     OW 7654   5.372   2.767   5.130
 2252SOL    HW1 7655   5.435   2.733   5.060
 2252SOL    HW2 7656   5.285   2.719   5.124
 2253SOL     OW 7657   2.642   2.776   6.714
 2253SOL    HW1 7658   2.730   2.731   6.731
 2253SOL    HW2 7659   2.646   2.869   6.750
 2254SOL     OW 7660   2.009   3.923   6.630
 2254SOL    HW1 7661   1.991   3.898   6.535
 2254SOL    HW2 7662   2.046   4.016   6.634
 2255SOL     OW 7663   6.016   2.696   2.043
 2255SOL    HW1 7664   5.971   2.674   2.130
 2255SOL    HW2 7665   5.982   2.635   1.972
 2256SOL     OW 7666   4.124   4.754   2.232
 2256SOL    HW1 7667   4.125   4.752   2.132
 2256SOL    HW2 7668   4.062   4.683   2.266
 2257SOL     OW 7669   1.801   4.164   3.682
 2257SOL    HW1 7670   1.724   4.219   3.651
 2257SOL    HW2 7671   1.768   4.089   3.740
 2258SOL     OW 7672   1.690   5.567   5.033
 2258SOL    HW1 7673   1.780   5.603   5.057
 2258SOL    HW2 7674   1.636   5.554   5.116
 2259SOL     OW 7675   5.402   3.551   0.057
 2259SOL    HW1 7676   5.479   3.611   0.033
 2259SOL    HW2 7677   5.391   3.481   7.010
 2260SOL     OW 7678   5.221   4.819   1.661
 2260SOL    HW1 7679   5.251   4.841   1.568
 2260SOL    HW2 7680   5.185   4.902   1.704
 2261SOL     OW 7681   5.621   6.592   0.486
 2261SOL    HW1 7682   5.571   6.653   0.425
 2261SOL    HW2 7683   5.700   6.640   0.523
 2262SOL     OW 7684   4.798   2.383   4.187
 2262SOL    HW1 7685   4.720   2.444   4.201
 2262SOL    HW2 7686   4.879   2.421   4.233
 2263SOL     OW 7687   1.510   5.175   5.964
 2263SOL    HW1 7688   1.571   5.097   5.950
 2263SOL    HW2 7689   1.446   5.182   5.888
 2264SOL     OW 7690   2.944   3.269   3.446
 2264SOL    HW1 7691   2.999   3.221   3.378
 2264SOL    HW2 7692   2.915   3.205   3.517
 2265SOL     OW 7693   0.139   0.056   1.837
 2265SOL    HW1 7694   0.194   0.022   1.761
 2265SOL    HW2 7695   0.077   7.009   1.868
 2266SOL     OW 7696   5.902   0.385   0.543
 2266SOL    HW1 7697   5.987   0.433   0.562
 2266SOL    HW2 7698   5.827   0.451   0.539
 2267SOL     OW 7699   6.211   2.563   5.419
 2267SOL    HW1 7700   6.137   2.496   5.408
 2267SOL    HW2 7701   6.291   2.533   5.366
 2268SOL     OW 7702   0.065   6.289   0.259
 2268SOL    HW1 7703   0.066   6.363   0.326
 2268SOL    HW2 7704   0.087   6.326   0.168
 2269SOL     OW 7705   6.583   5.366   6.096
 2269SOL    HW1 7706   6.665   5.419   6.075
 2269SOL    HW2 7707   6.566   5.301   6.022
 2270SOL     OW 7708   3.104   3.337   2.046
 2270SOL    HW1 7709   3.151   3.408   1.994
 2270SOL    HW2 7710   3.006   3.355   2.046
 2271SOL     OW 7711   5.743   4.493   2.164
 2271SOL    HW1 7712   5.687   4.482   2.083
 2271SOL    HW2 7713   5.816   4.424   2.163
 2272SOL     OW 7714   5.635   1.946   5.690
 2272SOL    HW1 7715   5.653   1.970   5.595
 2272SOL    HW2 7716   5.547   1.901   5.698
 2273SOL     OW 7717   0.524   1.173   3.434
 2273SOL    HW1 7718   0.593   1.148   3.367
 2273SOL    HW2 7719   0.563   1.235   3.502
 2274SOL     OW 7720   1.551   3.346   4.972
 2274SOL    HW1 7721   1.632   3.320   5.024
 2274SOL    HW2 7722   1.578   3.402   4.894
 2275SOL     OW 7723   5.626   6.280   4.297
 2275SOL    HW1 7724   5.668   6.192   4.272
 2275SOL    HW2 7725   5.697   6.341   4.333
 2276SOL     OW 7726   4.267   4.184   1.327
 2276SOL    HW1 7727   4.194   4.132   1.370
 2276SOL    HW2 7728   4.312   4.128   1.258
 2277SOL     OW 7729   2.929   3.296   6.555
 2277SOL    HW1 7730   2.929   3.396   6.554
 2277SOL    HW2 7731   2.978   3.264   6.637
 2278SOL     OW 7732   5.181   6.036   1.367
 2278SOL    HW1 7733   5.233   6.096   1.427
 2278SOL    HW2 7734   5.221   5.944   1.371
 2279SOL     OW 7735   5.797   2.932   5.096
 2279SOL    HW1 7736   5.706   2.971   5.083
 2279SOL    HW2 7737   5.802   2.886   5.185
 2280SOL     OW 7738   6.207   6.057   5.890
 2280SOL    HW1 7739   6.237   6.091   5.979
 2280SOL    HW2 7740   6.180   6.134   5.831
 2281SOL     OW 7741   3.566   2.010   1.587
 2281SOL    HW1 7742   3.466   2.014   1.584
 2281SOL    HW2 7743   3.599   1.954   1.511
 2282SOL     OW 7744   4.983   5.725   3.349
 2282SOL    HW1 7745   4.898   5.682   3.318
 2282SOL    HW2 7746   5.050   5.722   3.275
 2283SOL     OW 7747   0.359   3.199   3.687
 2283SOL    HW1 7748   0.347   3.142   3.768
 2283SOL    HW2 7749   0.452   3.237   3.687
 2284SOL     OW 7750   2.389   1.956   1.816
 2284SOL    HW1 7751   2.298   1.996   1.803
 2284SOL    HW2 7752   2.446   1.977   1.737
 2285SOL     OW 7753   1.329   3.368   0.912
 2285SOL    HW1 7754   1.325   3.425   0.995
 2285SOL    HW2 7755   1.240   3.327   0.895
 2286SOL     OW 7756   6.603   6.238   4.708
 2286SOL    HW1 7757   6.571   6.285   4.791
 2286SOL    HW2 7758   6.615   6.141   4.727
 2287SOL     OW 7759   2.464   2.541   1.698
 2287SOL    HW1 7760   2.478   2.580   1.607
 2287SOL    HW2 7761   2.552   2.537   1.746
 2288SOL     OW 7762   0.077   6.212   2.652
 2288SOL    HW1 7763   0.067   6.132   2.592
 2288SOL    HW2 7764   0.085   6.181   2.747
 2289SOL     OW 7765   5.538   1.772   2.458
 2289SOL    HW1 7766   5.483   1.691   2.479
 2289SOL    HW2 7767   5.484   1.834   2.400
 2290SOL     OW 7768   3.154   3.920   3.419
 2290SOL    HW1 7769   3.165   3.986   3.345
 2290SOL    HW2 7770   3.241   3.873   3.435
 2291SOL     OW 7771   2.212   2.192   1.107
 2291SOL    HW1 7772   2.281   2.252   1.146
 2291SOL    HW2 7773   2.253   2.136   1.035
 2292SOL     OW 7774   4.249   1.917   2.938
 2292SOL    HW1 7775   4.233   2.015   2.949
 2292SOL    HW2 7776   4.278   1.898   2.844
 2293SOL     OW 7777   5.603   1.263   0.609
 2293SOL    HW1 7778   5.580   1.354   0.642
 2293SOL    HW2 7779   5.519   1.215   0.583
 2294SOL     OW 7780   1.041   2.641   6.252
 2294SOL    HW1 7781   1.039   2.541   6.248
 2294SOL    HW2 7782   1.132   2.671   6.281
 2295SOL     OW 7783   6.780   6.761   2.041
 2295SOL    HW1 7784   6.693   6.713   2.027
 2295SOL    HW2 7785   6.775   6.814   2.126
 2296SOL     OW 7786   2.671   5.445   3.599
 2296SOL    HW1 7787   2.668   5.482   3.692
 2296SOL    HW2 7788   2.615   5.363   3.594
 2297SOL     OW 7789   4.419   5.006   5.417
 2297SOL    HW1 7790   4.341   4.963   5.462
 2297SOL    HW2 7791   4.503   4.977   5.463
 2298SOL     OW 7792   3.781   3.057   4.498
 2298SOL    HW1 7793   3.832   3.052   4.583
 2298SOL    HW2 7794   3.833   3.113   4.432
 2299SOL     OW 7795   5.189   3.045   5.036
 2299SOL    HW1 7796   5.164   2.976   5.104
 2299SOL    HW2 7797   5.213   3.000   4.950
 2300SOL     OW 7798   3.953   6.405   2.995
 2300SOL    HW1 7799   4.034   6.448   3.036
 2300SOL    HW2 7800   3.883   6.474   2.980
 2301SOL     OW 7801   3.516   3.119   4.438
 2301SOL    HW1 7802   3.500   3.152   4.345
 2301SOL    HW2 7803   3.597   3.062   4.439
 2302SOL     OW 7804   4.643   1.672   0.298
 2302SOL    HW1 7805   4.616   1.713   0.211
 2302SOL    HW2 7806   4.642   1.743   0.369
 2303SOL     OW 7807   2.438   2.253   0.597
 2303SOL    HW1 7808   2.472   2.224   0.507
 2303SOL    HW2 7809   2.505   2.229   0.667
 2304SOL     OW 7810   6.379   6.127   2.645
 2304SOL    HW1 7811   6.396   6.206   2.703
 2304SOL    HW2 7812   6.314   6.153   2.573
 2305SOL     OW 7813   1.391   1.303   5.498
 2305SOL    HW1 7814   1.396   1.359   5.416
 2305SOL    HW2 7815   1.374   1.208   5.472
 2306SOL     OW 7816   2.753   4.784   3.603
 2306SOL    HW1 7817   2.660   4.789   3.638
 2306SOL    HW2 7818   2.815   4.757   3.676
 2307SOL     OW 7819   1.215   2.649   5.642
 2307SOL    HW1 7820   1.226   2.647   5.741
 2307SOL    HW2 7821   1.220   2.744   5.610
 2308SOL     OW 7822   2.552   4.680   1.932
 2308SOL    HW1 7823   2.520   4.665   2.026
 2308SOL    HW2 7824   2.642   4.638   1.921
 2309SOL     OW 7825   1.245   6.588   4.212
 2309SOL    HW1 7826   1.151   6.557   4.227
 2309SOL    HW2 7827   1.303   6.510   4.189
 2310SOL     OW 7828   4.464   7.002   1.093
 2310SOL    HW1 7829   4.488   7.018   1.189
 2310SOL    HW2 7830   4.380   0.028   1.071
 2311SOL     OW 7831   2.671   6.017   1.076
 2311SOL    HW1 7832   2.590   6.052   1.122
 2311SOL    HW2 7833   2.666   5.917   1.070
 2312SOL     OW 7834   3.817   5.701   2.458
 2312SOL    HW1 7835   3.811   5.609   2.420
 2312SOL    HW2 7836   3.808   5.696   2.558
 2313SOL     OW 7837   5.148   4.802   2.273
 2313SOL    HW1 7838   5.052   4.774   2.282
 2313SOL    HW2 7839   5.187   4.816   2.363
 2314SOL     OW 7840   3.272   5.962   3.621
 2314SOL    HW1 7841   3.231   5.938   3.709
 2314SOL    HW2 7842   3.360   6.007   3.637
 2315SOL     OW 7843   4.007   3.260   6.094
 2315SOL    HW1 7844   3.937   3.199   6.057
 2315SOL    HW2 7845   4.069   3.288   6.021
 2316SOL     OW 7846   5.541   2.818   3.113
 2316SOL    HW1 7847   5.510   2.870   3.033
 2316SOL    HW2 7848   5.462   2.773   3.155
 2317SOL     OW 7849   1.939   4.598   3.334
 2317SOL    HW1 7850   1.905   4.508   3.358
 2317SOL    HW2 7851   1.974   4.643   3.416
 2318SOL     OW 7852   0.090   0.946   3.273
 2318SOL    HW1 7853   0.126   0.958   3.180
 2318SOL    HW2 7854   0.161   0.968   3.340
 2319SOL     OW 7855   1.494   5.000   4.595
 2319SOL    HW1 7856   1.438   4.919   4.577
 2319SOL    HW2 7857   1.473   5.035   4.685
 2320SOL     OW 7858   0.154   2.855   4.167
 2320SOL    HW1 7859   0.120   2.940   4.128
 2320SOL    HW2 7860   0.140   2.780   4.102
 2321SOL     OW 7861   3.043   6.991   5.193
 2321SOL    HW1 7862   3.026   0.003   5.101
 2321SOL    HW2 7863   3.013   6.896   5.198
 2322SOL     OW 7864   1.340   0.613   5.153
 2322SOL    HW1 7865   1.305   0.533   5.202
 2322SOL    HW2 7866   1.431   0.637   5.189
 2323SOL     OW 7867   4.279   6.061   2.109
 2323SOL    HW1 7868   4.241   6.153   2.103
 2323SOL    HW2 7869   4.358   6.053   2.048
 2324SOL     OW 7870   0.554   5.657   2.879
 2324SOL    HW1 7871   0.552   5.597   2.959
 2324SOL    HW2 7872   0.570   5.603   2.797
 2325SOL     OW 7873   1.148   3.912   0.684
 2325SOL    HW1 7874   1.114   3.853   0.611
 2325SOL    HW2 7875   1.236   3.952   0.657
 2326SOL     OW 7876   0.966   5.150   6.805
 2326SOL    HW1 7877   0.976   5.072   6.867
 2326SOL    HW2 7878   1.026   5.224   6.835
 2327SOL     OW 7879   5.077   2.718   3.881
 2327SOL    HW1 7880   5.080   2.709   3.782
 2327SOL    HW2 7881   5.014   2.791   3.906
 2328SOL     OW 7882   4.567   1.281   2.808
 2328SOL    HW1 7883   4.576   1.366   2.859
 2328SOL    HW2 7884   4.657   1.237   2.799
 2329SOL     OW 7885   1.083   5.751   4.046
 2329SOL    HW1 7886   1.127   5.735   3.957
 2329SOL    HW2 7887   0.984   5.751   4.034
 2330SOL     OW 7888   0.782   4.312   2.820
 2330SOL    HW1 7889   0.879   4.322   2.796
 2330SOL    HW2 7890   0.744   4.402   2.842
 2331SOL     OW 7891   0.652   4.764   5.176
 2331SOL    HW1 7892   0.618   4.846   5.130
 2331SOL    HW2 7893   0.748   4.776   5.199
 2332SOL     OW 7894   5.381   2.108   5.842
 2332SOL    HW1 7895   5.453   2.076   5.903
 2332SOL    HW2 7896   5.421   2.150   5.761
 2333SOL     OW 7897   1.138   5.867   3.421
 2333SOL    HW1 7898   1.222   5.822   3.454
 2333SOL    HW2 7899   1.091   5.911   3.497
 2334SOL     OW 7900   3.385   6.879   6.942
 2334SOL    HW1 7901   3.392   6.959   7.002
 2334SOL    HW2 7902   3.290   6.872   6.909
 2335SOL     OW 7903   4.981   0.058   3.508
 2335SOL    HW1 7904   5.065   0.006   3.525
 2335SOL    HW2 7905   4.929   0.013   3.436
 2336SOL     OW 7906   4.822   1.009   5.842
 2336SOL    HW1 7907   4.726   1.037   5.839
 2336SOL    HW2 7908   4.875   1.077   5.893
 2337SOL     OW 7909   5.169   7.006   3.233
 2337SOL    HW1 7910   5.221   0.040   3.295
 2337SOL    HW2 7911   5.073   7.006   3.261
 2338SOL     OW 7912   0.751   6.920   6.307
 2338SOL    HW1 7913   0.850   6.916   6.317
 2338SOL    HW2 7914   0.711   6.832   6.334
 2339SOL     OW 7915   3.531   4.465   6.841
 2339SOL    HW1 7916   3.458   4.500   6.900
 2339SOL    HW2 7917   3.526   4.509   6.751
 2340SOL     OW 7918   3.878   5.731   4.776
 2340SOL    HW1 7919   3.925   5.643   4.782
 2340SOL    HW2 7920   3.930   5.800   4.827
 2341SOL     OW 7921   5.351   5.238   1.218
 2341SOL    HW1 7922   5.295   5.210   1.296
 2341SOL    HW2 7923   5.439   5.192   1.223
 2342SOL     OW 7924   6.410   0.438   5.055
 2342SOL    HW1 7925   6.492   0.483   5.092
 2342SOL    HW2 7926   6.411   0.341   5.079
 2343SOL     OW 7927   1.363   5.531   0.878
 2343SOL    HW1 7928   1.411   5.483   0.805
 2343SOL    HW2 7929   1.347   5.468   0.954
 2344SOL     OW 7930   1.763   2.013   2.005
 2344SOL    HW1 7931   1.721   1.950   1.939
 2344SOL    HW2 7932   1.833   2.068   1.959
 2345SOL     OW 7933   1.916   0.856   4.759
 2345SOL    HW1 7934   1.988   0.800   4.717
 2345SOL    HW2 7935   1.861   0.799   4.820
 2346SOL     OW 7936   5.412   3.799   5.819
 2346SOL    HW1 7937   5.441   3.789   5.914
 2346SOL    HW2 7938   5.363   3.886   5.808
 2347SOL     OW 7939   1.539   2.578   1.750
 2347SOL    HW1 7940   1.542   2.600   1.848
 2347SOL    HW2 7941   1.477   2.502   1.735
 2348SOL     OW 7942   2.705   6.407   2.419
 2348SOL    HW1 7943   2.648   6.391   2.500
 2348SOL    HW2 7944   2.653   6.461   2.352
 2349SOL     OW 7945   6.188   6.550   5.703
 2349SOL    HW1 7946   6.274   6.562   5.753
 2349SOL    HW2 7947   6.207   6.551   5.605
 2350SOL     OW 7948   2.567   0.515   5.763
 2350SOL    HW1 7949   2.621   0.550   5.840
 2350SOL    HW2 7950   2.628   0.501   5.684
 2351SOL     OW 7951   2.374   5.519   4.155
 2351SOL    HW1 7952   2.342   5.569   4.236
 2351SOL    HW2 7953   2.474   5.516   4.156
 2352SOL     OW 7954   0.668   4.082   2.928
 2352SOL    HW1 7955   0.697   4.171   2.893
 2352SOL    HW2 7956   0.747   4.034   2.966
 2353SOL     OW 7957   2.899   4.518   5.878
 2353SOL    HW1 7958   2.845   4.453   5.824
 2353SOL    HW2 7959   2.838   4.571   5.937
 2354SOL     OW 7960   3.167   1.942   0.469
 2354SOL    HW1 7961   3.207   1.949   0.378
 2354SOL    HW2 7962   3.206   2.012   0.529
 2355SOL     OW 7963   0.709   6.337   0.676
 2355SOL    HW1 7964   0.758   6.251   0.685
 2355SOL    HW2 7965   0.696   6.378   0.766
 2356SOL     OW 7966   2.738   5.231   2.963
 2356SOL    HW1 7967   2.687   5.155   3.002
 2356SOL    HW2 7968   2.753   5.301   3.033
 2357SOL     OW 7969   6.198   4.415   2.127
 2357SOL    HW1 7970   6.168   4.428   2.033
 2357SOL    HW2 7971   6.289   4.373   2.128
 2358SOL     OW 7972   3.924   1.406   5.693
 2358SOL    HW1 7973   3.913   1.458   5.609
 2358SOL    HW2 7974   3.888   1.313   5.679
 2359SOL     OW 7975   1.478   1.596   5.192
 2359SOL    HW1 7976   1.538   1.586   5.271
 2359SOL    HW2 7977   1.436   1.507   5.172
 2360SOL     OW 7978   4.559   4.535   0.582
 2360SOL    HW1 7979   4.484   4.521   0.647
 2360SOL    HW2 7980   4.572   4.632   0.566
 2361SOL     OW 7981   3.070   7.020   2.113
 2361SOL    HW1 7982   3.167   6.994   2.112
 2361SOL    HW2 7983   3.014   6.938   2.100
 2362SOL     OW 7984   3.958   5.554   4.376
 2362SOL    HW1 7985   3.886   5.532   4.442
 2362SOL    HW2 7986   4.048   5.538   4.417
 2363SOL     OW 7987   3.160   3.079   0.576
 2363SOL    HW1 7988   3.137   3.011   0.506
 2363SOL    HW2 7989   3.122   3.168   0.549
 2364SOL     OW 7990   4.018   2.124   2.122
 2364SOL    HW1 7991   4.021   2.173   2.035
 2364SOL    HW2 7992   4.013   2.025   2.105
 2365SOL     OW 7993   5.676   3.377   4.329
 2365SOL    HW1 7994   5.628   3.382   4.242
 2365SOL    HW2 7995   5.709   3.468   4.355
 2366SOL     OW 7996   2.496   4.362   5.292
 2366SOL    HW1 7997   2.585   4.319   5.278
 2366SOL    HW2 7998   2.429   4.292   5.318
 2367SOL     OW 7999   0.763   4.174   5.936
 2367SOL    HW1 8000   0.753   4.085   5.892
 2367SOL    HW2 8001   0.708   4.177   6.019
 2368SOL     OW 8002   5.451   0.215   4.167
 2368SOL    HW1 8003   5.442   0.270   4.084
 2368SOL    HW2 8004   5.542   0.230   4.207
 2369SOL     OW 8005   3.017   1.081   3.622
 2369SOL    HW1 8006   3.091   1.020   3.649
 2369SOL    HW2 8007   3.044   1.176   3.640
 2370SOL     OW 8008   5.422   2.972   1.238
 2370SOL    HW1 8009   5.460   2.880   1.251
 2370SOL    HW2 8010   5.490   3.040   1.265
 2371SOL     OW 8011   0.697   6.763   2.992
 2371SOL    HW1 8012   0.652   6.676   2.973
 2371SOL    HW2 8013   0.663   6.833   2.929
 2372SOL     OW 8014   6.857   1.575   6.235
 2372SOL    HW1 8015   6.765   1.538   6.223
 2372SOL    HW2 8016   6.905   1.575   6.147
 2373SOL     OW 8017   6.515   6.930   6.312
 2373SOL    HW1 8018   6.506   6.831   6.316
 2373SOL    HW2 8019   6.505   6.961   6.217
 2374SOL     OW 8020   6.223   6.345   3.055
 2374SOL    HW1 8021   6.222   6.404   3.136
 2374SOL    HW2 8022   6.308   6.357   3.005
 2375SOL     OW 8023   1.081   0.635   4.125
 2375SOL    HW1 8024   0.989   0.645   4.162
 2375SOL    HW2 8025   1.116   0.544   4.147
 2376SOL     OW 8026   6.204   2.125   2.686
 2376SOL    HW1 8027   6.302   2.140   2.703
 2376SOL    HW2 8028   6.192   2.039   2.637
 2377SOL     OW 8029   4.546   4.913   5.999
 2377SOL    HW1 8030   4.490   4.930   6.080
 2377SOL    HW2 8031   4.526   4.981   5.929
 2378SOL     OW 8032   6.676   1.385   0.702
 2378SOL    HW1 8033   6.702   1.320   0.631
 2378SOL    HW2 8034   6.690   1.478   0.669
 2379SOL     OW 8035   6.999   5.444   0.415
 2379SOL    HW1 8036   6.912   5.493   0.424
 2379SOL    HW2 8037   7.006   5.375   0.486
 2380SOL     OW 8038   4.846   4.432   4.957
 2380SOL    HW1 8039   4.770   4.424   4.892
 2380SOL    HW2 8040   4.932   4.416   4.909
 2381SOL     OW 8041   2.624   5.258   5.061
 2381SOL    HW1 8042   2.653   5.166   5.087
 2381SOL    HW2 8043   2.705   5.315   5.045
 2382SOL     OW 8044   1.536   6.126   2.140
 2382SOL    HW1 8045   1.542   6.122   2.040
 2382SOL    HW2 8046   1.625   6.104   2.180
 2383SOL     OW 8047   4.930   5.783   5.032
 2383SOL    HW1 8048   4.970   5.872   5.008
 2383SOL    HW2 8049   4.869   5.753   4.958
 2384SOL     OW 8050   0.965   1.740   1.775
 2384SOL    HW1 8051   1.044   1.785   1.733
 2384SOL    HW2 8052   0.916   1.688   1.706
 2385SOL     OW 8053   0.233   2.009   0.743
 2385SOL    HW1 8054   0.145   2.047   0.773
 2385SOL    HW2 8055   0.307   2.065   0.777
 2386SOL     OW 8056   4.041   5.636   4.132
 2386SOL    HW1 8057   4.133   5.597   4.123
 2386SOL    HW2 8058   4.012   5.630   4.228
 2387SOL     OW 8059   0.895   1.794   3.264
 2387SOL    HW1 8060   0.928   1.845   3.184
 2387SOL    HW2 8061   0.971   1.746   3.306
 2388SOL     OW 8062   6.463   2.267   6.264
 2388SOL    HW1 8063   6.412   2.343   6.305
 2388SOL    HW2 8064   6.512   2.217   6.336
 2389SOL     OW 8065   5.111   4.607   3.879
 2389SOL    HW1 8066   5.141   4.699   3.855
 2389SOL    HW2 8067   5.047   4.612   3.956
 2390SOL     OW 8068   4.495   3.569   5.863
 2390SOL    HW1 8069   4.528   3.491   5.916
 2390SOL    HW2 8070   4.413   3.606   5.906
 2391SOL     OW 8071   3.417   3.459   5.679
 2391SOL    HW1 8072   3.377   3.382   5.630
 2391SOL    HW2 8073   3.373   3.544   5.651
 2392SOL     OW 8074   3.363   5.675   5.029
 2392SOL    HW1 8075   3.295   5.745   5.050
 2392SOL    HW2 8076   3.381   5.620   5.110
 2393SOL     OW 8077   3.762   5.187   1.296
 2393SOL    HW1 8078   3.738   5.246   1.219
 2393SOL    HW2 8079   3.843   5.133   1.272
 2394SOL     OW 8080   0.530   3.220   3.385
 2394SOL    HW1 8081   0.517   3.153   3.458
 2394SOL    HW2 8082   0.475   3.301   3.404
 2395SOL     OW 8083   0.390   3.038   5.989
 2395SOL    HW1 8084   0.442   3.037   6.075
 2395SOL    HW2 8085   0.428   2.971   5.926
 2396SOL     OW 8086   6.067   1.439   5.116
 2396SOL    HW1 8087   6.102   1.522   5.160
 2396SOL    HW2 8088   5.967   1.442   5.116
 2397SOL     OW 8089   0.823   4.781   5.479
 2397SOL    HW1 8090   0.828   4.864   5.424
 2397SOL    HW2 8091   0.871   4.795   5.566
 2398SOL     OW 8092   2.772   5.524   4.206
 2398SOL    HW1 8093   2.820   5.460   4.265
 2398SOL    HW2 8094   2.724   5.474   4.134
 2399SOL     OW 8095   2.756   2.332   3.382
 2399SOL    HW1 8096   2.790   2.297   3.469
 2399SOL    HW2 8097   2.659   2.353   3.389
 2400SOL     OW 8098   1.565   3.790   0.226
 2400SOL    HW1 8099   1.535   3.697   0.250
 2400SOL    HW2 8100   1.501   3.829   0.159
 2401SOL     OW 8101   3.768   6.915   5.137
 2401SOL    HW1 8102   3.737   7.006   5.110
 2401SOL    HW2 8103   3.810   6.869   5.059
 2402SOL     OW 8104   0.775   2.323   2.470
 2402SOL    HW1 8105   0.742   2.397   2.530
 2402SOL    HW2 8106   0.709   2.308   2.396
 2403SOL     OW 8107   3.404   3.512   2.298
 2403SOL    HW1 8108   3.412   3.469   2.388
 2403SOL    HW2 8109   3.351   3.453   2.237
 2404SOL     OW 8110   6.768   1.030   1.161
 2404SOL    HW1 8111   6.738   1.089   1.237
 2404SOL    HW2 8112   6.704   1.039   1.085
 2405SOL     OW 8113   2.778   4.016   0.368
 2405SOL    HW1 8114   2.813   4.076   0.296
 2405SOL    HW2 8115   2.852   3.993   0.431
 2406SOL     OW 8116   1.920   0.237   4.500
 2406SOL    HW1 8117   1.875   0.298   4.434
 2406SOL    HW2 8118   1.852   0.202   4.564
 2407SOL     OW 8119   3.812   1.548   3.404
 2407SOL    HW1 8120   3.782   1.453   3.416
 2407SOL    HW2 8121   3.767   1.586   3.323
 2408SOL     OW 8122   2.292   6.583   3.804
 2408SOL    HW1 8123   2.374   6.581   3.862
 2408SOL    HW2 8124   2.211   6.587   3.861
 2409SOL     OW 8125   2.267   2.608   0.707
 2409SOL    HW1 8126   2.174   2.642   0.693
 2409SOL    HW2 8127   2.264   2.508   0.718
 2410SOL     OW 8128   6.390   3.397   5.701
 2410SOL    HW1 8129   6.449   3.475   5.722
 2410SOL    HW2 8130   6.424   3.350   5.620
 2411SOL     OW 8131   2.873   3.564   6.510
 2411SOL    HW1 8132   2.835   3.579   6.418
 2411SOL    HW2 8133   2.835   3.632   6.573
 2412SOL     OW 8134   2.681   2.174   6.488
 2412SOL    HW1 8135   2.722   2.246   6.433
 2412SOL    HW2 8136   2.605   2.132   6.438
 2413SOL     OW 8137   6.755   2.483   6.535
 2413SOL    HW1 8138   6.673   2.487   6.592
 2413SOL    HW2 8139   6.833   2.522   6.584
 2414SOL     OW 8140   5.877   2.718   4.553
 2414SOL    HW1 8141   5.914   2.810   4.536
 2414SOL    HW2 8142   5.806   2.724   4.624
 2415SOL     OW 8143   2.838   6.262   1.235
 2415SOL    HW1 8144   2.901   6.326   1.190
 2415SOL    HW2 8145   2.804   6.195   1.168
 2416SOL     OW 8146   0.018   3.222   3.290
 2416SOL    HW1 8147   0.032   3.228   3.191
 2416SOL    HW2 8148   6.981   3.295   3.320
 2417SOL     OW 8149   3.665   2.560   0.481
 2417SOL    HW1 8150   3.702   2.633   0.424
 2417SOL    HW2 8151   3.709   2.563   0.571
 2418SOL     OW 8152   4.791   4.094   6.188
 2418SOL    HW1 8153   4.741   4.052   6.264
 2418SOL    HW2 8154   4.889   4.071   6.196
 2419SOL     OW 8155   2.127   6.687   4.235
 2419SOL    HW1 8156   2.132   6.764   4.299
 2419SOL    HW2 8157   2.170   6.712   4.149
 2420SOL     OW 8158   3.540   5.493   2.781
 2420SOL    HW1 8159   3.626   5.444   2.791
 2420SOL    HW2 8160   3.471   5.431   2.742
 2421SOL     OW 8161   3.058   0.075   4.606
 2421SOL    HW1 8162   3.081   0.148   4.542
 2421SOL    HW2 8163   3.131   0.006   4.607
 2422SOL     OW 8164   3.974   6.815   2.292
 2422SOL    HW1 8165   4.062   6.801   2.247
 2422SOL    HW2 8166   3.928   6.726   2.303
 2423SOL     OW 8167   1.831   5.468   2.237
 2423SOL    HW1 8168   1.810   5.418   2.321
 2423SOL    HW2 8169   1.750   5.469   2.178
 2424SOL     OW 8170   5.167   0.802   6.833
 2424SOL    HW1 8171   5.206   0.770   6.746
 2424SOL    HW2 8172   5.218   0.762   6.909
 2425SOL     OW 8173   4.610   5.319   5.638
 2425SOL    HW1 8174   4.634   5.259   5.562
 2425SOL    HW2 8175   4.593   5.411   5.603
 2426SOL     OW 8176   0.981   5.094   5.650
 2426SOL    HW1 8177   1.051   5.116   5.718
 2426SOL    HW2 8178   0.922   5.173   5.635
 2427SOL     OW 8179   4.977   0.034   6.479
 2427SOL    HW1 8180   4.951   0.100   6.550
 2427SOL    HW2 8181   4.945   0.067   6.390
 2428SOL     OW 8182   0.424   1.365   3.707
 2428SOL    HW1 8183   0.429   1.378   3.806
 2428SOL    HW2 8184   0.371   1.283   3.687
 2429SOL     OW 8185   5.300   5.265   2.456
 2429SOL    HW1 8186   5.303   5.211   2.372
 2429SOL    HW2 8187   5.353   5.349   2.444
 2430SOL     OW 8188   5.693   2.845   0.288
 2430SOL    HW1 8189   5.618   2.790   0.251
 2430SOL    HW2 8190   5.777   2.791   0.289
 2431SOL     OW 8191   6.298   2.141   1.800
 2431SOL    HW1 8192   6.230   2.123   1.728
 2431SOL    HW2 8193   6.377   2.186   1.760
 2432SOL     OW 8194   3.391   5.664   2.037
 2432SOL    HW1 8195   3.327   5.619   1.975
 2432SOL    HW2 8196   3.376   5.763   2.034
 2433SOL     OW 8197   6.763   5.850   0.318
 2433SOL    HW1 8198   6.790   5.836   0.414
 2433SOL    HW2 8199   6.835   5.817   0.258
 2434SOL     OW 8200   3.775   2.122   2.875
 2434SOL    HW1 8201   3.837   2.054   2.834
 2434SOL    HW2 8202   3.694   2.131   2.818
 2435SOL     OW 8203   5.678   0.327   6.404
 2435SOL    HW1 8204   5.581   0.303   6.405
 2435SOL    HW2 8205   5.716   0.317   6.495
 2436SOL     OW 8206   1.150   1.455   1.471
 2436SOL    HW1 8207   1.183   1.548   1.488
 2436SOL    HW2 8208   1.090   1.427   1.546
 2437SOL     OW 8209   6.475   6.083   2.286
 2437SOL    HW1 8210   6.539   6.103   2.361
 2437SOL    HW2 8211   6.382   6.082   2.322
 2438SOL     OW 8212   3.289   1.910   4.429
 2438SOL    HW1 8213   3.267   2.007   4.412
 2438SOL    HW2 8214   3.280   1.891   4.526
 2439SOL     OW 8215   0.283   5.021   6.496
 2439SOL    HW1 8216   0.334   4.987   6.417
 2439SOL    HW2 8217   0.194   5.057   6.465
 2440SOL     OW 8218   4.076   1.044   4.652
 2440SOL    HW1 8219   4.137   0.992   4.712
 2440SOL    HW2 8220   4.129   1.116   4.607
 2441SOL     OW 8221   5.895   0.061   6.493
 2441SOL    HW1 8222   5.850   0.133   6.545
 2441SOL    HW2 8223   5.942   7.023   6.555
 2442SOL     OW 8224   5.052   3.557   1.998
 2442SOL    HW1 8225   5.093   3.638   1.955
 2442SOL    HW2 8226   4.952   3.565   1.994
 2443SOL     OW 8227   2.315   0.880   6.901
 2443SOL    HW1 8228   2.218   0.894   6.884
 2443SOL    HW2 8229   2.363   0.968   6.900
 2444SOL     OW 8230   4.370   5.415   0.498
 2444SOL    HW1 8231   4.374   5.451   0.592
 2444SOL    HW2 8232   4.458   5.430   0.453
 2445SOL     OW 8233   0.043   2.011   1.522
 2445SOL    HW1 8234   7.004   1.950   1.474
 2445SOL    HW2 8235   0.045   1.988   1.619
 2446SOL     OW 8236   1.220   3.079   1.893
 2446SOL    HW1 8237   1.171   3.080   1.980
 2446SOL    HW2 8238   1.154   3.081   1.818
 2447SOL     OW 8239   2.031   0.771   0.592
 2447SOL    HW1 8240   2.076   0.840   0.535
 2447SOL    HW2 8241   1.975   0.712   0.533
 2448SOL     OW 8242   6.070   2.116   4.130
 2448SOL    HW1 8243   6.083   2.180   4.206
 2448SOL    HW2 8244   6.122   2.148   4.051
 2449SOL     OW 8245   2.167   4.436   1.774
 2449SOL    HW1 8246   2.134   4.399   1.687
 2449SOL    HW2 8247   2.089   4.461   1.831
 2450SOL     OW 8248   2.541   5.206   6.690
 2450SOL    HW1 8249   2.474   5.225   6.762
 2450SOL    HW2 8250   2.634   5.223   6.725
 2451SOL     OW 8251   0.813   0.288   3.937
 2451SOL    HW1 8252   0.826   0.318   3.843
 2451SOL    HW2 8253   0.856   0.353   4.000
 2452SOL     OW 8254   2.380   2.736   3.604
 2452SOL    HW1 8255   2.385   2.700   3.697
 2452SOL    HW2 8256   2.316   2.681   3.550
 2453SOL     OW 8257   6.740   1.901   0.582
 2453SOL    HW1 8258   6.776   1.966   0.649
 2453SOL    HW2 8259   6.655   1.937   0.543
 2454SOL     OW 8260   3.325   5.736   0.406
 2454SOL    HW1 8261   3.292   5.824   0.373
 2454SOL    HW2 8262   3.402   5.750   0.468
 2455SOL     OW 8263   2.961   1.222   6.947
 2455SOL    HW1 8264   2.865   1.232   6.972
 2455SOL    HW2 8265   2.971   1.147   6.882
 2456SOL     OW 8266   0.917   3.837   6.582
 2456SOL    HW1 8267   0.853   3.911   6.602
 2456SOL    HW2 8268   0.960   3.807   6.667
 2457SOL     OW 8269   5.426   1.542   5.694
 2457SOL    HW1 8270   5.426   1.536   5.794
 2457SOL    HW2 8271   5.443   1.637   5.667
 2458SOL     OW 8272   0.722   0.577   2.793
 2458SOL    HW1 8273   0.749   0.671   2.772
 2458SOL    HW2 8274   0.646   0.577   2.857
 2459SOL     OW 8275   2.957   5.374   6.711
 2459SOL    HW1 8276   2.904   5.457   6.692
 2459SOL    HW2 8277   3.048   5.400   6.744
 2460SOL     OW 8278   0.762   1.151   6.825
 2460SOL    HW1 8279   0.722   1.174   6.913
 2460SOL    HW2 8280   0.765   1.233   6.768
 2461SOL     OW 8281   4.428   0.090   4.190
 2461SOL    HW1 8282   4.410   0.016   4.255
 2461SOL    HW2 8283   4.380   0.173   4.219
 2462SOL     OW 8284   0.544   4.673   0.446
 2462SOL    HW1 8285   0.572   4.702   0.538
 2462SOL    HW2 8286   0.625   4.657   0.390
 2463SOL     OW 8287   6.542   1.507   0.428
 2463SOL    HW1 8288   6.475   1.468   0.490
 2463SOL    HW2 8289   6.512   1.598   0.399
 2464SOL     OW 8290   0.424   2.756   2.876
 2464SOL    HW1 8291   0.453   2.849   2.857
 2464SOL    HW2 8292   0.504   2.697   2.887
 2465SOL     OW 8293   6.808   5.609   6.378
 2465SOL    HW1 8294   6.815   5.638   6.282
 2465SOL    HW2 8295   6.777   5.686   6.434
 2466SOL     OW 8296   1.498   1.708   2.080
 2466SOL    HW1 8297   1.408   1.743   2.051
 2466SOL    HW2 8298   1.496   1.690   2.178
 2467SOL     OW 8299   4.465   1.848   6.027
 2467SOL    HW1 8300   4.549   1.857   5.973
 2467SOL    HW2 8301   4.411   1.772   5.992
 2468SOL     OW 8302   4.098   0.645   6.625
 2468SOL    HW1 8303   4.111   0.662   6.723
 2468SOL    HW2 8304   4.067   0.551   6.612
 2469SOL     OW 8305   4.227   2.898   6.080
 2469SOL    HW1 8306   4.135   2.865   6.058
 2469SOL    HW2 8307   4.249   2.978   6.024
 2470SOL     OW 8308   3.982   4.374   5.884
 2470SOL    HW1 8309   4.020   4.443   5.823
 2470SOL    HW2 8310   4.016   4.390   5.977
 2471SOL     OW 8311   3.851   0.014   0.778
 2471SOL    HW1 8312   3.896   0.077   0.841
 2471SOL    HW2 8313   3.822   6.956   0.827
 2472SOL     OW 8314   4.443   2.435   3.818
 2472SOL    HW1 8315   4.457   2.345   3.861
 2472SOL    HW2 8316   4.370   2.427   3.749
 2473SOL     OW 8317   1.170   4.433   4.639
 2473SOL    HW1 8318   1.230   4.429   4.559
 2473SOL    HW2 8319   1.114   4.516   4.635
 2474SOL     OW 8320   1.499   5.336   0.698
 2474SOL    HW1 8321   1.409   5.302   0.723
 2474SOL    HW2 8322   1.519   5.310   0.604
 2475SOL     OW 8323   4.611   0.628   0.778
 2475SOL    HW1 8324   4.670   0.706   0.760
 2475SOL    HW2 8325   4.641   0.550   0.723
 2476SOL     OW 8326   5.536   0.710   2.738
 2476SOL    HW1 8327   5.531   0.780   2.809
 2476SOL    HW2 8328   5.631   0.684   2.724
 2477SOL     OW 8329   4.099   0.595   3.360
 2477SOL    HW1 8330   4.163   0.604   3.284
 2477SOL    HW2 8331   4.136   0.532   3.428
 2478SOL     OW 8332   4.403   1.218   2.126
 2478SOL    HW1 8333   4.407   1.166   2.041
 2478SOL    HW2 8334   4.319   1.195   2.175
 2479SOL     OW 8335   1.444   2.403   1.474
 2479SOL    HW1 8336   1.476   2.493   1.445
 2479SOL    HW2 8337   1.377   2.368   1.409
 2480SOL     OW 8338   3.876   2.665   1.376
 2480SOL    HW1 8339   3.828   2.591   1.424
 2480SOL    HW2 8340   3.813   2.711   1.314
 2481SOL     OW 8341   2.524   0.226   1.428
 2481SOL    HW1 8342   2.552   0.294   1.495
 2481SOL    HW2 8343   2.519   0.268   1.337
 2482SOL     OW 8344   5.223   3.519   0.263
 2482SOL    HW1 8345   5.208   3.426   0.297
 2482SOL    HW2 8346   5.288   3.516   0.187
 2483SOL     OW 8347   1.581   2.103   0.389
 2483SOL    HW1 8348   1.523   2.049   0.328
 2483SOL    HW2 8349   1.578   2.065   0.481
 2484SOL     OW 8350   3.364   0.888   0.305
 2484SOL    HW1 8351   3.290   0.909   0.369
 2484SOL    HW2 8352   3.325   0.852   0.220
 2485SOL     OW 8353   4.962   3.252   0.383
 2485SOL    HW1 8354   5.044   3.295   0.420
 2485SOL    HW2 8355   4.955   3.270   0.285
 2486SOL     OW 8356   0.549   5.594   5.861
 2486SOL    HW1 8357   0.569   5.678   5.810
 2486SOL    HW2 8358   0.528   5.617   5.956
 2487SOL     OW 8359   3.960   6.363   0.334
 2487SOL    HW1 8360   3.864   6.352   0.360
 2487SOL    HW2 8361   3.985   6.292   0.270
 2488SOL     OW 8362   0.433   3.486   2.121
 2488SOL    HW1 8363   0.463   3.580   2.109
 2488SOL    HW2 8364   0.389   3.454   2.037
 2489SOL     OW 8365   0.960   6.118   3.348
 2489SOL    HW1 8366   0.888   6.174   3.388
 2489SOL    HW2 8367   0.990   6.050   3.415
 2490SOL     OW 8368   0.639   5.961   1.178
 2490SOL    HW1 8369   0.559   6.010   1.144
 2490SOL    HW2 8370   0.695   5.932   1.101
 2491SOL     OW 8371   3.764   4.726   1.142
 2491SOL    HW1 8372   3.722   4.797   1.199
 2491SOL    HW2 8373   3.752   4.750   1.046
 2492SOL     OW 8374   4.538   3.412   1.102
 2492SOL    HW1 8375   4.444   3.385   1.081
 2492SOL    HW2 8376   4.539   3.506   1.134
 2493SOL     OW 8377   6.699   6.903   1.254
 2493SOL    HW1 8378   6.753   6.919   1.337
 2493SOL    HW2 8379   6.622   6.968   1.252
 2494SOL     OW 8380   5.978   3.855   2.343
 2494SOL    HW1 8381   5.905   3.894   2.399
 2494SOL    HW2 8382   6.058   3.838   2.401
 2495SOL     OW 8383   5.701   5.385   3.446
 2495SOL    HW1 8384   5.757   5.312   3.407
 2495SOL    HW2 8385   5.681   5.453   3.376
 2496SOL     OW 8386   0.453   3.088   6.770
 2496SOL    HW1 8387   0.369   3.143   6.775
 2496SOL    HW2 8388   0.524   3.139   6.722
 2497SOL     OW 8389   0.296   0.252   1.248
 2497SOL    HW1 8390   0.348   0.223   1.327
 2497SOL    HW2 8391   0.326   0.343   1.220
 2498SOL     OW 8392   3.454   2.195   5.557
 2498SOL    HW1 8393   3.483   2.243   5.474
 2498SOL    HW2 8394   3.373   2.140   5.537
 2499SOL     OW 8395   6.229   3.336   2.206
 2499SOL    HW1 8396   6.149   3.353   2.263
 2499SOL    HW2 8397   6.302   3.400   2.231
 2500SOL     OW 8398   4.011   3.831   6.456
 2500SOL    HW1 8399   4.006   3.858   6.553
 2500SOL    HW2 8400   3.989   3.911   6.399
 2501SOL     OW 8401   5.111   5.739   6.996
 2501SOL    HW1 8402   5.047   5.666   7.018
 2501SOL    HW2 8403   5.181   5.705   6.933
 2502SOL     OW 8404   1.828   0.600   5.100
 2502SOL    HW1 8405   1.788   0.690   5.120
 2502SOL    HW2 8406   1.847   0.552   5.186
 2503SOL     OW 8407   2.929   6.772   4.812
 2503SOL    HW1 8408   2.971   6.745   4.725
 2503SOL    HW2 8409   2.851   6.713   4.831
 2504SOL     OW 8410   3.824   5.665   3.036
 2504SOL    HW1 8411   3.871   5.732   3.094
 2504SOL    HW2 8412   3.870   5.659   2.948
 2505SOL     OW 8413   0.496   6.448   2.684
 2505SOL    HW1 8414   0.455   6.406   2.603
 2505SOL    HW2 8415   0.596   6.452   2.672
 2506SOL     OW 8416   6.523   2.774   6.244
 2506SOL    HW1 8417   6.588   2.850   6.235
 2506SOL    HW2 8418   6.514   2.749   6.340
 2507SOL     OW 8419   6.532   3.632   0.175
 2507SOL    HW1 8420   6.621   3.676   0.161
 2507SOL    HW2 8421   6.514   3.569   0.100
 2508SOL     OW 8422   2.945   1.865   3.796
 2508SOL    HW1 8423   2.975   1.814   3.715
 2508SOL    HW2 8424   3.019   1.864   3.864
 2509SOL     OW 8425   6.869   4.674   1.240
 2509SOL    HW1 8426   6.945   4.696   1.301
 2509SOL    HW2 8427   6.858   4.747   1.173
 2510SOL     OW 8428   2.968   4.974   1.224
 2510SOL    HW1 8429   3.049   4.929   1.263
 2510SOL    HW2 8430   2.894   4.973   1.291
 2511SOL     OW 8431   2.810   1.643   3.939
 2511SOL    HW1 8432   2.810   1.743   3.938
 2511SOL    HW2 8433   2.755   1.609   3.863
 2512SOL     OW 8434   4.434   3.983   5.656
 2512SOL    HW1 8435   4.445   3.886   5.636
 2512SOL    HW2 8436   4.415   3.996   5.753
 2513SOL     OW 8437   2.008   5.412   4.609
 2513SOL    HW1 8438   1.936   5.354   4.647
 2513SOL    HW2 8439   1.967   5.486   4.555
 2514SOL     OW 8440   0.676   3.984   4.835
 2514SOL    HW1 8441   0.730   4.065   4.856
 2514SOL    HW2 8442   0.628   3.953   4.917
 2515SOL     OW 8443   1.838   6.415   0.513
 2515SOL    HW1 8444   1.829   6.471   0.431
 2515SOL    HW2 8445   1.760   6.433   0.574
 2516SOL     OW 8446   4.893   1.418   2.392
 2516SOL    HW1 8447   4.854   1.509   2.376
 2516SOL    HW2 8448   4.820   1.350   2.394
 2517SOL     OW 8449   1.267   0.722   6.144
 2517SOL    HW1 8450   1.214   0.800   6.177
 2517SOL    HW2 8451   1.276   0.654   6.217
 2518SOL     OW 8452   1.240   5.434   1.171
 2518SOL    HW1 8453   1.197   5.350   1.138
 2518SOL    HW2 8454   1.307   5.412   1.242
 2519SOL     OW 8455   3.566   0.529   1.721
 2519SOL    HW1 8456   3.472   0.525   1.688
 2519SOL    HW2 8457   3.566   0.549   1.819
 2520SOL     OW 8458   3.153   1.816   0.811
 2520SOL    HW1 8459   3.213   1.880   0.763
 2520SOL    HW2 8460   3.088   1.776   0.747
 2521SOL     OW 8461   3.024   0.554   5.524
 2521SOL    HW1 8462   2.948   0.609   5.490
 2521SOL    HW2 8463   2.999   0.457   5.523
 2522SOL     OW 8464   1.007   1.280   5.650
 2522SOL    HW1 8465   1.045   1.191   5.674
 2522SOL    HW2 8466   0.929   1.268   5.590
 2523SOL     OW 8467   1.083   2.718   0.959
 2523SOL    HW1 8468   1.007   2.665   0.922
 2523SOL    HW2 8469   1.157   2.721   0.892
 2524SOL     OW 8470   0.012   6.749   5.147
 2524SOL    HW1 8471   0.008   6.849   5.158
 2524SOL    HW2 8472   0.078   6.727   5.075
 2525SOL     OW 8473   1.086   2.607   5.345
 2525SOL    HW1 8474   1.115   2.550   5.421
 2525SOL    HW2 8475   1.139   2.583   5.263
 2526SOL     OW 8476   1.227   4.471   6.559
 2526SOL    HW1 8477   1.223   4.567   6.586
 2526SOL    HW2 8478   1.143   4.425   6.589
 2527SOL     OW 8479   5.928   6.658   5.732
 2527SOL    HW1 8480   6.023   6.635   5.712
 2527SOL    HW2 8481   5.891   6.714   5.657
 2528SOL     OW 8482   5.457   5.050   6.608
 2528SOL    HW1 8483   5.526   5.095   6.553
 2528SOL    HW2 8484   5.468   5.077   6.704
 2529SOL     OW 8485   6.928   6.414   6.873
 2529SOL    HW1 8486   6.832   6.399   6.895
 2529SOL    HW2 8487   6.940   6.508   6.840
 2530SOL     OW 8488   2.473   6.274   4.868
 2530SOL    HW1 8489   2.469   6.197   4.803
 2530SOL    HW2 8490   2.559   6.269   4.919
 2531SOL     OW 8491   5.836   6.007   5.157
 2531SOL    HW1 8492   5.916   6.065   5.154
 2531SOL    HW2 8493   5.801   6.003   5.251
 2532SOL     OW 8494   0.156   6.249   0.617
 2532SOL    HW1 8495   0.132   6.333   0.568
 2532SOL    HW2 8496   0.107   6.172   0.577
 2533SOL     OW 8497   4.112   0.064   3.582
 2533SOL    HW1 8498   4.180   0.111   3.638
 2533SOL    HW2 8499   4.140   0.065   3.486
 2534SOL     OW 8500   3.600   1.265   1.744
 2534SOL    HW1 8501   3.675   1.318   1.704
 2534SOL    HW2 8502   3.633   1.173   1.767
 2535SOL     OW 8503   3.439   3.667   6.062
 2535SOL    HW1 8504   3.489   3.725   5.997
 2535SOL    HW2 8505   3.413   3.581   6.017
 2536SOL     OW 8506   1.513   1.357   6.519
 2536SOL    HW1 8507   1.524   1.369   6.420
 2536SOL    HW2 8508   1.592   1.309   6.556
 2537SOL     OW 8509   3.670   0.302   6.337
 2537SOL    HW1 8510   3.620   0.377   6.381
 2537SOL    HW2 8511   3.617   0.218   6.345
 2538SOL     OW 8512   0.610   4.134   3.641
 2538SOL    HW1 8513   0.659   4.046   3.635
 2538SOL    HW2 8514   0.676   4.207   3.659
 2539SOL     OW 8515   5.699   1.157   4.135
 2539SOL    HW1 8516   5.609   1.115   4.121
 2539SOL    HW2 8517   5.724   1.153   4.231
 2540SOL     OW 8518   3.969   1.973   2.765
 2540SOL    HW1 8519   4.040   2.013   2.823
 2540SOL    HW2 8520   3.986   1.875   2.756
 2541SOL     OW 8521   3.446   1.095   4.759
 2541SOL    HW1 8522   3.482   1.059   4.673
 2541SOL    HW2 8523   3.460   1.194   4.762
 2542SOL     OW 8524   3.533   3.395   5.919
 2542SOL    HW1 8525   3.452   3.362   5.967
 2542SOL    HW2 8526   3.507   3.443   5.836
 2543SOL     OW 8527   0.247   0.807   3.769
 2543SOL    HW1 8528   0.224   0.716   3.734
 2543SOL    HW2 8529   0.163   0.860   3.781
 2544SOL     OW 8530   0.808   5.884   0.595
 2544SOL    HW1 8531   0.771   5.918   0.509
 2544SOL    HW2 8532   0.849   5.793   0.581
 2545SOL     OW 8533   1.515   6.643   2.089
 2545SOL    HW1 8534   1.437   6.608   2.036
 2545SOL    HW2 8535   1.590   6.576   2.084
 2546SOL     OW 8536   6.565   1.376   2.138
 2546SOL    HW1 8537   6.594   1.459   2.185
 2546SOL    HW2 8538   6.486   1.336   2.185
 2547SOL     OW 8539   0.351   4.047   0.160
 2547SOL    HW1 8540   0.361   4.029   0.258
 2547SOL    HW2 8541   0.380   3.967   0.108
 2548SOL     OW 8542   1.154   6.674   4.757
 2548SOL    HW1 8543   1.235   6.641   4.708
 2548SOL    HW2 8544   1.178   6.758   4.807
 2549SOL     OW 8545   0.801   0.222   1.099
 2549SOL    HW1 8546   0.713   0.209   1.145
 2549SOL    HW2 8547   0.872   0.173   1.149
 2550SOL     OW 8548   0.183   0.234   0.124
 2550SOL    HW1 8549   0.237   0.314   0.099
 2550SOL    HW2 8550   0.146   0.246   0.216
 2551SOL     OW 8551   3.500   4.716   0.452
 2551SOL    HW1 8552   3.576   4.677   0.399
 2551SOL    HW2 8553   3.414   4.692   0.408
 2552SOL     OW 8554   1.813   5.853   4.458
 2552SOL    HW1 8555   1.730   5.809   4.424
 2552SOL    HW2 8556   1.876   5.868   4.381
 2553SOL     OW 8557   4.160   3.733   5.730
 2553SOL    HW1 8558   4.089   3.780   5.678
 2553SOL    HW2 8559   4.234   3.706   5.668
 2554SOL     OW 8560   2.994   0.422   0.651
 2554SOL    HW1 8561   2.928   0.410   0.577
 2554SOL    HW2 8562   2.995   0.340   0.708
 2555SOL     OW 8563   6.134   0.821   5.047
 2555SOL    HW1 8564   6.068   0.809   4.972
 2555SOL    HW2 8565   6.140   0.735   5.099
 2556SOL     OW 8566   4.183   6.809   0.220
 2556SOL    HW1 8567   4.116   6.738   0.239
 2556SOL    HW2 8568   4.239   6.782   0.141
 2557SOL     OW 8569   2.057   3.944   0.636
 2557SOL    HW1 8570   2.018   3.898   0.556
 2557SOL    HW2 8571   2.093   3.876   0.699
 2558SOL     OW 8572   5.111   1.381   4.810
 2558SOL    HW1 8573   5.169   1.446   4.857
 2558SOL    HW2 8574   5.129   1.289   4.844
 2559SOL     OW 8575   0.984   4.325   5.235
 2559SOL    HW1 8576   0.926   4.259   5.188
 2559SOL    HW2 8577   0.978   4.414   5.190
 2560SOL     OW 8578   5.426   2.239   5.583
 2560SOL    HW1 8579   5.418   2.329   5.542
 2560SOL    HW2 8580   5.463   2.175   5.516
 2561SOL     OW 8581   2.620   5.082   5.387
 2561SOL    HW1 8582   2.622   5.062   5.289
 2561SOL    HW2 8583   2.632   5.180   5.401
 2562SOL     OW 8584   2.888   5.173   1.557
 2562SOL    HW1 8585   2.835   5.112   1.498
 2562SOL    HW2 8586   2.970   5.204   1.507
 2563SOL     OW 8587   3.202   1.609   0.608
 2563SOL    HW1 8588   3.109   1.632   0.636
 2563SOL    HW2 8589   3.237   1.535   0.667
 2564SOL     OW 8590   2.104   5.630   6.877
 2564SOL    HW1 8591   2.120   5.571   6.798
 2564SOL    HW2 8592   2.147   5.590   6.958
 2565SOL     OW 8593   1.166   6.771   6.474
 2565SOL    HW1 8594   1.130   6.701   6.536
 2565SOL    HW2 8595   1.116   6.856   6.488
 2566SOL     OW 8596   2.181   0.305   0.796
 2566SOL    HW1 8597   2.105   0.245   0.773
 2566SOL    HW2 8598   2.166   0.396   0.756
 2567SOL     OW 8599   1.055   0.533   0.822
 2567SOL    HW1 8600   1.106   0.490   0.896
 2567SOL    HW2 8601   0.982   0.589   0.860
 2568SOL     OW 8602   4.466   1.849   6.473
 2568SOL    HW1 8603   4.383   1.841   6.529
 2568SOL    HW2 8604   4.476   1.768   6.416
 2569SOL     OW 8605   2.798   0.497   2.331
 2569SOL    HW1 8606   2.798   0.567   2.260
 2569SOL    HW2 8607   2.854   0.528   2.408
 2570SOL     OW 8608   5.695   0.136   5.995
 2570SOL    HW1 8609   5.759   0.129   6.071
 2570SOL    HW2 8610   5.726   0.207   5.932
 2571SOL     OW 8611   2.254   4.816   5.030
 2571SOL    HW1 8612   2.175   4.761   5.002
 2571SOL    HW2 8613   2.230   4.871   5.110
 2572SOL     OW 8614   2.960   5.703   1.338
 2572SOL    HW1 8615   2.982   5.730   1.431
 2572SOL    HW2 8616   2.959   5.783   1.279
 2573SOL     OW 8617   0.322   1.837   1.628
 2573SOL    HW1 8618   0.417   1.822   1.654
 2573SOL    HW2 8619   0.317   1.857   1.530
 2574SOL     OW 8620   5.907   4.072   0.796
 2574SOL    HW1 8621   5.924   4.155   0.742
 2574SOL    HW2 8622   5.955   3.995   0.753
 2575SOL     OW 8623   5.113   6.110   0.352
 2575SOL    HW1 8624   5.124   6.138   0.256
 2575SOL    HW2 8625   5.120   6.191   0.411
 2576SOL     OW 8626   4.561   6.520   4.451
 2576SOL    HW1 8627   4.559   6.421   4.470
 2576SOL    HW2 8628   4.639   6.542   4.393
 2577SOL     OW 8629   4.157   6.655   2.096
 2577SOL    HW1 8630   4.079   6.630   2.038
 2577SOL    HW2 8631   4.231   6.690   2.040
 2578SOL     OW 8632   3.981   1.579   4.219
 2578SOL    HW1 8633   4.054   1.644   4.240
 2578SOL    HW2 8634   3.961   1.581   4.121
 2579SOL     OW 8635   1.566   6.663   3.430
 2579SOL    HW1 8636   1.498   6.711   3.375
 2579SOL    HW2 8637   1.520   6.621   3.509
 2580SOL     OW 8638   2.350   4.196   6.355
 2580SOL    HW1 8639   2.334   4.288   6.321
 2580SOL    HW2 8640   2.445   4.169   6.337
 2581SOL     OW 8641   2.370   5.138   2.087
 2581SOL    HW1 8642   2.367   5.092   1.998
 2581SOL    HW2 8643   2.309   5.091   2.150
 2582SOL     OW 8644   0.344   4.084   1.188
 2582SOL    HW1 8645   0.298   4.099   1.276
 2582SOL    HW2 8646   0.277   4.055   1.120
 2583SOL     OW 8647   0.671   1.383   6.645
 2583SOL    HW1 8648   0.587   1.372   6.697
 2583SOL    HW2 8649   0.652   1.372   6.547
 2584SOL     OW 8650   4.602   5.576   5.916
 2584SOL    HW1 8651   4.635   5.512   5.985
 2584SOL    HW2 8652   4.678   5.609   5.861
 2585SOL     OW 8653   3.329   3.377   0.576
 2585SOL    HW1 8654   3.246   3.362   0.522
 2585SOL    HW2 8655   3.409   3.366   0.517
 2586SOL     OW 8656   3.520   0.487   5.395
 2586SOL    HW1 8657   3.469   0.571   5.375
 2586SOL    HW2 8658   3.617   0.508   5.405
 2587SOL     OW 8659   5.871   1.144   3.357
 2587SOL    HW1 8660   5.909   1.076   3.421
 2587SOL    HW2 8661   5.808   1.204   3.406
 2588SOL     OW 8662   4.317   1.895   5.672
 2588SOL    HW1 8663   4.394   1.837   5.647
 2588SOL    HW2 8664   4.277   1.934   5.589
 2589SOL     OW 8665   1.601   6.739   5.732
 2589SOL    HW1 8666   1.637   6.833   5.730
 2589SOL    HW2 8667   1.504   6.741   5.757
 2590SOL     OW 8668   3.732   5.074   0.112
 2590SOL    HW1 8669   3.813   5.041   0.161
 2590SOL    HW2 8670   3.702   5.005   0.046
 2591SOL     OW 8671   6.965   4.629   3.381
 2591SOL    HW1 8672   7.019   4.645   3.298
 2591SOL    HW2 8673   7.002   4.684   3.456
 2592SOL     OW 8674   3.232   4.518   6.766
 2592SOL    HW1 8675   3.191   4.544   6.679
 2592SOL    HW2 8676   3.285   4.594   6.803
 2593SOL     OW 8677   3.784   5.650   0.506
 2593SOL    HW1 8678   3.816   5.743   0.487
 2593SOL    HW2 8679   3.773   5.600   0.420
 2594SOL     OW 8680   2.176   4.100   5.638
 2594SOL    HW1 8681   2.215   4.191   5.655
 2594SOL    HW2 8682   2.244   4.030   5.657
 2595SOL     OW 8683   7.019   1.016   4.059
 2595SOL    HW1 8684   0.038   1.097   4.020
 2595SOL    HW2 8685   6.966   1.041   4.140
 2596SOL     OW 8686   2.640   2.273   1.664
 2596SOL    HW1 8687   2.635   2.324   1.750
 2596SOL    HW2 8688   2.549   2.268   1.623
 2597SOL     OW 8689   0.296   5.263   6.105
 2597SOL    HW1 8690   0.375   5.247   6.164
 2597SOL    HW2 8691   0.212   5.256   6.159
 2598SOL     OW 8692   6.637   1.710   2.204
 2598SOL    HW1 8693   6.599   1.801   2.217
 2598SOL    HW2 8694   6.643   1.663   2.292
 2599SOL     OW 8695   1.722   5.712   0.635
 2599SOL    HW1 8696   1.674   5.696   0.549
 2599SOL    HW2 8697   1.812   5.752   0.617
 2600SOL     OW 8698   5.534   2.553   4.530
 2600SOL    HW1 8699   5.608   2.516   4.587
 2600SOL    HW2 8700   5.446   2.537   4.575
 2601SOL     OW 8701   1.279   1.460   0.944
 2601SOL    HW1 8702   1.363   1.451   0.891
 2601SOL    HW2 8703   1.252   1.556   0.948
 2602SOL     OW 8704   1.467   4.780   5.036
 2602SOL    HW1 8705   1.471   4.695   5.090
 2602SOL    HW2 8706   1.558   4.819   5.029
 2603SOL     OW 8707   2.997   1.327   3.199
 2603SOL    HW1 8708   3.009   1.315   3.101
 2603SOL    HW2 8709   2.946   1.250   3.236
 2604SOL     OW 8710   4.774   2.074   2.734
 2604SOL    HW1 8711   4.831   2.150   2.766
 2604SOL    HW2 8712   4.733   2.098   2.645
 2605SOL     OW 8713   1.700   3.334   2.727
 2605SOL    HW1 8714   1.669   3.303   2.637
 2605SOL    HW2 8715   1.734   3.428   2.720
 2606SOL     OW 8716   5.758   4.963   1.841
 2606SOL    HW1 8717   5.845   5.012   1.830
 2606SOL    HW2 8718   5.769   4.869   1.810
 2607SOL     OW 8719   0.768   1.494   1.374
 2607SOL    HW1 8720   0.847   1.453   1.328
 2607SOL    HW2 8721   0.715   1.422   1.419
 2608SOL     OW 8722   3.856   5.572   0.101
 2608SOL    HW1 8723   3.893   5.661   0.129
 2608SOL    HW2 8724   3.931   5.508   0.086
 2609SOL     OW 8725   6.126   1.375   2.015
 2609SOL    HW1 8726   6.204   1.343   1.961
 2609SOL    HW2 8727   6.142   1.355   2.112
 2610SOL     OW 8728   0.554   4.741   4.251
 2610SOL    HW1 8729   0.509   4.664   4.297
 2610SOL    HW2 8730   0.648   4.717   4.228
 2611SOL     OW 8731   4.598   6.517   0.088
 2611SOL    HW1 8732   4.550   6.562   0.012
 2611SOL    HW2 8733   4.542   6.442   0.123
 2612SOL     OW 8734   5.789   6.517   4.353
 2612SOL    HW1 8735   5.769   6.613   4.375
 2612SOL    HW2 8736   5.878   6.511   4.307
 2613SOL     OW 8737   2.379   5.160   6.465
 2613SOL    HW1 8738   2.398   5.099   6.388
 2613SOL    HW2 8739   2.466   5.193   6.502
 2614SOL     OW 8740   6.013   1.325   6.661
 2614SOL    HW1 8741   6.024   1.424   6.658
 2614SOL    HW2 8742   5.994   1.291   6.569
 2615SOL     OW 8743   0.582   3.089   1.217
 2615SOL    HW1 8744   0.642   3.056   1.144
 2615SOL    HW2 8745   0.510   3.145   1.177
 2616SOL     OW 8746   1.062   1.874   6.117
 2616SOL    HW1 8747   1.072   1.781   6.153
 2616SOL    HW2 8748   1.145   1.926   6.136
 2617SOL     OW 8749   4.902   0.764   0.542
 2617SOL    HW1 8750   4.865   0.843   0.592
 2617SOL    HW2 8751   4.993   0.743   0.577
 2618SOL     OW 8752   1.006   6.319   4.632
 2618SOL    HW1 8753   1.001   6.340   4.730
 2618SOL    HW2 8754   1.094   6.277   4.611
 2619SOL     OW 8755   4.090   2.025   1.848
 2619SOL    HW1 8756   4.072   2.035   1.750
 2619SOL    HW2 8757   4.116   1.931   1.867
 2620SOL     OW 8758   6.659   0.119   2.467
 2620SOL    HW1 8759   6.578   0.062   2.482
 2620SOL    HW2 8760   6.640   0.187   2.396
 2621SOL     OW 8761   1.121   4.730   2.706
 2621SOL    HW1 8762   1.034   4.719   2.755
 2621SOL    HW2 8763   1.112   4.805   2.641
 2622SOL     OW 8764   3.493   3.234   5.502
 2622SOL    HW1 8765   3.568   3.223   5.566
 2622SOL    HW2 8766   3.450   3.145   5.484
 2623SOL     OW 8767   0.434   0.309   4.374
 2623SOL    HW1 8768   0.480   0.334   4.289
 2623SOL    HW2 8769   0.472   0.223   4.408
 2624SOL     OW 8770   6.400   2.377   4.685
 2624SOL    HW1 8771   6.408   2.420   4.775
 2624SOL    HW2 8772   6.489   2.381   4.639
 2625SOL     OW 8773   2.068   4.698   5.465
 2625SOL    HW1 8774   2.074   4.787   5.419
 2625SOL    HW2 8775   2.146   4.642   5.439
 2626SOL     OW 8776   6.567   6.953   5.942
 2626SOL    HW1 8777   6.504   6.882   5.970
 2626SOL    HW2 8778   6.649   6.912   5.902
 2627SOL     OW 8779   1.058   0.696   6.445
 2627SOL    HW1 8780   0.976   0.665   6.396
 2627SOL    HW2 8781   1.139   0.655   6.404
 2628SOL     OW 8782   1.862   3.612   4.463
 2628SOL    HW1 8783   1.789   3.544   4.466
 2628SOL    HW2 8784   1.942   3.573   4.418
 2629SOL     OW 8785   3.847   3.609   3.224
 2629SOL    HW1 8786   3.769   3.582   3.168
 2629SOL    HW2 8787   3.816   3.646   3.311
 2630SOL     OW 8788   3.705   1.526   3.926
 2630SOL    HW1 8789   3.727   1.443   3.875
 2630SOL    HW2 8790   3.621   1.566   3.889
 2631SOL     OW 8791   5.743   0.608   6.719
 2631SOL    HW1 8792   5.808   0.607   6.643
 2631SOL    HW2 8793   5.682   0.687   6.710
 2632SOL     OW 8794   6.377   3.650   1.388
 2632SOL    HW1 8795   6.456   3.687   1.436
 2632SOL    HW2 8796   6.293   3.687   1.427
 2633SOL     OW 8797   6.512   2.164   5.208
 2633SOL    HW1 8798   6.598   2.203   5.173
 2633SOL    HW2 8799   6.496   2.075   5.166
 2634SOL     OW 8800   0.708   6.300   3.917
 2634SOL    HW1 8801   0.667   6.211   3.938
 2634SOL    HW2 8802   0.661   6.371   3.970
 2635SOL     OW 8803   6.145   5.403   4.080
 2635SOL    HW1 8804   6.179   5.486   4.123
 2635SOL    HW2 8805   6.165   5.406   3.982
 2636SOL     OW 8806   3.485   0.912   6.799
 2636SOL    HW1 8807   3.556   0.847   6.826
 2636SOL    HW2 8808   3.471   0.907   6.700
 2637SOL     OW 8809   6.291   1.627   4.176
 2637SOL    HW1 8810   6.300   1.649   4.079
 2637SOL    HW2 8811   6.229   1.691   4.220
 2638SOL     OW 8812   0.383   0.037   4.421
 2638SOL    HW1 8813   0.290   0.021   4.390
 2638SOL    HW2 8814   0.447   0.003   4.352
 2639SOL     OW 8815   5.033   5.033   5.523
 2639SOL    HW1 8816   4.974   5.030   5.603
 2639SOL    HW2 8817   4.988   5.084   5.450
 2640SOL     OW 8818   7.010   0.049   5.089
 2640SOL    HW1 8819   0.078   0.089   5.094
 2640SOL    HW2 8820   6.970   0.048   5.180
 2641SOL     OW 8821   4.534   2.155   1.265
 2641SOL    HW1 8822   4.587   2.222   1.213
 2641SOL    HW2 8823   4.540   2.176   1.363
 2642SOL     OW 8824   6.438   0.605   3.352
 2642SOL    HW1 8825   6.399   0.520   3.315
 2642SOL    HW2 8826   6.425   0.679   3.285
 2643SOL     OW 8827   1.220   3.617   4.075
 2643SOL    HW1 8828   1.147   3.667   4.030
 2643SOL    HW2 8829   1.200   3.519   4.072
 2644SOL     OW 8830   4.527   5.473   5.082
 2644SOL    HW1 8831   4.609   5.421   5.058
 2644SOL    HW2 8832   4.465   5.417   5.136
 2645SOL     OW 8833   5.507   4.725   3.932
 2645SOL    HW1 8834   5.429   4.725   3.869
 2645SOL    HW2 8835   5.532   4.631   3.955
 2646SOL     OW 8836   0.707   3.529   6.781
 2646SOL    HW1 8837   0.668   3.589   6.851
 2646SOL    HW2 8838   0.692   3.570   6.690
 2647SOL     OW 8839   5.576   6.861   1.645
 2647SOL    HW1 8840   5.620   6.888   1.731
 2647SOL    HW2 8841   5.546   6.766   1.651
 2648SOL     OW 8842   0.361   6.822   3.646
 2648SOL    HW1 8843   0.278   6.777   3.612
 2648SOL    HW2 8844   0.441   6.771   3.619
 2649SOL     OW 8845   5.264   3.332   2.072
 2649SOL    HW1 8846   5.178   3.377   2.051
 2649SOL    HW2 8847   5.246   3.239   2.105
 2650SOL     OW 8848   3.088   5.585   4.730
 2650SOL    HW1 8849   3.102   5.488   4.711
 2650SOL    HW2 8850   3.009   5.618   4.678
 2651SOL     OW 8851   3.611   1.285   6.770
 2651SOL    HW1 8852   3.624   1.344   6.691
 2651SOL    HW2 8853   3.572   1.198   6.741
 2652SOL     OW 8854   4.721   3.764   5.568
 2652SOL    HW1 8855   4.758   3.834   5.630
 2652SOL    HW2 8856   4.738   3.674   5.607
 2653SOL     OW 8857   3.685   6.009   5.721
 2653SOL    HW1 8858   3.761   6.019   5.658
 2653SOL    HW2 8859   3.717   6.022   5.815
 2654SOL     OW 8860   5.192   6.459   0.903
 2654SOL    HW1 8861   5.149   6.549   0.904
 2654SOL    HW2 8862   5.121   6.389   0.904
 2655SOL     OW 8863   4.618   5.829   3.243
 2655SOL    HW1 8864   4.668   5.883   3.176
 2655SOL    HW2 8865   4.626   5.873   3.333
 2656SOL     OW 8866   3.601   5.475   3.795
 2656SOL    HW1 8867   3.665   5.443   3.725
 2656SOL    HW2 8868   3.515   5.425   3.786
 2657SOL     OW 8869   2.100   3.428   0.615
 2657SOL    HW1 8870   2.199   3.415   0.617
 2657SOL    HW2 8871   2.076   3.484   0.535
 2658SOL     OW 8872   5.091   4.151   6.872
 2658SOL    HW1 8873   5.158   4.152   6.946
 2658SOL    HW2 8874   5.003   4.185   6.906
 2659SOL     OW 8875   5.026   2.774   4.693
 2659SOL    HW1 8876   4.970   2.800   4.772
 2659SOL    HW2 8877   5.018   2.843   4.622
 2660SOL     OW 8878   0.310   0.789   1.031
 2660SOL    HW1 8879   0.364   0.759   1.109
 2660SOL    HW2 8880   0.221   0.743   1.033
 2661SOL     OW 8881   1.242   0.821   2.196
 2661SOL    HW1 8882   1.201   0.774   2.119
 2661SOL    HW2 8883   1.342   0.815   2.190
 2662SOL     OW 8884   2.562   0.388   3.529
 2662SOL    HW1 8885   2.483   0.412   3.585
 2662SOL    HW2 8886   2.539   0.309   3.472
 2663SOL     OW 8887   3.699   6.385   5.595
 2663SOL    HW1 8888   3.765   6.401   5.668
 2663SOL    HW2 8889   3.610   6.363   5.634
 2664SOL     OW 8890   3.874   3.079   5.917
 2664SOL    HW1 8891   3.858   2.999   5.976
 2664SOL    HW2 8892   3.801   3.146   5.933
 2665SOL     OW 8893   2.593   3.459   5.474
 2665SOL    HW1 8894   2.650   3.449   5.556
 2665SOL    HW2 8895   2.639   3.519   5.409
 2666SOL     OW 8896   1.765   3.434   1.904
 2666SOL    HW1 8897   1.860   3.417   1.875
 2666SOL    HW2 8898   1.724   3.348   1.934
 2667SOL     OW 8899   0.251   5.161   3.570
 2667SOL    HW1 8900   0.152   5.160   3.580
 2667SOL    HW2 8901   0.292   5.092   3.630
 2668SOL     OW 8902   6.060   3.029   3.972
 2668SOL    HW1 8903   6.159   3.017   3.974
 2668SOL    HW2 8904   6.020   2.959   3.912
 2669SOL     OW 8905   2.819   5.785   6.542
 2669SOL    HW1 8906   2.865   5.869   6.571
 2669SOL    HW2 8907   2.732   5.776   6.591
 2670SOL     OW 8908   6.280   1.870   5.621
 2670SOL    HW1 8909   6.335   1.848   5.701
 2670SOL    HW2 8910   6.335   1.925   5.557
 2671SOL     OW 8911   4.155   6.518   6.413
 2671SOL    HW1 8912   4.079   6.552   6.358
 2671SOL    HW2 8913   4.241   6.557   6.379
 2672SOL     OW 8914   3.244   0.767   1.765
 2672SOL    HW1 8915   3.154   0.743   1.801
 2672SOL    HW2 8916   3.289   0.684   1.731
 2673SOL     OW 8917   5.305   0.997   2.695
 2673SOL    HW1 8918   5.288   0.899   2.684
 2673SOL    HW2 8919   5.270   1.027   2.784
 2674SOL     OW 8920   1.597   5.055   3.647
 2674SOL    HW1 8921   1.628   4.970   3.605
 2674SOL    HW2 8922   1.662   5.082   3.719
 2675SOL     OW 8923   0.326   0.132   3.672
 2675SOL    HW1 8924   0.337   0.129   3.771
 2675SOL    HW2 8925   0.408   0.095   3.629
 2676SOL     OW 8926   2.883   3.519   2.468
 2676SOL    HW1 8927   2.909   3.583   2.395
 2676SOL    HW2 8928   2.797   3.475   2.444
 2677SOL     OW 8929   3.231   4.524   0.913
 2677SOL    HW1 8930   3.286   4.466   0.973
 2677SOL    HW2 8931   3.276   4.613   0.902
 2678SOL     OW 8932   7.009   2.740   2.196
 2678SOL    HW1 8933   0.031   2.755   2.283
 2678SOL    HW2 8934   6.911   2.756   2.207
 2679SOL     OW 8935   2.065   5.174   2.649
 2679SOL    HW1 8936   2.090   5.168   2.746
 2679SOL    HW2 8937   2.096   5.091   2.602
 2680SOL     OW 8938   1.009   2.747   0.190
 2680SOL    HW1 8939   1.069   2.805   0.244
 2680SOL    HW2 8940   0.927   2.724   0.243
 2681SOL     OW 8941   1.200   3.004   5.280
 2681SOL    HW1 8942   1.285   3.058   5.278
 2681SOL    HW2 8943   1.220   2.912   5.314
 2682SOL     OW 8944   4.918   4.204   2.705
 2682SOL    HW1 8945   4.857   4.185   2.628
 2682SOL    HW2 8946   4.977   4.125   2.721
 2683SOL     OW 8947   2.101   4.345   2.474
 2683SOL    HW1 8948   2.081   4.247   2.473
 2683SOL    HW2 8949   2.101   4.378   2.568
 2684SOL     OW 8950   5.522   6.586   1.648
 2684SOL    HW1 8951   5.545   6.504   1.700
 2684SOL    HW2 8952   5.514   6.563   1.551
 2685SOL     OW 8953   6.555   4.772   4.678
 2685SOL    HW1 8954   6.583   4.867   4.666
 2685SOL    HW2 8955   6.614   4.713   4.622
 2686SOL     OW 8956   1.022   1.302   5.025
 2686SOL    HW1 8957   0.978   1.392   5.026
 2686SOL    HW2 8958   1.048   1.277   5.118
 2687SOL     OW 8959   4.008   6.823   1.155
 2687SOL    HW1 8960   4.096   6.787   1.186
 2687SOL    HW2 8961   3.944   6.825   1.232
 2688SOL     OW 8962   3.295   2.039   0.713
 2688SOL    HW1 8963   3.377   2.088   0.740
 2688SOL    HW2 8964   3.220   2.104   0.699
 2689SOL     OW 8965   0.763   4.131   2.531
 2689SOL    HW1 8966   0.830   4.175   2.591
 2689SOL    HW2 8967   0.772   4.032   2.538
 2690SOL     OW 8968   2.815   3.035   6.531
 2690SOL    HW1 8969   2.874   3.115   6.534
 2690SOL    HW2 8970   2.783   3.014   6.623
 2691SOL     OW 8971   0.400   4.974   4.369
 2691SOL    HW1 8972   0.399   4.965   4.468
 2691SOL    HW2 8973   0.473   4.917   4.331
 2692SOL     OW 8974   2.908   6.145   3.180
 2692SOL    HW1 8975   2.825   6.191   3.148
 2692SOL    HW2 8976   2.978   6.213   3.199
 2693SOL     OW 8977   2.066   5.060   4.328
 2693SOL    HW1 8978   2.044   5.154   4.301
 2693SOL    HW2 8979   2.161   5.055   4.358
 2694SOL     OW 8980   4.037   6.073   3.291
 2694SOL    HW1 8981   4.004   6.167   3.287
 2694SOL    HW2 8982   4.077   6.055   3.380
 2695SOL     OW 8983   6.061   0.055   3.032
 2695SOL    HW1 8984   6.086   0.137   2.981
 2695SOL    HW2 8985   6.135   0.032   3.095
 2696SOL     OW 8986   4.848   3.820   6.453
 2696SOL    HW1 8987   4.760   3.798   6.493
 2696SOL    HW2 8988   4.879   3.909   6.486
 2697SOL     OW 8989   4.515   1.354   1.435
 2697SOL    HW1 8990   4.428   1.365   1.485
 2697SOL    HW2 8991   4.498   1.365   1.337
 2698SOL     OW 8992   1.486   4.825   6.892
 2698SOL    HW1 8993   1.518   4.832   6.986
 2698SOL    HW2 8994   1.501   4.732   6.858
 2699SOL     OW 8995   3.048   5.750   1.629
 2699SOL    HW1 8996   2.979   5.813   1.665
 2699SOL    HW2 8997   3.070   5.681   1.699
 2700SOL     OW 8998   2.313   1.904   0.616
 2700SOL    HW1 8999   2.245   1.845   0.659
 2700SOL    HW2 9000   2.395   1.907   0.673
 2701SOL     OW 9001   5.172   2.695   5.397
 2701SOL    HW1 9002   5.123   2.616   5.435
 2701SOL    HW2 9003   5.153   2.703   5.300
 2702SOL     OW 9004   1.276   1.828   3.711
 2702SOL    HW1 9005   1.273   1.804   3.808
 2702SOL    HW2 9006   1.335   1.908   3.699
 2703SOL     OW 9007   1.574   5.714   1.173
 2703SOL    HW1 9008   1.547   5.763   1.256
 2703SOL    HW2 9009   1.504   5.727   1.103
 2704SOL     OW 9010   6.769   5.569   2.419
 2704SOL    HW1 9011   6.863   5.579   2.452
 2704SOL    HW2 9012   6.769   5.561   2.319
 2705SOL     OW 9013   6.813   1.281   6.019
 2705SOL    HW1 9014   6.749   1.304   6.092
 2705SOL    HW2 9015   6.890   1.231   6.056
 2706SOL     OW 9016   6.047   4.138   4.619
 2706SOL    HW1 9017   6.034   4.086   4.535
 2706SOL    HW2 9018   5.963   4.138   4.673
 2707SOL     OW 9019   3.900   6.251   3.699
 2707SOL    HW1 9020   3.810   6.238   3.655
 2707SOL    HW2 9021   3.942   6.334   3.663
 2708SOL     OW 9022   6.257   2.798   0.073
 2708SOL    HW1 9023   6.171   2.806   0.123
 2708SOL    HW2 9024   6.324   2.751   0.131
 2709SOL     OW 9025   5.124   6.545   6.131
 2709SOL    HW1 9026   5.217   6.512   6.114
 2709SOL    HW2 9027   5.121   6.645   6.121
 2710SOL     OW 9028   1.972   2.768   3.821
 2710SOL    HW1 9029   1.995   2.671   3.825
 2710SOL    HW2 9030   1.994   2.804   3.731
 2711SOL     OW 9031   3.237   1.526   3.483
 2711SOL    HW1 9032   3.314   1.467   3.506
 2711SOL    HW2 9033   3.270   1.613   3.448
 2712SOL     OW 9034   3.358   5.437   1.719
 2712SOL    HW1 9035   3.424   5.497   1.673
 2712SOL    HW2 9036   3.368   5.344   1.685
 2713SOL     OW 9037   4.118   4.191   6.330
 2713SOL    HW1 9038   4.035   4.137   6.318
 2713SOL    HW2 9039   4.119   4.229   6.423
 2714SOL     OW 9040   4.104   3.804   6.742
 2714SOL    HW1 9041   4.089   3.710   6.712
 2714SOL    HW2 9042   4.067   3.815   6.834
 2715SOL     OW 9043   5.175   2.015   1.249
 2715SOL    HW1 9044   5.261   2.049   1.210
 2715SOL    HW2 9045   5.112   2.092   1.261
 2716SOL     OW 9046   4.577   2.599   2.880
 2716SOL    HW1 9047   4.519   2.674   2.911
 2716SOL    HW2 9048   4.628   2.627   2.799
 2717SOL     OW 9049   0.029   0.048   2.269
 2717SOL    HW1 9050   0.056   6.980   2.242
 2717SOL    HW2 9051   0.041   0.059   2.367
 2718SOL     OW 9052   0.053   1.224   5.286
 2718SOL    HW1 9053   0.126   1.176   5.335
 2718SOL    HW2 9054   7.005   1.159   5.262
 2719SOL     OW 9055   1.747   4.201   2.249
 2719SOL    HW1 9056   1.710   4.170   2.337
 2719SOL    HW2 9057   1.676   4.194   2.179
 2720SOL     OW 9058   1.116   7.000   4.553
 2720SOL    HW1 9059   1.145   0.058   4.604
 2720SOL    HW2 9060   1.196   6.959   4.509
 2721SOL     OW 9061   3.251   6.678   2.034
 2721SOL    HW1 9062   3.312   6.619   1.982
 2721SOL    HW2 9063   3.191   6.622   2.091
 2722SOL     OW 9064   5.003   5.627   6.504
 2722SOL    HW1 9065   5.080   5.608   6.444
 2722SOL    HW2 9066   5.008   5.569   6.585
 2723SOL     OW 9067   3.167   6.394   6.637
 2723SOL    HW1 9068   3.204   6.301   6.630
 2723SOL    HW2 9069   3.133   6.422   6.547
 2724SOL     OW 9070   1.150   5.594   6.429
 2724SOL    HW1 9071   1.087   5.557   6.361
 2724SOL    HW2 9072   1.138   5.547   6.516
 2725SOL     OW 9073   5.228   4.297   4.403
 2725SOL    HW1 9074   5.220   4.259   4.495
 2725SOL    HW2 9075   5.188   4.232   4.337
 2726SOL     OW 9076   0.820   2.200   1.641
 2726SOL    HW1 9077   0.832   2.225   1.737
 2726SOL    HW2 9078   0.776   2.110   1.635
 2727SOL     OW 9079   1.974   4.270   3.837
 2727SOL    HW1 9080   1.918   4.232   3.764
 2727SOL    HW2 9081   1.921   4.340   3.886
 2728SOL     OW 9082   5.393   5.705   6.582
 2728SOL    HW1 9083   5.480   5.737   6.547
 2728SOL    HW2 9084   5.328   5.694   6.507
 2729SOL     OW 9085   6.409   6.437   6.929
 2729SOL    HW1 9086   6.382   6.365   6.992
 2729SOL    HW2 9087   6.373   6.417   6.837
 2730SOL     OW 9088   0.860   5.548   1.259
 2730SOL    HW1 9089   0.835   5.490   1.181
 2730SOL    HW2 9090   0.778   5.581   1.305
 2731SOL     OW 9091   3.124   3.509   3.286
 2731SOL    HW1 9092   3.221   3.523   3.266
 2731SOL    HW2 9093   3.082   3.457   3.212
 2732SOL     OW 9094   5.044   2.241   1.288
 2732SOL    HW1 9095   5.091   2.330   1.287
 2732SOL    HW2 9096   4.988   2.234   1.370
 2733SOL     OW 9097   6.640   1.274   5.227
 2733SOL    HW1 9098   6.606   1.341   5.293
 2733SOL    HW2 9099   6.738   1.287   5.215
 2734SOL     OW 9100   3.597   5.882   1.625
 2734SOL    HW1 9101   3.615   5.950   1.553
 2734SOL    HW2 9102   3.601   5.790   1.586
 2735SOL     OW 9103   1.332   2.391   0.602
 2735SOL    HW1 9104   1.349   2.431   0.692
 2735SOL    HW2 9105   1.233   2.383   0.587
 2736SOL     OW 9106   5.743   6.009   4.206
 2736SOL    HW1 9107   5.685   5.927   4.216
 2736SOL    HW2 9108   5.829   5.995   4.254
 2737SOL     OW 9109   2.902   2.452   5.802
 2737SOL    HW1 9110   2.866   2.423   5.713
 2737SOL    HW2 9111   2.979   2.393   5.827
 2738SOL     OW 9112   6.385   7.006   2.066
 2738SOL    HW1 9113   6.359   6.968   1.978
 2738SOL    HW2 9114   6.415   6.933   2.127
 2739SOL     OW 9115   1.073   5.182   1.119
 2739SOL    HW1 9116   1.117   5.109   1.067
 2739SOL    HW2 9117   0.974   5.169   1.117
 2740SOL     OW 9118   0.388   5.200   2.545
 2740SOL    HW1 9119   0.388   5.134   2.470
 2740SOL    HW2 9120   0.449   5.277   2.522
 2741SOL     OW 9121   1.026   1.673   4.813
 2741SOL    HW1 9122   1.104   1.656   4.873
 2741SOL    HW2 9123   1.007   1.771   4.809
 2742SOL     OW 9124   2.960   5.144   1.865
 2742SOL    HW1 9125   2.912   5.074   1.812
 2742SOL    HW2 9126   2.960   5.230   1.814
 2743SOL     OW 9127   6.735   4.733   2.125
 2743SOL    HW1 9128   6.645   4.775   2.115
 2743SOL    HW2 9129   6.795   4.794   2.176
 2744SOL     OW 9130   3.662   3.473   2.161
 2744SOL    HW1 9131   3.581   3.518   2.200
 2744SOL    HW2 9132   3.729   3.541   2.135
 2745SOL     OW 9133   6.585   1.502   5.366
 2745SOL    HW1 9134   6.630   1.515   5.455
 2745SOL    HW2 9135   6.550   1.590   5.334
 2746SOL     OW 9136   0.712   1.533   4.278
 2746SOL    HW1 9137   0.773   1.505   4.204
 2746SOL    HW2 9138   0.731   1.477   4.359
 2747SOL     OW 9139   4.414   5.782   6.439
 2747SOL    HW1 9140   4.351   5.766   6.363
 2747SOL    HW2 9141   4.390   5.723   6.516
 2748SOL     OW 9142   4.567   0.373   1.612
 2748SOL    HW1 9143   4.515   0.343   1.692
 2748SOL    HW2 9144   4.602   0.465   1.627
 2749SOL     OW 9145   1.399   3.870   0.483
 2749SOL    HW1 9146   1.390   3.781   0.528
 2749SOL    HW2 9147   1.420   3.857   0.386
 2750SOL     OW 9148   2.680   4.785   1.582
 2750SOL    HW1 9149   2.674   4.815   1.678
 2750SOL    HW2 9150   2.685   4.686   1.578
 2751SOL     OW 9151   1.808   1.545   1.291
 2751SOL    HW1 9152   1.814   1.501   1.202
 2751SOL    HW2 9153   1.898   1.547   1.333
 2752SOL     OW 9154   4.071   4.388   6.143
 2752SOL    HW1 9155   3.999   4.438   6.193
 2752SOL    HW2 9156   4.106   4.315   6.201
 2753SOL     OW 9157   6.277   6.034   5.297
 2753SOL    HW1 9158   6.222   6.082   5.366
 2753SOL    HW2 9159   6.349   5.982   5.342
 2754SOL     OW 9160   0.970   6.913   0.072
 2754SOL    HW1 9161   0.974   6.911   0.171
 2754SOL    HW2 9162   0.933   7.001   0.042
 2755SOL     OW 9163   3.027   0.014   2.951
 2755SOL    HW1 9164   3.044   0.102   2.996
 2755SOL    HW2 9165   3.059   0.018   2.857
 2756SOL     OW 9166   4.275   6.476   0.571
 2756SOL    HW1 9167   4.362   6.520   0.594
 2756SOL    HW2 9168   4.201   6.543   0.574
 2757SOL     OW 9169   2.076   5.632   0.440
 2757SOL    HW1 9170   1.997   5.618   0.380
 2757SOL    HW2 9171   2.125   5.545   0.452
 2758SOL     OW 9172   5.085   0.365   4.522
 2758SOL    HW1 9173   5.158   0.381   4.455
 2758SOL    HW2 9174   5.124   0.327   4.606
 2759SOL     OW 9175   5.053   6.396   4.286
 2759SOL    HW1 9176   5.081   6.343   4.205
 2759SOL    HW2 9177   4.988   6.342   4.340
 2760SOL     OW 9178   1.296   5.824   1.725
 2760SOL    HW1 9179   1.227   5.792   1.660
 2760SOL    HW2 9180   1.382   5.777   1.709
 2761SOL     OW 9181   1.883   4.746   4.100
 2761SOL    HW1 9182   1.793   4.734   4.141
 2761SOL    HW2 9183   1.899   4.672   4.034
 2762SOL     OW 9184   0.881   1.037   5.174
 2762SOL    HW1 9185   0.894   0.957   5.115
 2762SOL    HW2 9186   0.795   1.082   5.150
 2763SOL     OW 9187   5.468   2.213   3.872
 2763SOL    HW1 9188   5.489   2.310   3.860
 2763SOL    HW2 9189   5.369   2.199   3.866
 2764SOL     OW 9190   6.070   0.405   1.255
 2764SOL    HW1 9191   6.127   0.479   1.291
 2764SOL    HW2 9192   6.034   0.350   1.330
 2765SOL     OW 9193   5.120   0.563   1.041
 2765SOL    HW1 9194   5.110   0.472   1.080
 2765SOL    HW2 9195   5.187   0.615   1.094
 2766SOL     OW 9196   5.490   1.767   0.489
 2766SOL    HW1 9197   5.428   1.825   0.543
 2766SOL    HW2 9198   5.445   1.680   0.471
 2767SOL     OW 9199   0.106   5.126   6.760
 2767SOL    HW1 9200   0.025   5.174   6.727
 2767SOL    HW2 9201   0.184   5.189   6.758
 2768SOL     OW 9202   5.092   0.847   0.228
 2768SOL    HW1 9203   5.144   0.783   0.171
 2768SOL    HW2 9204   5.001   0.809   0.245
 2769SOL     OW 9205   6.979   4.275   3.869
 2769SOL    HW1 9206   6.970   4.374   3.858
 2769SOL    HW2 9207   0.004   4.255   3.953
 2770SOL     OW 9208   1.812   5.422   6.149
 2770SOL    HW1 9209   1.788   5.368   6.229
 2770SOL    HW2 9210   1.911   5.425   6.138
 2771SOL     OW 9211   5.484   1.405   1.543
 2771SOL    HW1 9212   5.492   1.314   1.585
 2771SOL    HW2 9213   5.509   1.400   1.447
 2772SOL     OW 9214   4.370   2.141   1.016
 2772SOL    HW1 9215   4.434   2.215   1.038
 2772SOL    HW2 9216   4.415   2.053   1.032
 2773SOL     OW 9217   4.913   3.353   6.099
 2773SOL    HW1 9218   4.875   3.321   6.186
 2773SOL    HW2 9219   4.971   3.433   6.116
 2774SOL     OW 9220   6.963   3.038   2.956
 2774SOL    HW1 9221   6.881   3.042   3.014
 2774SOL    HW2 9222   6.958   3.111   2.888
 2775SOL     OW 9223   0.109   5.376   0.171
 2775SOL    HW1 9224   0.150   5.467   0.163
 2775SOL    HW2 9225   0.103   5.350   0.267
 2776SOL     OW 9226   4.790   5.729   5.472
 2776SOL    HW1 9227   4.875   5.758   5.428
 2776SOL    HW2 9228   4.779   5.779   5.558
 2777SOL     OW 9229   3.084   1.550   2.001
 2777SOL    HW1 9230   3.027   1.616   2.050
 2777SOL    HW2 9231   3.118   1.593   1.917
 2778SOL     OW 9232   1.648   1.509   4.933
 2778SOL    HW1 9233   1.693   1.428   4.972
 2778SOL    HW2 9234   1.568   1.531   4.988
 2779SOL     OW 9235   4.598   0.194   0.220
 2779SOL    HW1 9236   4.542   0.180   0.302
 2779SOL    HW2 9237   4.695   0.182   0.244
 2780SOL     OW 9238   6.383   5.717   5.555
 2780SOL    HW1 9239   6.483   5.722   5.558
 2780SOL    HW2 9240   6.356   5.664   5.474
 2781SOL     OW 9241   6.066   5.599   2.106
 2781SOL    HW1 9242   6.050   5.697   2.119
 2781SOL    HW2 9243   6.003   5.564   2.037
 2782SOL     OW 9244   2.936   2.703   6.145
 2782SOL    HW1 9245   2.880   2.671   6.069
 2782SOL    HW2 9246   2.883   2.699   6.230
 2783SOL     OW 9247   5.830   3.303   5.028
 2783SOL    HW1 9248   5.826   3.284   4.930
 2783SOL    HW2 9249   5.888   3.235   5.072
 2784SOL     OW 9250   2.816   1.777   1.600
 2784SOL    HW1 9251   2.773   1.760   1.511
 2784SOL    HW2 9252   2.787   1.867   1.635
 2785SOL     OW 9253   6.091   1.247   0.250
 2785SOL    HW1 9254   6.099   1.148   0.250
 2785SOL    HW2 9255   6.149   1.285   0.177
 2786SOL     OW 9256   4.211   6.467   1.540
 2786SOL    HW1 9257   4.306   6.456   1.509
 2786SOL    HW2 9258   4.150   6.421   1.477
 2787SOL     OW 9259   2.283   2.947   6.249
 2787SOL    HW1 9260   2.351   3.015   6.275
 2787SOL    HW2 9261   2.219   2.931   6.324
 2788SOL     OW 9262   2.049   3.849   0.329
 2788SOL    HW1 9263   2.104   3.767   0.345
 2788SOL    HW2 9264   1.955   3.832   0.359
 2789SOL     OW 9265   1.526   2.730   3.862
 2789SOL    HW1 9266   1.473   2.671   3.923
 2789SOL    HW2 9267   1.579   2.674   3.799
 2790SOL     OW 9268   3.125   5.167   3.046
 2790SOL    HW1 9269   3.207   5.223   3.054
 2790SOL    HW2 9270   3.120   5.103   3.122
 2791SOL     OW 9271   1.411   4.738   4.545
 2791SOL    HW1 9272   1.323   4.718   4.501
 2791SOL    HW2 9273   1.439   4.660   4.600
 2792SOL     OW 9274   1.218   6.906   4.861
 2792SOL    HW1 9275   1.310   6.936   4.836
 2792SOL    HW2 9276   1.153   6.981   4.849
 2793SOL     OW 9277   5.070   2.583   2.808
 2793SOL    HW1 9278   5.009   2.536   2.744
 2793SOL    HW2 9279   5.015   2.625   2.881
 2794SOL     OW 9280   6.843   2.674   0.500
 2794SOL    HW1 9281   6.806   2.767   0.499
 2794SOL    HW2 9282   6.940   2.678   0.526
 2795SOL     OW 9283   2.932   3.442   1.206
 2795SOL    HW1 9284   2.996   3.383   1.256
 2795SOL    HW2 9285   2.856   3.467   1.266
 2796SOL     OW 9286   6.796   4.340   2.616
 2796SOL    HW1 9287   6.752   4.255   2.587
 2796SOL    HW2 9288   6.890   4.321   2.645
 2797SOL     OW 9289   4.879   5.446   4.715
 2797SOL    HW1 9290   4.978   5.460   4.711
 2797SOL    HW2 9291   4.858   5.352   4.688
 2798SOL     OW 9292   1.243   4.364   2.090
 2798SOL    HW1 9293   1.279   4.313   2.168
 2798SOL    HW2 9294   1.234   4.460   2.114
 2799SOL     OW 9295   0.232   5.649   6.877
 2799SOL    HW1 9296   0.154   5.684   6.825
 2799SOL    HW2 9297   0.317   5.683   6.837
 2800SOL     OW 9298   4.449   4.329   6.572
 2800SOL    HW1 9299   4.499   4.390   6.509
 2800SOL    HW2 9300   4.352   4.330   6.549
 2801SOL     OW 9301   4.224   5.813   4.549
 2801SOL    HW1 9302   4.296   5.865   4.504
 2801SOL    HW2 9303   4.135   5.840   4.513
 2802SOL     OW 9304   4.780   3.173   6.630
 2802SOL    HW1 9305   4.787   3.260   6.581
 2802SOL    HW2 9306   4.702   3.175   6.692
 2803SOL     OW 9307   2.754   5.653   6.305
 2803SOL    HW1 9308   2.846   5.621   6.279
 2803SOL    HW2 9309   2.758   5.698   6.394
 2804SOL     OW 9310   6.827   4.394   4.160
 2804SOL    HW1 9311   6.894   4.321   4.174
 2804SOL    HW2 9312   6.780   4.379   4.073
 2805SOL     OW 9313   4.951   3.413   1.368
 2805SOL    HW1 9314   4.896   3.345   1.417
 2805SOL    HW2 9315   4.891   3.476   1.319
 2806SOL     OW 9316   6.354   5.015   3.650
 2806SOL    HW1 9317   6.329   5.052   3.740
 2806SOL    HW2 9318   6.301   5.062   3.579
 2807SOL     OW 9319   5.621   4.907   3.746
 2807SOL    HW1 9320   5.612   4.994   3.794
 2807SOL    HW2 9321   5.595   4.833   3.807
 2808SOL     OW 9322   4.695   2.221   2.516
 2808SOL    HW1 9323   4.716   2.278   2.595
 2808SOL    HW2 9324   4.717   2.271   2.432
 2809SOL     OW 9325   6.645   2.981   1.391
 2809SOL    HW1 9326   6.632   3.080   1.401
 2809SOL    HW2 9327   6.680   2.961   1.299
 2810SOL     OW 9328   3.157   6.454   4.513
 2810SOL    HW1 9329   3.251   6.422   4.513
 2810SOL    HW2 9330   3.113   6.428   4.599
 2811SOL     OW 9331   0.599   0.563   3.899
 2811SOL    HW1 9332   0.585   0.646   3.844
 2811SOL    HW2 9333   0.546   0.488   3.859
 2812SOL     OW 9334   5.769   3.763   1.354
 2812SOL    HW1 9335   5.841   3.766   1.423
 2812SOL    HW2 9336   5.795   3.698   1.282
 2813SOL     OW 9337   6.323   6.880   5.750
 2813SOL    HW1 9338   6.260   6.947   5.788
 2813SOL    HW2 9339   6.381   6.923   5.681
 2814SOL     OW 9340   4.269   2.877   6.870
 2814SOL    HW1 9341   4.318   2.833   6.944
 2814SOL    HW2 9342   4.298   2.838   6.782
 2815SOL     OW 9343   0.463   1.672   5.105
 2815SOL    HW1 9344   0.508   1.761   5.108
 2815SOL    HW2 9345   0.379   1.679   5.052
 2816SOL     OW 9346   6.936   6.369   4.054
 2816SOL    HW1 9347   6.953   6.358   3.956
 2816SOL    HW2 9348   6.839   6.357   4.072
 2817SOL     OW 9349   1.879   0.390   1.223
 2817SOL    HW1 9350   1.854   0.395   1.127
 2817SOL    HW2 9351   1.919   0.477   1.252
 2818SOL     OW 9352   6.786   5.894   6.534
 2818SOL    HW1 9353   6.740   5.946   6.462
 2818SOL    HW2 9354   6.885   5.906   6.526
 2819SOL     OW 9355   0.026   2.172   1.105
 2819SOL    HW1 9356   0.051   2.199   1.012
 2819SOL    HW2 9357   0.058   2.079   1.123
 2820SOL     OW 9358   0.935   1.979   2.657
 2820SOL    HW1 9359   0.952   2.059   2.599
 2820SOL    HW2 9360   1.012   1.965   2.719
 2821SOL     OW 9361   3.746   3.543   6.913
 2821SOL    HW1 9362   3.748   3.581   6.821
 2821SOL    HW2 9363   3.839   3.520   6.942
 2822SOL     OW 9364   3.978   2.501   0.232
 2822SOL    HW1 9365   3.890   2.544   0.250
 2822SOL    HW2 9366   4.032   2.559   0.172
 2823SOL     OW 9367   2.408   6.385   1.338
 2823SOL    HW1 9368   2.475   6.313   1.320
 2823SOL    HW2 9369   2.336   6.382   1.269
 2824SOL     OW 9370   2.572   1.448   4.088
 2824SOL    HW1 9371   2.558   1.438   3.990
 2824SOL    HW2 9372   2.617   1.366   4.124
 2825SOL     OW 9373   0.172   6.937   0.459
 2825SOL    HW1 9374   0.228   6.942   0.376
 2825SOL    HW2 9375   0.169   0.003   0.502
 2826SOL     OW 9376   5.328   2.173   6.627
 2826SOL    HW1 9377   5.255   2.240   6.620
 2826SOL    HW2 9378   5.302   2.101   6.692
 2827SOL     OW 9379   5.961   1.313   5.659
 2827SOL    HW1 9380   6.047   1.322   5.708
 2827SOL    HW2 9381   5.978   1.314   5.560
 2828SOL     OW 9382   3.079   1.034   6.767
 2828SOL    HW1 9383   3.168   1.038   6.812
 2828SOL    HW2 9384   3.079   0.961   6.699
 2829SOL     OW 9385   3.127   4.044   6.326
 2829SOL    HW1 9386   3.178   4.072   6.244
 2829SOL    HW2 9387   3.155   4.100   6.403
 2830SOL     OW 9388   0.326   3.419   6.580
 2830SOL    HW1 9389   0.378   3.398   6.498
 2830SOL    HW2 9390   0.272   3.503   6.565
 2831SOL     OW 9391   7.020   6.144   3.572
 2831SOL    HW1 9392   0.087   6.103   3.582
 2831SOL    HW2 9393   6.971   6.099   3.498
 2832SOL     OW 9394   0.215   0.981   1.497
 2832SOL    HW1 9395   0.168   0.937   1.573
 2832SOL    HW2 9396   0.167   0.962   1.412
 2833SOL     OW 9397   5.369   2.676   2.115
 2833SOL    HW1 9398   5.306   2.598   2.112
 2833SOL    HW2 9399   5.380   2.714   2.023
 2834SOL     OW 9400   2.955   0.300   5.910
 2834SOL    HW1 9401   2.945   0.395   5.937
 2834SOL    HW2 9402   2.982   0.246   5.990
 2835SOL     OW 9403   0.321   0.447   1.590
 2835SOL    HW1 9404   0.343   0.368   1.533
 2835SOL    HW2 9405   0.224   0.444   1.614
 2836SOL     OW 9406   6.656   0.287   1.341
 2836SOL    HW1 9407   6.642   0.248   1.250
 2836SOL    HW2 9408   6.641   0.386   1.337
 2837SOL     OW 9409   5.988   3.573   3.058
 2837SOL    HW1 9410   6.037   3.501   3.008
 2837SOL    HW2 9411   6.052   3.620   3.119
 2838SOL     OW 9412   1.713   4.011   1.707
 2838SOL    HW1 9413   1.737   4.007   1.803
 2838SOL    HW2 9414   1.626   4.060   1.696
 2839SOL     OW 9415   5.855   1.135   1.971
 2839SOL    HW1 9416   5.939   1.120   2.024
 2839SOL    HW2 9417   5.867   1.097   1.879
 2840SOL     OW 9418   0.623   0.903   4.089
 2840SOL    HW1 9419   0.526   0.905   4.064
 2840SOL    HW2 9420   0.651   0.993   4.122
 2841SOL     OW 9421   0.216   0.840   5.745
 2841SOL    HW1 9422   0.176   0.754   5.775
 2841SOL    HW2 9423   0.144   0.907   5.729
 2842SOL     OW 9424   0.292   2.028   4.379
 2842SOL    HW1 9425   0.202   2.056   4.412
 2842SOL    HW2 9426   0.280   1.965   4.302
 2843SOL     OW 9427   3.529   1.687   3.471
 2843SOL    HW1 9428   3.516   1.745   3.390
 2843SOL    HW2 9429   3.483   1.728   3.549
 2844SOL     OW 9430   1.491   4.457   0.242
 2844SOL    HW1 9431   1.525   4.522   0.311
 2844SOL    HW2 9432   1.528   4.367   0.261
 2845SOL     OW 9433   1.172   3.344   0.420
 2845SOL    HW1 9434   1.080   3.313   0.445
 2845SOL    HW2 9435   1.228   3.353   0.503
 2846SOL     OW 9436   4.792   1.788   6.637
 2846SOL    HW1 9437   4.798   1.867   6.576
 2846SOL    HW2 9438   4.697   1.772   6.663
 2847SOL     OW 9439   5.087   3.968   3.114
 2847SOL    HW1 9440   4.996   4.008   3.107
 2847SOL    HW2 9441   5.092   3.909   3.195
 2848SOL     OW 9442   0.421   4.469   6.196
 2848SOL    HW1 9443   0.422   4.498   6.291
 2848SOL    HW2 9444   0.514   4.457   6.163
 2849SOL     OW 9445   3.661   0.135   1.530
 2849SOL    HW1 9446   3.752   0.093   1.529
 2849SOL    HW2 9447   3.668   0.229   1.498
 2850SOL     OW 9448   3.153   0.101   2.397
 2850SOL    HW1 9449   3.100   0.123   2.315
 2850SOL    HW2 9450   3.187   0.185   2.438
 2851SOL     OW 9451   0.530   3.687   5.832
 2851SOL    HW1 9452   0.445   3.643   5.859
 2851SOL    HW2 9453   0.592   3.619   5.794
 2852SOL     OW 9454   5.617   4.661   0.452
 2852SOL    HW1 9455   5.544   4.618   0.505
 2852SOL    HW2 9456   5.666   4.727   0.508
 2853SOL     OW 9457   2.855   2.210   0.100
 2853SOL    HW1 9458   2.952   2.188   0.100
 2853SOL    HW2 9459   2.802   2.126   0.110
 2854SOL     OW 9460   3.153   1.860   4.145
 2854SOL    HW1 9461   3.218   1.874   4.220
 2854SOL    HW2 9462   3.198   1.880   4.058
 2855SOL     OW 9463   2.099   0.970   6.120
 2855SOL    HW1 9464   2.088   1.038   6.193
 2855SOL    HW2 9465   2.049   0.887   6.145
 2856SOL     OW 9466   2.317   2.791   5.920
 2856SOL    HW1 9467   2.249   2.864   5.931
 2856SOL    HW2 9468   2.394   2.808   5.981
 2857SOL     OW 9469   3.480   1.679   2.290
 2857SOL    HW1 9470   3.470   1.580   2.279
 2857SOL    HW2 9471   3.536   1.715   2.215
 2858SOL     OW 9472   6.220   3.450   1.713
 2858SOL    HW1 9473   6.200   3.394   1.794
 2858SOL    HW2 9474   6.222   3.546   1.739
 2859SOL     OW 9475   5.139   2.285   0.612
 2859SOL    HW1 9476   5.148   2.321   0.519
 2859SOL    HW2 9477   5.114   2.360   0.673
 2860SOL     OW 9478   3.736   1.838   0.911
 2860SOL    HW1 9479   3.675   1.913   0.937
 2860SOL    HW2 9480   3.731   1.822   0.813
 2861SOL     OW 9481   4.827   5.325   5.825
 2861SOL    HW1 9482   4.883   5.407   5.813
 2861SOL    HW2 9483   4.745   5.332   5.769
 2862SOL     OW 9484   5.224   1.904   3.033
 2862SOL    HW1 9485   5.217   1.986   2.975
 2862SOL    HW2 9486   5.265   1.830   2.980
 2863SOL     OW 9487   5.915   1.111   0.004
 2863SOL    HW1 9488   5.831   1.141   0.048
 2863SOL    HW2 9489   5.977   1.188   7.018
 2864SOL     OW 9490   3.750   0.725   1.350
 2864SOL    HW1 9491   3.780   0.747   1.257
 2864SOL    HW2 9492   3.761   0.805   1.408
 2865SOL     OW 9493   5.078   3.947   5.886
 2865SOL    HW1 9494   5.029   3.863   5.865
 2865SOL    HW2 9495   5.156   3.957   5.825
 2866SOL     OW 9496   6.390   6.111   0.442
 2866SOL    HW1 9497   6.335   6.160   0.509
 2866SOL    HW2 9498   6.459   6.173   0.404
 2867SOL     OW 9499   5.770   3.947   2.512
 2867SOL    HW1 9500   5.768   3.913   2.606
 2867SOL    HW2 9501   5.677   3.969   2.483
 2868SOL     OW 9502   0.566   3.199   5.461
 2868SOL    HW1 9503   0.546   3.190   5.558
 2868SOL    HW2 9504   0.664   3.184   5.446
 2869SOL     OW 9505   5.633   1.266   3.655
 2869SOL    HW1 9506   5.683   1.272   3.741
 2869SOL    HW2 9507   5.548   1.318   3.662
 2870SOL     OW 9508   6.981   1.528   4.553
 2870SOL    HW1 9509   6.934   1.609   4.591
 2870SOL    HW2 9510   6.971   1.451   4.616
 2871SOL     OW 9511   1.715   1.411   6.883
 2871SOL    HW1 9512   1.757   1.450   6.801
 2871SOL    HW2 9513   1.632   1.361   6.856
 2872SOL     OW 9514   2.544   1.678   3.560
 2872SOL    HW1 9515   2.622   1.615   3.561
 2872SOL    HW2 9516   2.483   1.654   3.485
 2873SOL     OW 9517   1.345   5.024   3.325
 2873SOL    HW1 9518   1.330   5.067   3.415
 2873SOL    HW2 9519   1.329   4.925   3.333
 2874SOL     OW 9520   4.411   5.135   3.018
 2874SOL    HW1 9521   4.434   5.202   2.948
 2874SOL    HW2 9522   4.494   5.087   3.048
 2875SOL     OW 9523   4.665   6.414   6.704
 2875SOL    HW1 9524   4.718   6.340   6.746
 2875SOL    HW2 9525   4.608   6.458   6.774
 2876SOL     OW 9526   0.787   6.983   1.821
 2876SOL    HW1 9527   0.825   6.955   1.732
 2876SOL    HW2 9528   0.862   6.994   1.886
 2877SOL     OW 9529   3.488   2.741   5.287
 2877SOL    HW1 9530   3.578   2.705   5.310
 2877SOL    HW2 9531   3.418   2.674   5.312
 2878SOL     OW 9532   3.751   5.144   4.764
 2878SOL    HW1 9533   3.658   5.108   4.756
 2878SOL    HW2 9534   3.747   5.242   4.784
 2879SOL     OW 9535   5.242   5.357   0.048
 2879SOL    HW1 9536   5.323   5.327   7.021
 2879SOL    HW2 9537   5.160   5.339   7.018
 2880SOL     OW 9538   6.115   6.384   0.835
 2880SOL    HW1 9539   6.043   6.368   0.767
 2880SOL    HW2 9540   6.112   6.479   0.864
 2881SOL     OW 9541   5.832   6.179   1.321
 2881SOL    HW1 9542   5.908   6.135   1.368
 2881SOL    HW2 9543   5.857   6.195   1.226
 2882SOL     OW 9544   0.741   3.517   2.184
 2882SOL    HW1 9545   0.830   3.484   2.214
 2882SOL    HW2 9546   0.669   3.458   2.222
 2883SOL     OW 9547   5.274   6.602   4.111
 2883SOL    HW1 9548   5.207   6.527   4.109
 2883SOL    HW2 9549   5.366   6.564   4.123
 2884SOL     OW 9550   0.677   5.257   2.970
 2884SOL    HW1 9551   0.681   5.185   3.039
 2884SOL    HW2 9552   0.766   5.303   2.965
 2885SOL     OW 9553   0.135   3.147   2.719
 2885SOL    HW1 9554   0.148   3.056   2.678
 2885SOL    HW2 9555   0.071   3.200   2.665
 2886SOL     OW 9556   2.052   3.673   0.085
 2886SOL    HW1 9557   2.026   3.615   0.007
 2886SOL    HW2 9558   1.981   3.742   0.100
 2887SOL     OW 9559   1.978   6.951   4.872
 2887SOL    HW1 9560   2.047   6.919   4.807
 2887SOL    HW2 9561   1.973   0.027   4.868
 2888SOL     OW 9562   0.540   4.688   6.444
 2888SOL    HW1 9563   0.445   4.657   6.439
 2888SOL    HW2 9564   0.595   4.619   6.492
 2889SOL     OW 9565   1.170   1.025   2.518
 2889SOL    HW1 9566   1.172   1.065   2.427
 2889SOL    HW2 9567   1.092   0.963   2.527
 2890SOL     OW 9568   2.937   0.255   0.876
 2890SOL    HW1 9569   2.986   0.260   0.963
 2890SOL    HW2 9570   2.839   0.265   0.893
 2891SOL     OW 9571   2.387   4.354   3.801
 2891SOL    HW1 9572   2.465   4.398   3.846
 2891SOL    HW2 9573   2.372   4.395   3.712
 2892SOL     OW 9574   5.597   3.957   0.364
 2892SOL    HW1 9575   5.653   3.911   0.433
 2892SOL    HW2 9576   5.522   3.896   0.337
 2893SOL     OW 9577   0.849   6.855   5.059
 2893SOL    HW1 9578   0.850   6.888   5.153
 2893SOL    HW2 9579   0.761   6.810   5.041
 2894SOL     OW 9580   3.195   2.972   6.603
 2894SOL    HW1 9581   3.126   2.908   6.569
 2894SOL    HW2 9582   3.257   2.998   6.528
 2895SOL     OW 9583   3.995   2.805   6.687
 2895SOL    HW1 9584   3.921   2.810   6.620
 2895SOL    HW2 9585   4.061   2.735   6.659
 2896SOL     OW 9586   3.220   5.190   6.441
 2896SOL    HW1 9587   3.312   5.165   6.412
 2896SOL    HW2 9588   3.167   5.221   6.363
 2897SOL     OW 9589   3.054   6.114   3.515
 2897SOL    HW1 9590   3.127   6.075   3.572
 2897SOL    HW2 9591   3.079   6.104   3.418
 2898SOL     OW 9592   4.524   5.316   3.444
 2898SOL    HW1 9593   4.578   5.388   3.489
 2898SOL    HW2 9594   4.442   5.356   3.404
 2899SOL     OW 9595   0.430   1.903   6.961
 2899SOL    HW1 9596   0.414   1.858   0.025
 2899SOL    HW2 9597   0.413   2.001   6.970
 2900SOL     OW 9598   1.133   4.928   5.475
 2900SOL    HW1 9599   1.050   4.980   5.495
 2900SOL    HW2 9600   1.186   4.917   5.560
 2901SOL     OW 9601   1.400   0.199   2.728
 2901SOL    HW1 9602   1.311   0.238   2.704
 2901SOL    HW2 9603   1.439   0.154   2.648
 2902SOL     OW 9604   5.697   6.067   0.803
 2902SOL    HW1 9605   5.684   5.975   0.766
 2902SOL    HW2 9606   5.794   6.082   0.821
 2903SOL     OW 9607   3.128   0.423   1.451
 2903SOL    HW1 9608   3.170   0.344   1.406
 2903SOL    HW2 9609   3.048   0.452   1.397
 2904SOL     OW 9610   2.276   3.106   5.538
 2904SOL    HW1 9611   2.306   3.058   5.455
 2904SOL    HW2 9612   2.268   3.204   5.518
 2905SOL     OW 9613   0.872   2.374   3.291
 2905SOL    HW1 9614   0.906   2.328   3.209
 2905SOL    HW2 9615   0.802   2.317   3.334
 2906SOL     OW 9616   5.294   5.380   3.031
 2906SOL    HW1 9617   5.284   5.281   3.038
 2906SOL    HW2 9618   5.310   5.406   2.936
 2907SOL     OW 9619   6.572   0.752   4.282
 2907SOL    HW1 9620   6.557   0.660   4.245
 2907SOL    HW2 9621   6.664   0.783   4.258
 2908SOL     OW 9622   4.290   6.548   4.019
 2908SOL    HW1 9623   4.369   6.610   4.025
 2908SOL    HW2 9624   4.231   6.578   3.944
 2909SOL     OW 9625   0.485   6.009   3.719
 2909SOL    HW1 9626   0.527   6.083   3.666
 2909SOL    HW2 9627   0.516   6.013   3.814
 2910SOL     OW 9628   4.398   6.711   4.298
 2910SOL    HW1 9629   4.434   6.713   4.204
 2910SOL    HW2 9630   4.463   6.664   4.357
 2911SOL     OW 9631   2.441   5.260   3.552
 2911SOL    HW1 9632   2.378   5.192   3.516
 2911SOL    HW2 9633   2.390   5.341   3.583
 2912SOL     OW 9634   3.808   6.108   6.871
 2912SOL    HW1 9635   3.855   6.076   6.952
 2912SOL    HW2 9636   3.767   6.197   6.889
 2913SOL     OW 9637   1.970   4.974   2.082
 2913SOL    HW1 9638   1.924   5.062   2.085
 2913SOL    HW2 9639   1.907   4.902   2.111
 2914SOL     OW 9640   5.836   5.549   6.383
 2914SOL    HW1 9641   5.792   5.483   6.323
 2914SOL    HW2 9642   5.883   5.618   6.328
 2915SOL     OW 9643   5.041   1.702   5.031
 2915SOL    HW1 9644   5.107   1.647   5.082
 2915SOL    HW2 9645   4.961   1.646   5.011
 2916SOL     OW 9646   6.313   5.406   5.934
 2916SOL    HW1 9647   6.371   5.402   5.852
 2916SOL    HW2 9648   6.314   5.499   5.971
 2917SOL     OW 9649   4.568   0.628   1.753
 2917SOL    HW1 9650   4.554   0.591   1.845
 2917SOL    HW2 9651   4.482   0.667   1.719
 2918SOL     OW 9652   0.601   3.405   2.977
 2918SOL    HW1 9653   0.513   3.368   3.009
 2918SOL    HW2 9654   0.674   3.340   2.997
 2919SOL     OW 9655   6.430   0.736   0.240
 2919SOL    HW1 9656   6.463   0.826   0.214
 2919SOL    HW2 9657   6.445   0.672   0.165
 2920SOL     OW 9658   3.501   2.076   2.371
 2920SOL    HW1 9659   3.522   1.982   2.399
 2920SOL    HW2 9660   3.586   2.126   2.356
 2921SOL     OW 9661   0.299   0.603   3.197
 2921SOL    HW1 9662   0.214   0.582   3.244
 2921SOL    HW2 9663   0.286   0.682   3.137
 2922SOL     OW 9664   6.064   6.673   0.014
 2922SOL    HW1 9665   6.159   6.645   0.023
 2922SOL    HW2 9666   6.023   6.683   0.105
 2923SOL     OW 9667   0.024   5.006   1.674
 2923SOL    HW1 9668   0.115   5.003   1.716
 2923SOL    HW2 9669   7.019   5.101   1.665
 2924SOL     OW 9670   6.889   2.153   6.523
 2924SOL    HW1 9671   6.796   2.167   6.487
 2924SOL    HW2 9672   6.944   2.235   6.506
 2925SOL     OW 9673   5.062   0.963   3.278
 2925SOL    HW1 9674   5.157   0.937   3.297
 2925SOL    HW2 9675   5.058   1.061   3.257
 2926SOL     OW 9676   6.803   1.622   4.987
 2926SOL    HW1 9677   6.707   1.599   4.968
 2926SOL    HW2 9678   6.807   1.693   5.058
 2927SOL     OW 9679   2.230   1.821   2.257
 2927SOL    HW1 9680   2.283   1.883   2.201
 2927SOL    HW2 9681   2.139   1.860   2.273
 2928SOL     OW 9682   6.715   2.628   6.085
 2928SOL    HW1 9683   6.656   2.703   6.117
 2928SOL    HW2 9684   6.810   2.660   6.083
 2929SOL     OW 9685   0.707   1.174   5.814
 2929SOL    HW1 9686   0.712   1.224   5.728
 2929SOL    HW2 9687   0.619   1.192   5.858
 2930SOL     OW 9688   5.083   6.385   4.967
 2930SOL    HW1 9689   5.160   6.355   5.024
 2930SOL    HW2 9690   4.997   6.365   5.014
 2931SOL     OW 9691   5.764   6.368   6.600
 2931SOL    HW1 9692   5.761   6.270   6.583
 2931SOL    HW2 9693   5.835   6.388   6.668
 2932SOL     OW 9694   1.543   4.817   2.242
 2932SOL    HW1 9695   1.585   4.781   2.159
 2932SOL    HW2 9696   1.495   4.743   2.290
 2933SOL     OW 9697   5.457   3.061   3.320
 2933SOL    HW1 9698   5.475   3.068   3.418
 2933SOL    HW2 9699   5.536   3.020   3.274
 2934SOL     OW 9700   3.707   1.145   0.231
 2934SOL    HW1 9701   3.713   1.224   0.293
 2934SOL    HW2 9702   3.797   1.127   0.191
 2935SOL     OW 9703   6.104   2.999   1.607
 2935SOL    HW1 9704   6.047   3.063   1.659
 2935SOL    HW2 9705   6.106   2.911   1.653
 2936SOL     OW 9706   5.245   5.628   1.614
 2936SOL    HW1 9707   5.295   5.712   1.635
 2936SOL    HW2 9708   5.298   5.549   1.645
 2937SOL     OW 9709   3.743   4.841   0.899
 2937SOL    HW1 9710   3.840   4.848   0.879
 2937SOL    HW2 9711   3.699   4.930   0.888
 2938SOL     OW 9712   5.274   4.847   5.968
 2938SOL    HW1 9713   5.216   4.867   5.889
 2938SOL    HW2 9714   5.283   4.930   6.024
 2939SOL     OW 9715   0.514   6.950   4.178
 2939SOL    HW1 9716   0.552   0.011   4.140
 2939SOL    HW2 9717   0.552   6.872   4.128
 2940SOL     OW 9718   6.126   0.076   5.643
 2940SOL    HW1 9719   6.101   0.094   5.738
 2940SOL    HW2 9720   6.045   0.044   5.593
 2941SOL     OW 9721   2.119   2.495   4.875
 2941SOL    HW1 9722   2.136   2.518   4.779
 2941SOL    HW2 9723   2.039   2.434   4.881
 2942SOL     OW 9724   2.086   1.001   2.016
 2942SOL    HW1 9725   2.100   1.037   2.108
 2942SOL    HW2 9726   2.113   1.071   1.949
 2943SOL     OW 9727   5.744   4.117   3.167
 2943SOL    HW1 9728   5.737   4.211   3.201
 2943SOL    HW2 9729   5.653   4.075   3.168
 2944SOL     OW 9730   2.666   5.523   5.276
 2944SOL    HW1 9731   2.745   5.485   5.228
 2944SOL    HW2 9732   2.646   5.466   5.355
 2945SOL     OW 9733   3.878   3.251   3.169
 2945SOL    HW1 9734   3.961   3.304   3.150
 2945SOL    HW2 9735   3.849   3.204   3.086
 2946SOL     OW 9736   0.078   5.447   6.176
 2946SOL    HW1 9737   0.071   5.411   6.083
 2946SOL    HW2 9738   0.109   5.542   6.173
 2947SOL     OW 9739   0.982   4.606   0.568
 2947SOL    HW1 9740   1.079   4.618   0.549
 2947SOL    HW2 9741   0.965   4.620   0.665
 2948SOL     OW 9742   6.777   3.518   5.653
 2948SOL    HW1 9743   6.782   3.524   5.554
 2948SOL    HW2 9744   6.700   3.573   5.686
 2949SOL     OW 9745   2.148   6.096   1.100
 2949SOL    HW1 9746   2.182   6.131   1.012
 2949SOL    HW2 9747   2.211   6.124   1.173
 2950SOL     OW 9748   5.206   3.574   4.420
 2950SOL    HW1 9749   5.289   3.536   4.459
 2950SOL    HW2 9750   5.153   3.619   4.492
 2951SOL     OW 9751   6.369   2.414   0.343
 2951SOL    HW1 9752   6.350   2.437   0.439
 2951SOL    HW2 9753   6.463   2.380   0.335
 2952SOL     OW 9754   1.160   5.785   4.835
 2952SOL    HW1 9755   1.246   5.761   4.878
 2952SOL    HW2 9756   1.130   5.875   4.867
 2953SOL     OW 9757   4.712   2.750   2.340
 2953SOL    HW1 9758   4.737   2.744   2.244
 2953SOL    HW2 9759   4.703   2.846   2.367
 2954SOL     OW 9760   1.022   5.149   1.408
 2954SOL    HW1 9761   1.060   5.165   1.316
 2954SOL    HW2 9762   0.948   5.214   1.425
 2955SOL     OW 9763   0.728   3.631   0.747
 2955SOL    HW1 9764   0.815   3.611   0.791
 2955SOL    HW2 9765   0.727   3.727   0.717
 2956SOL     OW 9766   6.096   5.966   2.932
 2956SOL    HW1 9767   6.155   5.886   2.938
 2956SOL    HW2 9768   6.070   5.981   2.837
 2957SOL     OW 9769   6.573   3.246   1.380
 2957SOL    HW1 9770   6.606   3.290   1.463
 2957SOL    HW2 9771   6.496   3.298   1.343
 2958SOL     OW 9772   2.615   4.678   4.825
 2958SOL    HW1 9773   2.632   4.602   4.763
 2958SOL    HW2 9774   2.679   4.673   4.902
 2959SOL     OW 9775   4.551   4.392   0.299
 2959SOL    HW1 9776   4.647   4.403   0.323
 2959SOL    HW2 9777   4.501   4.357   0.379
 2960SOL     OW 9778   2.979   0.495   6.601
 2960SOL    HW1 9779   3.006   0.403   6.574
 2960SOL    HW2 9780   2.962   0.497   6.700
 2961SOL     OW 9781   5.226   2.657   4.492
 2961SOL    HW1 9782   5.235   2.678   4.394
 2961SOL    HW2 9783   5.130   2.634   4.511
 2962SOL     OW 9784   4.424   0.824   3.892
 2962SOL    HW1 9785   4.423   0.805   3.794
 2962SOL    HW2 9786   4.469   0.748   3.940
 2963SOL     OW 9787   1.884   1.729   5.686
 2963SOL    HW1 9788   1.891   1.746   5.588
 2963SOL    HW2 9789   1.864   1.815   5.733
 2964SOL     OW 9790   1.174   6.817   1.566
 2964SOL    HW1 9791   1.175   6.720   1.546
 2964SOL    HW2 9792   1.080   6.846   1.585
 2965SOL     OW 9793   0.101   1.248   5.000
 2965SOL    HW1 9794   0.119   1.248   5.098
 2965SOL    HW2 9795   0.012   1.204   4.983
 2966SOL     OW 9796   6.236   4.503   4.089
 2966SOL    HW1 9797   6.320   4.539   4.049
 2966SOL    HW2 9798   6.211   4.556   4.169
 2967SOL     OW 9799   5.961   2.464   4.447
 2967SOL    HW1 9800   5.907   2.513   4.515
 2967SOL    HW2 9801   6.036   2.415   4.492
 2968SOL     OW 9802   1.003   4.082   5.526
 2968SOL    HW1 9803   1.036   4.006   5.470
 2968SOL    HW2 9804   0.909   4.064   5.555
 2969SOL     OW 9805   5.925   1.316   4.772
 2969SOL    HW1 9806   5.892   1.396   4.822
 2969SOL    HW2 9807   6.017   1.294   4.804
 2970SOL     OW 9808   1.167   4.387   6.907
 2970SOL    HW1 9809   1.264   4.394   6.883
 2970SOL    HW2 9810   1.158   4.356   7.001
 2971SOL     OW 9811   4.804   2.618   5.158
 2971SOL    HW1 9812   4.761   2.654   5.241
 2971SOL    HW2 9813   4.755   2.652   5.078
 2972SOL     OW 9814   6.577   5.029   6.083
 2972SOL    HW1 9815   6.545   4.934   6.076
 2972SOL    HW2 9816   6.577   5.071   5.993
 2973SOL     OW 9817   4.979   1.085   4.330
 2973SOL    HW1 9818   5.020   1.176   4.320
 2973SOL    HW2 9819   4.950   1.072   4.425
 2974SOL     OW 9820   0.399   3.736   2.946
 2974SOL    HW1 9821   0.366   3.656   2.996
 2974SOL    HW2 9822   0.334   3.759   2.874
 2975SOL     OW 9823   0.786   1.949   5.279
 2975SOL    HW1 9824   0.705   2.003   5.303
 2975SOL    HW2 9825   0.759   1.855   5.260
 2976SOL     OW 9826   4.008   1.206   2.423
 2976SOL    HW1 9827   3.916   1.177   2.395
 2976SOL    HW2 9828   4.012   1.306   2.425
 2977SOL     OW 9829   1.713   0.276   4.264
 2977SOL    HW1 9830   1.779   0.321   4.204
 2977SOL    HW2 9831   1.714   0.178   4.246
 2978SOL     OW 9832   4.191   4.632   6.552
 2978SOL    HW1 9833   4.209   4.676   6.464
 2978SOL    HW2 9834   4.248   4.674   6.623
 2979SOL     OW 9835   4.551   6.672   4.071
 2979SOL    HW1 9836   4.616   6.621   4.127
 2979SOL    HW2 9837   4.590   6.760   4.046
 2980SOL     OW 9838   1.576   5.762   3.825
 2980SOL    HW1 9839   1.538   5.673   3.796
 2980SOL    HW2 9840   1.675   5.758   3.822
 2981SOL     OW 9841   0.822   0.312   5.531
 2981SOL    HW1 9842   0.879   0.279   5.606
 2981SOL    HW2 9843   0.880   0.326   5.450
 2982SOL     OW 9844   4.925   6.323   3.029
 2982SOL    HW1 9845   4.887   6.324   3.121
 2982SOL    HW2 9846   4.883   6.249   2.976
 2983SOL     OW 9847   0.567   1.230   4.299
 2983SOL    HW1 9848   0.657   1.196   4.275
 2983SOL    HW2 9849   0.555   1.323   4.262
 2984SOL     OW 9850   4.793   5.681   1.683
 2984SOL    HW1 9851   4.781   5.588   1.650
 2984SOL    HW2 9852   4.797   5.681   1.783
 2985SOL     OW 9853   0.841   2.419   5.295
 2985SOL    HW1 9854   0.921   2.478   5.307
 2985SOL    HW2 9855   0.870   2.323   5.295
 2986SOL     OW 9856   1.642   3.753   6.701
 2986SOL    HW1 9857   1.564   3.755   6.764
 2986SOL    HW2 9858   1.618   3.801   6.616
 2987SOL     OW 9859   4.642   0.947   3.557
 2987SOL    HW1 9860   4.732   0.917   3.525
 2987SOL    HW2 9861   4.645   1.045   3.578
 2988SOL     OW 9862   0.155   6.816   3.105
 2988SOL    HW1 9863   0.127   6.858   3.019
 2988SOL    HW2 9864   0.087   6.748   3.133
 2989SOL     OW 9865   6.643   6.011   1.098
 2989SOL    HW1 9866   6.709   5.947   1.139
 2989SOL    HW2 9867   6.692   6.088   1.058
 2990SOL     OW 9868   4.478   1.206   3.455
 2990SOL    HW1 9869   4.410   1.148   3.409
 2990SOL    HW2 9870   4.483   1.179   3.551
 2991SOL     OW 9871   6.776   4.023   0.446
 2991SOL    HW1 9872   6.844   4.072   0.500
 2991SOL    HW2 9873   6.685   4.059   0.466
 2992SOL     OW 9874   2.082   5.152   5.863
 2992SOL    HW1 9875   2.080   5.125   5.959
 2992SOL    HW2 9876   2.175   5.143   5.827
 2993SOL     OW 9877   1.228   4.878   2.012
 2993SOL    HW1 9878   1.240   4.883   1.913
 2993SOL    HW2 9879   1.241   4.968   2.052
 2994SOL     OW 9880   3.929   0.963   0.501
 2994SOL    HW1 9881   3.879   0.982   0.586
 2994SOL    HW2 9882   3.878   0.895   0.448
 2995SOL     OW 9883   0.855   3.000   0.020
 2995SOL    HW1 9884   0.928   3.043   0.074
 2995SOL    HW2 9885   0.873   3.014   6.947
 2996SOL     OW 9886   2.818   6.097   3.741
 2996SOL    HW1 9887   2.887   6.161   3.775
 2996SOL    HW2 9888   2.852   6.004   3.748
 2997SOL     OW 9889   4.682   6.633   2.219
 2997SOL    HW1 9890   4.778   6.638   2.248
 2997SOL    HW2 9891   4.649   6.539   2.230
 2998SOL     OW 9892   5.247   6.330   5.437
 2998SOL    HW1 9893   5.191   6.288   5.508
 2998SOL    HW2 9894   5.342   6.336   5.468
 2999SOL     OW 9895   3.664   5.672   4.015
 2999SOL    HW1 9896   3.698   5.655   4.107
 2999SOL    HW2 9897   3.700   5.602   3.953
 3000SOL     OW 9898   1.263   3.862   6.508
 3000SOL    HW1 9899   1.361   3.855   6.493
 3000SOL    HW2 9900   1.236   3.958   6.505
 3001SOL     OW 9901   5.520   0.157   6.812
 3001SOL    HW1 9902   5.450   0.226   6.792
 3001SOL    HW2 9903   5.485   0.093   6.880
 3002SOL     OW 9904   4.264   0.464   5.247
 3002SOL    HW1 9905   4.323   0.540   5.220
 3002SOL    HW2 9906   4.236   0.476   5.343
 3003SOL     OW 9907   2.588   6.572   6.655
 3003SOL    HW1 9908   2.616   6.560   6.560
 3003SOL    HW2 9909   2.555   6.665   6.669
 3004SOL     OW 9910   0.311   4.991   3.780
 3004SOL    HW1 9911   0.329   4.938   3.863
 3004SOL    HW2 9912   0.236   5.055   3.797
 3005SOL     OW 9913   3.344   2.382   0.655
 3005SOL    HW1 9914   3.397   2.430   0.725
 3005SOL    HW2 9915   3.257   2.351   0.695
 3006SOL     OW 9916   5.924   2.148   0.341
 3006SOL    HW1 9917   5.906   2.077   0.273
 3006SOL    HW2 9918   5.992   2.114   0.406
 3007SOL     OW 9919   6.248   5.086   2.315
 3007SOL    HW1 9920   6.246   5.157   2.245
 3007SOL    HW2 9921   6.198   5.006   2.283
 3008SOL     OW 9922   3.923   0.847   6.556
 3008SOL    HW1 9923   3.943   0.941   6.583
 3008SOL    HW2 9924   3.996   0.786   6.589
 3009SOL     OW 9925   0.784   6.364   2.619
 3009SOL    HW1 9926   0.739   6.424   2.552
 3009SOL    HW2 9927   0.881   6.386   2.624
 3010SOL     OW 9928   3.600   6.091   3.145
 3010SOL    HW1 9929   3.608   6.190   3.137
 3010SOL    HW2 9930   3.518   6.069   3.199
 3011SOL     OW 9931   5.492   0.820   0.431
 3011SOL    HW1 9932   5.577   0.870   0.449
 3011SOL    HW2 9933   5.437   0.871   0.365
 3012SOL     OW 9934   1.637   4.046   5.221
 3012SOL    HW1 9935   1.650   3.976   5.151
 3012SOL    HW2 9936   1.646   4.137   5.180
 3013SOL     OW 9937   5.687   5.711   3.989
 3013SOL    HW1 9938   5.766   5.657   4.019
 3013SOL    HW2 9939   5.638   5.747   4.068
 3014SOL     OW 9940   4.961   2.687   4.212
 3014SOL    HW1 9941   4.887   2.732   4.163
 3014SOL    HW2 9942   5.045   2.739   4.202
 3015SOL     OW 9943   3.545   2.152   0.729
 3015SOL    HW1 9944   3.571   2.107   0.644
 3015SOL    HW2 9945   3.592   2.240   0.736
 3016SOL     OW 9946   2.800   6.211   4.452
 3016SOL    HW1 9947   2.750   6.209   4.538
 3016SOL    HW2 9948   2.891   6.171   4.465
 3017SOL     OW 9949   1.131   5.367   1.848
 3017SOL    HW1 9950   1.061   5.317   1.901
 3017SOL    HW2 9951   1.137   5.461   1.882
 3018SOL     OW 9952   3.240   6.965   5.855
 3018SOL    HW1 9953   3.325   6.913   5.859
 3018SOL    HW2 9954   3.255   0.025   5.804
 3019SOL     OW 9955   2.449   6.740   0.757
 3019SOL    HW1 9956   2.503   6.776   0.681
 3019SOL    HW2 9957   2.509   6.693   0.821
 3020SOL     OW 9958   3.294   4.228   1.643
 3020SOL    HW1 9959   3.207   4.276   1.656
 3020SOL    HW2 9960   3.318   4.178   1.726
 3021SOL     OW 9961   2.053   1.533   0.456
 3021SOL    HW1 9962   1.992   1.465   0.414
 3021SOL    HW2 9963   2.148   1.511   0.432
 3022SOL     OW 9964   4.342   5.850   2.952
 3022SOL    HW1 9965   4.315   5.787   3.026
 3022SOL    HW2 9966   4.376   5.797   2.874
 3023SOL     OW 9967   4.012   6.470   2.650
 3023SOL    HW1 9968   3.946   6.463   2.725
 3023SOL    HW2 9969   3.970   6.436   2.566
 3024SOL     OW 9970   3.991   0.281   6.106
 3024SOL    HW1 9971   3.948   0.322   6.187
 3024SOL    HW2 9972   3.995   0.182   6.117
 3025SOL     OW 9973   3.490   2.544   0.102
 3025SOL    HW1 9974   3.429   2.469   0.078
 3025SOL    HW2 9975   3.533   2.580   0.019
 3026SOL     OW 9976   1.680   2.271   0.725
 3026SOL    HW1 9977   1.777   2.251   0.734
 3026SOL    HW2 9978   1.628   2.186   0.718
 3027SOL     OW 9979   4.330   0.763   1.620
 3027SOL    HW1 9980   4.252   0.718   1.578
 3027SOL    HW2 9981   4.399   0.784   1.551
 3028SOL     OW 9982   1.035   4.448   6.325
 3028SOL    HW1 9983   1.092   4.407   6.255
 3028SOL    HW2 9984   1.084   4.449   6.412
 3029SOL     OW 9985   0.420   4.954   5.023
 3029SOL    HW1 9986   0.364   4.873   5.010
 3029SOL    HW2 9987   0.377   5.014   5.091
 3030SOL     OW 9988   0.616   2.206   5.989
 3030SOL    HW1 9989   0.529   2.251   6.011
 3030SOL    HW2 9990   0.678   2.271   5.947
 3031SOL     OW 9991   0.108   3.849   0.836
 3031SOL    HW1 9992   0.102   3.774   0.902
 3031SOL    HW2 9993   0.024   3.854   0.782
 3032SOL     OW 9994   5.066   6.847   0.423
 3032SOL    HW1 9995   5.136   6.879   0.359
 3032SOL    HW2 9996   5.098   6.764   0.468
 3033SOL     OW 9997   1.337   2.477   1.007
 3033SOL    HW1 9998   1.247   2.441   1.031
 3033SOL    HW2 9999   1.327   2.558   0.950
 3034SOL     OW10000   2.245   6.249   3.989
 3034SOL    HW110001   2.238   6.322   4.057
 3034SOL    HW210002   2.237   6.160   4.034
 3035SOL     OW10003   6.652   2.858   0.299
 3035SOL    HW110004   6.715   2.909   0.358
 3035SOL    HW210005   6.647   2.903   0.210
 3036SOL     OW10006   1.521   3.166   6.854
 3036SOL    HW110007   1.575   3.225   6.794
 3036SOL    HW210008   1.582   3.118   6.917
 3037SOL     OW10009   6.041   5.758   5.035
 3037SOL    HW110010   6.106   5.745   5.110
 3037SOL    HW210011   5.954   5.715   5.058
 3038SOL     OW10012   5.698   6.737   6.716
 3038SOL    HW110013   5.770   6.676   6.684
 3038SOL    HW210014   5.638   6.761   6.640
 3039SOL     OW10015   6.595   3.785   2.414
 3039SOL    HW110016   6.657   3.748   2.346
 3039SOL    HW210017   6.514   3.727   2.421
 3040SOL     OW10018   5.156   3.721   6.299
 3040SOL    HW110019   5.066   3.760   6.283
 3040SOL    HW210020   5.181   3.732   6.395
 3041SOL     OW10021   2.265   2.419   5.496
 3041SOL    HW110022   2.308   2.463   5.418
 3041SOL    HW210023   2.208   2.485   5.545
 3042SOL     OW10024   5.677   6.729   2.017
 3042SOL    HW110025   5.649   6.733   2.113
 3042SOL    HW210026   5.601   6.756   1.959
 3043SOL     OW10027   0.777   5.346   1.056
 3043SOL    HW110028   0.735   5.255   1.049
 3043SOL    HW210029   0.866   5.345   1.012
 3044SOL     OW10030   2.727   4.649   6.051
 3044SOL    HW110031   2.701   4.733   6.002
 3044SOL    HW210032   2.781   4.674   6.132
 3045SOL     OW10033   4.853   0.723   2.580
 3045SOL    HW110034   4.800   0.775   2.647
 3045SOL    HW210035   4.790   0.679   2.516
 3046SOL     OW10036   2.115   2.275   5.776
 3046SOL    HW110037   2.031   2.323   5.802
 3046SOL    HW210038   2.095   2.178   5.763
 3047SOL     OW10039   5.033   5.944   2.514
 3047SOL    HW110040   5.084   5.902   2.589
 3047SOL    HW210041   4.945   5.978   2.548
 3048SOL     OW10042   3.558   2.852   1.524
 3048SOL    HW110043   3.543   2.758   1.554
 3048SOL    HW210044   3.527   2.915   1.595
 3049SOL     OW10045   1.444   6.170   1.488
 3049SOL    HW110046   1.371   6.102   1.475
 3049SOL    HW210047   1.509   6.163   1.412
 3050SOL     OW10048   3.428   0.606   3.824
 3050SOL    HW110049   3.511   0.659   3.807
 3050SOL    HW210050   3.348   0.665   3.813
 3051SOL     OW10051   2.699   3.307   6.781
 3051SOL    HW110052   2.778   3.325   6.840
 3051SOL    HW210053   2.709   3.218   6.738
 3052SOL     OW10054   4.180   0.805   2.091
 3052SOL    HW110055   4.183   0.879   2.023
 3052SOL    HW210056   4.119   0.732   2.058
 3053SOL     OW10057   6.645   0.679   6.472
 3053SOL    HW110058   6.641   0.583   6.500
 3053SOL    HW210059   6.740   0.704   6.453
 3054SOL     OW10060   0.594   2.852   0.969
 3054SOL    HW110061   0.571   2.825   0.875
 3054SOL    HW210062   0.666   2.922   0.966
 3055SOL     OW10063   4.785   6.836   3.641
 3055SOL    HW110064   4.777   6.748   3.593
 3055SOL    HW210065   4.737   6.907   3.589
 3056SOL     OW10066   0.019   0.259   6.068
 3056SOL    HW110067   0.050   0.352   6.048
 3056SOL    HW210068   6.987   0.226   5.992
 3057SOL     OW10069   4.442   5.675   2.714
 3057SOL    HW110070   4.511   5.651   2.782
 3057SOL    HW210071   4.427   5.597   2.653
 3058SOL     OW10072   6.832   5.323   1.429
 3058SOL    HW110073   6.833   5.258   1.353
 3058SOL    HW210074   6.747   5.375   1.428
 3059SOL     OW10075   1.761   2.274   5.259
 3059SOL    HW110076   1.740   2.360   5.306
 3059SOL    HW210077   1.856   2.276   5.227
 3060SOL     OW10078   0.638   6.036   0.398
 3060SOL    HW110079   0.652   6.031   0.299
 3060SOL    HW210080   0.598   6.125   0.422
 3061SOL     OW10081   6.335   1.060   4.909
 3061SOL    HW110082   6.358   1.113   4.828
 3061SOL    HW210083   6.240   1.028   4.904
 3062SOL     OW10084   1.656   0.010   0.154
 3062SOL    HW110085   1.634   0.102   0.123
 3062SOL    HW210086   1.599   7.011   0.233
 3063SOL     OW10087   3.099   5.461   1.761
 3063SOL    HW110088   3.177   5.437   1.819
 3063SOL    HW210089   3.120   5.438   1.666
 3064SOL     OW10090   6.071   3.513   3.741
 3064SOL    HW110091   6.124   3.466   3.669
 3064SOL    HW210092   5.994   3.561   3.699
 3065SOL     OW10093   1.784   0.720   6.761
 3065SOL    HW110094   1.737   0.807   6.759
 3065SOL    HW210095   1.719   0.646   6.744
 3066SOL     OW10096   5.678   4.651   0.871
 3066SOL    HW110097   5.763   4.678   0.825
 3066SOL    HW210098   5.670   4.552   0.872
 3067SOL     OW10099   3.400   1.699   4.302
 3067SOL    HW110100   3.389   1.613   4.353
 3067SOL    HW210101   3.354   1.773   4.351
 3068SOL     OW10102   5.526   6.160   0.555
 3068SOL    HW110103   5.605   6.148   0.615
 3068SOL    HW210104   5.457   6.216   0.601
 3069SOL     OW10105   6.825   6.049   1.687
 3069SOL    HW110106   6.844   5.972   1.626
 3069SOL    HW210107   6.764   6.114   1.640
 3070SOL     OW10108   1.902   1.222   2.368
 3070SOL    HW110109   1.893   1.171   2.454
 3070SOL    HW210110   1.996   1.212   2.334
 3071SOL     OW10111   6.206   6.251   3.702
 3071SOL    HW110112   6.126   6.268   3.760
 3071SOL    HW210113   6.264   6.332   3.702
 3072SOL     OW10114   0.575   7.002   0.741
 3072SOL    HW110115   0.580   6.928   0.808
 3072SOL    HW210116   0.495   0.035   0.760
 3073SOL     OW10117   0.540   3.217   5.187
 3073SOL    HW110118   0.525   3.131   5.139
 3073SOL    HW210119   0.538   3.201   5.286
 3074SOL     OW10120   5.855   2.915   0.668
 3074SOL    HW110121   5.760   2.915   0.636
 3074SOL    HW210122   5.915   2.884   0.595
 3075SOL     OW10123   1.925   6.155   1.257
 3075SOL    HW110124   2.005   6.137   1.199
 3075SOL    HW210125   1.945   6.232   1.318
 3076SOL     OW10126   6.486   0.940   4.126
 3076SOL    HW110127   6.511   0.875   4.199
 3076SOL    HW210128   6.389   0.964   4.136
 3077SOL     OW10129   5.297   5.100   3.064
 3077SOL    HW110130   5.206   5.062   3.077
 3077SOL    HW210131   5.344   5.050   2.992
 3078SOL     OW10132   2.039   3.041   1.166
 3078SOL    HW110133   2.088   3.053   1.080
 3078SOL    HW210134   2.053   3.122   1.224
 3079SOL     OW10135   2.096   2.807   4.471
 3079SOL    HW110136   2.027   2.776   4.405
 3079SOL    HW210137   2.050   2.854   4.546
 3080SOL     OW10138   5.521   4.668   3.067
 3080SOL    HW110139   5.509   4.622   3.155
 3080SOL    HW210140   5.555   4.761   3.082
 3081SOL     OW10141   0.436   4.155   6.005
 3081SOL    HW110142   0.351   4.197   6.036
 3081SOL    HW210143   0.428   4.056   6.012
 3082SOL     OW10144   3.883   6.292   3.286
 3082SOL    HW110145   3.846   6.372   3.332
 3082SOL    HW210146   3.837   6.280   3.197
 3083SOL     OW10147   4.042   6.496   3.631
 3083SOL    HW110148   4.140   6.499   3.653
 3083SOL    HW210149   4.020   6.572   3.571
 3084SOL     OW10150   4.711   4.797   4.482
 3084SOL    HW110151   4.664   4.866   4.426
 3084SOL    HW210152   4.657   4.778   4.564
 3085SOL     OW10153   0.695   4.850   2.360
 3085SOL    HW110154   0.673   4.813   2.451
 3085SOL    HW210155   0.751   4.785   2.310
 3086SOL     OW10156   3.962   1.731   1.439
 3086SOL    HW110157   3.908   1.792   1.497
 3086SOL    HW210158   3.901   1.679   1.380
 3087SOL     OW10159   0.614   5.116   3.995
 3087SOL    HW110160   0.671   5.104   3.915
 3087SOL    HW210161   0.558   5.198   3.985
 3088SOL     OW10162   2.327   5.020   5.338
 3088SOL    HW110163   2.411   5.035   5.390
 3088SOL    HW210164   2.320   4.923   5.314
 3089SOL     OW10165   0.829   2.813   0.429
 3089SOL    HW110166   0.891   2.891   0.421
 3089SOL    HW210167   0.735   2.842   0.411
 3090SOL     OW10168   1.956   2.194   1.930
 3090SOL    HW110169   1.905   2.274   1.897
 3090SOL    HW210170   2.009   2.219   2.011
 3091SOL     OW10171   2.641   6.245   7.003
 3091SOL    HW110172   2.686   6.160   6.973
 3091SOL    HW210173   2.685   6.323   6.959
 3092SOL     OW10174   4.905   0.230   6.649
 3092SOL    HW110175   4.944   0.250   6.739
 3092SOL    HW210176   4.861   0.312   6.613
 3093SOL     OW10177   5.646   4.789   5.896
 3093SOL    HW110178   5.651   4.694   5.927
 3093SOL    HW210179   5.598   4.793   5.809
 3094SOL     OW10180   3.474   6.785   4.810
 3094SOL    HW110181   3.478   6.688   4.786
 3094SOL    HW210182   3.391   6.804   4.862
 3095SOL     OW10183   2.502   5.156   4.048
 3095SOL    HW110184   2.407   5.183   4.059
 3095SOL    HW210185   2.543   5.141   4.138
 3096SOL     OW10186   0.668   0.221   4.177
 3096SOL    HW110187   0.711   0.240   4.089
 3096SOL    HW210188   0.703   0.285   4.246
 3097SOL     OW10189   0.719   2.161   1.132
 3097SOL    HW110190   0.747   2.225   1.060
 3097SOL    HW210191   0.800   2.121   1.175
 3098SOL     OW10192   2.450   3.596   1.367
 3098SOL    HW110193   2.451   3.583   1.466
 3098SOL    HW210194   2.440   3.693   1.347
 3099SOL     OW10195   6.807   5.997   5.154
 3099SOL    HW110196   6.867   6.062   5.107
 3099SOL    HW210197   6.818   6.007   5.253
 3100SOL     OW10198   6.548   0.357   4.515
 3100SOL    HW110199   6.586   0.364   4.607
 3100SOL    HW210200   6.507   0.445   4.489
 3101SOL     OW10201   4.856   6.129   5.400
 3101SOL    HW110202   4.904   6.210   5.365
 3101SOL    HW210203   4.894   6.047   5.357
 3102SOL     OW10204   1.037   5.167   2.617
 3102SOL    HW110205   0.972   5.093   2.633
 3102SOL    HW210206   1.130   5.135   2.636
 3103SOL     OW10207   3.241   1.696   1.308
 3103SOL    HW110208   3.331   1.654   1.298
 3103SOL    HW210209   3.182   1.668   1.233
 3104SOL     OW10210   5.934   0.176   4.358
 3104SOL    HW110211   6.009   0.234   4.329
 3104SOL    HW210212   5.965   0.081   4.365
 3105SOL     OW10213   6.806   5.124   2.717
 3105SOL    HW110214   6.745   5.156   2.789
 3105SOL    HW210215   6.806   5.024   2.715
 3106SOL     OW10216   6.742   1.379   2.995
 3106SOL    HW110217   6.824   1.348   2.945
 3106SOL    HW210218   6.718   1.311   3.064
 3107SOL     OW10219   3.544   0.302   4.190
 3107SOL    HW110220   3.504   0.372   4.132
 3107SOL    HW210221   3.489   0.218   4.184
 3108SOL     OW10222   1.655   0.572   4.320
 3108SOL    HW110223   1.657   0.472   4.320
 3108SOL    HW210224   1.734   0.607   4.369
 3109SOL     OW10225   5.799   5.813   2.974
 3109SOL    HW110226   5.825   5.905   3.005
 3109SOL    HW210227   5.878   5.752   2.978
 3110SOL     OW10228   0.919   1.792   3.750
 3110SOL    HW110229   1.014   1.764   3.741
 3110SOL    HW210230   0.860   1.714   3.729
 3111SOL     OW10231   6.444   5.584   4.038
 3111SOL    HW110232   6.468   5.610   4.132
 3111SOL    HW210233   6.408   5.663   3.989
 3112SOL     OW10234   5.078   2.349   6.548
 3112SOL    HW110235   5.154   2.390   6.497
 3112SOL    HW210236   5.039   2.274   6.495
 3113SOL     OW10237   1.683   7.006   4.432
 3113SOL    HW110238   1.740   7.014   4.350
 3113SOL    HW210239   1.726   0.032   4.507
 3114SOL     OW10240   4.642   2.997   0.030
 3114SOL    HW110241   4.721   3.022   0.086
 3114SOL    HW210242   4.560   2.994   0.087
 3115SOL     OW10243   5.049   3.710   0.235
 3115SOL    HW110244   4.977   3.666   0.183
 3115SOL    HW210245   5.127   3.647   0.243
 3116SOL     OW10246   0.227   3.705   0.181
 3116SOL    HW110247   0.200   3.609   0.191
 3116SOL    HW210248   0.216   3.733   0.086
 3117SOL     OW10249   4.491   3.605   5.336
 3117SOL    HW110250   4.544   3.563   5.263
 3117SOL    HW210251   4.485   3.703   5.321
 3118SOL     OW10252   0.199   4.634   6.737
 3118SOL    HW110253   0.217   4.649   6.834
 3118SOL    HW210254   0.150   4.713   6.699
 3119SOL     OW10255   1.988   3.964   5.917
 3119SOL    HW110256   2.011   3.912   5.835
 3119SOL    HW210257   1.982   4.061   5.895
 3120SOL     OW10258   2.224   6.434   4.219
 3120SOL    HW110259   2.164   6.512   4.234
 3120SOL    HW210260   2.200   6.361   4.283
 3121SOL     OW10261   0.387   1.658   2.549
 3121SOL    HW110262   0.335   1.578   2.519
 3121SOL    HW210263   0.340   1.741   2.517
 3122SOL     OW10264   2.890   5.966   5.909
 3122SOL    HW110265   2.956   6.011   5.969
 3122SOL    HW210266   2.834   5.903   5.962
 3123SOL     OW10267   3.227   6.516   3.414
 3123SOL    HW110268   3.309   6.564   3.385
 3123SOL    HW210269   3.214   6.434   3.358
 3124SOL     OW10270   4.003   0.125   4.672
 3124SOL    HW110271   3.985   0.063   4.748
 3124SOL    HW210272   3.970   0.216   4.695
 3125SOL     OW10273   5.989   2.148   6.137
 3125SOL    HW110274   5.988   2.172   6.040
 3125SOL    HW210275   6.074   2.101   6.160
 3126SOL     OW10276   5.217   4.350   6.615
 3126SOL    HW110277   5.264   4.313   6.696
 3126SOL    HW210278   5.242   4.296   6.535
 3127SOL     OW10279   0.521   2.484   3.246
 3127SOL    HW110280   0.541   2.572   3.202
 3127SOL    HW210281   0.549   2.488   3.342
 3128SOL     OW10282   2.169   6.904   6.789
 3128SOL    HW110283   2.195   6.890   6.693
 3128SOL    HW210284   2.226   6.847   6.847
 3129SOL     OW10285   0.581   4.317   6.470
 3129SOL    HW110286   0.581   4.252   6.393
 3129SOL    HW210287   0.667   4.369   6.469
 3130SOL     OW10288   2.306   4.347   2.308
 3130SOL    HW110289   2.309   4.248   2.293
 3130SOL    HW210290   2.225   4.370   2.362
 3131SOL     OW10291   0.529   3.120   1.757
 3131SOL    HW110292   0.623   3.123   1.792
 3131SOL    HW210293   0.523   3.051   1.684
 3132SOL     OW10294   4.915   5.897   5.793
 3132SOL    HW110295   4.866   5.983   5.808
 3132SOL    HW210296   5.009   5.918   5.765
 3133SOL     OW10297   2.617   2.240   3.820
 3133SOL    HW110298   2.580   2.148   3.807
 3133SOL    HW210299   2.636   2.255   3.917
 3134SOL     OW10300   5.287   4.072   1.995
 3134SOL    HW110301   5.257   4.024   2.078
 3134SOL    HW210302   5.348   4.146   2.020
 3135SOL     OW10303   4.629   1.846   4.832
 3135SOL    HW110304   4.728   1.851   4.817
 3135SOL    HW210305   4.582   1.892   4.756
 3136SOL     OW10306   6.306   6.455   5.452
 3136SOL    HW110307   6.394   6.493   5.422
 3136SOL    HW210308   6.234   6.488   5.390
 3137SOL     OW10309   5.385   0.590   3.615
 3137SOL    HW110310   5.464   0.529   3.617
 3137SOL    HW210311   5.386   0.648   3.696
 3138SOL     OW10312   6.512   1.824   4.201
 3138SOL    HW110313   6.506   1.726   4.178
 3138SOL    HW210314   6.513   1.835   4.300
 3139SOL     OW10315   4.940   0.008   6.046
 3139SOL    HW110316   4.850   6.995   6.022
 3139SOL    HW210317   4.944   0.023   6.145
 3140SOL     OW10318   6.209   6.223   6.302
 3140SOL    HW110319   6.174   6.130   6.318
 3140SOL    HW210320   6.136   6.289   6.317
 3141SOL     OW10321   0.718   0.001   6.049
 3141SOL    HW110322   0.631   0.039   6.018
 3141SOL    HW210323   0.712   7.004   6.146
 3142SOL     OW10324   4.958   6.211   0.656
 3142SOL    HW110325   5.031   6.165   0.706
 3142SOL    HW210326   4.908   6.144   0.602
 3143SOL     OW10327   6.634   2.613   7.018
 3143SOL    HW110328   6.686   2.561   0.061
 3143SOL    HW210329   6.593   2.693   0.038
 3144SOL     OW10330   2.664   3.650   0.817
 3144SOL    HW110331   2.690   3.591   0.892
 3144SOL    HW210332   2.746   3.684   0.770
 3145SOL     OW10333   2.275   5.581   2.780
 3145SOL    HW110334   2.230   5.575   2.691
 3145SOL    HW210335   2.374   5.591   2.767
 3146SOL     OW10336   1.177   6.309   3.346
 3146SOL    HW110337   1.079   6.291   3.335
 3146SOL    HW210338   1.223   6.301   3.258
 3147SOL     OW10339   4.073   5.260   6.458
 3147SOL    HW110340   4.078   5.180   6.398
 3147SOL    HW210341   4.068   5.343   6.401
 3148SOL     OW10342   4.215   5.544   4.564
 3148SOL    HW110343   4.218   5.643   4.550
 3148SOL    HW210344   4.280   5.500   4.501
 3149SOL     OW10345   2.922   0.325   5.251
 3149SOL    HW110346   2.989   0.363   5.188
 3149SOL    HW210347   2.967   0.262   5.314
 3150SOL     OW10348   5.377   5.820   4.424
 3150SOL    HW110349   5.298   5.773   4.464
 3150SOL    HW210350   5.425   5.870   4.496
 3151SOL     OW10351   4.610   1.495   6.798
 3151SOL    HW110352   4.666   1.455   6.726
 3151SOL    HW210353   4.579   1.586   6.770
 3152SOL     OW10354   1.262   5.073   1.506
 3152SOL    HW110355   1.182   5.110   1.459
 3152SOL    HW210356   1.334   5.143   1.507
 3153SOL     OW10357   6.327   4.287   1.822
 3153SOL    HW110358   6.332   4.262   1.726
 3153SOL    HW210359   6.254   4.355   1.835
 3154SOL     OW10360   6.072   1.589   0.299
 3154SOL    HW110361   6.052   1.515   0.363
 3154SOL    HW210362   6.021   1.671   0.325
 3155SOL     OW10363   0.298   5.252   1.227
 3155SOL    HW110364   0.315   5.275   1.131
 3155SOL    HW210365   0.243   5.169   1.232
 3156SOL     OW10366   3.801   3.367   3.684
 3156SOL    HW110367   3.861   3.292   3.710
 3156SOL    HW210368   3.717   3.331   3.643
 3157SOL     OW10369   2.099   3.124   4.961
 3157SOL    HW110370   2.085   3.027   4.943
 3157SOL    HW210371   2.142   3.136   5.051
 3158SOL     OW10372   4.686   0.416   1.269
 3158SOL    HW110373   4.596   0.407   1.312
 3158SOL    HW210374   4.714   0.329   1.229
 3159SOL     OW10375   5.060   6.365   6.918
 3159SOL    HW110376   4.968   6.404   6.909
 3159SOL    HW210377   5.107   6.368   6.830
 3160SOL     OW10378   6.132   5.276   6.070
 3160SOL    HW110379   6.212   5.313   6.023
 3160SOL    HW210380   6.126   5.315   6.162
 3161SOL     OW10381   1.069   1.414   2.564
 3161SOL    HW110382   1.166   1.406   2.544
 3161SOL    HW210383   1.051   1.389   2.659
 3162SOL     OW10384   0.699   5.085   6.998
 3162SOL    HW110385   0.754   5.005   6.976
 3162SOL    HW210386   0.757   5.154   0.017
 3163SOL     OW10387   3.496   2.755   6.096
 3163SOL    HW110388   3.407   2.768   6.138
 3163SOL    HW210389   3.534   2.667   6.125
 3164SOL     OW10390   4.800   4.032   1.487
 3164SOL    HW110391   4.795   3.954   1.425
 3164SOL    HW210392   4.714   4.038   1.539
 3165SOL     OW10393   1.700   6.482   1.557
 3165SOL    HW110394   1.603   6.470   1.576
 3165SOL    HW210395   1.753   6.422   1.618
 3166SOL     OW10396   4.792   2.559   6.429
 3166SOL    HW110397   4.856   2.579   6.355
 3166SOL    HW210398   4.776   2.460   6.433
 3167SOL     OW10399   6.518   4.926   2.107
 3167SOL    HW110400   6.447   4.863   2.139
 3167SOL    HW210401   6.574   4.955   2.184
 3168SOL     OW10402   5.093   2.923   0.628
 3168SOL    HW110403   5.049   2.836   0.608
 3168SOL    HW210404   5.161   2.910   0.700
 3169SOL     OW10405   0.656   3.550   6.103
 3169SOL    HW110406   0.624   3.533   6.010
 3169SOL    HW210407   0.623   3.639   6.134
 3170SOL     OW10408   3.896   0.200   0.174
 3170SOL    HW110409   3.939   0.110   0.165
 3170SOL    HW210410   3.842   0.203   0.258
 3171SOL     OW10411   6.783   6.640   1.401
 3171SOL    HW110412   6.813   6.730   1.432
 3171SOL    HW210413   6.842   6.609   1.326
 3172SOL     OW10414   6.991   6.160   5.001
 3172SOL    HW110415   0.016   6.244   4.980
 3172SOL    HW210416   6.915   6.148   4.937
 3173SOL     OW10417   2.987   0.720   1.428
 3173SOL    HW110418   2.940   0.647   1.379
 3173SOL    HW210419   2.921   0.793   1.450
 3174SOL     OW10420   2.457   3.132   6.367
 3174SOL    HW110421   2.495   3.199   6.302
 3174SOL    HW210422   2.418   3.181   6.445
 3175SOL     OW10423   0.827   6.750   6.609
 3175SOL    HW110424   0.879   6.739   6.525
 3175SOL    HW210425   0.769   6.832   6.602
 3176SOL     OW10426   1.806   4.760   5.874
 3176SOL    HW110427   1.898   4.753   5.835
 3176SOL    HW210428   1.739   4.726   5.807
 3177SOL     OW10429   5.654   5.503   5.717
 3177SOL    HW110430   5.730   5.442   5.740
 3177SOL    HW210431   5.661   5.586   5.772
 3178SOL     OW10432   6.797   3.881   1.852
 3178SOL    HW110433   6.827   3.967   1.893
 3178SOL    HW210434   6.705   3.860   1.886
 3179SOL     OW10435   2.109   2.291   2.122
 3179SOL    HW110436   2.059   2.236   2.189
 3179SOL    HW210437   2.106   2.387   2.149
 3180SOL     OW10438   4.224   0.909   6.223
 3180SOL    HW110439   4.124   0.903   6.221
 3180SOL    HW210440   4.252   1.005   6.224
 3181SOL     OW10441   0.592   0.773   3.700
 3181SOL    HW110442   0.660   0.837   3.664
 3181SOL    HW210443   0.506   0.784   3.649
 3182SOL     OW10444   0.715   0.581   5.378
 3182SOL    HW110445   0.666   0.540   5.454
 3182SOL    HW210446   0.811   0.553   5.382
 3183SOL     OW10447   3.951   4.443   1.385
 3183SOL    HW110448   3.876   4.458   1.320
 3183SOL    HW210449   3.929   4.367   1.445
 3184SOL     OW10450   2.755   1.859   2.000
 3184SOL    HW110451   2.728   1.955   2.011
 3184SOL    HW210452   2.850   1.848   2.028
 3185SOL     OW10453   6.624   0.662   5.434
 3185SOL    HW110454   6.658   0.661   5.528
 3185SOL    HW210455   6.603   0.756   5.407
 3186SOL     OW10456   3.605   0.903   3.535
 3186SOL    HW110457   3.607   0.814   3.579
 3186SOL    HW210458   3.595   0.975   3.605
 3187SOL     OW10459   3.958   4.085   6.756
 3187SOL    HW110460   4.033   4.144   6.785
 3187SOL    HW210461   3.964   3.998   6.805
 3188SOL     OW10462   3.768   6.073   2.920
 3188SOL    HW110463   3.867   6.080   2.920
 3188SOL    HW210464   3.733   6.082   3.013
 3189SOL     OW10465   2.095   1.248   2.750
 3189SOL    HW110466   2.170   1.314   2.740
 3189SOL    HW210467   2.022   1.287   2.805
 3190SOL     OW10468   1.139   6.460   0.997
 3190SOL    HW110469   1.132   6.365   1.026
 3190SOL    HW210470   1.049   6.492   0.966
 3191SOL     OW10471   3.496   0.623   1.282
 3191SOL    HW110472   3.578   0.648   1.333
 3191SOL    HW210473   3.415   0.659   1.328
 3192SOL     OW10474   0.606   1.965   0.912
 3192SOL    HW110475   0.597   2.025   0.991
 3192SOL    HW210476   0.635   1.874   0.941
 3193SOL     OW10477   4.455   2.224   6.008
 3193SOL    HW110478   4.533   2.190   6.061
 3193SOL    HW210479   4.486   2.252   5.917
 3194SOL     OW10480   1.580   2.968   6.513
 3194SOL    HW110481   1.540   3.032   6.446
 3194SOL    HW210482   1.506   2.925   6.565
 3195SOL     OW10483   1.664   2.312   3.491
 3195SOL    HW110484   1.758   2.279   3.482
 3195SOL    HW210485   1.640   2.366   3.410
 3196SOL     OW10486   6.847   0.161   4.908
 3196SOL    HW110487   6.819   0.077   4.862
 3196SOL    HW210488   6.925   0.143   4.968
 3197SOL     OW10489   1.416   5.851   2.601
 3197SOL    HW110490   1.340   5.868   2.538
 3197SOL    HW210491   1.494   5.812   2.550
 3198SOL     OW10492   6.900   2.027   6.829
 3198SOL    HW110493   6.822   1.994   6.777
 3198SOL    HW210494   6.940   1.951   6.881
 3199SOL     OW10495   4.681   2.380   1.747
 3199SOL    HW110496   4.758   2.443   1.753
 3199SOL    HW210497   4.609   2.409   1.810
 3200SOL     OW10498   0.169   2.848   0.818
 3200SOL    HW110499   0.243   2.906   0.851
 3200SOL    HW210500   0.148   2.778   0.887
 3201SOL     OW10501   5.254   3.444   3.904
 3201SOL    HW110502   5.263   3.345   3.890
 3201SOL    HW210503   5.262   3.464   4.002
 3202SOL     OW10504   1.911   4.463   2.295
 3202SOL    HW110505   1.973   4.417   2.359
 3202SOL    HW210506   1.902   4.408   2.212
 3203SOL     OW10507   6.313   0.883   1.066
 3203SOL    HW110508   6.271   0.971   1.046
 3203SOL    HW210509   6.272   0.844   1.149
 3204SOL     OW10510   6.058   5.269   1.612
 3204SOL    HW110511   6.068   5.369   1.609
 3204SOL    HW210512   6.034   5.235   1.521
 3205SOL     OW10513   6.785   4.489   6.691
 3205SOL    HW110514   6.831   4.488   6.602
 3205SOL    HW210515   6.777   4.396   6.726
 3206SOL     OW10516   0.072   0.006   5.760
 3206SOL    HW110517   0.060   6.935   5.785
 3206SOL    HW210518   7.007   0.051   5.756
 3207SOL     OW10519   0.641   1.442   5.651
 3207SOL    HW110520   0.604   1.404   5.566
 3207SOL    HW210521   0.667   1.537   5.636
 3208SOL     OW10522   4.361   5.769   5.112
 3208SOL    HW110523   4.435   5.789   5.047
 3208SOL    HW210524   4.401   5.757   5.203
 3209SOL     OW10525   3.046   6.772   3.886
 3209SOL    HW110526   2.973   6.707   3.870
 3209SOL    HW210527   3.061   6.827   3.803
 3210SOL     OW10528   0.600   3.510   2.504
 3210SOL    HW110529   0.537   3.565   2.448
 3210SOL    HW210530   0.597   3.542   2.599
 3211SOL     OW10531   2.595   4.016   0.699
 3211SOL    HW110532   2.594   4.037   0.797
 3211SOL    HW210533   2.578   4.100   0.647
 3212SOL     OW10534   4.575   2.037   6.657
 3212SOL    HW110535   4.579   2.124   6.608
 3212SOL    HW210536   4.522   1.971   6.603
 3213SOL     OW10537   6.274   5.406   2.769
 3213SOL    HW110538   6.245   5.399   2.864
 3213SOL    HW210539   6.346   5.339   2.751
 3214SOL     OW10540   4.512   6.124   6.932
 3214SOL    HW110541   4.447   6.127   6.857
 3214SOL    HW210542   4.600   6.161   6.902
 3215SOL     OW10543   6.339   3.092   0.960
 3215SOL    HW110544   6.423   3.132   0.926
 3215SOL    HW210545   6.359   3.004   1.003
 3216SOL     OW10546   5.806   5.891   3.278
 3216SOL    HW110547   5.708   5.909   3.285
 3216SOL    HW210548   5.846   5.952   3.208
 3217SOL     OW10549   1.302   4.425   3.300
 3217SOL    HW110550   1.366   4.483   3.351
 3217SOL    HW210551   1.209   4.459   3.313
 3218SOL     OW10552   4.072   6.707   3.447
 3218SOL    HW110553   4.048   6.719   3.351
 3218SOL    HW210554   4.061   6.794   3.495
 3219SOL     OW10555   6.829   0.345   3.175
 3219SOL    HW110556   6.802   0.424   3.229
 3219SOL    HW210557   6.911   0.368   3.122
 3220SOL     OW10558   0.054   4.671   5.048
 3220SOL    HW110559   0.047   4.614   5.131
 3220SOL    HW210560   0.150   4.690   5.028
 3221SOL     OW10561   2.481   6.264   2.506
 3221SOL    HW110562   2.408   6.206   2.542
 3221SOL    HW210563   2.535   6.213   2.439
 3222SOL     OW10564   4.803   1.723   3.030
 3222SOL    HW110565   4.830   1.759   3.119
 3222SOL    HW210566   4.881   1.675   2.989
 3223SOL     OW10567   2.923   5.109   6.544
 3223SOL    HW110568   2.879   5.178   6.601
 3223SOL    HW210569   3.018   5.135   6.529
 3224SOL     OW10570   4.472   5.300   6.635
 3224SOL    HW110571   4.508   5.341   6.719
 3224SOL    HW210572   4.526   5.219   6.611
 3225SOL     OW10573   4.437   3.107   6.381
 3225SOL    HW110574   4.426   3.119   6.479
 3225SOL    HW210575   4.350   3.126   6.335
 3226SOL     OW10576   2.199   0.932   4.152
 3226SOL    HW110577   2.243   0.891   4.232
 3226SOL    HW210578   2.225   1.028   4.145
 3227SOL     OW10579   3.651   1.950   6.350
 3227SOL    HW110580   3.644   2.047   6.330
 3227SOL    HW210581   3.560   1.911   6.360
 3228SOL     OW10582   6.396   3.395   4.134
 3228SOL    HW110583   6.491   3.402   4.164
 3228SOL    HW210584   6.392   3.400   4.034
 3229SOL     OW10585   3.623   2.249   5.968
 3229SOL    HW110586   3.567   2.296   5.899
 3229SOL    HW210587   3.719   2.278   5.957
 3230SOL     OW10588   0.460   1.303   3.167
 3230SOL    HW110589   0.465   1.248   3.250
 3230SOL    HW210590   0.479   1.399   3.188
 3231SOL     OW10591   5.004   5.792   1.167
 3231SOL    HW110592   4.994   5.705   1.120
 3231SOL    HW210593   5.070   5.783   1.241
 3232SOL     OW10594   4.169   4.887   4.914
 3232SOL    HW110595   4.180   4.851   5.006
 3232SOL    HW210596   4.238   4.956   4.896
 3233SOL     OW10597   1.081   4.288   1.490
 3233SOL    HW110598   1.045   4.202   1.525
 3233SOL    HW210599   1.136   4.271   1.408
 3234SOL     OW10600   6.886   2.220   0.551
 3234SOL    HW110601   6.897   2.131   0.507
 3234SOL    HW210602   6.974   2.267   0.553
 3235SOL     OW10603   5.626   6.393   2.880
 3235SOL    HW110604   5.588   6.478   2.843
 3235SOL    HW210605   5.706   6.366   2.827
 3236SOL     OW10606   1.798   2.843   2.050
 3236SOL    HW110607   1.708   2.828   2.011
 3236SOL    HW210608   1.862   2.775   2.013
 3237SOL     OW10609   4.891   6.471   4.583
 3237SOL    HW110610   4.841   6.557   4.594
 3237SOL    HW210611   4.848   6.416   4.511
 3238SOL     OW10612   0.471   5.976   6.822
 3238SOL    HW110613   0.451   5.892   6.772
 3238SOL    HW210614   0.551   5.963   6.880
 3239SOL     OW10615   6.445   0.609   6.808
 3239SOL    HW110616   6.374   0.541   6.792
 3239SOL    HW210617   6.466   0.657   6.723
 3240SOL     OW10618   0.586   6.689   4.506
 3240SOL    HW110619   0.508   6.751   4.519
 3240SOL    HW210620   0.650   6.701   4.582
 3241SOL     OW10621   4.836   1.198   3.986
 3241SOL    HW110622   4.755   1.143   4.002
 3241SOL    HW210623   4.918   1.140   3.993
 3242SOL     OW10624   3.501   5.463   6.671
 3242SOL    HW110625   3.576   5.516   6.710
 3242SOL    HW210626   3.497   5.478   6.573
 3243SOL     OW10627   4.840   5.142   0.164
 3243SOL    HW110628   4.754   5.119   0.119
 3243SOL    HW210629   4.821   5.185   0.252
 3244SOL     OW10630   4.519   6.094   6.150
 3244SOL    HW110631   4.514   5.997   6.126
 3244SOL    HW210632   4.612   6.118   6.177
 3245SOL     OW10633   4.178   3.174   6.301
 3245SOL    HW110634   4.123   3.214   6.227
 3245SOL    HW210635   4.141   3.084   6.325
 3246SOL     OW10636   5.682   6.970   2.513
 3246SOL    HW110637   5.679   0.044   2.531
 3246SOL    HW210638   5.687   6.954   2.414
 3247SOL     OW10639   0.414   3.459   3.881
 3247SOL    HW110640   0.365   3.508   3.954
 3247SOL    HW210641   0.349   3.406   3.827
 3248SOL     OW10642   6.289   3.764   2.299
 3248SOL    HW110643   6.285   3.721   2.209
 3248SOL    HW210644   6.339   3.850   2.293
 3249SOL     OW10645   3.620   4.970   5.268
 3249SOL    HW110646   3.696   4.912   5.297
 3249SOL    HW210647   3.593   4.946   5.175
 3250SOL     OW10648   5.163   6.668   2.572
 3250SOL    HW110649   5.149   6.736   2.645
 3250SOL    HW210650   5.146   6.577   2.608
 3251SOL     OW10651   3.881   1.410   3.084
 3251SOL    HW110652   3.877   1.345   3.008
 3251SOL    HW210653   3.975   1.441   3.095
 3252SOL     OW10654   3.248   1.114   2.973
 3252SOL    HW110655   3.309   1.138   2.897
 3252SOL    HW210656   3.160   1.161   2.961
 3253SOL     OW10657   4.514   2.877   1.377
 3253SOL    HW110658   4.418   2.892   1.401
 3253SOL    HW210659   4.540   2.941   1.305
 3254SOL     OW10660   3.718   4.903   3.839
 3254SOL    HW110661   3.778   4.906   3.759
 3254SOL    HW210662   3.732   4.816   3.887
 3255SOL     OW10663   4.531   5.775   0.437
 3255SOL    HW110664   4.630   5.771   0.425
 3255SOL    HW210665   4.486   5.748   0.352
 3256SOL     OW10666   5.569   6.618   5.645
 3256SOL    HW110667   5.583   6.713   5.617
 3256SOL    HW210668   5.634   6.559   5.598
 3257SOL     OW10669   1.535   1.826   1.004
 3257SOL    HW110670   1.604   1.803   1.072
 3257SOL    HW210671   1.565   1.797   0.914
 3258SOL     OW10672   4.900   6.720   1.593
 3258SOL    HW110673   4.873   6.752   1.683
 3258SOL    HW210674   4.951   6.791   1.546
 3259SOL     OW10675   4.431   6.378   4.186
 3259SOL    HW110676   4.382   6.391   4.100
 3259SOL    HW210677   4.388   6.433   4.258
 3260SOL     OW10678   1.667   1.280   0.542
 3260SOL    HW110679   1.570   1.265   0.522
 3260SOL    HW210680   1.716   1.193   0.541
 3261SOL     OW10681   4.056   0.159   0.927
 3261SOL    HW110682   4.089   0.140   1.019
 3261SOL    HW210683   4.133   0.181   0.867
 3262SOL     OW10684   3.543   1.434   3.573
 3262SOL    HW110685   3.559   1.525   3.534
 3262SOL    HW210686   3.614   1.371   3.541
 3263SOL     OW10687   4.205   6.858   2.936
 3263SOL    HW110688   4.235   6.815   2.851
 3263SOL    HW210689   4.246   6.948   2.944
 3264SOL     OW10690   0.201   5.645   0.137
 3264SOL    HW110691   0.240   5.612   0.051
 3264SOL    HW210692   0.245   5.731   0.162
 3265SOL     OW10693   4.093   2.054   6.315
 3265SOL    HW110694   4.042   2.098   6.241
 3265SOL    HW210695   4.181   2.022   6.279
 3266SOL     OW10696   6.651   2.958   0.054
 3266SOL    HW110697   6.721   2.934   7.010
 3266SOL    HW210698   6.572   2.999   0.008
 3267SOL     OW10699   3.385   2.174   1.175
 3267SOL    HW110700   3.400   2.088   1.226
 3267SOL    HW210701   3.288   2.197   1.178
 3268SOL     OW10702   1.631   4.246   0.404
 3268SOL    HW110703   1.716   4.230   0.454
 3268SOL    HW210704   1.593   4.158   0.376
 3269SOL     OW10705   4.743   4.589   1.255
 3269SOL    HW110706   4.803   4.533   1.197
 3269SOL    HW210707   4.679   4.529   1.304
 3270SOL     OW10708   0.453   5.394   3.637
 3270SOL    HW110709   0.373   5.344   3.605
 3270SOL    HW210710   0.491   5.448   3.562
 3271SOL     OW10711   6.036   2.389   2.290
 3271SOL    HW110712   6.097   2.329   2.343
 3271SOL    HW210713   6.068   2.395   2.196
 3272SOL     OW10714   3.882   0.487   0.456
 3272SOL    HW110715   3.825   0.568   0.472
 3272SOL    HW210716   3.832   0.421   0.401
 3273SOL     OW10717   0.999   6.122   2.058
 3273SOL    HW110718   0.994   6.179   1.975
 3273SOL    HW210719   1.029   6.030   2.033
 3274SOL     OW10720   2.898   1.840   5.481
 3274SOL    HW110721   2.890   1.904   5.557
 3274SOL    HW210722   2.909   1.890   5.395
 3275SOL     OW10723   1.969   0.229   6.860
 3275SOL    HW110724   2.063   0.204   6.835
 3275SOL    HW210725   1.930   0.158   6.919
 3276SOL     OW10726   3.153   5.216   6.934
 3276SOL    HW110727   3.241   5.215   6.981
 3276SOL    HW210728   3.112   5.125   6.937
 3277SOL     OW10729   0.046   6.739   6.307
 3277SOL    HW110730   6.998   6.682   6.267
 3277SOL    HW210731   0.047   6.828   6.262
 3278SOL     OW10732   0.821   1.230   5.450
 3278SOL    HW110733   0.773   1.148   5.419
 3278SOL    HW210734   0.779   1.311   5.409
 3279SOL     OW10735   0.052   0.092   1.221
 3279SOL    HW110736   0.028   0.034   1.144
 3279SOL    HW210737   0.125   0.156   1.195
 3280SOL     OW10738   2.813   5.016   6.316
 3280SOL    HW110739   2.714   5.007   6.302
 3280SOL    HW210740   2.830   5.061   6.404
 3281SOL     OW10741   2.269   4.821   0.270
 3281SOL    HW110742   2.362   4.788   0.257
 3281SOL    HW210743   2.244   4.881   0.194
 3282SOL     OW10744   2.638   5.724   4.384
 3282SOL    HW110745   2.681   5.636   4.361
 3282SOL    HW210746   2.606   5.722   4.479
 3283SOL     OW10747   3.336   0.973   3.444
 3283SOL    HW110748   3.323   1.036   3.368
 3283SOL    HW210749   3.430   0.938   3.443
 3284SOL     OW10750   0.579   6.297   6.603
 3284SOL    HW110751   0.574   6.316   6.701
 3284SOL    HW210752   0.662   6.244   6.583
 3285SOL     OW10753   6.992   2.785   2.897
 3285SOL    HW110754   6.991   2.885   2.907
 3285SOL    HW210755   6.913   2.747   2.945
 3286SOL     OW10756   3.749   3.798   4.411
 3286SOL    HW110757   3.830   3.813   4.354
 3286SOL    HW210758   3.732   3.878   4.467
 3287SOL     OW10759   2.080   5.244   0.025
 3287SOL    HW110760   2.100   5.235   0.123
 3287SOL    HW210761   2.136   5.318   7.011
 3288SOL     OW10762   0.851   6.159   6.578
 3288SOL    HW110763   0.872   6.234   6.640
 3288SOL    HW210764   0.890   6.074   6.614
 3289SOL     OW10765   0.988   5.551   5.506
 3289SOL    HW110766   1.042   5.482   5.458
 3289SOL    HW210767   0.927   5.597   5.441
 3290SOL     OW10768   0.444   5.731   1.258
 3290SOL    HW110769   0.464   5.817   1.210
 3290SOL    HW210770   0.349   5.731   1.288
 3291SOL     OW10771   1.816   6.234   6.431
 3291SOL    HW110772   1.793   6.204   6.523
 3291SOL    HW210773   1.915   6.234   6.419
 3292SOL     OW10774   0.048   0.264   6.336
 3292SOL    HW110775   0.031   0.267   6.237
 3292SOL    HW210776   0.145   0.248   6.353
 3293SOL     OW10777   0.101   1.250   3.252
 3293SOL    HW110778   0.156   1.265   3.169
 3293SOL    HW210779   0.041   1.172   3.238
 3294SOL     OW10780   6.524   0.307   6.288
 3294SOL    HW110781   6.591   0.270   6.353
 3294SOL    HW210782   6.512   0.242   6.212
 3295SOL     OW10783   2.635   2.218   0.785
 3295SOL    HW110784   2.700   2.243   0.713
 3295SOL    HW210785   2.682   2.165   0.856
 3296SOL     OW10786   2.159   0.604   2.330
 3296SOL    HW110787   2.218   0.570   2.256
 3296SOL    HW210788   2.184   0.698   2.352
 3297SOL     OW10789   3.059   2.275   5.417
 3297SOL    HW110790   3.084   2.367   5.387
 3297SOL    HW210791   3.119   2.208   5.373
 3298SOL     OW10792   6.801   3.365   3.126
 3298SOL    HW110793   6.793   3.461   3.154
 3298SOL    HW210794   6.892   3.350   3.086
 3299SOL     OW10795   1.453   6.965   4.756
 3299SOL    HW110796   1.493   0.033   4.752
 3299SOL    HW210797   1.512   6.906   4.811
 3300SOL     OW10798   6.142   6.906   5.246
 3300SOL    HW110799   6.062   6.939   5.197
 3300SOL    HW210800   6.213   6.976   5.248
 3301SOL     OW10801   0.771   3.894   3.479
 3301SOL    HW110802   0.862   3.877   3.517
 3301SOL    HW210803   0.745   3.818   3.419
 3302SOL     OW10804   1.461   5.212   4.144
 3302SOL    HW110805   1.485   5.213   4.241
 3302SOL    HW210806   1.490   5.298   4.102
 3303SOL     OW10807   3.379   3.001   2.954
 3303SOL    HW110808   3.294   2.976   2.906
 3303SOL    HW210809   3.368   3.091   2.996
 3304SOL     OW10810   0.916   5.656   3.629
 3304SOL    HW110811   0.831   5.621   3.668
 3304SOL    HW210812   0.994   5.623   3.681
 3305SOL     OW10813   1.572   1.292   2.014
 3305SOL    HW110814   1.583   1.324   1.920
 3305SOL    HW210815   1.645   1.229   2.037
 3306SOL     OW10816   2.232   4.066   3.429
 3306SOL    HW110817   2.327   4.095   3.423
 3306SOL    HW210818   2.214   4.029   3.520
 3307SOL     OW10819   7.015   6.048   0.474
 3307SOL    HW110820   0.013   6.016   0.381
 3307SOL    HW210821   6.950   6.123   0.469
 3308SOL     OW10822   4.362   6.306   0.371
 3308SOL    HW110823   4.312   6.356   0.442
 3308SOL    HW210824   4.450   6.276   0.408
 3309SOL     OW10825   1.338   5.211   3.608
 3309SOL    HW110826   1.392   5.170   3.681
 3309SOL    HW210827   1.394   5.278   3.558
 3310SOL     OW10828   0.295   4.392   2.765
 3310SOL    HW110829   0.345   4.305   2.762
 3310SOL    HW210830   0.316   4.440   2.849
 3311SOL     OW10831   3.749   6.453   1.423
 3311SOL    HW110832   3.786   6.503   1.501
 3311SOL    HW210833   3.670   6.501   1.386
 3312SOL     OW10834   3.138   4.140   5.782
 3312SOL    HW110835   3.077   4.131   5.702
 3312SOL    HW210836   3.182   4.230   5.779
 3313SOL     OW10837   1.270   5.564   3.580
 3313SOL    HW110838   1.226   5.525   3.500
 3313SOL    HW210839   1.309   5.653   3.556
 3314SOL     OW10840   1.622   3.176   5.358
 3314SOL    HW110841   1.604   3.224   5.444
 3314SOL    HW210842   1.720   3.178   5.338
 3315SOL     OW10843   6.806   2.274   3.906
 3315SOL    HW110844   6.794   2.182   3.869
 3315SOL    HW210845   6.721   2.326   3.895
 3316SOL     OW10846   4.645   2.112   6.172
 3316SOL    HW110847   4.581   2.087   6.245
 3316SOL    HW210848   4.736   2.078   6.195
 3317SOL     OW10849   4.636   2.780   1.789
 3317SOL    HW110850   4.614   2.874   1.815
 3317SOL    HW210851   4.660   2.778   1.691
 3318SOL     OW10852   2.702   5.832   6.068
 3318SOL    HW110853   2.617   5.828   6.015
 3318SOL    HW210854   2.706   5.754   6.130
 3319SOL     OW10855   0.430   6.811   3.926
 3319SOL    HW110856   0.512   6.754   3.929
 3319SOL    HW210857   0.407   6.831   3.830
 3320SOL     OW10858   5.794   1.477   5.535
 3320SOL    HW110859   5.697   1.454   5.542
 3320SOL    HW210860   5.843   1.434   5.611
 3321SOL     OW10861   3.496   2.919   2.632
 3321SOL    HW110862   3.549   2.923   2.547
 3321SOL    HW210863   3.552   2.883   2.706
 3322SOL     OW10864   3.980   2.146   0.671
 3322SOL    HW110865   4.043   2.124   0.746
 3322SOL    HW210866   4.014   2.227   0.623
 3323SOL     OW10867   1.827   4.361   6.622
 3323SOL    HW110868   1.846   4.355   6.524
 3323SOL    HW210869   1.790   4.452   6.643
 3324SOL     OW10870   1.105   3.700   0.506
 3324SOL    HW110871   1.087   3.715   0.409
 3324SOL    HW210872   1.022   3.665   0.550
 3325SOL     OW10873   1.371   2.665   0.432
 3325SOL    HW110874   1.371   2.582   0.488
 3325SOL    HW210875   1.387   2.640   0.336
 3326SOL     OW10876   6.191   2.084   1.398
 3326SOL    HW110877   6.165   2.012   1.334
 3326SOL    HW210878   6.280   2.121   1.372
 3327SOL     OW10879   2.479   6.789   2.129
 3327SOL    HW110880   2.483   6.884   2.099
 3327SOL    HW210881   2.433   6.734   2.059
 3328SOL     OW10882   4.838   0.990   1.888
 3328SOL    HW110883   4.845   1.084   1.854
 3328SOL    HW210884   4.825   0.991   1.987
 3329SOL     OW10885   4.002   0.820   5.506
 3329SOL    HW110886   4.007   0.734   5.556
 3329SOL    HW210887   3.907   0.843   5.489
 3330SOL     OW10888   5.936   6.878   2.271
 3330SOL    HW110889   5.889   6.919   2.192
 3330SOL    HW210890   6.008   6.817   2.239
 3331SOL     OW10891   2.098   3.614   3.091
 3331SOL    HW110892   2.141   3.632   3.180
 3331SOL    HW210893   2.117   3.691   3.030
 3332SOL     OW10894   4.560   5.084   0.118
 3332SOL    HW110895   4.511   5.155   0.169
 3332SOL    HW210896   4.499   5.044   0.050
 3333SOL     OW10897   3.135   3.344   1.339
 3333SOL    HW110898   3.131   3.324   1.437
 3333SOL    HW210899   3.150   3.259   1.288
 3334SOL     OW10900   1.977   2.558   2.427
 3334SOL    HW110901   1.962   2.612   2.345
 3334SOL    HW210902   2.067   2.515   2.423
 3335SOL     OW10903   3.253   4.352   5.554
 3335SOL    HW110904   3.343   4.354   5.510
 3335SOL    HW210905   3.182   4.356   5.484
 3336SOL     OW10906   3.466   6.905   3.885
 3336SOL    HW110907   3.555   6.923   3.844
 3336SOL    HW210908   3.475   6.830   3.951
 3337SOL     OW10909   3.250   3.664   2.509
 3337SOL    HW110910   3.186   3.676   2.585
 3337SOL    HW210911   3.251   3.568   2.481
 3338SOL     OW10912   1.343   1.625   1.288
 3338SOL    HW110913   1.326   1.603   1.192
 3338SOL    HW210914   1.441   1.635   1.303
 3339SOL     OW10915   2.170   0.457   5.362
 3339SOL    HW110916   2.135   0.395   5.292
 3339SOL    HW210917   2.269   0.447   5.370
 3340SOL     OW10918   4.384   1.253   3.758
 3340SOL    HW110919   4.359   1.343   3.795
 3340SOL    HW210920   4.450   1.210   3.820
 3341SOL     OW10921   2.689   4.626   2.379
 3341SOL    HW110922   2.716   4.659   2.289
 3341SOL    HW210923   2.605   4.572   2.371
 3342SOL     OW10924   6.105   0.333   2.880
 3342SOL    HW110925   6.109   0.430   2.903
 3342SOL    HW210926   6.009   0.305   2.873
 3343SOL     OW10927   4.788   5.384   6.780
 3343SOL    HW110928   4.800   5.287   6.799
 3343SOL    HW210929   4.877   5.429   6.775
 3344SOL     OW10930   6.970   2.534   1.381
 3344SOL    HW110931   7.009   2.573   1.465
 3344SOL    HW210932   6.917   2.605   1.334
 3345SOL     OW10933   0.906   4.626   0.832
 3345SOL    HW110934   0.916   4.723   0.855
 3345SOL    HW210935   0.988   4.576   0.860
 3346SOL     OW10936   2.703   0.813   6.580
 3346SOL    HW110937   2.603   0.818   6.569
 3346SOL    HW210938   2.742   0.765   6.501
 3347SOL     OW10939   0.641   3.257   6.615
 3347SOL    HW110940   0.635   3.316   6.535
 3347SOL    HW210941   0.696   3.302   6.685
 3348SOL     OW10942   3.899   3.499   6.172
 3348SOL    HW110943   3.967   3.542   6.232
 3348SOL    HW210944   3.933   3.410   6.141
 3349SOL     OW10945   2.544   4.587   3.860
 3349SOL    HW110946   2.517   4.682   3.846
 3349SOL    HW210947   2.579   4.549   3.775
 3350SOL     OW10948   0.293   4.139   5.317
 3350SOL    HW110949   0.258   4.233   5.307
 3350SOL    HW210950   0.243   4.078   5.256
 3351SOL     OW10951   5.021   0.377   0.652
 3351SOL    HW110952   5.055   0.468   0.678
 3351SOL    HW210953   5.083   0.307   0.687
 3352SOL     OW10954   5.465   2.331   0.008
 3352SOL    HW110955   5.521   2.407   6.999
 3352SOL    HW210956   5.521   2.269   0.063
 3353SOL     OW10957   2.347   0.795   1.619
 3353SOL    HW110958   2.391   0.884   1.621
 3353SOL    HW210959   2.269   0.794   1.681
 3354SOL     OW10960   3.935   3.074   5.653
 3354SOL    HW110961   3.921   3.079   5.752
 3354SOL    HW210962   3.921   3.165   5.613
 3355SOL     OW10963   2.054   1.361   5.105
 3355SOL    HW110964   2.150   1.379   5.123
 3355SOL    HW210965   2.043   1.319   5.015
 3356SOL     OW10966   1.325   6.640   5.997
 3356SOL    HW110967   1.321   6.636   5.897
 3356SOL    HW210968   1.391   6.573   6.030
 3357SOL     OW10969   2.947   3.729   2.288
 3357SOL    HW110970   3.026   3.790   2.280
 3357SOL    HW210971   2.940   3.673   2.205
 3358SOL     OW10972   6.099   1.333   2.905
 3358SOL    HW110973   6.170   1.310   2.839
 3358SOL    HW210974   6.088   1.433   2.909
 3359SOL     OW10975   0.069   5.573   4.064
 3359SOL    HW110976   7.022   5.624   4.016
 3359SOL    HW210977   0.034   5.541   4.153
 3360SOL     OW10978   0.032   2.906   5.676
 3360SOL    HW110979   0.002   2.901   5.581
 3360SOL    HW210980   6.984   2.948   5.732
 3361SOL     OW10981   0.160   0.591   4.314
 3361SOL    HW110982   0.148   0.642   4.229
 3361SOL    HW210983   0.229   0.636   4.371
 3362SOL     OW10984   3.813   2.131   3.944
 3362SOL    HW110985   3.717   2.121   3.919
 3362SOL    HW210986   3.821   2.175   4.033
 3363SOL     OW10987   6.132   2.916   0.851
 3363SOL    HW110988   6.210   2.964   0.890
 3363SOL    HW210989   6.062   2.901   0.921
 3364SOL     OW10990   2.142   4.735   2.974
 3364SOL    HW110991   2.200   4.787   2.910
 3364SOL    HW210992   2.173   4.751   3.067
 3365SOL     OW10993   2.111   3.379   4.851
 3365SOL    HW110994   2.085   3.294   4.896
 3365SOL    HW210995   2.119   3.452   4.919
 3366SOL     OW10996   0.222   3.454   4.740
 3366SOL    HW110997   0.161   3.381   4.709
 3366SOL    HW210998   0.271   3.424   4.822
 3367SOL     OW10999   3.450   3.243   4.197
 3367SOL    HW111000   3.416   3.337   4.204
 3367SOL    HW211001   3.456   3.217   4.101
 3368SOL     OW11002   1.802   6.093   6.671
 3368SOL    HW111003   1.805   5.996   6.648
 3368SOL    HW211004   1.882   6.116   6.726
 3369SOL     OW11005   4.155   1.818   1.263
 3369SOL    HW111006   4.079   1.787   1.320
 3369SOL    HW211007   4.221   1.743   1.250
 3370SOL     OW11008   0.131   5.493   1.620
 3370SOL    HW111009   0.164   5.579   1.658
 3370SOL    HW211010   0.192   5.463   1.547
 3371SOL     OW11011   2.090   3.188   3.148
 3371SOL    HW111012   2.125   3.100   3.182
 3371SOL    HW211013   2.105   3.259   3.216
 3372SOL     OW11014   6.822   2.728   1.051
 3372SOL    HW111015   6.863   2.636   1.057
 3372SOL    HW211016   6.891   2.796   1.075
 3373SOL     OW11017   0.181   1.588   1.670
 3373SOL    HW111018   0.196   1.684   1.694
 3373SOL    HW211019   0.090   1.559   1.701
 3374SOL     OW11020   0.819   6.931   3.442
 3374SOL    HW111021   0.882   7.007   3.425
 3374SOL    HW211022   0.750   6.928   3.369
 3375SOL     OW11023   6.889   5.303   6.824
 3375SOL    HW111024   6.919   5.374   6.761
 3375SOL    HW211025   6.884   5.340   6.917
 3376SOL     OW11026   2.377   3.471   5.626
 3376SOL    HW111027   2.287   3.441   5.593
 3376SOL    HW211028   2.446   3.455   5.555
 3377SOL     OW11029   6.603   4.960   3.745
 3377SOL    HW111030   6.520   4.950   3.691
 3377SOL    HW211031   6.640   5.052   3.731
 3378SOL     OW11032   1.491   6.822   6.922
 3378SOL    HW111033   1.420   6.768   6.876
 3378SOL    HW211034   1.449   6.876   6.995
 3379SOL     OW11035   1.108   3.480   4.398
 3379SOL    HW111036   1.139   3.392   4.361
 3379SOL    HW211037   1.023   3.506   4.352
 3380SOL     OW11038   3.869   4.315   5.624
 3380SOL    HW111039   3.803   4.366   5.569
 3380SOL    HW211040   3.848   4.326   5.721
 3381SOL     OW11041   0.962   2.638   1.231
 3381SOL    HW111042   1.026   2.694   1.179
 3381SOL    HW211043   0.914   2.576   1.168
 3382SOL     OW11044   6.928   2.477   0.988
 3382SOL    HW111045   6.882   2.485   0.900
 3382SOL    HW211046   6.913   2.385   1.025
 3383SOL     OW11047   3.810   4.543   6.899
 3383SOL    HW111048   3.852   4.585   6.818
 3383SOL    HW211049   3.716   4.517   6.878
 3384SOL     OW11050   3.171   4.289   0.470
 3384SOL    HW111051   3.134   4.202   0.503
 3384SOL    HW211052   3.143   4.363   0.530
 3385SOL     OW11053   0.600   2.498   3.815
 3385SOL    HW111054   0.526   2.565   3.806
 3385SOL    HW211055   0.642   2.483   3.725
 3386SOL     OW11056   6.796   4.782   6.644
 3386SOL    HW111057   6.747   4.786   6.558
 3386SOL    HW211058   6.786   4.692   6.685
 3387SOL     OW11059   5.850   0.526   3.003
 3387SOL    HW111060   5.876   0.535   2.907
 3387SOL    HW211061   5.930   0.502   3.058
 3388SOL     OW11062   5.124   3.551   1.667
 3388SOL    HW111063   5.107   3.634   1.720
 3388SOL    HW211064   5.174   3.575   1.583
 3389SOL     OW11065   6.164   6.525   0.490
 3389SOL    HW111066   6.067   6.527   0.466
 3389SOL    HW211067   6.183   6.443   0.544
 3390SOL     OW11068   3.610   6.760   6.042
 3390SOL    HW111069   3.563   6.675   6.063
 3390SOL    HW211070   3.576   6.797   5.955
 3391SOL     OW11071   5.751   3.331   3.401
 3391SOL    HW111072   5.691   3.365   3.473
 3391SOL    HW211073   5.712   3.247   3.362
 3392SOL     OW11074   4.087   0.192   5.015
 3392SOL    HW111075   4.031   0.116   4.983
 3392SOL    HW211076   4.167   0.201   4.956
 3393SOL     OW11077   5.163   6.977   0.982
 3393SOL    HW111078   5.209   6.992   1.070
 3393SOL    HW211079   5.162   6.879   0.963
 3394SOL     OW11080   3.438   5.591   0.890
 3394SOL    HW111081   3.499   5.526   0.936
 3394SOL    HW211082   3.376   5.542   0.830
 3395SOL     OW11083   4.162   0.240   3.290
 3395SOL    HW111084   4.233   0.286   3.343
 3395SOL    HW211085   4.085   0.302   3.276
 3396SOL     OW11086   5.221   2.258   3.792
 3396SOL    HW111087   5.225   2.357   3.778
 3396SOL    HW211088   5.147   2.236   3.855
 3397SOL     OW11089   2.482   5.683   6.211
 3397SOL    HW111090   2.419   5.750   6.250
 3397SOL    HW211091   2.550   5.656   6.280
 3398SOL     OW11092   0.310   1.962   5.635
 3398SOL    HW111093   0.314   2.048   5.685
 3398SOL    HW211094   0.344   1.888   5.693
 3399SOL     OW11095   0.531   4.461   3.534
 3399SOL    HW111096   0.463   4.428   3.469
 3399SOL    HW211097   0.493   4.538   3.586
 3400SOL     OW11098   5.535   2.670   5.338
 3400SOL    HW111099   5.469   2.666   5.412
 3400SOL    HW211100   5.493   2.712   5.257
 3401SOL     OW11101   6.738   3.830   6.194
 3401SOL    HW111102   6.739   3.742   6.242
 3401SOL    HW211103   6.660   3.833   6.132
 3402SOL     OW11104   6.775   4.878   1.072
 3402SOL    HW111105   6.761   4.976   1.086
 3402SOL    HW211106   6.699   4.827   1.114
 3403SOL     OW11107   4.703   6.371   6.413
 3403SOL    HW111108   4.788   6.395   6.366
 3403SOL    HW211109   4.701   6.417   6.502
 3404SOL     OW11110   4.923   3.286   5.840
 3404SOL    HW111111   4.917   3.335   5.927
 3404SOL    HW211112   4.972   3.200   5.853
 3405SOL     OW11113   4.817   6.443   6.020
 3405SOL    HW111114   4.864   6.490   5.945
 3405SOL    HW211115   4.884   6.411   6.086
 3406SOL     OW11116   2.121   3.900   2.290
 3406SOL    HW111117   2.173   3.972   2.245
 3406SOL    HW211118   2.120   3.818   2.233
 3407SOL     OW11119   2.158   3.864   1.041
 3407SOL    HW111120   2.095   3.854   1.119
 3407SOL    HW211121   2.166   3.961   1.017
 3408SOL     OW11122   4.833   2.430   3.669
 3408SOL    HW111123   4.780   2.346   3.655
 3408SOL    HW211124   4.882   2.423   3.756
 3409SOL     OW11125   4.367   0.559   0.619
 3409SOL    HW111126   4.356   0.644   0.569
 3409SOL    HW211127   4.429   0.573   0.696
 3410SOL     OW11128   5.572   6.781   2.277
 3410SOL    HW111129   5.636   6.755   2.349
 3410SOL    HW211130   5.492   6.825   2.318
 3411SOL     OW11131   6.605   1.681   1.145
 3411SOL    HW111132   6.584   1.679   1.243
 3411SOL    HW211133   6.700   1.653   1.130
 3412SOL     OW11134   5.364   3.310   1.513
 3412SOL    HW111135   5.454   3.274   1.489
 3412SOL    HW211136   5.355   3.313   1.612
 3413SOL     OW11137   7.015   2.281   6.814
 3413SOL    HW111138   6.962   2.214   6.762
 3413SOL    HW211139   6.986   2.373   6.787
 3414SOL     OW11140   3.849   2.804   0.592
 3414SOL    HW111141   3.936   2.827   0.637
 3414SOL    HW211142   3.786   2.766   0.659
 3415SOL     OW11143   2.529   2.561   4.304
 3415SOL    HW111144   2.480   2.627   4.360
 3415SOL    HW211145   2.546   2.478   4.357
 3416SOL     OW11146   6.405   6.909   0.098
 3416SOL    HW111147   6.457   6.935   0.180
 3416SOL    HW211148   6.384   6.811   0.102
 3417SOL     OW11149   7.016   7.002   3.329
 3417SOL    HW111150   0.060   6.983   3.259
 3417SOL    HW211151   6.954   6.924   3.338
 3418SOL     OW11152   4.729   4.994   2.280
 3418SOL    HW111153   4.725   4.999   2.380
 3418SOL    HW211154   4.640   5.017   2.242
 3419SOL     OW11155   3.355   5.450   6.236
 3419SOL    HW111156   3.315   5.365   6.203
 3419SOL    HW211157   3.287   5.501   6.289
 3420SOL     OW11158   4.720   2.818   3.842
 3420SOL    HW111159   4.691   2.758   3.768
 3420SOL    HW211160   4.759   2.902   3.803
 3421SOL     OW11161   5.771   2.013   3.061
 3421SOL    HW111162   5.679   1.975   3.059
 3421SOL    HW211163   5.816   1.989   3.147
 3422SOL     OW11164   2.326   6.932   0.887
 3422SOL    HW111165   2.384   6.866   0.838
 3422SOL    HW211166   2.359   0.000   0.870
 3423SOL     OW11167   0.898   4.347   5.525
 3423SOL    HW111168   0.911   4.355   5.426
 3423SOL    HW211169   0.947   4.266   5.558
 3424SOL     OW11170   4.748   6.662   1.344
 3424SOL    HW111171   4.794   6.672   1.256
 3424SOL    HW211172   4.817   6.660   1.417
 3425SOL     OW11173   5.532   3.938   1.516
 3425SOL    HW111174   5.516   3.928   1.614
 3425SOL    HW211175   5.590   3.863   1.484
 3426SOL     OW11176   5.745   3.798   0.536
 3426SOL    HW111177   5.673   3.763   0.596
 3426SOL    HW211178   5.833   3.792   0.583
 3427SOL     OW11179   1.112   2.336   1.068
 3427SOL    HW111180   1.136   2.241   1.051
 3427SOL    HW211181   1.058   2.371   0.991
 3428SOL     OW11182   5.078   6.184   5.573
 3428SOL    HW111183   5.112   6.098   5.612
 3428SOL    HW211184   4.987   6.169   5.534
 3429SOL     OW11185   0.412   0.480   1.131
 3429SOL    HW111186   0.446   0.552   1.192
 3429SOL    HW211187   0.484   0.453   1.067
 3430SOL     OW11188   2.531   4.827   5.450
 3430SOL    HW111189   2.544   4.806   5.547
 3430SOL    HW211190   2.571   4.916   5.429
 3431SOL     OW11191   2.818   6.135   2.628
 3431SOL    HW111192   2.851   6.157   2.536
 3431SOL    HW211193   2.744   6.068   2.622
 3432SOL     OW11194   2.552   4.219   0.356
 3432SOL    HW111195   2.583   4.125   0.368
 3432SOL    HW211196   2.616   4.268   0.297
 3433SOL     OW11197   2.302   1.303   6.691
 3433SOL    HW111198   2.314   1.349   6.778
 3433SOL    HW211199   2.337   1.361   6.617
 3434SOL     OW11200   3.238   2.010   1.611
 3434SOL    HW111201   3.257   2.025   1.708
 3434SOL    HW211202   3.263   1.916   1.586
 3435SOL     OW11203   2.199   0.390   0.452
 3435SOL    HW111204   2.117   0.368   0.400
 3435SOL    HW211205   2.183   0.473   0.506
 3436SOL     OW11206   4.182   5.842   0.383
 3436SOL    HW111207   4.197   5.751   0.421
 3436SOL    HW211208   4.178   5.909   0.457
 3437SOL     OW11209   1.500   6.431   6.073
 3437SOL    HW111210   1.494   6.378   6.158
 3437SOL    HW211211   1.448   6.384   6.002
 3438SOL     OW11212   1.044   4.214   1.011
 3438SOL    HW111213   0.999   4.165   1.086
 3438SOL    HW211214   1.003   4.187   0.924
 3439SOL     OW11215   2.200   5.829   2.659
 3439SOL    HW111216   2.155   5.814   2.746
 3439SOL    HW211217   2.275   5.763   2.648
 3440SOL     OW11218   3.922   3.177   4.292
 3440SOL    HW111219   4.005   3.133   4.259
 3440SOL    HW211220   3.862   3.198   4.214
 3441SOL     OW11221   5.066   5.522   5.672
 3441SOL    HW111222   5.112   5.453   5.728
 3441SOL    HW211223   5.134   5.574   5.621
 3442SOL     OW11224   3.251   3.231   1.821
 3442SOL    HW111225   3.202   3.181   1.892
 3442SOL    HW211226   3.332   3.274   1.860
 3443SOL     OW11227   2.805   5.813   2.344
 3443SOL    HW111228   2.870   5.740   2.323
 3443SOL    HW211229   2.783   5.811   2.442
 3444SOL     OW11230   5.462   4.310   1.709
 3444SOL    HW111231   5.431   4.380   1.644
 3444SOL    HW211232   5.383   4.271   1.756
 3445SOL     OW11233   6.722   4.724   3.703
 3445SOL    HW111234   6.706   4.656   3.775
 3445SOL    HW211235   6.676   4.809   3.726
 3446SOL     OW11236   5.596   0.575   1.368
 3446SOL    HW111237   5.540   0.607   1.445
 3446SOL    HW211238   5.578   0.631   1.287
 3447SOL     OW11239   4.938   0.444   0.125
 3447SOL    HW111240   4.926   0.384   0.204
 3447SOL    HW211241   4.935   0.539   0.155
 3448SOL     OW11242   1.546   6.282   4.693
 3448SOL    HW111243   1.614   6.280   4.619
 3448SOL    HW211244   1.584   6.331   4.772
 3449SOL     OW11245   6.389   4.972   5.020
 3449SOL    HW111246   6.366   5.054   5.072
 3449SOL    HW211247   6.481   4.942   5.045
 3450SOL     OW11248   1.391   0.156   6.940
 3450SOL    HW111249   1.471   0.188   6.990
 3450SOL    HW211250   1.353   0.231   6.886
 3451SOL     OW11251   1.764   6.155   0.574
 3451SOL    HW111252   1.792   6.241   0.533
 3451SOL    HW211253   1.837   6.087   0.562
 3452SOL     OW11254   5.187   0.531   5.430
 3452SOL    HW111255   5.255   0.602   5.451
 3452SOL    HW211256   5.114   0.535   5.497
 3453SOL     OW11257   4.950   6.510   5.805
 3453SOL    HW111258   5.011   6.589   5.798
 3453SOL    HW211259   4.913   6.488   5.715
 3454SOL     OW11260   1.263   2.203   2.920
 3454SOL    HW111261   1.294   2.244   2.834
 3454SOL    HW211262   1.221   2.114   2.901
 3455SOL     OW11263   1.919   3.193   5.331
 3455SOL    HW111264   2.018   3.177   5.330
 3455SOL    HW211265   1.895   3.247   5.411
 3456SOL     OW11266   4.625   4.539   2.629
 3456SOL    HW111267   4.534   4.575   2.610
 3456SOL    HW211268   4.628   4.441   2.610
 3457SOL     OW11269   4.180   5.598   5.012
 3457SOL    HW111270   4.087   5.624   5.039
 3457SOL    HW211271   4.245   5.639   5.076
 3458SOL     OW11272   4.369   1.530   2.494
 3458SOL    HW111273   4.380   1.433   2.518
 3458SOL    HW211274   4.341   1.538   2.399
 3459SOL     OW11275   4.023   0.885   2.929
 3459SOL    HW111276   3.939   0.867   2.981
 3459SOL    HW211277   4.060   0.974   2.957
 3460SOL     OW11278   3.967   1.784   5.704
 3460SOL    HW111279   3.985   1.763   5.608
 3460SOL    HW211280   4.036   1.848   5.738
 3461SOL     OW11281   5.401   4.666   0.107
 3461SOL    HW111282   5.363   4.599   0.172
 3461SOL    HW211283   5.477   4.714   0.150
 3462SOL     OW11284   2.356   3.248   6.575
 3462SOL    HW111285   2.272   3.302   6.568
 3462SOL    HW211286   2.409   3.279   6.654
 3463SOL     OW11287   6.633   4.312   1.532
 3463SOL    HW111288   6.606   4.341   1.440
 3463SOL    HW211289   6.730   4.332   1.546
 3464SOL     OW11290   6.885   4.868   5.921
 3464SOL    HW111291   6.881   4.948   5.860
 3464SOL    HW211292   6.807   4.809   5.904
 3465SOL     OW11293   1.735   0.765   1.779
 3465SOL    HW111294   1.810   0.830   1.792
 3465SOL    HW211295   1.742   0.725   1.687
 3466SOL     OW11296   6.541   4.170   5.693
 3466SOL    HW111297   6.481   4.171   5.773
 3466SOL    HW211298   6.546   4.077   5.656
 3467SOL     OW11299   2.032   2.488   6.424
 3467SOL    HW111300   2.113   2.502   6.366
 3467SOL    HW211301   2.039   2.545   6.506
 3468SOL     OW11302   3.518   6.407   3.650
 3468SOL    HW111303   3.584   6.415   3.724
 3468SOL    HW211304   3.473   6.494   3.635
 3469SOL     OW11305   6.352   2.413   3.255
 3469SOL    HW111306   6.321   2.321   3.279
 3469SOL    HW211307   6.402   2.409   3.168
 3470SOL     OW11308   0.359   5.594   0.998
 3470SOL    HW111309   0.413   5.623   0.919
 3470SOL    HW211310   0.373   5.659   1.073
 3471SOL     OW11311   4.057   5.896   4.930
 3471SOL    HW111312   4.146   5.872   4.970
 3471SOL    HW211313   4.064   5.985   4.885
 3472SOL     OW11314   2.641   0.714   4.496
 3472SOL    HW111315   2.638   0.802   4.543
 3472SOL    HW211316   2.733   0.699   4.460
 3473SOL     OW11317   6.220   1.300   6.268
 3473SOL    HW111318   6.259   1.282   6.177
 3473SOL    HW211319   6.236   1.395   6.293
 3474SOL     OW11320   3.940   5.214   2.132
 3474SOL    HW111321   3.862   5.152   2.119
 3474SOL    HW211322   3.996   5.215   2.048
 3475SOL     OW11323   1.117   5.669   4.314
 3475SOL    HW111324   1.076   5.714   4.234
 3475SOL    HW211325   1.079   5.708   4.397
 3476SOL     OW11326   4.380   0.799   4.483
 3476SOL    HW111327   4.356   0.869   4.550
 3476SOL    HW211328   4.390   0.711   4.528
 3477SOL     OW11329   3.902   6.235   1.508
 3477SOL    HW111330   3.996   6.233   1.475
 3477SOL    HW211331   3.846   6.291   1.447
 3478SOL     OW11332   3.617   5.481   6.042
 3478SOL    HW111333   3.552   5.424   6.093
 3478SOL    HW211334   3.685   5.423   5.998
 3479SOL     OW11335   1.032   0.238   1.805
 3479SOL    HW111336   0.949   0.232   1.749
 3479SOL    HW211337   1.082   0.152   1.799
 3480SOL     OW11338   6.955   1.663   3.808
 3480SOL    HW111339   7.009   1.721   3.869
 3480SOL    HW211340   6.879   1.716   3.771
 3481SOL     OW11341   2.740   6.906   6.558
 3481SOL    HW111342   2.696   6.837   6.615
 3481SOL    HW211343   2.688   6.992   6.564
 3482SOL     OW11344   6.397   2.405   1.211
 3482SOL    HW111345   6.408   2.306   1.217
 3482SOL    HW211346   6.383   2.431   1.115
 3483SOL     OW11347   2.195   0.475   1.333
 3483SOL    HW111348   2.125   0.546   1.333
 3483SOL    HW211349   2.229   0.462   1.427
 3484SOL     OW11350   3.016   3.133   3.718
 3484SOL    HW111351   3.068   3.050   3.700
 3484SOL    HW211352   3.003   3.144   3.816
 3485SOL     OW11353   1.402   2.595   5.388
 3485SOL    HW111354   1.352   2.681   5.386
 3485SOL    HW211355   1.348   2.525   5.434
 3486SOL     OW11356   4.425   1.959   1.626
 3486SOL    HW111357   4.363   2.005   1.562
 3486SOL    HW211358   4.452   1.871   1.588
 3487SOL     OW11359   5.837   1.891   6.088
 3487SOL    HW111360   5.818   1.968   6.149
 3487SOL    HW211361   5.912   1.916   6.026
 3488SOL     OW11362   5.942   3.615   3.949
 3488SOL    HW111363   5.941   3.538   4.013
 3488SOL    HW211364   5.984   3.586   3.863
 3489SOL     OW11365   3.722   0.034   1.232
 3489SOL    HW111366   3.658   7.011   1.171
 3489SOL    HW211367   3.762   0.112   1.185
 3490SOL     OW11368   5.170   3.953   0.427
 3490SOL    HW111369   5.169   4.007   0.511
 3490SOL    HW211370   5.131   4.007   0.353
 3491SOL     OW11371   0.301   3.012   5.603
 3491SOL    HW111372   0.366   3.054   5.666
 3491SOL    HW211373   0.215   2.996   5.650
 3492SOL     OW11374   0.144   5.338   6.501
 3492SOL    HW111375   0.110   5.255   6.456
 3492SOL    HW211376   0.229   5.316   6.549
 3493SOL     OW11377   6.092   5.231   1.317
 3493SOL    HW111378   6.146   5.309   1.348
 3493SOL    HW211379   6.152   5.159   1.283
 3494SOL     OW11380   3.399   0.079   1.641
 3494SOL    HW111381   3.468   0.120   1.581
 3494SOL    HW211382   3.328   0.035   1.586
 3495SOL     OW11383   4.395   5.203   1.732
 3495SOL    HW111384   4.325   5.162   1.674
 3495SOL    HW211385   4.473   5.232   1.676
 3496SOL     OW11386   1.934   2.977   0.506
 3496SOL    HW111387   1.900   2.913   0.437
 3496SOL    HW211388   1.970   2.926   0.584
 3497SOL     OW11389   4.240   1.054   3.390
 3497SOL    HW111390   4.198   0.973   3.431
 3497SOL    HW211391   4.176   1.130   3.393
 3498SOL     OW11392   2.363   1.181   0.955
 3498SOL    HW111393   2.429   1.256   0.946
 3498SOL    HW211394   2.284   1.212   1.007
 3499SOL     OW11395   0.062   2.976   4.687
 3499SOL    HW111396   0.133   2.915   4.653
 3499SOL    HW211397   7.010   2.922   4.725
 3500SOL     OW11398   6.575   4.189   6.378
 3500SOL    HW111399   6.504   4.133   6.335
 3500SOL    HW211400   6.589   4.158   6.473
 3501SOL     OW11401   1.801   4.494   4.940
 3501SOL    HW111402   1.721   4.553   4.946
 3501SOL    HW211403   1.859   4.508   5.020
 3502SOL     OW11404   0.372   1.894   1.373
 3502SOL    HW111405   0.288   1.901   1.318
 3502SOL    HW211406   0.447   1.937   1.322
 3503SOL     OW11407   4.602   5.994   5.399
 3503SOL    HW111408   4.528   6.014   5.464
 3503SOL    HW211409   4.677   6.059   5.413
 3504SOL     OW11410   2.695   3.410   1.382
 3504SOL    HW111411   2.681   3.316   1.351
 3504SOL    HW211412   2.628   3.470   1.337
 3505SOL     OW11413   5.172   5.926   5.651
 3505SOL    HW111414   5.251   5.924   5.589
 3505SOL    HW211415   5.163   5.837   5.696
 3506SOL     OW11416   4.086   5.092   3.782
 3506SOL    HW111417   4.072   5.167   3.718
 3506SOL    HW211418   4.018   5.096   3.855
 3507SOL     OW11419   1.057   0.545   6.829
 3507SOL    HW111420   1.101   0.475   6.772
 3507SOL    HW211421   1.097   0.543   6.921
 3508SOL     OW11422   5.656   3.619   0.274
 3508SOL    HW111423   5.571   3.591   0.318
 3508SOL    HW211424   5.688   3.705   0.313
 3509SOL     OW11425   6.642   6.106   6.657
 3509SOL    HW111426   6.575   6.177   6.635
 3509SOL    HW211427   6.724   6.119   6.603
 3510SOL     OW11428   2.296   2.359   1.803
 3510SOL    HW111429   2.356   2.435   1.776
 3510SOL    HW211430   2.281   2.362   1.902
 3511SOL     OW11431   0.042   2.653   6.926
 3511SOL    HW111432   0.024   2.579   6.991
 3511SOL    HW211433   0.050   2.740   6.976
 3512SOL     OW11434   2.511   3.361   0.379
 3512SOL    HW111435   2.548   3.333   0.291
 3512SOL    HW211436   2.504   3.282   0.440
 3513SOL     OW11437   6.924   4.102   1.448
 3513SOL    HW111438   6.982   4.116   1.528
 3513SOL    HW211439   6.857   4.029   1.466
 3514SOL     OW11440   0.879   6.542   0.956
 3514SOL    HW111441   0.837   6.565   1.043
 3514SOL    HW211442   0.826   6.581   0.881
 3515SOL     OW11443   3.220   6.188   3.013
 3515SOL    HW111444   3.263   6.226   2.931
 3515SOL    HW211445   3.173   6.103   2.991
 3516SOL     OW11446   3.021   1.494   0.111
 3516SOL    HW111447   3.088   1.451   0.049
 3516SOL    HW211448   2.977   1.423   0.166
 3517SOL     OW11449   1.071   1.404   6.873
 3517SOL    HW111450   0.993   1.407   6.811
 3517SOL    HW211451   1.129   1.326   6.851
 3518SOL     OW11452   4.903   3.352   6.400
 3518SOL    HW111453   4.999   3.379   6.404
 3518SOL    HW211454   4.847   3.433   6.382
 3519SOL     OW11455   1.733   6.986   6.409
 3519SOL    HW111456   1.722   6.929   6.328
 3519SOL    HW211457   1.757   0.055   6.382
 3520SOL     OW11458   4.134   5.435   0.821
 3520SOL    HW111459   4.095   5.451   0.912
 3520SOL    HW211460   4.129   5.337   0.800
 3521SOL     OW11461   5.360   2.178   1.872
 3521SOL    HW111462   5.422   2.189   1.794
 3521SOL    HW211463   5.267   2.165   1.840
 3522SOL     OW11464   3.396   5.492   2.254
 3522SOL    HW111465   3.397   5.566   2.187
 3522SOL    HW211466   3.308   5.446   2.251
 3523SOL     OW11467   2.888   4.846   4.952
 3523SOL    HW111468   2.845   4.766   4.995
 3523SOL    HW211469   2.922   4.908   5.023
 3524SOL     OW11470   2.661   0.146   0.503
 3524SOL    HW111471   2.745   0.114   0.460
 3524SOL    HW211472   2.678   0.234   0.548
 3525SOL     OW11473   0.437   2.998   1.990
 3525SOL    HW111474   0.447   3.058   1.910
 3525SOL    HW211475   0.398   2.911   1.961
 3526SOL     OW11476   0.922   0.794   2.746
 3526SOL    HW111477   0.991   0.722   2.748
 3526SOL    HW211478   0.933   0.852   2.827
 3527SOL     OW11479   5.655   3.011   6.563
 3527SOL    HW111480   5.729   2.962   6.610
 3527SOL    HW211481   5.573   2.954   6.563
 3528SOL     OW11482   0.096   6.335   3.319
 3528SOL    HW111483   0.080   6.282   3.403
 3528SOL    HW211484   0.172   6.295   3.268
 3529SOL     OW11485   4.383   6.971   5.165
 3529SOL    HW111486   4.391   7.020   5.252
 3529SOL    HW211487   4.474   6.960   5.125
 3530SOL     OW11488   3.159   5.537   2.629
 3530SOL    HW111489   3.205   5.604   2.572
 3530SOL    HW211490   3.113   5.583   2.705
 3531SOL     OW11491   5.954   4.633   0.899
 3531SOL    HW111492   5.971   4.730   0.880
 3531SOL    HW211493   6.006   4.605   0.979
 3532SOL     OW11494   2.666   0.466   6.617
 3532SOL    HW111495   2.706   0.404   6.549
 3532SOL    HW211496   2.733   0.535   6.642
 3533SOL     OW11497   0.808   1.521   3.213
 3533SOL    HW111498   0.823   1.474   3.127
 3533SOL    HW211499   0.851   1.611   3.210
 3534SOL     OW11500   5.747   1.478   4.926
 3534SOL    HW111501   5.765   1.570   4.960
 3534SOL    HW211502   5.711   1.482   4.833
 3535SOL     OW11503   5.682   5.417   6.173
 3535SOL    HW111504   5.607   5.351   6.163
 3535SOL    HW211505   5.740   5.413   6.092
 3536SOL     OW11506   1.938   3.118   3.427
 3536SOL    HW111507   1.966   3.038   3.373
 3536SOL    HW211508   2.004   3.192   3.414
 3537SOL     OW11509   2.473   5.680   0.670
 3537SOL    HW111510   2.456   5.701   0.573
 3537SOL    HW211511   2.566   5.707   0.694
 3538SOL     OW11512   2.781   0.485   3.249
 3538SOL    HW111513   2.705   0.550   3.239
 3538SOL    HW211514   2.801   0.471   3.346
 3539SOL     OW11515   5.165   5.053   6.807
 3539SOL    HW111516   5.234   5.061   6.880
 3539SOL    HW211517   5.175   4.964   6.762
 3540SOL     OW11518   3.041   3.304   6.217
 3540SOL    HW111519   2.959   3.319   6.273
 3540SOL    HW211520   3.017   3.249   6.137
 3541SOL     OW11521   3.088   2.248   0.727
 3541SOL    HW111522   2.995   2.221   0.704
 3541SOL    HW211523   3.090   2.286   0.819
 3542SOL     OW11524   5.358   2.166   6.350
 3542SOL    HW111525   5.331   2.261   6.331
 3542SOL    HW211526   5.403   2.161   6.440
 3543SOL     OW11527   2.184   2.678   3.192
 3543SOL    HW111528   2.280   2.666   3.217
 3543SOL    HW211529   2.153   2.599   3.140
 3544SOL     OW11530   2.538   4.435   6.100
 3544SOL    HW111531   2.627   4.479   6.093
 3544SOL    HW211532   2.528   4.367   6.028
 3545SOL     OW11533   3.365   6.924   1.193
 3545SOL    HW111534   3.430   6.951   1.121
 3545SOL    HW211535   3.366   6.993   1.266
 3546SOL     OW11536   6.635   3.848   3.463
 3546SOL    HW111537   6.620   3.870   3.559
 3546SOL    HW211538   6.586   3.764   3.440
 3547SOL     OW11539   0.112   3.726   5.462
 3547SOL    HW111540   0.180   3.799   5.451
 3547SOL    HW211541   0.112   3.695   5.557
 3548SOL     OW11542   5.284   1.284   5.761
 3548SOL    HW111543   5.306   1.362   5.703
 3548SOL    HW211544   5.360   1.219   5.760
 3549SOL     OW11545   3.179   5.198   0.290
 3549SOL    HW111546   3.181   5.273   0.356
 3549SOL    HW211547   3.107   5.215   0.222
 3550SOL     OW11548   5.367   1.441   5.411
 3550SOL    HW111549   5.401   1.348   5.428
 3550SOL    HW211550   5.368   1.459   5.312
 3551SOL     OW11551   3.950   2.099   4.897
 3551SOL    HW111552   3.907   2.162   4.961
 3551SOL    HW211553   3.988   2.151   4.820
 3552SOL     OW11554   6.946   6.034   2.473
 3552SOL    HW111555   6.895   6.094   2.411
 3552SOL    HW211556   0.011   6.012   2.432
 3553SOL     OW11557   3.822   5.315   5.931
 3553SOL    HW111558   3.878   5.247   5.980
 3553SOL    HW211559   3.804   5.283   5.838
 3554SOL     OW11560   4.370   3.410   1.656
 3554SOL    HW111561   4.359   3.348   1.734
 3554SOL    HW211562   4.335   3.366   1.573
 3555SOL     OW11563   1.746   2.225   3.960
 3555SOL    HW111564   1.743   2.127   3.939
 3555SOL    HW211565   1.789   2.239   4.049
 3556SOL     OW11566   4.260   0.792   5.372
 3556SOL    HW111567   4.163   0.773   5.383
 3556SOL    HW211568   4.273   0.859   5.299
 3557SOL     OW11569   6.904   1.667   2.113
 3557SOL    HW111570   6.812   1.684   2.147
 3557SOL    HW211571   6.959   1.751   2.122
 3558SOL     OW11572   3.586   6.948   1.017
 3558SOL    HW111573   3.650   6.871   1.009
 3558SOL    HW211574   3.558   6.977   0.926
 3559SOL     OW11575   4.259   6.485   4.389
 3559SOL    HW111576   4.170   6.475   4.344
 3559SOL    HW211577   4.299   6.573   4.364
 3560SOL     OW11578   1.388   5.449   5.115
 3560SOL    HW111579   1.387   5.351   5.093
 3560SOL    HW211580   1.451   5.465   5.191
 3561SOL     OW11581   4.825   4.418   5.530
 3561SOL    HW111582   4.833   4.351   5.604
 3561SOL    HW211583   4.915   4.459   5.513
 3562SOL     OW11584   2.386   1.372   5.416
 3562SOL    HW111585   2.474   1.371   5.465
 3562SOL    HW211586   2.357   1.467   5.403
 3563SOL     OW11587   5.533   2.070   5.415
 3563SOL    HW111588   5.478   2.110   5.341
 3563SOL    HW211589   5.630   2.083   5.395
 3564SOL     OW11590   0.345   4.613   2.586
 3564SOL    HW111591   0.251   4.649   2.585
 3564SOL    HW211592   0.350   4.537   2.651
 3565SOL     OW11593   3.242   5.422   3.663
 3565SOL    HW111594   3.216   5.434   3.567
 3565SOL    HW211595   3.289   5.335   3.674
 3566SOL     OW11596   6.483   1.255   5.713
 3566SOL    HW111597   6.447   1.201   5.636
 3566SOL    HW211598   6.582   1.241   5.719
 3567SOL     OW11599   0.473   4.506   6.703
 3567SOL    HW111600   0.410   4.531   6.776
 3567SOL    HW211601   0.540   4.440   6.737
 3568SOL     OW11602   6.265   3.547   5.984
 3568SOL    HW111603   6.327   3.475   6.014
 3568SOL    HW211604   6.171   3.513   5.987
 3569SOL     OW11605   2.708   2.144   5.382
 3569SOL    HW111606   2.696   2.223   5.443
 3569SOL    HW211607   2.790   2.093   5.410
 3570SOL     OW11608   6.005   1.197   4.060
 3570SOL    HW111609   5.908   1.176   4.076
 3570SOL    HW211610   6.013   1.278   4.003
 3571SOL     OW11611   6.150   5.739   6.562
 3571SOL    HW111612   6.192   5.794   6.490
 3571SOL    HW211613   6.121   5.651   6.524
 3572SOL     OW11614   5.509   3.587   4.074
 3572SOL    HW111615   5.524   3.502   4.124
 3572SOL    HW211616   5.435   3.639   4.116
 3573SOL     OW11617   1.554   4.042   3.295
 3573SOL    HW111618   1.627   4.060   3.230
 3573SOL    HW211619   1.592   4.026   3.386
 3574SOL     OW11620   0.099   4.900   0.506
 3574SOL    HW111621   0.082   4.804   0.483
 3574SOL    HW211622   0.114   4.953   0.423
 3575SOL     OW11623   6.401   5.249   3.353
 3575SOL    HW111624   6.496   5.255   3.384
 3575SOL    HW211625   6.393   5.285   3.261
 3576SOL     OW11626   0.345   1.312   6.377
 3576SOL    HW111627   0.289   1.383   6.334
 3576SOL    HW211628   0.296   1.276   6.457
 3577SOL     OW11629   0.601   2.448   6.618
 3577SOL    HW111630   0.633   2.370   6.564
 3577SOL    HW211631   0.588   2.420   6.713
 3578SOL     OW11632   2.900   4.252   6.573
 3578SOL    HW111633   2.847   4.199   6.639
 3578SOL    HW211634   2.997   4.227   6.582
 3579SOL     OW11635   6.894   3.282   5.206
 3579SOL    HW111636   6.954   3.289   5.286
 3579SOL    HW211637   6.939   3.323   5.127
 3580SOL     OW11638   5.690   1.946   1.838
 3580SOL    HW111639   5.773   1.935   1.782
 3580SOL    HW211640   5.616   1.891   1.800
 3581SOL     OW11641   6.868   0.484   2.675
 3581SOL    HW111642   6.784   0.471   2.727
 3581SOL    HW211643   6.847   0.524   2.585
 3582SOL     OW11644   0.797   0.544   5.823
 3582SOL    HW111645   0.782   0.641   5.842
 3582SOL    HW211646   0.726   0.511   5.761
 3583SOL     OW11647   0.965   4.587   7.017
 3583SOL    HW111648   1.045   4.530   6.995
 3583SOL    HW211649   0.991   4.658   0.058
 3584SOL     OW11650   5.655   6.164   6.282
 3584SOL    HW111651   5.704   6.185   6.367
 3584SOL    HW211652   5.714   6.183   6.204
 3585SOL     OW11653   3.463   5.046   4.769
 3585SOL    HW111654   3.391   5.093   4.821
 3585SOL    HW211655   3.426   5.016   4.681
 3586SOL     OW11656   6.236   2.990   5.429
 3586SOL    HW111657   6.190   3.061   5.482
 3586SOL    HW211658   6.169   2.920   5.402
 3587SOL     OW11659   3.007   6.771   0.596
 3587SOL    HW111660   2.982   6.759   0.692
 3587SOL    HW211661   2.925   6.767   0.539
 3588SOL     OW11662   1.912   2.461   5.872
 3588SOL    HW111663   1.834   2.513   5.906
 3588SOL    HW211664   1.995   2.490   5.919
 3589SOL     OW11665   3.189   0.621   4.488
 3589SOL    HW111666   3.104   0.581   4.452
 3589SOL    HW211667   3.222   0.691   4.425
 3590SOL     OW11668   1.283   4.955   6.133
 3590SOL    HW111669   1.273   5.054   6.145
 3590SOL    HW211670   1.200   4.909   6.166
 3591SOL     OW11671   5.442   3.172   6.014
 3591SOL    HW111672   5.448   3.089   5.959
 3591SOL    HW211673   5.469   3.251   5.959
 3592SOL     OW11674   5.117   3.122   2.812
 3592SOL    HW111675   5.187   3.162   2.870
 3592SOL    HW211676   5.155   3.045   2.761
 3593SOL     OW11677   1.983   6.908   4.059
 3593SOL    HW111678   1.897   6.867   4.030
 3593SOL    HW211679   1.970   6.956   4.145
 3594SOL     OW11680   2.348   1.118   3.457
 3594SOL    HW111681   2.360   1.054   3.533
 3594SOL    HW211682   2.316   1.069   3.376
 3595SOL     OW11683   2.431   6.559   5.557
 3595SOL    HW111684   2.495   6.605   5.618
 3595SOL    HW211685   2.337   6.585   5.582
 3596SOL     OW11686   6.334   0.800   2.665
 3596SOL    HW111687   6.266   0.753   2.721
 3596SOL    HW211688   6.394   0.733   2.622
 3597SOL     OW11689   3.782   6.421   4.557
 3597SOL    HW111690   3.796   6.355   4.631
 3597SOL    HW211691   3.793   6.514   4.594
 3598SOL     OW11692   0.928   0.318   5.283
 3598SOL    HW111693   0.881   0.323   5.195
 3598SOL    HW211694   1.018   0.277   5.271
 3599SOL     OW11695   0.247   2.228   5.694
 3599SOL    HW111696   0.228   2.215   5.597
 3599SOL    HW211697   0.305   2.309   5.705
 3600SOL     OW11698   6.356   3.389   1.323
 3600SOL    HW111699   6.331   3.328   1.398
 3600SOL    HW211700   6.373   3.481   1.359
 3601SOL     OW11701   0.164   3.931   0.385
 3601SOL    HW111702   0.208   3.925   0.475
 3601SOL    HW211703   0.191   3.853   0.329
 3602SOL     OW11704   1.792   0.859   0.306
 3602SOL    HW111705   1.843   0.880   0.223
 3602SOL    HW211706   1.825   0.773   0.345
 3603SOL     OW11707   3.784   4.924   4.246
 3603SOL    HW111708   3.806   4.904   4.341
 3603SOL    HW211709   3.851   4.880   4.186
 3604SOL     OW11710   6.795   2.690   3.048
 3604SOL    HW111711   6.785   2.607   3.103
 3604SOL    HW211712   6.709   2.708   2.999
 3605SOL     OW11713   6.270   4.461   6.189
 3605SOL    HW111714   6.241   4.375   6.231
 3605SOL    HW211715   6.305   4.522   6.259
 3606SOL     OW11716   6.662   4.720   5.889
 3606SOL    HW111717   6.662   4.641   5.827
 3606SOL    HW211718   6.575   4.769   5.881
 3607SOL     OW11719   5.229   0.452   0.402
 3607SOL    HW111720   5.225   0.362   0.357
 3607SOL    HW211721   5.152   0.461   0.465
 3608SOL     OW11722   0.164   1.669   1.403
 3608SOL    HW111723   0.257   1.656   1.368
 3608SOL    HW211724   0.159   1.639   1.498
 3609SOL     OW11725   6.553   0.852   4.547
 3609SOL    HW111726   6.539   0.773   4.608
 3609SOL    HW211727   6.568   0.820   4.454
 3610SOL     OW11728   0.936   6.628   4.893
 3610SOL    HW111729   0.924   6.695   4.967
 3610SOL    HW211730   1.014   6.654   4.837
 3611SOL     OW11731   3.485   5.129   5.444
 3611SOL    HW111732   3.535   5.081   5.373
 3611SOL    HW211733   3.398   5.161   5.408
 3612SOL     OW11734   1.143   6.238   6.444
 3612SOL    HW111735   1.180   6.258   6.535
 3612SOL    HW211736   1.078   6.309   6.418
 3613SOL     OW11737   4.911   5.063   0.449
 3613SOL    HW111738   4.935   5.005   0.371
 3613SOL    HW211739   4.963   5.034   0.529
 3614SOL     OW11740   3.762   3.156   2.946
 3614SOL    HW111741   3.723   3.247   2.931
 3614SOL    HW211742   3.692   3.087   2.925
 3615SOL     OW11743   6.119   5.201   5.763
 3615SOL    HW111744   6.122   5.145   5.846
 3615SOL    HW211745   6.025   5.230   5.746
 3616SOL     OW11746   6.579   2.101   6.472
 3616SOL    HW111747   6.588   2.007   6.504
 3616SOL    HW211748   6.509   2.148   6.525
 3617SOL     OW11749   5.716   1.760   6.474
 3617SOL    HW111750   5.639   1.750   6.411
 3617SOL    HW211751   5.743   1.856   6.479
 3618SOL     OW11752   1.476   2.138   6.035
 3618SOL    HW111753   1.463   2.139   5.935
 3618SOL    HW211754   1.544   2.207   6.060
 3619SOL     OW11755   5.965   2.359   3.950
 3619SOL    HW111756   5.928   2.359   4.043
 3619SOL    HW211757   6.040   2.293   3.943
 3620SOL     OW11758   5.587   6.909   5.408
 3620SOL    HW111759   5.591   6.970   5.487
 3620SOL    HW211760   5.529   6.950   5.338
 3621SOL     OW11761   3.338   3.066   5.742
 3621SOL    HW111762   3.289   3.151   5.763
 3621SOL    HW211763   3.298   3.023   5.661
 3622SOL     OW11764   0.660   1.132   3.016
 3622SOL    HW111765   0.619   1.223   3.021
 3622SOL    HW211766   0.687   1.113   2.921
 3623SOL     OW11767   6.115   5.142   3.989
 3623SOL    HW111768   6.101   5.231   4.033
 3623SOL    HW211769   6.213   5.129   3.972
 3624SOL     OW11770   2.313   6.324   3.099
 3624SOL    HW111771   2.272   6.414   3.110
 3624SOL    HW211772   2.354   6.294   3.185
 3625SOL     OW11773   6.409   3.244   6.016
 3625SOL    HW111774   6.374   3.178   6.083
 3625SOL    HW211775   6.345   3.251   5.940
 3626SOL     OW11776   2.155   3.641   4.970
 3626SOL    HW111777   2.169   3.698   4.889
 3626SOL    HW211778   2.205   3.680   5.047
 3627SOL     OW11779   4.140   3.581   3.487
 3627SOL    HW111780   4.072   3.511   3.466
 3627SOL    HW211781   4.114   3.667   3.443
 3628SOL     OW11782   2.267   6.056   2.173
 3628SOL    HW111783   2.212   6.095   2.246
 3628SOL    HW211784   2.215   5.984   2.126
 3629SOL     OW11785   6.809   2.046   4.813
 3629SOL    HW111786   6.720   2.059   4.771
 3629SOL    HW211787   6.844   2.134   4.845
 3630SOL     OW11788   5.972   2.666   4.181
 3630SOL    HW111789   5.889   2.619   4.151
 3630SOL    HW211790   5.947   2.750   4.230
 3631SOL     OW11791   2.137   0.254   4.787
 3631SOL    HW111792   2.230   0.218   4.791
 3631SOL    HW211793   2.135   0.346   4.828
 3632SOL     OW11794   5.334   1.117   1.027
 3632SOL    HW111795   5.343   1.057   1.107
 3632SOL    HW211796   5.289   1.202   1.054
 3633SOL     OW11797   2.934   2.122   5.617
 3633SOL    HW111798   2.839   2.147   5.634
 3633SOL    HW211799   2.974   2.184   5.550
 3634SOL     OW11800   0.718   6.368   4.531
 3634SOL    HW111801   0.724   6.273   4.561
 3634SOL    HW211802   0.780   6.425   4.585
 3635SOL     OW11803   3.464   1.007   5.257
 3635SOL    HW111804   3.436   0.912   5.272
 3635SOL    HW211805   3.407   1.048   5.186
 3636SOL     OW11806   6.937   6.428   5.969
 3636SOL    HW111807   6.866   6.431   5.898
 3636SOL    HW211808   6.927   6.507   6.029
 3637SOL     OW11809   5.920   1.951   0.983
 3637SOL    HW111810   5.843   1.987   1.036
 3637SOL    HW211811   5.982   2.026   0.960
 3638SOL     OW11812   6.585   4.588   3.900
 3638SOL    HW111813   6.519   4.646   3.947
 3638SOL    HW211814   6.619   4.519   3.964
 3639SOL     OW11815   3.608   3.604   1.236
 3639SOL    HW111816   3.599   3.703   1.230
 3639SOL    HW211817   3.540   3.561   1.177
 3640SOL     OW11818   3.390   5.850   6.649
 3640SOL    HW111819   3.463   5.813   6.707
 3640SOL    HW211820   3.426   5.868   6.558
 3641SOL     OW11821   3.416   1.770   4.864
 3641SOL    HW111822   3.384   1.677   4.876
 3641SOL    HW211823   3.359   1.816   4.795
 3642SOL     OW11824   4.894   0.892   5.603
 3642SOL    HW111825   4.976   0.946   5.584
 3642SOL    HW211826   4.867   0.904   5.699
 3643SOL     OW11827   3.265   5.854   4.787
 3643SOL    HW111828   3.205   5.774   4.795
 3643SOL    HW211829   3.209   5.936   4.776
 3644SOL     OW11830   6.499   1.125   1.310
 3644SOL    HW111831   6.481   1.185   1.387
 3644SOL    HW211832   6.508   1.180   1.226
 3645SOL     OW11833   5.263   1.558   4.289
 3645SOL    HW111834   5.321   1.501   4.347
 3645SOL    HW211835   5.310   1.645   4.272
 3646SOL     OW11836   6.776   4.927   5.569
 3646SOL    HW111837   6.697   4.930   5.508
 3646SOL    HW211838   6.778   4.839   5.616
 3647SOL     OW11839   1.712   3.477   0.513
 3647SOL    HW111840   1.626   3.445   0.475
 3647SOL    HW211841   1.712   3.465   0.612
 3648SOL     OW11842   3.806   5.375   2.802
 3648SOL    HW111843   3.779   5.293   2.753
 3648SOL    HW211844   3.799   5.359   2.900
 3649SOL     OW11845   4.282   3.326   1.021
 3649SOL    HW111846   4.252   3.231   1.016
 3649SOL    HW211847   4.313   3.356   0.931
 3650SOL     OW11848   6.874   5.501   0.673
 3650SOL    HW111849   6.971   5.523   0.683
 3650SOL    HW211850   6.846   5.439   0.746
 3651SOL     OW11851   1.213   5.873   2.407
 3651SOL    HW111852   1.268   5.912   2.333
 3651SOL    HW211853   1.126   5.922   2.413
 3652SOL     OW11854   4.828   6.429   3.284
 3652SOL    HW111855   4.747   6.377   3.257
 3652SOL    HW211856   4.825   6.519   3.241
 3653SOL     OW11857   6.277   1.036   2.946
 3653SOL    HW111858   6.368   1.015   2.911
 3653SOL    HW211859   6.256   0.976   3.024
 3654SOL     OW11860   1.985   6.206   0.151
 3654SOL    HW111861   2.035   6.142   0.093
 3654SOL    HW211862   2.039   6.224   0.233
 3655SOL     OW11863   1.549   0.102   3.557
 3655SOL    HW111864   1.591   0.085   3.468
 3655SOL    HW211865   1.500   0.020   3.587
 3656SOL     OW11866   1.595   2.749   1.433
 3656SOL    HW111867   1.686   2.709   1.420
 3656SOL    HW211868   1.562   2.785   1.346
 3657SOL     OW11869   4.247   5.616   6.233
 3657SOL    HW111870   4.287   5.524   6.232
 3657SOL    HW211871   4.256   5.656   6.141
 3658SOL     OW11872   1.571   5.692   4.569
 3658SOL    HW111873   1.591   5.688   4.471
 3658SOL    HW211874   1.521   5.776   4.589
 3659SOL     OW11875   2.864   4.070   6.128
 3659SOL    HW111876   2.807   4.023   6.196
 3659SOL    HW211877   2.903   4.152   6.169
 3660SOL     OW11878   5.154   6.308   2.252
 3660SOL    HW111879   5.163   6.220   2.205
 3660SOL    HW211880   5.215   6.375   2.209
 3661SOL     OW11881   4.930   2.180   6.794
 3661SOL    HW111882   4.963   2.112   6.728
 3661SOL    HW211883   5.006   2.211   6.851
 3662SOL     OW11884   3.204   0.238   4.426
 3662SOL    HW111885   3.298   0.208   4.439
 3662SOL    HW211886   3.198   0.337   4.437
 3663SOL     OW11887   1.443   1.228   0.780
 3663SOL    HW111888   1.466   1.155   0.715
 3663SOL    HW211889   1.385   1.190   0.852
 3664SOL     OW11890   4.916   1.669   1.484
 3664SOL    HW111891   4.926   1.742   1.416
 3664SOL    HW211892   4.883   1.586   1.440
 3665SOL     OW11893   0.599   5.841   5.727
 3665SOL    HW111894   0.559   5.901   5.796
 3665SOL    HW211895   0.575   5.874   5.636
 3666SOL     OW11896   1.931   4.458   3.600
 3666SOL    HW111897   1.926   4.415   3.690
 3666SOL    HW211898   1.846   4.439   3.550
 3667SOL     OW11899   6.237   0.167   0.552
 3667SOL    HW111900   6.299   0.236   0.516
 3667SOL    HW211901   6.160   0.212   0.597
 3668SOL     OW11902   1.502   0.714   2.151
 3668SOL    HW111903   1.501   0.649   2.227
 3668SOL    HW211904   1.581   0.697   2.093
 3669SOL     OW11905   5.753   1.612   4.374
 3669SOL    HW111906   5.657   1.586   4.367
 3669SOL    HW211907   5.808   1.530   4.391
 3670SOL     OW11908   2.521   5.295   0.695
 3670SOL    HW111909   2.494   5.365   0.761
 3670SOL    HW211910   2.618   5.275   0.705
 3671SOL     OW11911   6.066   0.507   3.159
 3671SOL    HW111912   6.104   0.600   3.160
 3671SOL    HW211913   6.115   0.451   3.226
 3672SOL     OW11914   5.638   1.674   1.163
 3672SOL    HW111915   5.663   1.645   1.255
 3672SOL    HW211916   5.560   1.619   1.131
 3673SOL     OW11917   3.791   0.792   6.057
 3673SOL    HW111918   3.748   0.703   6.046
 3673SOL    HW211919   3.881   0.792   6.012
 3674SOL     OW11920   0.600   0.176   5.649
 3674SOL    HW111921   0.509   0.216   5.634
 3674SOL    HW211922   0.670   0.242   5.624
 3675SOL     OW11923   1.652   2.542   5.319
 3675SOL    HW111924   1.558   2.530   5.351
 3675SOL    HW211925   1.699   2.610   5.375
 3676SOL     OW11926   4.082   5.315   4.326
 3676SOL    HW111927   4.035   5.400   4.302
 3676SOL    HW211928   4.044   5.279   4.412
 3677SOL     OW11929   1.112   6.105   2.590
 3677SOL    HW111930   1.103   6.069   2.683
 3677SOL    HW211931   1.175   6.182   2.591
 3678SOL     OW11932   0.607   3.175   4.011
 3678SOL    HW111933   0.535   3.163   4.079
 3678SOL    HW211934   0.690   3.209   4.056
 3679SOL     OW11935   0.338   1.039   2.763
 3679SOL    HW111936   0.436   1.021   2.757
 3679SOL    HW211937   0.320   1.134   2.736
 3680SOL     OW11938   6.577   3.023   4.025
 3680SOL    HW111939   6.667   3.061   4.006
 3680SOL    HW211940   6.543   3.060   4.111
 3681SOL     OW11941   0.711   0.809   5.795
 3681SOL    HW111942   0.691   0.845   5.886
 3681SOL    HW211943   0.655   0.856   5.728
 3682SOL     OW11944   5.934   2.564   6.016
 3682SOL    HW111945   6.006   2.573   5.947
 3682SOL    HW211946   5.869   2.639   6.007
 3683SOL     OW11947   6.899   0.585   5.059
 3683SOL    HW111948   6.998   0.583   5.064
 3683SOL    HW211949   6.869   0.565   4.966
 3684SOL     OW11950   1.514   2.827   1.164
 3684SOL    HW111951   1.473   2.879   1.089
 3684SOL    HW211952   1.612   2.814   1.146
 3685SOL     OW11953   6.145   6.270   5.749
 3685SOL    HW111954   6.211   6.322   5.695
 3685SOL    HW211955   6.065   6.327   5.769
 3686SOL     OW11956   6.494   4.981   3.394
 3686SOL    HW111957   6.473   4.999   3.490
 3686SOL    HW211958   6.561   4.907   3.388
 3687SOL     OW11959   2.858   5.989   5.583
 3687SOL    HW111960   2.850   5.957   5.677
 3687SOL    HW211961   2.949   5.967   5.547
 3688SOL     OW11962   1.208   4.075   6.950
 3688SOL    HW111963   1.194   4.140   0.000
 3688SOL    HW211964   1.120   4.039   6.920
 3689SOL     OW11965   1.029   0.620   5.411
 3689SOL    HW111966   0.984   0.702   5.373
 3689SOL    HW211967   1.030   0.548   5.341
 3690SOL     OW11968   4.354   0.368   6.327
 3690SOL    HW111969   4.333   0.462   6.300
 3690SOL    HW211970   4.445   0.343   6.294
 3691SOL     OW11971   2.266   2.971   6.568
 3691SOL    HW111972   2.199   3.035   6.530
 3691SOL    HW211973   2.343   3.022   6.607
 3692SOL     OW11974   1.166   6.043   4.321
 3692SOL    HW111975   1.112   5.961   4.300
 3692SOL    HW211976   1.156   6.065   4.418
 3693SOL     OW11977   1.593   2.964   2.847
 3693SOL    HW111978   1.595   2.948   2.946
 3693SOL    HW211979   1.631   3.055   2.828
 3694SOL     OW11980   1.135   5.149   3.169
 3694SOL    HW111981   1.215   5.112   3.216
 3694SOL    HW211982   1.160   5.233   3.121
 3695SOL     OW11983   0.487   2.593   2.476
 3695SOL    HW111984   0.421   2.571   2.548
 3695SOL    HW211985   0.580   2.578   2.511
 3696SOL     OW11986   4.120   5.933   5.327
 3696SOL    HW111987   4.179   5.970   5.255
 3696SOL    HW211988   4.028   5.917   5.290
 3697SOL     OW11989   6.804   6.090   3.760
 3697SOL    HW111990   6.826   6.065   3.855
 3697SOL    HW211991   6.866   6.161   3.728
 3698SOL     OW11992   3.418   6.659   5.300
 3698SOL    HW111993   3.348   6.725   5.328
 3698SOL    HW211994   3.375   6.573   5.276
 3699SOL     OW11995   6.936   3.611   3.099
 3699SOL    HW111996   0.009   3.627   3.086
 3699SOL    HW211997   6.896   3.581   3.012
 3700SOL     OW11998   5.787   0.610   3.661
 3700SOL    HW111999   5.743   0.695   3.688
 3700SOL    HW212000   5.807   0.612   3.563
 3701SOL     OW12001   0.432   0.910   3.525
 3701SOL    HW112002   0.336   0.910   3.554
 3701SOL    HW212003   0.461   1.004   3.505
 3702SOL     OW12004   4.576   0.174   1.870
 3702SOL    HW112005   4.492   0.132   1.835
 3702SOL    HW212006   4.561   0.205   1.964
 3703SOL     OW12007   4.146   3.913   6.174
 3703SOL    HW112008   4.199   3.863   6.105
 3703SOL    HW212009   4.204   3.982   6.216
 3704SOL     OW12010   3.102   1.230   1.976
 3704SOL    HW112011   3.193   1.189   1.980
 3704SOL    HW212012   3.107   1.320   1.933
 3705SOL     OW12013   5.161   6.558   3.616
 3705SOL    HW112014   5.125   6.551   3.523
 3705SOL    HW212015   5.111   6.628   3.666
 3706SOL     OW12016   1.243   2.501   4.477
 3706SOL    HW112017   1.212   2.499   4.382
 3706SOL    HW212018   1.312   2.430   4.492
 3707SOL     OW12019   5.543   3.081   5.128
 3707SOL    HW112020   5.481   3.066   5.205
 3707SOL    HW212021   5.578   3.174   5.130
 3708SOL     OW12022   6.103   0.154   6.350
 3708SOL    HW112023   6.030   0.116   6.407
 3708SOL    HW212024   6.171   0.083   6.331
 3709SOL     OW12025   3.574   0.883   6.536
 3709SOL    HW112026   3.589   0.884   6.437
 3709SOL    HW212027   3.634   0.950   6.579
 3710SOL     OW12028   6.744   6.163   0.490
 3710SOL    HW112029   6.727   6.261   0.502
 3710SOL    HW212030   6.697   6.131   0.407
 3711SOL     OW12031   0.167   6.026   2.366
 3711SOL    HW112032   0.201   5.994   2.278
 3711SOL    HW212033   0.236   6.084   2.409
 3712SOL     OW12034   7.009   5.993   6.973
 3712SOL    HW112035   0.044   6.022   6.898
 3712SOL    HW212036   6.914   6.014   6.951
 3713SOL     OW12037   2.114   6.428   4.732
 3713SOL    HW112038   2.168   6.487   4.671
 3713SOL    HW212039   2.121   6.461   4.826
 3714SOL     OW12040   5.266   6.211   4.746
 3714SOL    HW112041   5.284   6.220   4.648
 3714SOL    HW212042   5.298   6.293   4.794
 3715SOL     OW12043   5.617   4.337   4.831
 3715SOL    HW112044   5.531   4.350   4.880
 3715SOL    HW212045   5.694   4.359   4.890
 3716SOL     OW12046   0.487   6.520   4.308
 3716SOL    HW112047   0.441   6.436   4.336
 3716SOL    HW212048   0.517   6.571   4.389
 3717SOL     OW12049   6.425   5.439   0.760
 3717SOL    HW112050   6.402   5.344   0.781
 3717SOL    HW212051   6.386   5.498   0.831
 3718SOL     OW12052   2.183   6.140   6.163
 3718SOL    HW112053   2.180   6.191   6.077
 3718SOL    HW212054   2.222   6.050   6.147
 3719SOL     OW12055   5.112   4.229   1.238
 3719SOL    HW112056   5.155   4.288   1.169
 3719SOL    HW212057   5.159   4.241   1.326
 3720SOL     OW12058   6.018   2.120   6.653
 3720SOL    HW112059   5.982   2.161   6.569
 3720SOL    HW212060   5.996   2.179   6.731
 3721SOL     OW12061   5.295   4.499   0.288
 3721SOL    HW112062   5.237   4.426   0.251
 3721SOL    HW212063   5.241   4.556   0.350
 3722SOL     OW12064   6.965   6.322   2.464
 3722SOL    HW112065   6.877   6.275   2.453
 3722SOL    HW212066   0.000   6.269   2.524
 3723SOL     OW12067   5.794   6.474   1.943
 3723SOL    HW112068   5.794   6.434   2.035
 3723SOL    HW212069   5.773   6.572   1.949
 3724SOL     OW12070   2.282   5.078   6.722
 3724SOL    HW112071   2.266   5.158   6.780
 3724SOL    HW212072   2.320   5.108   6.635
 3725SOL     OW12073   5.175   6.114   6.713
 3725SOL    HW112074   5.181   6.213   6.700
 3725SOL    HW212075   5.139   6.095   6.804
 3726SOL     OW12076   6.850   4.206   1.215
 3726SOL    HW112077   6.869   4.183   1.310
 3726SOL    HW212078   6.835   4.122   1.163
 3727SOL     OW12079   0.117   3.072   6.321
 3727SOL    HW112080   0.214   3.077   6.345
 3727SOL    HW212081   0.109   3.045   6.225
 3728SOL     OW12082   1.447   3.545   0.321
 3728SOL    HW112083   1.391   3.566   0.401
 3728SOL    HW212084   1.433   3.449   0.295
 3729SOL     OW12085   1.054   2.295   3.722
 3729SOL    HW112086   0.993   2.217   3.732
 3729SOL    HW212087   1.116   2.280   3.645
 3730SOL     OW12088   2.801   5.999   6.993
 3730SOL    HW112089   2.882   6.049   7.021
 3730SOL    HW212090   2.828   5.918   6.941
 3731SOL     OW12091   4.749   1.022   0.339
 3731SOL    HW112092   4.827   1.016   0.276
 3731SOL    HW212093   4.669   0.980   0.297
 3732SOL     OW12094   2.148   2.963   6.029
 3732SOL    HW112095   2.055   2.927   6.031
 3732SOL    HW212096   2.188   2.958   6.121
 3733SOL     OW12097   2.147   3.970   1.378
 3733SOL    HW112098   2.084   4.044   1.403
 3733SOL    HW212099   2.119   3.885   1.422
 3734SOL     OW12100   3.984   1.578   1.701
 3734SOL    HW112101   3.937   1.630   1.630
 3734SOL    HW212102   3.944   1.600   1.790
 3735SOL     OW12103   0.766   1.670   2.813
 3735SOL    HW112104   0.734   1.764   2.814
 3735SOL    HW212105   0.866   1.668   2.812
 3736SOL     OW12106   0.355   3.285   1.001
 3736SOL    HW112107   0.299   3.342   0.940
 3736SOL    HW212108   0.362   3.330   1.090
 3737SOL     OW12109   4.902   0.299   3.124
 3737SOL    HW112110   4.995   0.279   3.095
 3737SOL    HW212111   4.846   0.216   3.115
 3738SOL     OW12112   6.297   6.265   3.431
 3738SOL    HW112113   6.245   6.335   3.382
 3738SOL    HW212114   6.253   6.247   3.519
 3739SOL     OW12115   1.439   4.025   2.591
 3739SOL    HW112116   1.534   4.050   2.572
 3739SOL    HW212117   1.381   4.107   2.587
 3740SOL     OW12118   4.682   0.860   6.533
 3740SOL    HW112119   4.686   0.838   6.630
 3740SOL    HW212120   4.774   0.873   6.498
 3741SOL     OW12121   4.433   3.612   1.367
 3741SOL    HW112122   4.412   3.642   1.274
 3741SOL    HW212123   4.378   3.532   1.390
 3742SOL     OW12124   2.358   2.039   5.452
 3742SOL    HW112125   2.396   2.044   5.360
 3742SOL    HW212126   2.312   1.951   5.464
 3743SOL     OW12127   6.050   4.908   0.796
 3743SOL    HW112128   5.963   4.953   0.815
 3743SOL    HW212129   6.104   4.966   0.734
 3744SOL     OW12130   0.684   5.930   3.383
 3744SOL    HW112131   0.742   5.936   3.301
 3744SOL    HW212132   0.705   6.006   3.444
 3745SOL     OW12133   3.042   5.539   3.056
 3745SOL    HW112134   3.036   5.574   3.149
 3745SOL    HW212135   3.075   5.444   3.059
 3746SOL     OW12136   4.224   1.443   1.519
 3746SOL    HW112137   4.138   1.490   1.541
 3746SOL    HW212138   4.204   1.361   1.465
 3747SOL     OW12139   2.828   6.638   6.213
 3747SOL    HW112140   2.832   6.726   6.261
 3747SOL    HW212141   2.793   6.652   6.121
 3748SOL     OW12142   5.379   0.503   1.798
 3748SOL    HW112143   5.469   0.510   1.841
 3748SOL    HW212144   5.328   0.587   1.816
 3749SOL     OW12145   1.520   6.718   4.103
 3749SOL    HW112146   1.455   6.688   4.035
 3749SOL    HW212147   1.543   6.642   4.164
 3750SOL     OW12148   1.761   3.982   0.270
 3750SOL    HW112149   1.821   3.991   0.191
 3750SOL    HW212150   1.679   3.932   0.244
 3751SOL     OW12151   7.014   3.994   2.745
 3751SOL    HW112152   6.955   3.938   2.686
 3751SOL    HW212153   0.007   3.945   2.831
 3752SOL     OW12154   5.116   1.076   5.600
 3752SOL    HW112155   5.149   1.068   5.693
 3752SOL    HW212156   5.180   1.031   5.537
 3753SOL     OW12157   5.723   0.480   4.702
 3753SOL    HW112158   5.747   0.397   4.752
 3753SOL    HW212159   5.791   0.498   4.631
 3754SOL     OW12160   1.829   0.744   2.384
 3754SOL    HW112161   1.767   0.778   2.313
 3754SOL    HW212162   1.924   0.757   2.355
 3755SOL     OW12163   3.224   5.137   4.886
 3755SOL    HW112164   3.137   5.163   4.927
 3755SOL    HW212165   3.251   5.047   4.921
 3756SOL     OW12166   2.979   5.836   6.879
 3756SOL    HW112167   3.052   5.847   6.947
 3756SOL    HW212168   3.019   5.826   6.788
 3757SOL     OW12169   6.500   5.189   1.989
 3757SOL    HW112170   6.426   5.228   2.044
 3757SOL    HW212171   6.543   5.114   2.039
 3758SOL     OW12172   2.050   1.130   4.604
 3758SOL    HW112173   2.082   1.095   4.692
 3758SOL    HW212174   1.999   1.215   4.617
 3759SOL     OW12175   4.807   0.876   4.611
 3759SOL    HW112176   4.830   0.973   4.605
 3759SOL    HW212177   4.835   0.830   4.527
 3760SOL     OW12178   0.102   0.308   3.666
 3760SOL    HW112179   0.187   0.257   3.652
 3760SOL    HW212180   0.043   0.296   3.586
 3761SOL     OW12181   6.285   1.476   4.679
 3761SOL    HW112182   6.310   1.415   4.604
 3761SOL    HW212183   6.284   1.571   4.646
 3762SOL     OW12184   1.429   3.657   2.228
 3762SOL    HW112185   1.480   3.700   2.153
 3762SOL    HW212186   1.491   3.598   2.280
 3763SOL     OW12187   6.925   3.864   0.303
 3763SOL    HW112188   6.869   3.940   0.335
 3763SOL    HW212189   7.021   3.880   0.327
 3764SOL     OW12190   1.936   0.571   2.817
 3764SOL    HW112191   1.989   0.488   2.795
 3764SOL    HW212192   1.925   0.577   2.916
 3765SOL     OW12193   5.899   1.873   1.682
 3765SOL    HW112194   5.926   1.853   1.587
 3765SOL    HW212195   5.915   1.793   1.739
 3766SOL     OW12196   1.913   2.740   4.268
 3766SOL    HW112197   1.949   2.809   4.204
 3766SOL    HW212198   1.903   2.653   4.220
 3767SOL     OW12199   3.295   4.104   6.122
 3767SOL    HW112200   3.290   4.007   6.102
 3767SOL    HW212201   3.373   4.145   6.074
 3768SOL     OW12202   2.168   1.018   4.822
 3768SOL    HW112203   2.196   1.100   4.872
 3768SOL    HW212204   2.082   0.984   4.860
 3769SOL     OW12205   5.579   5.449   5.073
 3769SOL    HW112206   5.551   5.453   5.169
 3769SOL    HW212207   5.573   5.354   5.041
 3770SOL     OW12208   1.433   1.246   0.196
 3770SOL    HW112209   1.408   1.341   0.216
 3770SOL    HW212210   1.376   1.212   0.121
 3771SOL     OW12211   6.295   4.493   0.586
 3771SOL    HW112212   6.261   4.399   0.586
 3771SOL    HW212213   6.375   4.500   0.646
 3772SOL     OW12214   1.219   6.264   0.075
 3772SOL    HW112215   1.236   6.336   0.008
 3772SOL    HW212216   1.200   6.305   0.164
 3773SOL     OW12217   5.519   4.208   5.674
 3773SOL    HW112218   5.506   4.151   5.593
 3773SOL    HW212219   5.606   4.183   5.718
 3774SOL     OW12220   6.096   4.719   2.007
 3774SOL    HW112221   6.060   4.801   1.964
 3774SOL    HW212222   6.032   4.687   2.077
 3775SOL     OW12223   3.489   4.884   3.429
 3775SOL    HW112224   3.441   4.867   3.515
 3775SOL    HW212225   3.584   4.909   3.448
 3776SOL     OW12226   3.680   2.546   6.435
 3776SOL    HW112227   3.645   2.453   6.424
 3776SOL    HW212228   3.624   2.610   6.382
 3777SOL     OW12229   2.615   5.952   3.366
 3777SOL    HW112230   2.680   6.026   3.380
 3777SOL    HW212231   2.633   5.878   3.430
 3778SOL     OW12232   2.655   6.156   4.220
 3778SOL    HW112233   2.701   6.180   4.305
 3778SOL    HW212234   2.568   6.112   4.241
 3779SOL     OW12235   0.477   5.100   0.655
 3779SOL    HW112236   0.400   5.161   0.675
 3779SOL    HW212237   0.505   5.112   0.560
 3780SOL     OW12238   6.922   2.566   2.464
 3780SOL    HW112239   6.867   2.638   2.422
 3780SOL    HW212240   6.914   2.573   2.564
 3781SOL     OW12241   1.086   6.326   5.156
 3781SOL    HW112242   1.044   6.281   5.235
 3781SOL    HW212243   1.104   6.421   5.178
 3782SOL     OW12244   4.251   6.305   2.467
 3782SOL    HW112245   4.157   6.270   2.470
 3782SOL    HW212246   4.252   6.401   2.492
 3783SOL     OW12247   5.224   4.616   5.537
 3783SOL    HW112248   5.227   4.516   5.532
 3783SOL    HW212249   5.291   4.655   5.473
 3784SOL     OW12250   5.493   2.826   2.323
 3784SOL    HW112251   5.468   2.811   2.418
 3784SOL    HW212252   5.455   2.754   2.266
 3785SOL     OW12253   0.441   3.436   5.376
 3785SOL    HW112254   0.519   3.498   5.364
 3785SOL    HW212255   0.475   3.343   5.393
 3786SOL     OW12256   2.351   2.294   3.323
 3786SOL    HW112257   2.305   2.244   3.396
 3786SOL    HW212258   2.426   2.348   3.361
 3787SOL     OW12259   4.309   0.386   2.936
 3787SOL    HW112260   4.380   0.442   2.893
 3787SOL    HW212261   4.229   0.443   2.954
 3788SOL     OW12262   6.756   4.009   4.904
 3788SOL    HW112263   6.764   4.004   5.004
 3788SOL    HW212264   6.660   4.010   4.878
 3789SOL     OW12265   0.913   3.134   3.175
 3789SOL    HW112266   0.984   3.202   3.191
 3789SOL    HW212267   0.937   3.049   3.222
 3790SOL     OW12268   1.151   5.993   6.856
 3790SOL    HW112269   1.184   6.086   6.844
 3790SOL    HW212270   1.173   5.961   6.948
 3791SOL     OW12271   5.403   1.533   5.994
 3791SOL    HW112272   5.379   1.500   6.085
 3791SOL    HW212273   5.486   1.589   6.000
 3792SOL     OW12274   0.897   0.855   4.304
 3792SOL    HW112275   0.864   0.767   4.336
 3792SOL    HW212276   0.960   0.893   4.371
 3793SOL     OW12277   6.056   5.890   1.215
 3793SOL    HW112278   6.077   5.929   1.125
 3793SOL    HW212279   6.058   5.962   1.284
 3794SOL     OW12280   1.831   3.118   0.836
 3794SOL    HW112281   1.762   3.134   0.906
 3794SOL    HW212282   1.922   3.119   0.879
 3795SOL     OW12283   2.995   5.987   0.743
 3795SOL    HW112284   3.017   5.969   0.647
 3795SOL    HW212285   2.947   5.909   0.782
 3796SOL     OW12286   4.211   2.247   1.240
 3796SOL    HW112287   4.196   2.340   1.205
 3796SOL    HW212288   4.270   2.197   1.176
 3797SOL     OW12289   1.035   4.048   2.363
 3797SOL    HW112290   1.040   3.973   2.297
 3797SOL    HW212291   0.995   4.014   2.449
 3798SOL     OW12292   2.414   0.049   2.554
 3798SOL    HW112293   2.394   0.129   2.611
 3798SOL    HW212294   2.421   6.992   2.611
 3799SOL     OW12295   6.674   2.456   3.161
 3799SOL    HW112296   6.645   2.362   3.181
 3799SOL    HW212297   6.652   2.478   3.066
 3800SOL     OW12298   4.663   1.822   2.830
 3800SOL    HW112299   4.720   1.799   2.909
 3800SOL    HW212300   4.704   1.898   2.780
 3801SOL     OW12301   5.323   6.896   2.391
 3801SOL    HW112302   5.349   6.985   2.430
 3801SOL    HW212303   5.265   6.847   2.457
 3802SOL     OW12304   0.396   1.972   2.365
 3802SOL    HW112305   0.485   1.933   2.343
 3802SOL    HW212306   0.336   1.967   2.285
 3803SOL     OW12307   3.776   3.637   3.762
 3803SOL    HW112308   3.719   3.639   3.844
 3803SOL    HW212309   3.781   3.544   3.727
 3804SOL     OW12310   2.950   1.307   4.611
 3804SOL    HW112311   2.961   1.406   4.625
 3804SOL    HW212312   3.032   1.260   4.645
 3805SOL     OW12313   2.479   2.529   0.935
 3805SOL    HW112314   2.419   2.579   0.872
 3805SOL    HW212315   2.528   2.458   0.885
 3806SOL     OW12316   4.102   3.635   6.286
 3806SOL    HW112317   4.178   3.684   6.243
 3806SOL    HW212318   4.060   3.694   6.356
 3807SOL     OW12319   1.561   5.157   4.395
 3807SOL    HW112320   1.651   5.115   4.386
 3807SOL    HW212321   1.518   5.124   4.479
 3808SOL     OW12322   4.956   0.521   5.602
 3808SOL    HW112323   4.905   0.603   5.627
 3808SOL    HW212324   4.911   0.476   5.524
 3809SOL     OW12325   6.298   1.756   1.590
 3809SOL    HW112326   6.348   1.684   1.639
 3809SOL    HW212327   6.354   1.839   1.586
 3810SOL     OW12328   6.965   2.821   3.513
 3810SOL    HW112329   6.878   2.849   3.554
 3810SOL    HW212330   0.003   2.900   3.510
 3811SOL     OW12331   0.061   6.207   4.654
 3811SOL    HW112332   0.048   6.154   4.570
 3811SOL    HW212333   6.999   6.252   4.679
 3812SOL     OW12334   3.240   5.475   6.806
 3812SOL    HW112335   3.247   5.386   6.850
 3812SOL    HW212336   3.331   5.503   6.773
 3813SOL     OW12337   6.225   4.016   1.236
 3813SOL    HW112338   6.237   3.924   1.199
 3813SOL    HW212339   6.168   4.070   1.174
 3814SOL     OW12340   7.006   0.009   4.058
 3814SOL    HW112341   6.960   0.078   4.003
 3814SOL    HW212342   7.019   6.950   4.003
 3815SOL     OW12343   5.294   3.054   0.470
 3815SOL    HW112344   5.302   2.995   0.389
 3815SOL    HW212345   5.216   3.024   0.525
 3816SOL     OW12346   0.694   6.380   4.984
 3816SOL    HW112347   0.651   6.308   4.930
 3816SOL    HW212348   0.789   6.391   4.956
 3817SOL     OW12349   4.894   3.404   2.751
 3817SOL    HW112350   4.990   3.379   2.753
 3817SOL    HW212351   4.878   3.481   2.813
 3818SOL     OW12352   0.431   0.739   1.269
 3818SOL    HW112353   0.386   0.767   1.354
 3818SOL    HW212354   0.528   0.721   1.286
 3819SOL     OW12355   6.706   4.077   2.632
 3819SOL    HW112356   6.607   4.089   2.626
 3819SOL    HW212357   6.733   4.068   2.728
 3820SOL     OW12358   5.436   6.770   3.584
 3820SOL    HW112359   5.415   6.672   3.589
 3820SOL    HW212360   5.530   6.783   3.552
 3821SOL     OW12361   0.728   0.220   0.540
 3821SOL    HW112362   0.757   0.125   0.552
 3821SOL    HW212363   0.802   0.281   0.568
 3822SOL     OW12364   3.435   0.077   0.111
 3822SOL    HW112365   3.521   0.108   0.070
 3822SOL    HW212366   3.416   0.132   0.193
 3823SOL     OW12367   4.600   4.456   6.374
 3823SOL    HW112368   4.560   4.523   6.312
 3823SOL    HW212369   4.683   4.418   6.334
 3824SOL     OW12370   0.818   2.332   0.667
 3824SOL    HW112371   0.786   2.418   0.625
 3824SOL    HW212372   0.780   2.255   0.617
 3825SOL     OW12373   1.201   4.252   1.247
 3825SOL    HW112374   1.119   4.274   1.193
 3825SOL    HW212375   1.274   4.316   1.223
 3826SOL     OW12376   0.389   3.737   2.445
 3826SOL    HW112377   0.341   3.759   2.530
 3826SOL    HW212378   0.440   3.817   2.414
 3827SOL     OW12379   0.640   0.995   1.740
 3827SOL    HW112380   0.734   1.022   1.720
 3827SOL    HW212381   0.589   0.984   1.654
 3828SOL     OW12382   3.584   3.876   4.696
 3828SOL    HW112383   3.531   3.793   4.712
 3828SOL    HW212384   3.642   3.894   4.776
 3829SOL     OW12385   0.409   4.831   2.043
 3829SOL    HW112386   0.459   4.910   2.078
 3829SOL    HW212387   0.466   4.750   2.050
 3830SOL     OW12388   0.385   0.644   5.407
 3830SOL    HW112389   0.355   0.554   5.377
 3830SOL    HW212390   0.443   0.685   5.337
 3831SOL     OW12391   4.132   2.139   3.019
 3831SOL    HW112392   4.058   2.139   3.086
 3831SOL    HW212393   4.198   2.210   3.042
 3832SOL     OW12394   6.983   0.465   2.195
 3832SOL    HW112395   0.046   0.498   2.230
 3832SOL    HW212396   6.997   0.380   2.145
 3833SOL     OW12397   1.888   6.839   6.674
 3833SOL    HW112398   1.976   6.866   6.712
 3833SOL    HW212399   1.889   6.851   6.575
 3834SOL     OW12400   4.061   4.306   1.115
 3834SOL    HW112401   4.136   4.282   1.177
 3834SOL    HW212402   4.050   4.405   1.113
 3835SOL     OW12403   3.937   5.705   5.121
 3835SOL    HW112404   3.948   5.792   5.073
 3835SOL    HW212405   3.853   5.707   5.175
 3836SOL     OW12406   0.372   4.800   5.657
 3836SOL    HW112407   0.425   4.880   5.685
 3836SOL    HW212408   0.278   4.809   5.690
 3837SOL     OW12409   4.263   5.387   4.869
 3837SOL    HW112410   4.298   5.379   4.776
 3837SOL    HW212411   4.234   5.481   4.885
 3838SOL     OW12412   1.591   1.613   3.158
 3838SOL    HW112413   1.660   1.645   3.224
 3838SOL    HW212414   1.519   1.564   3.206
 3839SOL     OW12415   4.019   0.798   2.673
 3839SOL    HW112416   3.941   0.804   2.610
 3839SOL    HW212417   4.002   0.858   2.751
 3840SOL     OW12418   2.675   1.646   5.472
 3840SOL    HW112419   2.756   1.703   5.481
 3840SOL    HW212420   2.698   1.551   5.493
 3841SOL     OW12421   1.423   4.409   4.430
 3841SOL    HW112422   1.413   4.400   4.331
 3841SOL    HW212423   1.496   4.347   4.461
 3842SOL     OW12424   2.542   2.525   4.037
 3842SOL    HW112425   2.628   2.474   4.024
 3842SOL    HW212426   2.528   2.542   4.135
 3843SOL     OW12427   5.653   3.743   1.033
 3843SOL    HW112428   5.744   3.783   1.048
 3843SOL    HW212429   5.661   3.643   1.026
 3844SOL     OW12430   0.895   4.328   6.868
 3844SOL    HW112431   0.993   4.333   6.886
 3844SOL    HW212432   0.847   4.299   6.951
 3845SOL     OW12433   2.345   6.279   0.031
 3845SOL    HW112434   2.306   6.325   6.976
 3845SOL    HW212435   2.445   6.292   0.032
 3846SOL     OW12436   0.788   3.345   4.496
 3846SOL    HW112437   0.850   3.392   4.432
 3846SOL    HW212438   0.711   3.405   4.518
 3847SOL     OW12439   5.063   2.371   4.563
 3847SOL    HW112440   4.986   2.422   4.602
 3847SOL    HW212441   5.070   2.392   4.465
 3848SOL     OW12442   4.901   3.677   2.845
 3848SOL    HW112443   4.946   3.675   2.934
 3848SOL    HW212444   4.814   3.725   2.853
 3849SOL     OW12445   0.751   0.218   6.331
 3849SOL    HW112446   0.718   0.125   6.350
 3849SOL    HW212447   0.851   0.221   6.343
 3850SOL     OW12448   3.333   2.758   1.311
 3850SOL    HW112449   3.316   2.682   1.373
 3850SOL    HW212450   3.351   2.724   1.219
 3851SOL     OW12451   0.042   4.914   3.355
 3851SOL    HW112452   0.021   4.994   3.299
 3851SOL    HW212453   7.004   4.910   3.433
 3852SOL     OW12454   3.615   6.309   4.338
 3852SOL    HW112455   3.658   6.320   4.427
 3852SOL    HW212456   3.670   6.355   4.268
 3853SOL     OW12457   1.301   2.468   3.082
 3853SOL    HW112458   1.326   2.375   3.055
 3853SOL    HW212459   1.270   2.518   3.001
 3854SOL     OW12460   0.938   2.875   3.299
 3854SOL    HW112461   0.996   2.877   3.380
 3854SOL    HW212462   0.942   2.785   3.257
 3855SOL     OW12463   4.016   6.298   6.758
 3855SOL    HW112464   3.976   6.211   6.786
 3855SOL    HW212465   4.074   6.284   6.678
 3856SOL     OW12466   0.237   1.486   6.086
 3856SOL    HW112467   0.297   1.457   6.011
 3856SOL    HW212468   0.284   1.553   6.142
 3857SOL     OW12469   1.379   6.247   6.257
 3857SOL    HW112470   1.284   6.223   6.279
 3857SOL    HW212471   1.440   6.203   6.323
 3858SOL     OW12472   3.340   1.348   6.089
 3858SOL    HW112473   3.349   1.296   6.004
 3858SOL    HW212474   3.386   1.436   6.081
 3859SOL     OW12475   6.319   1.013   1.644
 3859SOL    HW112476   6.327   1.042   1.739
 3859SOL    HW212477   6.228   1.038   1.610
 3860SOL     OW12478   1.860   1.324   4.611
 3860SOL    HW112479   1.937   1.378   4.577
 3860SOL    HW212480   1.777   1.350   4.562
 3861SOL     OW12481   4.635   6.520   3.044
 3861SOL    HW112482   4.601   6.435   3.004
 3861SOL    HW212483   4.654   6.585   2.971
 3862SOL     OW12484   0.757   0.346   4.423
 3862SOL    HW112485   0.847   0.390   4.422
 3862SOL    HW212486   0.735   0.319   4.516
 3863SOL     OW12487   6.310   1.267   6.599
 3863SOL    HW112488   6.270   1.290   6.510
 3863SOL    HW212489   6.251   1.300   6.672
 3864SOL     OW12490   2.090   0.706   5.377
 3864SOL    HW112491   2.180   0.727   5.417
 3864SOL    HW212492   2.089   0.610   5.348
 3865SOL     OW12493   4.120   1.383   1.156
 3865SOL    HW112494   4.031   1.429   1.165
 3865SOL    HW212495   4.193   1.450   1.167
 3866SOL     OW12496   3.846   1.168   6.967
 3866SOL    HW112497   3.904   1.104   6.919
 3866SOL    HW212498   3.766   1.190   6.911
 3867SOL     OW12499   1.300   4.154   3.264
 3867SOL    HW112500   1.390   4.110   3.270
 3867SOL    HW212501   1.311   4.253   3.267
 3868SOL     OW12502   4.012   0.427   0.035
 3868SOL    HW112503   4.008   0.343   0.088
 3868SOL    HW212504   4.079   0.417   6.985
 3869SOL     OW12505   6.771   3.128   3.861
 3869SOL    HW112506   6.801   3.223   3.872
 3869SOL    HW212507   6.737   3.114   3.768
 3870SOL     OW12508   6.935   6.367   1.275
 3870SOL    HW112509   6.943   6.381   1.374
 3870SOL    HW212510   7.002   6.299   1.246
 3871SOL     OW12511   3.513   0.634   3.228
 3871SOL    HW112512   3.499   0.582   3.312
 3871SOL    HW212513   3.574   0.711   3.247
 3872SOL     OW12514   3.015   3.471   3.849
 3872SOL    HW112515   2.958   3.493   3.770
 3872SOL    HW212516   3.039   3.374   3.847
 3873SOL     OW12517   5.942   4.332   1.176
 3873SOL    HW112518   5.882   4.411   1.171
 3873SOL    HW212519   5.918   4.276   1.255
 3874SOL     OW12520   4.048   0.769   0.107
 3874SOL    HW112521   4.055   0.700   0.179
 3874SOL    HW212522   3.959   0.813   0.112
 3875SOL     OW12523   2.033   2.841   3.539
 3875SOL    HW112524   2.062   2.747   3.519
 3875SOL    HW212525   2.113   2.900   3.545
 3876SOL     OW12526   3.522   5.431   0.639
 3876SOL    HW112527   3.490   5.365   0.707
 3876SOL    HW212528   3.619   5.416   0.622
 3877SOL     OW12529   6.237   2.635   1.224
 3877SOL    HW112530   6.321   2.582   1.234
 3877SOL    HW212531   6.179   2.621   1.304
 3878SOL     OW12532   4.805   6.280   4.368
 3878SOL    HW112533   4.841   6.245   4.281
 3878SOL    HW212534   4.706   6.268   4.370
 3879SOL     OW12535   5.921   5.379   0.763
 3879SOL    HW112536   5.834   5.420   0.792
 3879SOL    HW212537   5.995   5.444   0.779
 3880SOL     OW12538   5.061   4.025   4.848
 3880SOL    HW112539   5.017   4.113   4.830
 3880SOL    HW212540   5.075   4.014   4.947
 3881SOL     OW12541   1.405   3.321   1.554
 3881SOL    HW112542   1.368   3.311   1.646
 3881SOL    HW212543   1.459   3.405   1.549
 3882SOL     OW12544   0.629   0.905   6.052
 3882SOL    HW112545   0.644   0.820   6.102
 3882SOL    HW212546   0.653   0.983   6.111
 3883SOL     OW12547   3.813   1.530   2.211
 3883SOL    HW112548   3.784   1.497   2.301
 3883SOL    HW212549   3.732   1.553   2.157
 3884SOL     OW12550   0.625   5.673   2.307
 3884SOL    HW112551   0.599   5.702   2.215
 3884SOL    HW212552   0.724   5.681   2.317
 3885SOL     OW12553   6.741   5.244   2.950
 3885SOL    HW112554   6.694   5.332   2.949
 3885SOL    HW212555   6.764   5.220   3.044
 3886SOL     OW12556   4.559   5.662   5.332
 3886SOL    HW112557   4.579   5.585   5.272
 3886SOL    HW212558   4.644   5.694   5.373
 3887SOL     OW12559   0.891   0.166   0.085
 3887SOL    HW112560   0.791   0.164   0.078
 3887SOL    HW212561   0.919   0.252   0.129
 3888SOL     OW12562   6.511   6.989   5.046
 3888SOL    HW112563   6.484   6.896   5.073
 3888SOL    HW212564   6.564   6.985   4.961
 3889SOL     OW12565   6.668   3.745   0.481
 3889SOL    HW112566   6.715   3.792   0.406
 3889SOL    HW212567   6.577   3.785   0.494
 3890SOL     OW12568   6.707   4.351   3.605
 3890SOL    HW112569   6.651   4.416   3.554
 3890SOL    HW212570   6.802   4.355   3.572
 3891SOL     OW12571   5.550   4.128   4.353
 3891SOL    HW112572   5.508   4.037   4.360
 3891SOL    HW212573   5.510   4.176   4.275
 3892SOL     OW12574   0.215   2.223   1.524
 3892SOL    HW112575   0.208   2.265   1.434
 3892SOL    HW212576   0.174   2.132   1.522
 3893SOL     OW12577   3.982   3.141   7.015
 3893SOL    HW112578   3.980   3.103   6.922
 3893SOL    HW212579   3.893   3.184   0.011
 3894SOL     OW12580   4.392   1.204   0.034
 3894SOL    HW112581   4.464   1.218   0.103
 3894SOL    HW212582   4.339   1.123   0.058
 3895SOL     OW12583   1.039   0.527   5.679
 3895SOL    HW112584   0.951   0.520   5.726
 3895SOL    HW212585   1.023   0.549   5.582
 3896SOL     OW12586   0.448   1.418   5.849
 3896SOL    HW112587   0.496   1.412   5.762
 3896SOL    HW212588   0.510   1.451   5.920
 3897SOL     OW12589   4.078   5.416   2.525
 3897SOL    HW112590   4.000   5.463   2.566
 3897SOL    HW212591   4.046   5.351   2.456
 3898SOL     OW12592   2.916   3.057   5.722
 3898SOL    HW112593   3.005   3.022   5.694
 3898SOL    HW212594   2.859   2.982   5.756
 3899SOL     OW12595   4.547   6.730   5.343
 3899SOL    HW112596   4.644   6.709   5.331
 3899SOL    HW212597   4.505   6.746   5.254
 3900SOL     OW12598   4.919   3.118   3.645
 3900SOL    HW112599   4.834   3.074   3.617
 3900SOL    HW212600   4.937   3.197   3.585
 3901SOL     OW12601   2.995   0.596   5.985
 3901SOL    HW112602   3.046   0.606   5.900
 3901SOL    HW212603   3.042   0.644   6.059
 3902SOL     OW12604   6.258   2.802   2.013
 3902SOL    HW112605   6.171   2.752   2.020
 3902SOL    HW212606   6.334   2.736   2.014
 3903SOL     OW12607   3.842   5.920   0.405
 3903SOL    HW112608   3.910   5.986   0.372
 3903SOL    HW212609   3.786   5.890   0.328
 3904SOL     OW12610   2.525   1.271   6.097
 3904SOL    HW112611   2.609   1.325   6.101
 3904SOL    HW212612   2.533   1.203   6.023
 3905SOL     OW12613   0.244   0.168   6.848
 3905SOL    HW112614   0.316   0.100   6.836
 3905SOL    HW212615   0.187   0.142   6.926
 3906SOL     OW12616   5.649   6.032   5.816
 3906SOL    HW112617   5.552   6.054   5.816
 3906SOL    HW212618   5.698   6.096   5.757
 3907SOL     OW12619   5.650   0.883   3.690
 3907SOL    HW112620   5.587   0.847   3.760
 3907SOL    HW212621   5.605   0.882   3.601
 3908SOL     OW12622   0.776   2.548   0.471
 3908SOL    HW112623   0.789   2.643   0.443
 3908SOL    HW212624   0.822   2.488   0.406
 3909SOL     OW12625   6.414   5.874   5.788
 3909SOL    HW112626   6.351   5.948   5.813
 3909SOL    HW212627   6.376   5.821   5.713
 3910SOL     OW12628   3.512   3.742   2.571
 3910SOL    HW112629   3.420   3.705   2.560
 3910SOL    HW212630   3.557   3.698   2.649
 3911SOL     OW12631   5.062   1.385   5.292
 3911SOL    HW112632   5.022   1.323   5.358
 3911SOL    HW212633   5.085   1.472   5.336
 3912SOL     OW12634   5.192   0.951   5.211
 3912SOL    HW112635   5.097   0.926   5.191
 3912SOL    HW212636   5.249   0.932   5.131
 3913SOL     OW12637   2.617   6.531   6.363
 3913SOL    HW112638   2.700   6.538   6.307
 3913SOL    HW212639   2.542   6.579   6.317
 3914SOL     OW12640   2.925   0.927   1.067
 3914SOL    HW112641   2.949   0.845   1.014
 3914SOL    HW212642   2.994   0.943   1.138
 3915SOL     OW12643   4.751   5.445   1.574
 3915SOL    HW112644   4.808   5.446   1.492
 3915SOL    HW212645   4.780   5.371   1.634
 3916SOL     OW12646   1.336   0.719   4.475
 3916SOL    HW112647   1.369   0.707   4.381
 3916SOL    HW212648   1.255   0.777   4.474
 3917SOL     OW12649   6.335   5.897   0.221
 3917SOL    HW112650   6.370   5.909   0.314
 3917SOL    HW212651   6.239   5.925   0.217
 3918SOL     OW12652   4.907   6.080   1.453
 3918SOL    HW112653   4.853   6.140   1.394
 3918SOL    HW212654   5.000   6.072   1.416
 3919SOL     OW12655   3.202   6.550   6.346
 3919SOL    HW112656   3.136   6.503   6.287
 3919SOL    HW212657   3.289   6.501   6.344
 3920SOL     OW12658   2.995   3.252   0.825
 3920SOL    HW112659   2.993   3.169   0.881
 3920SOL    HW212660   2.914   3.253   0.765
 3921SOL     OW12661   0.126   3.635   1.668
 3921SOL    HW112662   0.056   3.644   1.738
 3921SOL    HW212663   0.212   3.605   1.710
 3922SOL     OW12664   6.448   3.005   2.005
 3922SOL    HW112665   6.513   2.979   1.933
 3922SOL    HW212666   6.369   2.944   2.001
 3923SOL     OW12667   6.564   0.944   0.117
 3923SOL    HW112668   6.536   0.922   0.024
 3923SOL    HW212669   6.573   1.043   0.127
 3924SOL     OW12670   0.443   4.743   3.655
 3924SOL    HW112671   0.431   4.828   3.705
 3924SOL    HW212672   0.399   4.749   3.566
 3925SOL     OW12673   3.154   5.229   0.894
 3925SOL    HW112674   3.106   5.150   0.857
 3925SOL    HW212675   3.104   5.264   0.973
 3926SOL     OW12676   6.995   5.933   3.066
 3926SOL    HW112677   0.067   5.906   3.064
 3926SOL    HW212678   6.943   5.877   3.001
 3927SOL     OW12679   6.477   2.895   3.618
 3927SOL    HW112680   6.539   2.888   3.696
 3927SOL    HW212681   6.382   2.891   3.649
 3928SOL     OW12682   3.697   6.326   5.987
 3928SOL    HW112683   3.709   6.298   6.082
 3928SOL    HW212684   3.757   6.272   5.928
 3929SOL     OW12685   0.139   0.945   5.060
 3929SOL    HW112686   0.088   0.973   5.141
 3929SOL    HW212687   0.210   1.013   5.040
 3930SOL     OW12688   2.435   2.020   3.874
 3930SOL    HW112689   2.409   1.925   3.857
 3930SOL    HW212690   2.433   2.039   3.972
 3931SOL     OW12691   1.527   1.158   1.664
 3931SOL    HW112692   1.527   1.156   1.764
 3931SOL    HW212693   1.479   1.079   1.628
 3932SOL     OW12694   1.697   4.791   3.579
 3932SOL    HW112695   1.671   4.751   3.667
 3932SOL    HW212696   1.663   4.733   3.505
 3933SOL     OW12697   2.379   6.327   6.727
 3933SOL    HW112698   2.310   6.395   6.753
 3933SOL    HW212699   2.450   6.371   6.671
 3934SOL     OW12700   6.792   1.160   0.460
 3934SOL    HW112701   6.798   1.237   0.396
 3934SOL    HW212702   6.720   1.097   0.430
 3935SOL     OW12703   2.758   6.474   6.870
 3935SOL    HW112704   2.851   6.450   6.841
 3935SOL    HW212705   2.702   6.491   6.789
 3936SOL     OW12706   0.114   5.199   5.599
 3936SOL    HW112707   0.116   5.099   5.590
 3936SOL    HW212708   0.190   5.228   5.657
 3937SOL     OW12709   6.910   1.858   3.588
 3937SOL    HW112710   6.892   1.817   3.499
 3937SOL    HW212711   7.007   1.880   3.596
 3938SOL     OW12712   0.249   2.243   3.936
 3938SOL    HW112713   0.283   2.166   3.881
 3938SOL    HW212714   0.281   2.233   4.031
 3939SOL     OW12715   2.543   2.214   2.726
 3939SOL    HW112716   2.467   2.278   2.722
 3939SOL    HW212717   2.605   2.239   2.801
 3940SOL     OW12718   4.860   5.310   1.360
 3940SOL    HW112719   4.854   5.304   1.261
 3940SOL    HW212720   4.862   5.218   1.400
 3941SOL     OW12721   4.979   3.077   6.099
 3941SOL    HW112722   4.995   3.056   6.195
 3941SOL    HW212723   4.982   3.176   6.085
 3942SOL     OW12724   0.454   7.010   6.884
 3942SOL    HW112725   0.473   6.965   6.971
 3942SOL    HW212726   0.479   6.949   6.809
 3943SOL     OW12727   0.177   3.587   3.128
 3943SOL    HW112728   0.210   3.573   3.221
 3943SOL    HW212729   0.139   3.502   3.093
 3944SOL     OW12730   4.816   2.894   4.838
 3944SOL    HW112731   4.823   2.970   4.903
 3944SOL    HW212732   4.738   2.837   4.863
 3945SOL     OW12733   6.987   1.665   0.612
 3945SOL    HW112734   6.897   1.632   0.641
 3945SOL    HW212735   0.007   1.713   0.688
 3946SOL     OW12736   5.445   5.380   5.558
 3946SOL    HW112737   5.370   5.416   5.613
 3946SOL    HW212738   5.528   5.378   5.612
 3947SOL     OW12739   5.767   5.798   0.702
 3947SOL    HW112740   5.707   5.751   0.637
 3947SOL    HW212741   5.862   5.788   0.674
 3948SOL     OW12742   1.289   5.499   2.236
 3948SOL    HW112743   1.309   5.443   2.155
 3948SOL    HW212744   1.356   5.573   2.243
 3949SOL     OW12745   4.577   0.616   3.378
 3949SOL    HW112746   4.578   0.713   3.403
 3949SOL    HW212747   4.582   0.607   3.279
 3950SOL     OW12748   1.837   4.056   1.060
 3950SOL    HW112749   1.812   3.962   1.082
 3950SOL    HW212750   1.777   4.091   0.989
 3951SOL     OW12751   5.361   6.727   0.860
 3951SOL    HW112752   5.268   6.720   0.895
 3951SOL    HW212753   5.394   6.635   0.837
 3952SOL     OW12754   6.293   3.086   3.037
 3952SOL    HW112755   6.272   3.100   2.940
 3952SOL    HW212756   6.247   3.157   3.091
 3953SOL     OW12757   3.970   4.782   1.735
 3953SOL    HW112758   4.010   4.854   1.678
 3953SOL    HW212759   3.969   4.696   1.685
 3954SOL     OW12760   4.353   5.082   4.886
 3954SOL    HW112761   4.307   5.124   4.808
 3954SOL    HW212762   4.439   5.130   4.903
 3955SOL     OW12763   3.126   5.818   6.618
 3955SOL    HW112764   3.086   5.827   6.527
 3955SOL    HW212765   3.222   5.845   6.615
 3956SOL     OW12766   6.759   1.051   3.430
 3956SOL    HW112767   6.842   1.073   3.483
 3956SOL    HW212768   6.687   1.022   3.492
 3957SOL     OW12769   4.919   6.186   4.127
 3957SOL    HW112770   4.906   6.192   4.028
 3957SOL    HW212771   4.938   6.091   4.152
 3958SOL     OW12772   6.187   1.327   4.878
 3958SOL    HW112773   6.164   1.394   4.949
 3958SOL    HW212774   6.243   1.371   4.808
 3959SOL     OW12775   4.393   6.969   0.657
 3959SOL    HW112776   4.452   6.929   0.727
 3959SOL    HW212777   4.301   6.983   0.695
 3960SOL     OW12778   4.863   1.763   0.016
 3960SOL    HW112779   4.779   1.817   0.029
 3960SOL    HW212780   4.838   1.667   0.002
 3961SOL     OW12781   5.436   1.985   2.308
 3961SOL    HW112782   5.431   2.079   2.274
 3961SOL    HW212783   5.425   1.922   2.231
 3962SOL     OW12784   2.980   3.762   0.445
 3962SOL    HW112785   2.980   3.784   0.347
 3962SOL    HW212786   3.052   3.814   0.490
 3963SOL     OW12787   4.696   4.789   4.065
 3963SOL    HW112788   4.770   4.846   4.101
 3963SOL    HW212789   4.655   4.833   3.985
 3964SOL     OW12790   4.363   4.853   4.148
 3964SOL    HW112791   4.417   4.884   4.071
 3964SOL    HW212792   4.356   4.753   4.145
 3965SOL     OW12793   4.835   2.948   5.410
 3965SOL    HW112794   4.779   3.003   5.472
 3965SOL    HW212795   4.780   2.872   5.374
 3966SOL     OW12796   4.819   5.960   6.455
 3966SOL    HW112797   4.736   5.923   6.497
 3966SOL    HW212798   4.894   5.958   6.521
 3967SOL     OW12799   2.103   3.483   2.399
 3967SOL    HW112800   2.076   3.494   2.494
 3967SOL    HW212801   2.139   3.391   2.385
 3968SOL     OW12802   4.839   0.603   1.395
 3968SOL    HW112803   4.761   0.546   1.368
 3968SOL    HW212804   4.910   0.545   1.436
 3969SOL     OW12805   1.448   4.382   2.357
 3969SOL    HW112806   1.548   4.381   2.346
 3969SOL    HW212807   1.409   4.301   2.313
 3970SOL     OW12808   6.337   6.494   3.665
 3970SOL    HW112809   6.379   6.536   3.584
 3970SOL    HW212810   6.370   6.540   3.747
 3971SOL     OW12811   2.999   5.633   3.347
 3971SOL    HW112812   3.052   5.669   3.423
 3971SOL    HW212813   2.967   5.540   3.368
 3972SOL     OW12814   1.420   4.035   0.680
 3972SOL    HW112815   1.413   3.998   0.587
 3972SOL    HW212816   1.498   3.993   0.727
 3973SOL     OW12817   1.514   5.280   6.852
 3973SOL    HW112818   1.515   5.186   6.818
 3973SOL    HW212819   1.527   5.343   6.775
 3974SOL     OW12820   1.706   0.382   4.900
 3974SOL    HW112821   1.711   0.431   4.987
 3974SOL    HW212822   1.711   0.447   4.824
 3975SOL     OW12823   5.156   1.520   5.553
 3975SOL    HW112824   5.169   1.545   5.649
 3975SOL    HW212825   5.242   1.485   5.516
 3976SOL     OW12826   1.714   5.855   1.928
 3976SOL    HW112827   1.799   5.881   1.882
 3976SOL    HW212828   1.643   5.921   1.904
 3977SOL     OW12829   2.430   3.739   5.522
 3977SOL    HW112830   2.393   3.658   5.568
 3977SOL    HW212831   2.404   3.736   5.426
 3978SOL     OW12832   5.872   4.835   4.834
 3978SOL    HW112833   5.836   4.842   4.742
 3978SOL    HW212834   5.934   4.912   4.852
 3979SOL     OW12835   3.137   0.264   1.077
 3979SOL    HW112836   3.165   0.194   1.143
 3979SOL    HW212837   3.182   0.350   1.098
 3980SOL     OW12838   5.672   6.062   0.349
 3980SOL    HW112839   5.619   6.004   0.287
 3980SOL    HW212840   5.614   6.094   0.424
 3981SOL     OW12841   2.879   0.748   0.317
 3981SOL    HW112842   2.843   0.744   0.410
 3981SOL    HW212843   2.944   0.673   0.303
 3982SOL     OW12844   2.347   0.462   3.293
 3982SOL    HW112845   2.398   0.547   3.280
 3982SOL    HW212846   2.372   0.397   3.220
 3983SOL     OW12847   5.334   4.771   4.196
 3983SOL    HW112848   5.247   4.755   4.242
 3983SOL    HW212849   5.356   4.693   4.137
 3984SOL     OW12850   6.472   1.378   3.241
 3984SOL    HW112851   6.566   1.349   3.228
 3984SOL    HW212852   6.410   1.314   3.194
 3985SOL     OW12853   2.978   4.497   6.500
 3985SOL    HW112854   2.951   4.403   6.521
 3985SOL    HW212855   2.911   4.560   6.539
 3986SOL     OW12856   5.028   2.249   2.785
 3986SOL    HW112857   5.100   2.182   2.807
 3986SOL    HW212858   5.064   2.318   2.723
 3987SOL     OW12859   3.433   5.182   3.707
 3987SOL    HW112860   3.415   5.088   3.679
 3987SOL    HW212861   3.436   5.187   3.807
 3988SOL     OW12862   3.705   4.055   6.612
 3988SOL    HW112863   3.648   4.014   6.684
 3988SOL    HW212864   3.792   4.084   6.651
 3989SOL     OW12865   6.251   3.048   6.794
 3989SOL    HW112866   6.265   2.949   6.796
 3989SOL    HW212867   6.306   3.090   6.865
 3990SOL     OW12868   4.430   2.194   2.881
 3990SOL    HW112869   4.401   2.270   2.822
 3990SOL    HW212870   4.410   2.107   2.835
 3991SOL     OW12871   5.920   1.120   2.923
 3991SOL    HW112872   5.949   1.069   3.004
 3991SOL    HW212873   5.980   1.199   2.910
 3992SOL     OW12874   3.009   1.834   6.718
 3992SOL    HW112875   2.947   1.812   6.643
 3992SOL    HW212876   3.032   1.750   6.768
 3993SOL     OW12877   1.253   1.903   2.652
 3993SOL    HW112878   1.229   1.869   2.561
 3993SOL    HW212879   1.304   1.988   2.644
 3994SOL     OW12880   1.992   0.420   5.600
 3994SOL    HW112881   2.028   0.485   5.667
 3994SOL    HW212882   2.065   0.389   5.540
 3995SOL     OW12883   2.613   3.682   5.943
 3995SOL    HW112884   2.543   3.633   5.891
 3995SOL    HW212885   2.693   3.623   5.955
 3996SOL     OW12886   1.265   0.454   4.492
 3996SOL    HW112887   1.293   0.406   4.408
 3996SOL    HW212888   1.277   0.552   4.480
 3997SOL     OW12889   5.080   1.697   3.569
 3997SOL    HW112890   5.171   1.704   3.610
 3997SOL    HW212891   5.029   1.781   3.587
 3998SOL     OW12892   4.184   1.653   3.589
 3998SOL    HW112893   4.246   1.684   3.661
 3998SOL    HW212894   4.148   1.563   3.613
 3999SOL     OW12895   5.697   3.714   3.935
 3999SOL    HW112896   5.784   3.664   3.927
 3999SOL    HW212897   5.634   3.662   3.992
 4000SOL     OW12898   3.349   6.493   3.128
 4000SOL    HW112899   3.329   6.423   3.196
 4000SOL    HW212900   3.418   6.555   3.164
 4001SOL     OW12901   2.090   1.970   3.526
 4001SOL    HW112902   2.062   1.997   3.434
 4001SOL    HW212903   2.180   2.009   3.546
 4002SOL     OW12904   3.381   4.341   0.132
 4002SOL    HW112905   3.403   4.398   0.211
 4002SOL    HW212906   3.331   4.260   0.163
 4003SOL     OW12907   3.766   6.853   4.381
 4003SOL    HW112908   3.773   6.924   4.451
 4003SOL    HW212909   3.717   6.889   4.302
 4004SOL     OW12910   4.894   1.935   4.134
 4004SOL    HW112911   4.932   1.873   4.065
 4004SOL    HW212912   4.795   1.923   4.138
 4005SOL     OW12913   5.287   4.971   0.046
 4005SOL    HW112914   5.350   5.034   0.093
 4005SOL    HW212915   5.311   4.877   0.069
 4006SOL     OW12916   4.611   5.349   2.829
 4006SOL    HW112917   4.691   5.374   2.774
 4006SOL    HW212918   4.639   5.324   2.921
 4007SOL     OW12919   0.090   2.386   0.601
 4007SOL    HW112920   0.085   2.486   0.595
 4007SOL    HW212921   0.184   2.356   0.587
 4008SOL     OW12922   3.228   1.914   3.883
 4008SOL    HW112923   3.314   1.864   3.871
 4008SOL    HW212924   3.243   2.011   3.864
 4009SOL     OW12925   4.236   3.387   1.408
 4009SOL    HW112926   4.139   3.367   1.420
 4009SOL    HW212927   4.268   3.346   1.322
 4010SOL     OW12928   2.369   3.390   1.166
 4010SOL    HW112929   2.438   3.318   1.171
 4010SOL    HW212930   2.377   3.449   1.247
 4011SOL     OW12931   0.571   1.371   1.919
 4011SOL    HW112932   0.568   1.455   1.973
 4011SOL    HW212933   0.563   1.292   1.980
 4012SOL     OW12934   5.468   4.673   1.965
 4012SOL    HW112935   5.379   4.719   1.957
 4012SOL    HW212936   5.514   4.704   2.048
 4013SOL     OW12937   3.138   1.683   5.428
 4013SOL    HW112938   3.148   1.622   5.507
 4013SOL    HW212939   3.051   1.731   5.435
 4014SOL     OW12940   5.444   6.559   2.453
 4014SOL    HW112941   5.466   6.551   2.356
 4014SOL    HW212942   5.375   6.630   2.466
 4015SOL     OW12943   4.963   4.826   6.473
 4015SOL    HW112944   4.954   4.780   6.561
 4015SOL    HW212945   5.059   4.852   6.459
 4016SOL     OW12946   2.991   5.565   6.168
 4016SOL    HW112947   2.955   5.471   6.163
 4016SOL    HW212948   3.055   5.580   6.092
 4017SOL     OW12949   0.455   5.842   0.495
 4017SOL    HW112950   0.363   5.875   0.515
 4017SOL    HW212951   0.512   5.918   0.465
 4018SOL     OW12952   4.509   6.210   2.485
 4018SOL    HW112953   4.418   6.252   2.486
 4018SOL    HW212954   4.500   6.110   2.484
 4019SOL     OW12955   5.480   3.988   3.090
 4019SOL    HW112956   5.459   3.907   3.035
 4019SOL    HW212957   5.503   4.064   3.030
 4020SOL     OW12958   4.568   1.321   5.272
 4020SOL    HW112959   4.611   1.270   5.347
 4020SOL    HW212960   4.469   1.307   5.275
 4021SOL     OW12961   4.097   4.847   6.057
 4021SOL    HW112962   3.998   4.859   6.067
 4021SOL    HW212963   4.118   4.750   6.045
 4022SOL     OW12964   4.739   1.264   6.664
 4022SOL    HW112965   4.825   1.258   6.614
 4022SOL    HW212966   4.753   1.230   6.757
 4023SOL     OW12967   6.454   1.420   4.227
 4023SOL    HW112968   6.536   1.470   4.253
 4023SOL    HW212969   6.387   1.483   4.187
 4024SOL     OW12970   3.293   6.875   3.168
 4024SOL    HW112971   3.326   6.871   3.262
 4024SOL    HW212972   3.194   6.866   3.166
 4025SOL     OW12973   0.374   4.500   3.008
 4025SOL    HW112974   0.418   4.567   3.068
 4025SOL    HW212975   0.382   4.409   3.048
 4026SOL     OW12976   5.719   6.168   3.973
 4026SOL    HW112977   5.729   6.119   4.060
 4026SOL    HW212978   5.664   6.113   3.910
 4027SOL     OW12979   3.672   4.137   1.659
 4027SOL    HW112980   3.628   4.189   1.587
 4027SOL    HW212981   3.632   4.163   1.748
 4028SOL     OW12982   1.703   2.531   3.972
 4028SOL    HW112983   1.668   2.481   3.893
 4028SOL    HW212984   1.628   2.553   4.033
 4029SOL     OW12985   2.818   4.123   5.875
 4029SOL    HW112986   2.860   4.130   5.965
 4029SOL    HW212987   2.813   4.027   5.848
 4030SOL     OW12988   0.800   2.384   5.847
 4030SOL    HW112989   0.839   2.467   5.807
 4030SOL    HW212990   0.864   2.308   5.836
 4031SOL     OW12991   5.134   5.317   3.838
 4031SOL    HW112992   5.052   5.373   3.822
 4031SOL    HW212993   5.213   5.362   3.797
 4032SOL     OW12994   6.317   6.442   4.089
 4032SOL    HW112995   6.351   6.495   4.012
 4032SOL    HW212996   6.365   6.354   4.093
 4033SOL     OW12997   3.269   2.926   4.427
 4033SOL    HW112998   3.239   2.844   4.380
 4033SOL    HW212999   3.217   3.005   4.393
 4034SOL     OW13000   6.069   1.679   4.433
 4034SOL    HW113001   6.084   1.745   4.358
 4034SOL    HW213002   6.152   1.672   4.488
 4035SOL     OW13003   0.274   4.468   7.017
 4035SOL    HW113004   0.180   4.442   6.996
 4035SOL    HW213005   0.337   4.401   6.977
 4036SOL     OW13006   5.746   6.089   2.613
 4036SOL    HW113007   5.654   6.122   2.636
 4036SOL    HW213008   5.763   6.102   2.516
 4037SOL     OW13009   1.491   3.231   6.324
 4037SOL    HW113010   1.439   3.219   6.408
 4037SOL    HW213011   1.431   3.219   6.245
 4038SOL     OW13012   5.020   4.720   2.623
 4038SOL    HW113013   4.990   4.742   2.716
 4038SOL    HW213014   5.016   4.621   2.609
 4039SOL     OW13015   5.260   5.896   0.140
 4039SOL    HW113016   5.210   5.838   0.076
 4039SOL    HW213017   5.222   5.988   0.138
 4040SOL     OW13018   2.864   0.207   1.182
 4040SOL    HW113019   2.782   0.154   1.202
 4040SOL    HW213020   2.922   0.155   1.119
 4041SOL     OW13021   0.861   6.009   2.495
 4041SOL    HW113022   0.791   6.035   2.562
 4041SOL    HW213023   0.946   6.057   2.515
 4042SOL     OW13024   5.862   5.510   2.608
 4042SOL    HW113025   5.847   5.411   2.607
 4042SOL    HW213026   5.829   5.550   2.523
 4043SOL     OW13027   4.990   2.040   2.523
 4043SOL    HW113028   4.920   2.060   2.592
 4043SOL    HW213029   5.039   2.124   2.501
 4044SOL     OW13030   5.784   0.442   3.407
 4044SOL    HW113031   5.820   0.406   3.321
 4044SOL    HW213032   5.772   0.541   3.400
 4045SOL     OW13033   2.662   4.426   6.692
 4045SOL    HW113034   2.648   4.447   6.595
 4045SOL    HW213035   2.574   4.417   6.738
 4046SOL     OW13036   1.011   1.960   2.264
 4046SOL    HW113037   1.001   2.051   2.304
 4046SOL    HW213038   0.921   1.925   2.238
 4047SOL     OW13039   2.870   3.778   1.594
 4047SOL    HW113040   2.811   3.857   1.612
 4047SOL    HW213041   2.819   3.694   1.612
 4048SOL     OW13042   5.591   0.722   1.143
 4048SOL    HW113043   5.689   0.713   1.160
 4048SOL    HW213044   5.577   0.761   1.052
 4049SOL     OW13045   5.926   6.709   6.013
 4049SOL    HW113046   5.906   6.612   6.025
 4049SOL    HW213047   5.943   6.727   5.916
 4050SOL     OW13048   1.606   6.409   0.179
 4050SOL    HW113049   1.705   6.421   0.181
 4050SOL    HW213050   1.561   6.493   0.210
 4051SOL     OW13051   3.089   4.501   0.664
 4051SOL    HW113052   3.039   4.422   0.698
 4051SOL    HW213053   3.160   4.526   0.729
 4052SOL     OW13054   0.784   0.495   0.346
 4052SOL    HW113055   0.691   0.522   0.321
 4052SOL    HW213056   0.824   0.564   0.406
 4053SOL     OW13057   3.133   5.213   3.895
 4053SOL    HW113058   3.146   5.120   3.930
 4053SOL    HW213059   3.220   5.263   3.899
 4054SOL     OW13060   2.798   2.688   0.383
 4054SOL    HW113061   2.799   2.746   0.465
 4054SOL    HW213062   2.769   2.596   0.408
 4055SOL     OW13063   2.784   2.369   6.139
 4055SOL    HW113064   2.797   2.305   6.063
 4055SOL    HW213065   2.717   2.438   6.112
 4056SOL     OW13066   3.731   3.282   0.007
 4056SOL    HW113067   3.754   3.353   6.964
 4056SOL    HW213068   3.653   3.311   0.061
 4057SOL     OW13069   4.892   3.353   0.149
 4057SOL    HW113070   4.861   3.334   0.056
 4057SOL    HW213071   4.822   3.408   0.196
 4058SOL     OW13072   2.660   1.466   4.700
 4058SOL    HW113073   2.640   1.563   4.708
 4058SOL    HW213074   2.628   1.433   4.611
 4059SOL     OW13075   1.968   2.003   4.462
 4059SOL    HW113076   2.021   1.963   4.537
 4059SOL    HW213077   2.005   2.093   4.440
 4060SOL     OW13078   3.983   4.814   4.064
 4060SOL    HW113079   4.044   4.770   3.998
 4060SOL    HW213080   3.953   4.902   4.028
 4061SOL     OW13081   3.669   4.448   1.700
 4061SOL    HW113082   3.668   4.531   1.757
 4061SOL    HW213083   3.667   4.474   1.604
 4062SOL     OW13084   3.490   1.155   2.486
 4062SOL    HW113085   3.408   1.125   2.533
 4062SOL    HW213086   3.557   1.188   2.552
 4063SOL     OW13087   3.127   6.009   5.745
 4063SOL    HW113088   3.186   5.948   5.693
 4063SOL    HW213089   3.052   5.956   5.787
 4064SOL     OW13090   1.144   0.264   2.638
 4064SOL    HW113091   1.066   0.326   2.646
 4064SOL    HW213092   1.186   0.275   2.547
 4065SOL     OW13093   0.525   6.641   0.904
 4065SOL    HW113094   0.526   6.541   0.911
 4065SOL    HW213095   0.524   6.681   0.996
 4066SOL     OW13096   5.543   3.974   1.994
 4066SOL    HW113097   5.455   4.016   1.970
 4066SOL    HW213098   5.615   4.044   1.994
 4067SOL     OW13099   5.492   1.812   2.774
 4067SOL    HW113100   5.522   1.741   2.710
 4067SOL    HW213101   5.436   1.879   2.726
 4068SOL     OW13102   5.201   0.725   4.805
 4068SOL    HW113103   5.216   0.638   4.851
 4068SOL    HW213104   5.238   0.721   4.712
 4069SOL     OW13105   5.503   4.825   0.985
 4069SOL    HW113106   5.559   4.755   0.943
 4069SOL    HW213107   5.560   4.883   1.043
 4070SOL     OW13108   2.404   4.427   2.622
 4070SOL    HW113109   2.341   4.361   2.664
 4070SOL    HW213110   2.427   4.396   2.530
 4071SOL     OW13111   1.596   0.824   5.065
 4071SOL    HW113112   1.569   0.773   5.147
 4071SOL    HW213113   1.570   0.920   5.076
 4072SOL     OW13114   1.408   6.945   4.493
 4072SOL    HW113115   1.409   6.941   4.593
 4072SOL    HW213116   1.500   6.966   4.459
 4073SOL     OW13117   2.680   5.492   5.931
 4073SOL    HW113118   2.634   5.564   5.984
 4073SOL    HW213119   2.726   5.430   5.994
 4074SOL     OW13120   0.465   2.209   1.679
 4074SOL    HW113121   0.487   2.117   1.647
 4074SOL    HW213122   0.384   2.243   1.631
 4075SOL     OW13123   4.213   1.564   2.754
 4075SOL    HW113124   4.238   1.562   2.851
 4075SOL    HW213125   4.293   1.585   2.699
 4076SOL     OW13126   2.180   3.447   5.231
 4076SOL    HW113127   2.255   3.385   5.255
 4076SOL    HW213128   2.199   3.538   5.268
 4077SOL     OW13129   3.353   0.175   0.339
 4077SOL    HW113130   3.258   0.197   0.359
 4077SOL    HW213131   3.380   0.092   0.388
 4078SOL     OW13132   6.489   4.097   1.293
 4078SOL    HW113133   6.391   4.078   1.298
 4078SOL    HW213134   6.504   4.195   1.308
 4079SOL     OW13135   0.798   1.133   3.928
 4079SOL    HW113136   0.821   1.047   3.882
 4079SOL    HW213137   0.779   1.115   4.025
 4080SOL     OW13138   3.227   3.632   1.390
 4080SOL    HW113139   3.136   3.666   1.365
 4080SOL    HW213140   3.241   3.541   1.352
 4081SOL     OW13141   1.991   1.562   5.419
 4081SOL    HW113142   1.996   1.606   5.330
 4081SOL    HW213143   1.923   1.488   5.416
 4082SOL     OW13144   0.898   2.801   5.317
 4082SOL    HW113145   0.870   2.856   5.396
 4082SOL    HW213146   0.969   2.736   5.346
 4083SOL     OW13147   5.937   4.438   3.593
 4083SOL    HW113148   5.998   4.483   3.527
 4083SOL    HW213149   5.992   4.400   3.668
 4084SOL     OW13150   4.473   2.005   3.305
 4084SOL    HW113151   4.499   1.984   3.211
 4084SOL    HW213152   4.425   1.927   3.345
 4085SOL     OW13153   3.284   5.653   1.376
 4085SOL    HW113154   3.264   5.749   1.397
 4085SOL    HW213155   3.238   5.628   1.291
 4086SOL     OW13156   6.423   5.411   6.307
 4086SOL    HW113157   6.473   5.420   6.393
 4086SOL    HW213158   6.479   5.362   6.240
 4087SOL     OW13159   2.390   6.712   2.372
 4087SOL    HW113160   2.413   6.744   2.281
 4087SOL    HW213161   2.471   6.720   2.432
 4088SOL     OW13162   7.015   1.271   5.598
 4088SOL    HW113163   0.017   1.268   5.502
 4088SOL    HW213164   0.072   1.286   5.654
 4089SOL     OW13165   0.098   6.587   3.810
 4089SOL    HW113166   0.032   6.619   3.743
 4089SOL    HW213167   0.099   6.649   3.889
 4090SOL     OW13168   2.177   6.545   4.958
 4090SOL    HW113169   2.257   6.523   5.013
 4090SOL    HW213170   2.153   6.642   4.972
 4091SOL     OW13171   2.063   5.388   1.159
 4091SOL    HW113172   1.968   5.412   1.140
 4091SOL    HW213173   2.083   5.297   1.124
 4092SOL     OW13174   5.055   3.053   4.573
 4092SOL    HW113175   5.008   3.099   4.498
 4092SOL    HW213176   5.082   3.120   4.643
 4093SOL     OW13177   5.691   5.461   2.907
 4093SOL    HW113178   5.786   5.486   2.886
 4093SOL    HW213179   5.642   5.442   2.823
 4094SOL     OW13180   0.303   5.318   6.768
 4094SOL    HW113181   0.260   5.404   6.795
 4094SOL    HW213182   0.399   5.320   6.793
 4095SOL     OW13183   0.165   4.436   0.246
 4095SOL    HW113184   0.222   4.452   0.166
 4095SOL    HW213185   0.091   4.504   0.249
 4096SOL     OW13186   1.851   1.750   6.801
 4096SOL    HW113187   1.795   1.671   6.824
 4096SOL    HW213188   1.819   1.830   6.853
 4097SOL     OW13189   0.216   4.399   5.236
 4097SOL    HW113190   0.196   4.372   5.142
 4097SOL    HW213191   0.296   4.459   5.237
 4098SOL     OW13192   2.133   4.949   2.469
 4098SOL    HW113193   2.225   4.936   2.505
 4098SOL    HW213194   2.079   4.867   2.485
 4099SOL     OW13195   4.489   3.874   6.173
 4099SOL    HW113196   4.500   3.932   6.255
 4099SOL    HW213197   4.576   3.829   6.153
 4100SOL     OW13198   1.362   0.575   3.971
 4100SOL    HW113199   1.396   0.631   4.047
 4100SOL    HW213200   1.386   0.480   3.988
 4101SOL     OW13201   6.314   0.327   0.297
 4101SOL    HW113202   6.400   0.340   0.247
 4101SOL    HW213203   6.271   0.415   0.314
 4102SOL     OW13204   2.052   0.333   0.238
 4102SOL    HW113205   1.989   0.397   0.195
 4102SOL    HW213206   2.138   0.329   0.187
 4103SOL     OW13207   0.978   6.513   2.102
 4103SOL    HW113208   1.066   6.483   2.065
 4103SOL    HW213209   0.928   6.564   2.032
 4104SOL     OW13210   0.342   5.732   2.742
 4104SOL    HW113211   0.254   5.716   2.786
 4104SOL    HW213212   0.415   5.688   2.796
 4105SOL     OW13213   4.660   1.298   1.037
 4105SOL    HW113214   4.625   1.226   0.977
 4105SOL    HW213215   4.759   1.288   1.047
 4106SOL     OW13216   0.156   1.914   3.607
 4106SOL    HW113217   0.161   2.010   3.633
 4106SOL    HW213218   0.210   1.859   3.670
 4107SOL     OW13219   0.380   6.130   6.477
 4107SOL    HW113220   0.415   6.186   6.553
 4107SOL    HW213221   0.310   6.182   6.428
 4108SOL     OW13222   0.121   5.171   3.839
 4108SOL    HW113223   0.154   5.265   3.825
 4108SOL    HW213224   0.073   5.166   3.927
 4109SOL     OW13225   6.392   5.745   3.342
 4109SOL    HW113226   6.370   5.801   3.422
 4109SOL    HW213227   6.318   5.681   3.325
 4110SOL     OW13228   4.875   3.688   0.028
 4110SOL    HW113229   4.783   3.723   0.045
 4110SOL    HW213230   4.930   3.760   7.009
 4111SOL     OW13231   6.550   3.927   5.526
 4111SOL    HW113232   6.535   3.847   5.467
 4111SOL    HW213233   6.610   3.902   5.602
 4112SOL     OW13234   4.583   7.006   4.936
 4112SOL    HW113235   4.622   0.015   4.850
 4112SOL    HW213236   4.560   6.909   4.927
 4113SOL     OW13237   4.547   4.477   4.832
 4113SOL    HW113238   4.480   4.495   4.904
 4113SOL    HW213239   4.511   4.407   4.770
 4114SOL     OW13240   6.331   1.566   3.566
 4114SOL    HW113241   6.292   1.494   3.623
 4114SOL    HW213242   6.311   1.547   3.470
 4115SOL     OW13243   2.827   5.048   3.662
 4115SOL    HW113244   2.734   5.078   3.684
 4115SOL    HW213245   2.837   4.951   3.683
 4116SOL     OW13246   5.787   2.838   3.256
 4116SOL    HW113247   5.704   2.810   3.207
 4116SOL    HW213248   5.845   2.758   3.271
 4117SOL     OW13249   1.315   2.285   2.351
 4117SOL    HW113250   1.391   2.222   2.366
 4117SOL    HW213251   1.350   2.379   2.352
 4118SOL     OW13252   6.852   6.240   6.481
 4118SOL    HW113253   6.908   6.261   6.561
 4118SOL    HW213254   6.911   6.224   6.402
 4119SOL     OW13255   2.184   0.754   3.237
 4119SOL    HW113256   2.142   0.730   3.149
 4119SOL    HW213257   2.247   0.831   3.224
 4120SOL     OW13258   1.910   1.497   6.411
 4120SOL    HW113259   1.905   1.597   6.411
 4120SOL    HW213260   1.860   1.461   6.332
 4121SOL     OW13261   6.946   6.754   2.735
 4121SOL    HW113262   6.913   6.779   2.645
 4121SOL    HW213263   6.960   6.655   2.739
 4122SOL     OW13264   0.230   5.712   4.663
 4122SOL    HW113265   0.249   5.805   4.697
 4122SOL    HW213266   0.185   5.718   4.575
 4123SOL     OW13267   3.842   4.916   2.939
 4123SOL    HW113268   3.853   4.945   2.844
 4123SOL    HW213269   3.754   4.870   2.950
 4124SOL     OW13270   6.675   6.426   1.001
 4124SOL    HW113271   6.732   6.471   0.932
 4124SOL    HW213272   6.729   6.356   1.049
 4125SOL     OW13273   5.206   2.445   2.161
 4125SOL    HW113274   5.224   2.481   2.253
 4125SOL    HW213275   5.119   2.480   2.128
 4126SOL     OW13276   1.410   2.804   2.425
 4126SOL    HW113277   1.353   2.870   2.376
 4126SOL    HW213278   1.504   2.838   2.429
 4127SOL     OW13279   3.481   2.151   4.249
 4127SOL    HW113280   3.550   2.158   4.322
 4127SOL    HW213281   3.498   2.067   4.198
 4128SOL     OW13282   0.590   3.359   1.325
 4128SOL    HW113283   0.618   3.263   1.330
 4128SOL    HW213284   0.669   3.416   1.301
 4129SOL     OW13285   2.896   2.796   0.890
 4129SOL    HW113286   2.829   2.739   0.843
 4129SOL    HW213287   2.984   2.748   0.895
 4130SOL     OW13288   5.992   3.101   1.043
 4130SOL    HW113289   6.064   3.170   1.038
 4130SOL    HW213290   5.954   3.098   1.135
 4131SOL     OW13291   5.067   0.409   2.037
 4131SOL    HW113292   5.020   0.496   2.052
 4131SOL    HW213293   5.144   0.402   2.100
 4132SOL     OW13294   6.696   3.897   4.669
 4132SOL    HW113295   6.672   3.948   4.587
 4132SOL    HW213296   6.739   3.958   4.735
 4133SOL     OW13297   6.018   6.610   1.630
 4133SOL    HW113298   5.971   6.537   1.680
 4133SOL    HW213299   6.075   6.571   1.558
 4134SOL     OW13300   2.476   2.998   1.433
 4134SOL    HW113301   2.385   3.032   1.410
 4134SOL    HW213302   2.483   2.985   1.532
 4135SOL     OW13303   0.113   1.710   3.201
 4135SOL    HW113304   0.076   1.617   3.204
 4135SOL    HW213305   0.194   1.712   3.143
 4136SOL     OW13306   0.579   4.090   1.866
 4136SOL    HW113307   0.603   4.164   1.803
 4136SOL    HW213308   0.518   4.124   1.937
 4137SOL     OW13309   1.550   2.563   0.784
 4137SOL    HW113310   1.577   2.603   0.872
 4137SOL    HW213311   1.590   2.472   0.775
 4138SOL     OW13312   4.602   6.373   0.950
 4138SOL    HW113313   4.516   6.400   0.906
 4138SOL    HW213314   4.608   6.416   1.040
 4139SOL     OW13315   1.441   1.720   2.753
 4139SOL    HW113316   1.363   1.781   2.745
 4139SOL    HW213317   1.436   1.649   2.683
 4140SOL     OW13318   2.700   2.241   4.329
 4140SOL    HW113319   2.664   2.307   4.394
 4140SOL    HW213320   2.798   2.231   4.342
 4141SOL     OW13321   4.107   0.064   6.602
 4141SOL    HW113322   4.163   0.085   6.682
 4141SOL    HW213323   4.082   6.991   6.603
 4142SOL     OW13324   0.133   3.945   2.508
 4142SOL    HW113325   0.094   3.896   2.430
 4142SOL    HW213326   0.059   3.985   2.563
 4143SOL     OW13327   5.677   3.489   0.925
 4143SOL    HW113328   5.706   3.441   0.842
 4143SOL    HW213329   5.651   3.422   0.994
 4144SOL     OW13330   5.743   1.802   0.633
 4144SOL    HW113331   5.741   1.897   0.664
 4144SOL    HW213332   5.668   1.786   0.569
 4145SOL     OW13333   0.764   6.461   0.368
 4145SOL    HW113334   0.694   6.458   0.439
 4145SOL    HW213335   0.788   6.556   0.348
 4146SOL     OW13336   5.635   6.392   3.324
 4146SOL    HW113337   5.572   6.360   3.253
 4146SOL    HW213338   5.657   6.488   3.309
 4147SOL     OW13339   4.866   4.269   5.759
 4147SOL    HW113340   4.857   4.177   5.721
 4147SOL    HW213341   4.919   4.265   5.844
 4148SOL     OW13342   2.615   0.695   4.968
 4148SOL    HW113343   2.644   0.725   5.059
 4148SOL    HW213344   2.517   0.709   4.958
 4149SOL     OW13345   1.724   2.758   0.919
 4149SOL    HW113346   1.791   2.685   0.926
 4149SOL    HW213347   1.748   2.832   0.982
 4150SOL     OW13348   6.151   2.453   6.174
 4150SOL    HW113349   6.068   2.480   6.126
 4150SOL    HW213350   6.211   2.403   6.112
 4151SOL     OW13351   1.730   0.146   4.666
 4151SOL    HW113352   1.633   0.172   4.672
 4151SOL    HW213353   1.773   0.159   4.755
 4152SOL     OW13354   3.724   5.458   1.668
 4152SOL    HW113355   3.653   5.509   1.620
 4152SOL    HW213356   3.809   5.509   1.665
 4153SOL     OW13357   6.564   4.960   1.819
 4153SOL    HW113358   6.508   5.006   1.887
 4153SOL    HW213359   6.530   4.866   1.805
 4154SOL     OW13360   0.280   5.850   3.974
 4154SOL    HW113361   0.371   5.809   3.980
 4154SOL    HW213362   0.243   5.837   3.882
 4155SOL     OW13363   0.862   2.442   1.445
 4155SOL    HW113364   0.935   2.478   1.388
 4155SOL    HW213365   0.883   2.347   1.469
 4156SOL     OW13366   6.544   4.522   4.949
 4156SOL    HW113367   6.450   4.527   4.917
 4156SOL    HW213368   6.606   4.523   4.871
 4157SOL     OW13369   6.991   6.590   2.109
 4157SOL    HW113370   6.909   6.646   2.117
 4157SOL    HW213371   6.974   6.514   2.046
 4158SOL     OW13372   1.990   2.676   1.903
 4158SOL    HW113373   1.950   2.657   1.813
 4158SOL    HW213374   2.049   2.757   1.896
 4159SOL     OW13375   2.959   1.681   3.165
 4159SOL    HW113376   2.942   1.595   3.214
 4159SOL    HW213377   2.990   1.661   3.072
 4160SOL     OW13378   6.921   6.727   6.878
 4160SOL    HW113379   7.020   6.720   6.884
 4160SOL    HW213380   6.896   6.792   6.806
 4161SOL     OW13381   2.264   1.768   1.463
 4161SOL    HW113382   2.188   1.778   1.527
 4161SOL    HW213383   2.323   1.849   1.469
 4162SOL     OW13384   6.389   6.120   1.455
 4162SOL    HW113385   6.412   6.120   1.358
 4162SOL    HW213386   6.329   6.197   1.476
 4163SOL     OW13387   4.453   6.839   1.730
 4163SOL    HW113388   4.392   6.899   1.678
 4163SOL    HW213389   4.529   6.811   1.672
 4164SOL     OW13390   6.902   5.979   5.436
 4164SOL    HW113391   6.990   5.950   5.473
 4164SOL    HW213392   6.829   5.929   5.482
 4165SOL     OW13393   4.007   1.076   5.738
 4165SOL    HW113394   4.054   1.153   5.782
 4165SOL    HW213395   4.017   1.083   5.639
 4166SOL     OW13396   5.618   0.611   3.134
 4166SOL    HW113397   5.688   0.559   3.085
 4166SOL    HW213398   5.657   0.646   3.220
 4167SOL     OW13399   2.972   5.084   5.588
 4167SOL    HW113400   3.012   5.094   5.496
 4167SOL    HW213401   3.005   4.999   5.629
 4168SOL     OW13402   6.710   4.787   0.463
 4168SOL    HW113403   6.809   4.802   0.462
 4168SOL    HW213404   6.684   4.744   0.550
 4169SOL     OW13405   5.045   4.069   5.161
 4169SOL    HW113406   5.104   4.024   5.227
 4169SOL    HW213407   4.985   4.001   5.119
 4170SOL     OW13408   4.774   2.951   4.573
 4170SOL    HW113409   4.798   2.936   4.669
 4170SOL    HW213410   4.857   2.972   4.521
 4171SOL     OW13411   1.531   3.868   1.080
 4171SOL    HW113412   1.450   3.927   1.080
 4171SOL    HW213413   1.558   3.848   0.986
 4172SOL     OW13414   3.557   3.437   0.764
 4172SOL    HW113415   3.479   3.436   0.703
 4172SOL    HW213416   3.526   3.451   0.858
 4173SOL     OW13417   4.434   2.805   5.494
 4173SOL    HW113418   4.353   2.790   5.551
 4173SOL    HW213419   4.431   2.897   5.456
 4174SOL     OW13420   4.754   0.266   3.839
 4174SOL    HW113421   4.841   0.219   3.825
 4174SOL    HW213422   4.733   0.270   3.937
 4175SOL     OW13423   1.875   4.819   6.160
 4175SOL    HW113424   1.841   4.813   6.066
 4175SOL    HW213425   1.800   4.797   6.224
 4176SOL     OW13426   5.149   6.099   6.995
 4176SOL    HW113427   5.248   6.102   7.013
 4176SOL    HW213428   5.114   6.193   6.992
 4177SOL     OW13429   4.970   4.779   4.865
 4177SOL    HW113430   5.046   4.740   4.918
 4177SOL    HW213431   4.961   4.876   4.885
 4178SOL     OW13432   4.328   6.844   2.645
 4178SOL    HW113433   4.235   6.824   2.612
 4178SOL    HW213434   4.377   6.897   2.576
 4179SOL     OW13435   5.503   3.332   4.115
 4179SOL    HW113436   5.463   3.337   4.023
 4179SOL    HW213437   5.530   3.238   4.135
 4180SOL     OW13438   5.578   3.656   0.668
 4180SOL    HW113439   5.507   3.611   0.614
 4180SOL    HW213440   5.588   3.609   0.756
 4181SOL     OW13441   5.477   0.297   6.097
 4181SOL    HW113442   5.479   0.394   6.072
 4181SOL    HW213443   5.552   0.250   6.051
 4182SOL     OW13444   0.570   6.066   3.991
 4182SOL    HW113445   0.494   6.063   4.056
 4182SOL    HW213446   0.638   5.997   4.016
 4183SOL     OW13447   2.133   1.302   1.381
 4183SOL    HW113448   2.088   1.275   1.466
 4183SOL    HW213449   2.227   1.330   1.400
 4184SOL     OW13450   3.602   0.577   1.971
 4184SOL    HW113451   3.644   0.630   2.045
 4184SOL    HW213452   3.560   0.495   2.008
 4185SOL     OW13453   0.674   3.832   3.860
 4185SOL    HW113454   0.588   3.857   3.815
 4185SOL    HW213455   0.673   3.734   3.882
 4186SOL     OW13456   2.309   5.830   6.767
 4186SOL    HW113457   2.230   5.822   6.826
 4186SOL    HW213458   2.280   5.852   6.674
 4187SOL     OW13459   1.890   3.561   6.921
 4187SOL    HW113460   1.912   3.466   6.903
 4187SOL    HW213461   1.912   3.617   6.841
 4188SOL     OW13462   5.666   0.990   5.184
 4188SOL    HW113463   5.701   1.068   5.133
 4188SOL    HW213464   5.578   0.961   5.146
 4189SOL     OW13465   4.723   5.437   3.574
 4189SOL    HW113466   4.737   5.475   3.666
 4189SOL    HW213467   4.804   5.386   3.546
 4190SOL     OW13468   0.554   6.361   0.922
 4190SOL    HW113469   0.490   6.300   0.874
 4190SOL    HW213470   0.578   6.320   1.010
 4191SOL     OW13471   5.196   3.763   6.556
 4191SOL    HW113472   5.176   3.858   6.580
 4191SOL    HW213473   5.197   3.707   6.639
 4192SOL     OW13474   0.666   1.617   2.585
 4192SOL    HW113475   0.697   1.618   2.680
 4192SOL    HW213476   0.569   1.642   2.581
 4193SOL     OW13477   5.651   0.135   0.106
 4193SOL    HW113478   5.624   0.178   0.020
 4193SOL    HW213479   5.746   0.157   0.126
 4194SOL     OW13480   4.032   0.447   5.094
 4194SOL    HW113481   4.113   0.479   5.143
 4194SOL    HW213482   4.041   0.350   5.073
 4195SOL     OW13483   4.257   6.732   1.238
 4195SOL    HW113484   4.356   6.719   1.223
 4195SOL    HW213485   4.236   6.716   1.334
 4196SOL     OW13486   0.101   2.651   3.823
 4196SOL    HW113487   0.130   2.676   3.731
 4196SOL    HW213488   0.179   2.615   3.874
 4197SOL     OW13489   4.193   6.256   5.564
 4197SOL    HW113490   4.110   6.241   5.510
 4197SOL    HW213491   4.266   6.196   5.529
 4198SOL     OW13492   6.171   0.569   2.601
 4198SOL    HW113493   6.259   0.561   2.555
 4198SOL    HW213494   6.104   0.511   2.555
 4199SOL     OW13495   1.486   3.496   6.405
 4199SOL    HW113496   1.388   3.515   6.407
 4199SOL    HW213497   1.500   3.397   6.399
 4200SOL     OW13498   3.728   0.810   5.477
 4200SOL    HW113499   3.685   0.794   5.389
 4200SOL    HW213500   3.746   0.722   5.522
 4201SOL     OW13501   6.150   6.846   3.781
 4201SOL    HW113502   6.211   6.907   3.730
 4201SOL    HW213503   6.115   6.776   3.720
 4202SOL     OW13504   3.215   5.575   6.430
 4202SOL    HW113505   3.164   5.659   6.415
 4202SOL    HW213506   3.273   5.584   6.511
 4203SOL     OW13507   4.984   4.823   0.326
 4203SOL    HW113508   5.026   4.834   0.236
 4203SOL    HW213509   4.885   4.819   0.316
 4204SOL     OW13510   3.884   3.334   5.500
 4204SOL    HW113511   3.850   3.354   5.592
 4204SOL    HW213512   3.972   3.381   5.486
 4205SOL     OW13513   3.690   5.447   5.159
 4205SOL    HW113514   3.706   5.545   5.169
 4205SOL    HW213515   3.618   5.432   5.092
 4206SOL     OW13516   0.676   1.245   4.841
 4206SOL    HW113517   0.651   1.212   4.932
 4206SOL    HW213518   0.748   1.187   4.803
 4207SOL     OW13519   2.173   2.366   1.354
 4207SOL    HW113520   2.232   2.384   1.275
 4207SOL    HW213521   2.080   2.400   1.335
 4208SOL     OW13522   1.032   3.833   5.406
 4208SOL    HW113523   0.986   3.812   5.320
 4208SOL    HW213524   1.128   3.807   5.400
 4209SOL     OW13525   6.482   5.760   3.057
 4209SOL    HW113526   6.474   5.855   3.026
 4209SOL    HW213527   6.445   5.752   3.150
 4210SOL     OW13528   3.777   2.933   3.725
 4210SOL    HW113529   3.702   2.910   3.787
 4210SOL    HW213530   3.752   2.905   3.632
 4211SOL     OW13531   3.606   1.576   5.277
 4211SOL    HW113532   3.613   1.675   5.267
 4211SOL    HW213533   3.528   1.543   5.223
 4212SOL     OW13534   6.637   1.624   4.010
 4212SOL    HW113535   6.661   1.534   3.973
 4212SOL    HW213536   6.548   1.652   3.975
 4213SOL     OW13537   2.623   0.835   3.589
 4213SOL    HW113538   2.595   0.777   3.513
 4213SOL    HW213539   2.722   0.850   3.585
 4214SOL     OW13540   0.462   5.867   4.936
 4214SOL    HW113541   0.412   5.928   4.874
 4214SOL    HW213542   0.531   5.817   4.884
 4215SOL     OW13543   5.069   0.266   5.428
 4215SOL    HW113544   4.986   0.311   5.394
 4215SOL    HW213545   5.141   0.334   5.440
 4216SOL     OW13546   1.433   0.969   2.553
 4216SOL    HW113547   1.443   0.881   2.600
 4216SOL    HW213548   1.336   0.993   2.545
 4217SOL     OW13549   1.153   0.014   1.770
 4217SOL    HW113550   1.160   7.012   1.674
 4217SOL    HW213551   1.111   6.963   1.822
 4218SOL     OW13552   3.263   0.755   1.107
 4218SOL    HW113553   3.242   0.837   1.161
 4218SOL    HW213554   3.292   0.681   1.168
 4219SOL     OW13555   4.537   6.257   4.445
 4219SOL    HW113556   4.461   6.261   4.509
 4219SOL    HW213557   4.503   6.241   4.352
 4220SOL     OW13558   5.867   2.612   2.236
 4220SOL    HW113559   5.927   2.543   2.275
 4220SOL    HW213560   5.835   2.674   2.308
 4221SOL     OW13561   6.472   4.685   6.700
 4221SOL    HW113562   6.444   4.626   6.775
 4221SOL    HW213563   6.437   4.649   6.614
 4222SOL     OW13564   5.390   1.721   3.647
 4222SOL    HW113565   5.402   1.793   3.578
 4222SOL    HW213566   5.421   1.754   3.736
 4223SOL     OW13567   3.906   3.487   1.094
 4223SOL    HW113568   3.949   3.438   1.018
 4223SOL    HW213569   3.843   3.426   1.142
 4224SOL     OW13570   5.201   4.681   5.005
 4224SOL    HW113571   5.301   4.683   5.013
 4224SOL    HW213572   5.165   4.604   5.057
 4225SOL     OW13573   1.552   1.803   5.612
 4225SOL    HW113574   1.532   1.793   5.709
 4225SOL    HW213575   1.490   1.869   5.571
 4226SOL     OW13576   1.267   6.326   3.781
 4226SOL    HW113577   1.352   6.294   3.738
 4226SOL    HW213578   1.209   6.368   3.712
 4227SOL     OW13579   4.885   5.969   1.707
 4227SOL    HW113580   4.862   5.873   1.688
 4227SOL    HW213581   4.927   6.010   1.627
 4228SOL     OW13582   0.786   6.035   5.232
 4228SOL    HW113583   0.763   6.132   5.228
 4228SOL    HW213584   0.727   5.985   5.168
 4229SOL     OW13585   4.512   6.140   5.836
 4229SOL    HW113586   4.557   6.225   5.860
 4229SOL    HW213587   4.481   6.094   5.919
 4230SOL     OW13588   0.618   6.503   2.941
 4230SOL    HW113589   0.560   6.475   2.864
 4230SOL    HW213590   0.708   6.459   2.933
 4231SOL     OW13591   4.866   0.431   5.372
 4231SOL    HW113592   4.779   0.392   5.341
 4231SOL    HW213593   4.907   0.483   5.297
 4232SOL     OW13594   2.011   5.685   3.781
 4232SOL    HW113595   2.009   5.731   3.692
 4232SOL    HW213596   2.105   5.686   3.816
 4233SOL     OW13597   0.353   6.811   4.556
 4233SOL    HW113598   0.345   6.903   4.519
 4233SOL    HW213599   0.286   6.751   4.512
 4234SOL     OW13600   2.095   5.238   5.396
 4234SOL    HW113601   2.159   5.198   5.330
 4234SOL    HW213602   2.021   5.173   5.414
 4235SOL     OW13603   6.531   4.971   5.429
 4235SOL    HW113604   6.470   5.049   5.415
 4235SOL    HW213605   6.477   4.886   5.433
 4236SOL     OW13606   0.172   4.541   1.366
 4236SOL    HW113607   0.101   4.479   1.333
 4236SOL    HW213608   0.246   4.488   1.408
 4237SOL     OW13609   6.584   3.807   4.312
 4237SOL    HW113610   6.664   3.809   4.253
 4237SOL    HW213611   6.558   3.713   4.331
 4238SOL     OW13612   0.787   0.982   3.518
 4238SOL    HW113613   0.861   1.046   3.536
 4238SOL    HW213614   0.746   1.002   3.429
 4239SOL     OW13615   4.212   1.093   2.273
 4239SOL    HW113616   4.273   1.045   2.336
 4239SOL    HW213617   4.139   1.137   2.324
 4240SOL     OW13618   2.143   4.989   0.093
 4240SOL    HW113619   2.091   4.926   0.035
 4240SOL    HW213620   2.157   5.076   0.044
 4241SOL     OW13621   5.660   1.244   0.066
 4241SOL    HW113622   5.622   1.261   0.157
 4241SOL    HW213623   5.697   1.329   0.029
 4242SOL     OW13624   2.379   2.068   4.132
 4242SOL    HW113625   2.343   2.152   4.090
 4242SOL    HW213626   2.369   2.074   4.231
 4243SOL     OW13627   5.062   1.789   2.627
 4243SOL    HW113628   4.980   1.751   2.670
 4243SOL    HW213629   5.045   1.883   2.599
 4244SOL     OW13630   3.265   3.959   1.424
 4244SOL    HW113631   3.338   3.965   1.492
 4244SOL    HW213632   3.242   3.863   1.409
 4245SOL     OW13633   6.460   1.864   6.816
 4245SOL    HW113634   6.470   1.930   6.891
 4245SOL    HW213635   6.386   1.894   6.755
 4246SOL     OW13636   6.573   4.197   3.155
 4246SOL    HW113637   6.552   4.246   3.070
 4246SOL    HW213638   6.661   4.228   3.190
 4247SOL     OW13639   1.095   6.228   3.967
 4247SOL    HW113640   1.155   6.281   3.908
 4247SOL    HW213641   1.091   6.270   4.058
 4248SOL     OW13642   2.521   1.733   4.651
 4248SOL    HW113643   2.515   1.759   4.748
 4248SOL    HW213644   2.429   1.726   4.613
 4249SOL     OW13645   6.295   3.067   5.036
 4249SOL    HW113646   6.211   3.053   5.088
 4249SOL    HW213647   6.274   3.112   4.950
 4250SOL     OW13648   0.069   4.607   3.131
 4250SOL    HW113649   0.156   4.572   3.098
 4250SOL    HW213650   7.019   4.545   3.102
 4251SOL     OW13651   5.963   5.306   0.200
 4251SOL    HW113652   5.987   5.350   0.287
 4251SOL    HW213653   5.924   5.216   0.218
 4252SOL     OW13654   6.537   6.566   5.386
 4252SOL    HW113655   6.616   6.559   5.446
 4252SOL    HW213656   6.562   6.536   5.294
 4253SOL     OW13657   2.584   0.337   1.797
 4253SOL    HW113658   2.680   0.311   1.811
 4253SOL    HW213659   2.577   0.397   1.717
 4254SOL     OW13660   1.085   2.815   1.421
 4254SOL    HW113661   1.027   2.893   1.444
 4254SOL    HW213662   1.036   2.754   1.358
 4255SOL     OW13663   5.992   2.628   3.335
 4255SOL    HW113664   6.024   2.625   3.240
 4255SOL    HW213665   6.043   2.561   3.389
 4256SOL     OW13666   1.279   6.503   0.741
 4256SOL    HW113667   1.228   6.510   0.827
 4256SOL    HW213668   1.335   6.421   0.742
 4257SOL     OW13669   3.863   0.669   5.071
 4257SOL    HW113670   3.921   0.592   5.096
 4257SOL    HW213671   3.919   0.750   5.058
 4258SOL     OW13672   5.916   6.383   1.718
 4258SOL    HW113673   5.880   6.401   1.809
 4258SOL    HW213674   5.840   6.362   1.656
 4259SOL     OW13675   3.096   0.770   6.601
 4259SOL    HW113676   3.171   0.752   6.665
 4259SOL    HW213677   3.030   0.696   6.605
 4260SOL     OW13678   5.238   5.991   4.241
 4260SOL    HW113679   5.283   6.081   4.241
 4260SOL    HW213680   5.293   5.926   4.293
 4261SOL     OW13681   1.728   0.670   2.027
 4261SOL    HW113682   1.815   0.689   2.072
 4261SOL    HW213683   1.724   0.718   1.939
 4262SOL     OW13684   0.988   4.629   5.349
 4262SOL    HW113685   1.049   4.694   5.303
 4262SOL    HW213686   0.916   4.678   5.397
 4263SOL     OW13687   2.687   6.482   3.700
 4263SOL    HW113688   2.602   6.510   3.654
 4263SOL    HW213689   2.715   6.554   3.764
 4264SOL     OW13690   6.882   1.951   2.375
 4264SOL    HW113691   6.827   1.892   2.434
 4264SOL    HW213692   6.839   1.956   2.284
 4265SOL     OW13693   5.255   1.648   6.998
 4265SOL    HW113694   5.243   1.656   0.073
 4265SOL    HW213695   5.348   1.616   6.979
 4266SOL     OW13696   2.275   5.166   0.665
 4266SOL    HW113697   2.366   5.199   0.688
 4266SOL    HW213698   2.281   5.075   0.624
 4267SOL     OW13699   2.187   3.963   4.747
 4267SOL    HW113700   2.178   4.060   4.724
 4267SOL    HW213701   2.229   3.953   4.837
 4268SOL     OW13702   1.674   7.022   6.799
 4268SOL    HW113703   1.598   6.973   6.841
 4268SOL    HW213704   1.727   6.959   6.743
 4269SOL     OW13705   2.099   1.390   0.678
 4269SOL    HW113706   2.034   1.314   0.686
 4269SOL    HW213707   2.071   1.449   0.603
 4270SOL     OW13708   2.890   3.487   3.609
 4270SOL    HW113709   2.881   3.569   3.552
 4270SOL    HW213710   2.888   3.406   3.550
 4271SOL     OW13711   0.199   0.664   6.089
 4271SOL    HW113712   0.136   0.724   6.138
 4271SOL    HW213713   0.174   0.660   5.992
 4272SOL     OW13714   0.348   4.613   4.919
 4272SOL    HW113715   0.434   4.564   4.908
 4272SOL    HW213716   0.342   4.651   5.011
 4273SOL     OW13717   4.714   6.259   3.735
 4273SOL    HW113718   4.752   6.259   3.643
 4273SOL    HW213719   4.709   6.353   3.769
 4274SOL     OW13720   1.070   7.021   2.732
 4274SOL    HW113721   0.992   0.043   2.775
 4274SOL    HW213722   1.107   0.055   2.660
 4275SOL     OW13723   6.893   1.763   5.856
 4275SOL    HW113724   6.921   1.690   5.919
 4275SOL    HW213725   6.839   1.831   5.905
 4276SOL     OW13726   1.331   4.992   2.972
 4276SOL    HW113727   1.372   5.084   2.970
 4276SOL    HW213728   1.248   4.992   2.916
 4277SOL     OW13729   6.925   4.631   4.224
 4277SOL    HW113730   6.865   4.690   4.169
 4277SOL    HW213731   6.892   4.537   4.220
 4278SOL     OW13732   0.168   0.667   5.034
 4278SOL    HW113733   0.132   0.661   4.940
 4278SOL    HW213734   0.169   0.762   5.063
 4279SOL     OW13735   3.260   6.082   5.455
 4279SOL    HW113736   3.220   5.996   5.425
 4279SOL    HW213737   3.222   6.157   5.403
 4280SOL     OW13738   4.955   1.262   5.515
 4280SOL    HW113739   5.022   1.192   5.541
 4280SOL    HW213740   4.980   1.349   5.557
 4281SOL     OW13741   2.440   4.863   4.476
 4281SOL    HW113742   2.500   4.789   4.447
 4281SOL    HW213743   2.349   4.826   4.497
 4282SOL     OW13744   2.596   2.431   7.012
 4282SOL    HW113745   2.692   2.437   6.982
 4282SOL    HW213746   2.566   2.520   0.021
 4283SOL     OW13747   1.722   0.602   3.949
 4283SOL    HW113748   1.700   0.691   3.988
 4283SOL    HW213749   1.760   0.614   3.857
 4284SOL     OW13750   5.155   6.006   1.831
 4284SOL    HW113751   5.163   6.105   1.820
 4284SOL    HW213752   5.073   5.974   1.784
 4285SOL     OW13753   0.465   0.183   5.906
 4285SOL    HW113754   0.532   0.241   5.953
 4285SOL    HW213755   0.501   0.157   5.816
 4286SOL     OW13756   5.072   5.494   6.741
 4286SOL    HW113757   5.131   5.567   6.775
 4286SOL    HW213758   5.129   5.422   6.700
 4287SOL     OW13759   6.135   0.697   5.995
 4287SOL    HW113760   6.220   0.740   6.026
 4287SOL    HW213761   6.157   0.628   5.926
 4288SOL     OW13762   0.824   5.951   3.147
 4288SOL    HW113763   0.842   5.859   3.113
 4288SOL    HW213764   0.898   5.980   3.207
 4289SOL     OW13765   6.117   3.375   1.159
 4289SOL    HW113766   6.069   3.302   1.209
 4289SOL    HW213767   6.198   3.402   1.211
 4290SOL     OW13768   2.235   6.466   1.134
 4290SOL    HW113769   2.137   6.446   1.130
 4290SOL    HW213770   2.249   6.563   1.156
 4291SOL     OW13771   4.633   3.415   1.575
 4291SOL    HW113772   4.654   3.512   1.584
 4291SOL    HW213773   4.533   3.403   1.574
 4292SOL     OW13774   6.583   4.415   5.581
 4292SOL    HW113775   6.564   4.320   5.605
 4292SOL    HW213776   6.531   4.476   5.640
 4293SOL     OW13777   0.173   3.791   6.907
 4293SOL    HW113778   0.117   3.867   6.875
 4293SOL    HW213779   0.117   3.708   6.913
 4294SOL     OW13780   4.426   3.071   0.208
 4294SOL    HW113781   4.368   3.102   0.133
 4294SOL    HW213782   4.432   3.144   0.277
 4295SOL     OW13783   3.546   6.300   4.990
 4295SOL    HW113784   3.547   6.265   5.084
 4295SOL    HW213785   3.455   6.287   4.951
 4296SOL     OW13786   3.067   1.598   6.871
 4296SOL    HW113787   3.112   1.509   6.863
 4296SOL    HW213788   3.104   1.647   6.950
 4297SOL     OW13789   5.464   0.572   5.819
 4297SOL    HW113790   5.373   0.532   5.825
 4297SOL    HW213791   5.533   0.501   5.836
 4298SOL     OW13792   2.135   5.448   6.661
 4298SOL    HW113793   2.179   5.500   6.587
 4298SOL    HW213794   2.097   5.363   6.623
 4299SOL     OW13795   0.863   2.545   7.023
 4299SOL    HW113796   0.957   2.560   0.026
 4299SOL    HW213797   0.802   2.606   0.050
 4300SOL     OW13798   2.961   1.273   6.345
 4300SOL    HW113799   3.050   1.279   6.301
 4300SOL    HW213800   2.973   1.257   6.443
 4301SOL     OW13801   2.273   1.245   0.518
 4301SOL    HW113802   2.223   1.312   0.574
 4301SOL    HW213803   2.229   1.237   0.429
 4302SOL     OW13804   0.812   6.377   5.389
 4302SOL    HW113805   0.731   6.355   5.333
 4302SOL    HW213806   0.879   6.303   5.381
 4303SOL     OW13807   6.121   4.270   4.181
 4303SOL    HW113808   6.160   4.345   4.128
 4303SOL    HW213809   6.064   4.306   4.254
 4304SOL     OW13810   3.048   3.727   4.147
 4304SOL    HW113811   3.065   3.823   4.126
 4304SOL    HW213812   3.078   3.670   4.071
 4305SOL     OW13813   6.227   1.413   3.771
 4305SOL    HW113814   6.163   1.444   3.841
 4305SOL    HW213815   6.293   1.350   3.812
 4306SOL     OW13816   6.874   3.686   6.687
 4306SOL    HW113817   6.870   3.782   6.659
 4306SOL    HW213818   6.913   3.632   6.613
 4307SOL     OW13819   4.799   4.370   6.239
 4307SOL    HW113820   4.771   4.279   6.207
 4307SOL    HW213821   4.816   4.429   6.160
 4308SOL     OW13822   5.429   5.954   6.039
 4308SOL    HW113823   5.414   6.013   6.118
 4308SOL    HW213824   5.462   5.865   6.069
 4309SOL     OW13825   0.886   0.454   0.100
 4309SOL    HW113826   0.837   0.478   0.184
 4309SOL    HW213827   0.828   0.473   0.021
 4310SOL     OW13828   1.900   2.207   3.527
 4310SOL    HW113829   1.904   2.127   3.468
 4310SOL    HW213830   1.955   2.191   3.609
 4311SOL     OW13831   1.229   5.570   2.810
 4311SOL    HW113832   1.270   5.656   2.838
 4311SOL    HW213833   1.137   5.586   2.776
 4312SOL     OW13834   1.794   5.327   1.560
 4312SOL    HW113835   1.781   5.394   1.633
 4312SOL    HW213836   1.886   5.335   1.523
 4313SOL     OW13837   5.253   1.638   2.245
 4313SOL    HW113838   5.168   1.662   2.197
 4313SOL    HW213839   5.230   1.601   2.335
 4314SOL     OW13840   5.189   2.581   3.609
 4314SOL    HW113841   5.215   2.492   3.572
 4314SOL    HW213842   5.098   2.606   3.574
 4315SOL     OW13843   1.642   0.919   2.241
 4315SOL    HW113844   1.588   0.864   2.178
 4315SOL    HW213845   1.584   0.989   2.283
 4316SOL     OW13846   5.038   0.327   1.250
 4316SOL    HW113847   5.066   0.305   1.343
 4316SOL    HW213848   4.953   0.278   1.229
 4317SOL     OW13849   3.156   0.819   4.756
 4317SOL    HW113850   3.170   0.782   4.664
 4317SOL    HW213851   3.245   0.825   4.802
 4318SOL     OW13852   1.008   3.521   3.523
 4318SOL    HW113853   1.074   3.447   3.510
 4318SOL    HW213854   0.944   3.523   3.446
 4319SOL     OW13855   2.459   2.665   0.467
 4319SOL    HW113856   2.383   2.675   0.531
 4319SOL    HW213857   2.446   2.582   0.413
 4320SOL     OW13858   1.263   6.086   1.731
 4320SOL    HW113859   1.230   6.102   1.637
 4320SOL    HW213860   1.263   5.988   1.750
 4321SOL     OW13861   6.686   0.146   4.342
 4321SOL    HW113862   6.781   0.177   4.354
 4321SOL    HW213863   6.627   0.198   4.405
 4322SOL     OW13864   6.061   0.897   6.991
 4322SOL    HW113865   6.142   0.940   6.950
 4322SOL    HW213866   5.986   0.962   6.993
 4323SOL     OW13867   5.447   3.794   2.202
 4323SOL    HW113868   5.474   3.708   2.246
 4323SOL    HW213869   5.517   3.820   2.135
 4324SOL     OW13870   5.458   4.730   6.846
 4324SOL    HW113871   5.437   4.711   6.941
 4324SOL    HW213872   5.374   4.756   6.797
 4325SOL     OW13873   0.881   0.908   6.924
 4325SOL    HW113874   0.849   0.998   6.894
 4325SOL    HW213875   0.918   0.858   6.845
 4326SOL     OW13876   6.093   2.797   5.338
 4326SOL    HW113877   6.134   2.712   5.370
 4326SOL    HW213878   6.004   2.810   5.382
 4327SOL     OW13879   6.186   5.333   2.510
 4327SOL    HW113880   6.199   5.369   2.602
 4327SOL    HW213881   6.093   5.296   2.502
 4328SOL     OW13882   5.084   4.179   6.284
 4328SOL    HW113883   5.149   4.176   6.360
 4328SOL    HW213884   5.097   4.263   6.232
 4329SOL     OW13885   3.286   1.879   6.210
 4329SOL    HW113886   3.207   1.853   6.265
 4329SOL    HW213887   3.263   1.868   6.113
 4330SOL     OW13888   3.235   0.562   5.342
 4330SOL    HW113889   3.245   0.485   5.278
 4330SOL    HW213890   3.149   0.553   5.391
 4331SOL     OW13891   5.190   3.270   1.298
 4331SOL    HW113892   5.263   3.305   1.356
 4331SOL    HW213893   5.104   3.316   1.322
 4332SOL     OW13894   5.593   4.233   2.374
 4332SOL    HW113895   5.664   4.263   2.438
 4332SOL    HW213896   5.579   4.135   2.383
 4333SOL     OW13897   4.654   1.574   5.171
 4333SOL    HW113898   4.624   1.488   5.213
 4333SOL    HW213899   4.580   1.613   5.117
 4334SOL     OW13900   2.734   2.056   2.463
 4334SOL    HW113901   2.747   1.994   2.386
 4334SOL    HW213902   2.639   2.085   2.468
 4335SOL     OW13903   3.417   4.139   3.550
 4335SOL    HW113904   3.478   4.126   3.471
 4335SOL    HW213905   3.470   4.174   3.627
 4336SOL     OW13906   0.963   6.684   5.698
 4336SOL    HW113907   0.995   6.686   5.603
 4336SOL    HW213908   0.933   6.592   5.722
 4337SOL     OW13909   1.276   4.763   0.229
 4337SOL    HW113910   1.264   4.758   0.130
 4337SOL    HW213911   1.306   4.675   0.264
 4338SOL     OW13912   4.578   5.730   4.436
 4338SOL    HW113913   4.575   5.641   4.481
 4338SOL    HW213914   4.615   5.799   4.499
 4339SOL     OW13915   5.427   3.408   5.245
 4339SOL    HW113916   5.382   3.368   5.165
 4339SOL    HW213917   5.515   3.446   5.219
 4340SOL     OW13918   6.180   4.258   2.871
 4340SOL    HW113919   6.221   4.330   2.815
 4340SOL    HW213920   6.086   4.242   2.841
 4341SOL     OW13921   0.679   4.754   1.761
 4341SOL    HW113922   0.663   4.839   1.811
 4341SOL    HW213923   0.734   4.692   1.818
 4342SOL     OW13924   7.003   2.764   4.354
 4342SOL    HW113925   0.051   2.804   4.299
 4342SOL    HW213926   6.954   2.695   4.300
 4343SOL     OW13927   2.388   6.707   6.287
 4343SOL    HW113928   2.330   6.750   6.218
 4343SOL    HW213929   2.332   6.652   6.348
 4344SOL     OW13930   2.107   5.494   2.998
 4344SOL    HW113931   2.171   5.483   2.923
 4344SOL    HW213932   2.155   5.530   3.079
 4345SOL     OW13933   2.118   2.913   5.678
 4345SOL    HW113934   2.072   2.940   5.762
 4345SOL    HW213935   2.159   2.993   5.634
 4346SOL     OW13936   2.151   3.146   1.786
 4346SOL    HW113937   2.114   3.232   1.822
 4346SOL    HW213938   2.240   3.165   1.744
 4347SOL     OW13939   6.385   0.827   2.075
 4347SOL    HW113940   6.388   0.912   2.023
 4347SOL    HW213941   6.366   0.750   2.014
 4348SOL     OW13942   0.648   3.112   2.498
 4348SOL    HW113943   0.660   3.164   2.582
 4348SOL    HW213944   0.579   3.155   2.441
 4349SOL     OW13945   6.633   2.018   3.273
 4349SOL    HW113946   6.540   2.021   3.307
 4349SOL    HW213947   6.678   1.934   3.304
 4350SOL     OW13948   5.025   1.970   4.364
 4350SOL    HW113949   5.023   1.880   4.407
 4350SOL    HW213950   4.970   1.968   4.280
 4351SOL     OW13951   2.167   6.240   0.871
 4351SOL    HW113952   2.073   6.250   0.839
 4351SOL    HW213953   2.217   6.324   0.854
 4352SOL     OW13954   1.188   2.472   1.703
 4352SOL    HW113955   1.161   2.414   1.626
 4352SOL    HW213956   1.266   2.430   1.751
 4353SOL     OW13957   3.244   4.903   0.647
 4353SOL    HW113958   3.171   4.950   0.599
 4353SOL    HW213959   3.332   4.928   0.607
 4354SOL     OW13960   2.401   6.626   5.862
 4354SOL    HW113961   2.305   6.614   5.836
 4354SOL    HW213962   2.440   6.537   5.885
 4355SOL     OW13963   3.484   6.948   1.873
 4355SOL    HW113964   3.420   6.902   1.934
 4355SOL    HW213965   3.433   7.008   1.811
 4356SOL     OW13966   4.805   4.044   1.913
 4356SOL    HW113967   4.820   4.142   1.898
 4356SOL    HW213968   4.754   4.007   1.836
 4357SOL     OW13969   6.256   0.006   6.930
 4357SOL    HW113970   6.166   6.986   6.933
 4357SOL    HW213971   6.319   6.981   6.991
 4358SOL     OW13972   6.856   6.212   0.767
 4358SOL    HW113973   6.838   6.162   0.682
 4358SOL    HW213974   6.866   6.309   0.746
 4359SOL     OW13975   1.398   1.863   5.185
 4359SOL    HW113976   1.430   1.768   5.189
 4359SOL    HW213977   1.394   1.892   5.090
 4360SOL     OW13978   1.861   3.108   2.724
 4360SOL    HW113979   1.939   3.147   2.675
 4360SOL    HW213980   1.803   3.182   2.758
 4361SOL     OW13981   2.877   2.655   1.702
 4361SOL    HW113982   2.927   2.585   1.754
 4361SOL    HW213983   2.822   2.610   1.631
 4362SOL     OW13984   6.091   3.623   4.370
 4362SOL    HW113985   6.163   3.666   4.316
 4362SOL    HW213986   6.108   3.525   4.377
 4363SOL     OW13987   5.119   2.236   5.677
 4363SOL    HW113988   5.215   2.210   5.667
 4363SOL    HW213989   5.094   2.236   5.773
 4364SOL     OW13990   3.058   3.639   5.249
 4364SOL    HW113991   3.037   3.545   5.276
 4364SOL    HW213992   2.972   3.690   5.238
 4365SOL     OW13993   2.849   1.176   1.971
 4365SOL    HW113994   2.948   1.183   1.985
 4365SOL    HW213995   2.805   1.259   2.007
 4366SOL     OW13996   5.521   6.712   0.249
 4366SOL    HW113997   5.571   6.795   0.226
 4366SOL    HW213998   5.564   6.634   0.204
 4367SOL     OW13999   1.480   4.745   5.386
 4367SOL    HW114000   1.532   4.683   5.445
 4367SOL    HW214001   1.383   4.741   5.410
 4368SOL     OW14002   4.164   5.212   1.147
 4368SOL    HW114003   4.217   5.211   1.232
 4368SOL    HW214004   4.222   5.242   1.071
 4369SOL     OW14005   4.430   5.286   2.632
 4369SOL    HW114006   4.361   5.214   2.625
 4369SOL    HW214007   4.451   5.303   2.728
 4370SOL     OW14008   5.054   4.842   2.979
 4370SOL    HW114009   4.968   4.800   2.951
 4370SOL    HW214010   5.130   4.780   2.957
 4371SOL     OW14011   6.261   0.764   1.822
 4371SOL    HW114012   6.200   0.834   1.861
 4371SOL    HW214013   6.354   0.800   1.819
 4372SOL     OW14014   4.303   1.005   2.867
 4372SOL    HW114015   4.264   1.071   2.802
 4372SOL    HW214016   4.279   1.033   2.960
 4373SOL     OW14017   0.098   2.907   0.047
 4373SOL    HW114018   0.051   2.995   0.039
 4373SOL    HW214019   0.155   2.892   6.991
 4374SOL     OW14020   0.838   1.803   2.069
 4374SOL    HW114021   0.870   1.716   2.032
 4374SOL    HW214022   0.845   1.874   1.999
 4375SOL     OW14023   3.242   0.036   4.199
 4375SOL    HW114024   3.211   0.063   4.290
 4375SOL    HW214025   3.219   6.964   4.183
 4376SOL     OW14026   6.900   0.163   2.608
 4376SOL    HW114027   6.939   0.252   2.586
 4376SOL    HW214028   6.813   0.152   2.560
 4377SOL     OW14029   6.079   3.874   0.386
 4377SOL    HW114030   6.067   3.966   0.349
 4377SOL    HW214031   6.173   3.844   0.370
 4378SOL     OW14032   1.777   1.788   2.674
 4378SOL    HW114033   1.868   1.763   2.705
 4378SOL    HW214034   1.718   1.808   2.752
 4379SOL     OW14035   2.885   1.370   3.884
 4379SOL    HW114036   2.913   1.324   3.968
 4379SOL    HW214037   2.868   1.467   3.903
 4380SOL     OW14038   1.365   0.639   1.564
 4380SOL    HW114039   1.404   0.693   1.638
 4380SOL    HW214040   1.304   0.569   1.602
 4381SOL     OW14041   1.018   5.989   4.982
 4381SOL    HW114042   0.998   5.936   5.064
 4381SOL    HW214043   1.091   6.055   5.003
 4382SOL     OW14044   6.684   3.186   6.029
 4382SOL    HW114045   6.587   3.187   6.007
 4382SOL    HW214046   6.701   3.243   6.109
 4383SOL     OW14047   6.818   4.070   6.341
 4383SOL    HW114048   6.729   4.106   6.371
 4383SOL    HW214049   6.804   3.988   6.287
 4384SOL     OW14050   5.853   1.043   3.796
 4384SOL    HW114051   5.778   0.989   3.756
 4384SOL    HW214052   5.816   1.126   3.838
 4385SOL     OW14053   4.440   2.349   5.107
 4385SOL    HW114054   4.348   2.357   5.068
 4385SOL    HW214055   4.444   2.399   5.193
 4386SOL     OW14056   1.394   3.924   5.339
 4386SOL    HW114057   1.374   3.989   5.413
 4386SOL    HW214058   1.479   3.951   5.294
 4387SOL     OW14059   6.585   2.883   1.777
 4387SOL    HW114060   6.630   2.945   1.712
 4387SOL    HW214061   6.579   2.791   1.738
 4388SOL     OW14062   4.665   2.478   6.082
 4388SOL    HW114063   4.569   2.458   6.096
 4388SOL    HW214064   4.687   2.568   6.121
 4389SOL     OW14065   6.767   3.675   0.867
 4389SOL    HW114066   6.801   3.581   0.872
 4389SOL    HW214067   6.721   3.699   0.953
 4390SOL     OW14068   4.779   7.006   1.391
 4390SOL    HW114069   4.783   7.023   1.489
 4390SOL    HW214070   4.847   6.937   1.366
 4391SOL     OW14071   2.883   4.755   6.274
 4391SOL    HW114072   2.845   4.707   6.353
 4391SOL    HW214073   2.830   4.838   6.257
 4392SOL     OW14074   0.771   1.491   4.983
 4392SOL    HW114075   0.847   1.503   4.919
 4392SOL    HW214076   0.704   1.428   4.943
 4393SOL     OW14077   6.607   0.948   2.247
 4393SOL    HW114078   6.657   0.927   2.163
 4393SOL    HW214079   6.522   0.895   2.249
 4394SOL     OW14080   0.957   6.555   1.432
 4394SOL    HW114081   1.008   6.498   1.367
 4394SOL    HW214082   0.973   6.522   1.525
 4395SOL     OW14083   1.807   0.346   1.480
 4395SOL    HW114084   1.846   0.375   1.392
 4395SOL    HW214085   1.871   0.286   1.527
 4396SOL     OW14086   1.867   1.768   4.312
 4396SOL    HW114087   1.884   1.848   4.370
 4396SOL    HW214088   1.861   1.797   4.217
 4397SOL     OW14089   1.900   3.120   4.427
 4397SOL    HW114090   1.884   3.141   4.330
 4397SOL    HW214091   1.859   3.031   4.449
 4398SOL     OW14092   1.732   3.277   6.717
 4398SOL    HW114093   1.722   3.364   6.669
 4398SOL    HW214094   1.816   3.279   6.771
 4399SOL     OW14095   2.422   6.577   1.903
 4399SOL    HW114096   2.520   6.559   1.913
 4399SOL    HW214097   2.371   6.491   1.906
 4400SOL     OW14098   2.176   6.778   3.649
 4400SOL    HW114099   2.188   6.738   3.558
 4400SOL    HW214100   2.241   6.736   3.713
 4401SOL     OW14101   4.047   6.409   4.902
 4401SOL    HW114102   3.955   6.443   4.881
 4401SOL    HW214103   4.041   6.330   4.964
 4402SOL     OW14104   0.470   0.191   2.674
 4402SOL    HW114105   0.465   0.283   2.635
 4402SOL    HW214106   0.395   0.179   2.740
 4403SOL     OW14107   1.588   6.476   0.974
 4403SOL    HW114108   1.637   6.541   1.032
 4403SOL    HW214109   1.626   6.384   0.986
 4404SOL     OW14110   1.286   5.775   5.232
 4404SOL    HW114111   1.190   5.778   5.205
 4404SOL    HW214112   1.335   5.713   5.171
 4405SOL     OW14113   2.003   4.700   2.542
 4405SOL    HW114114   1.944   4.619   2.548
 4405SOL    HW214115   2.097   4.671   2.528
 4406SOL     OW14116   6.802   3.399   0.952
 4406SOL    HW114117   6.808   3.300   0.943
 4406SOL    HW214118   6.758   3.423   1.039
 4407SOL     OW14119   0.311   5.404   0.597
 4407SOL    HW114120   0.293   5.338   0.524
 4407SOL    HW214121   0.380   5.470   0.567
 4408SOL     OW14122   2.881   6.048   6.592
 4408SOL    HW114123   2.916   6.110   6.522
 4408SOL    HW214124   2.794   6.083   6.627
 4409SOL     OW14125   4.290   1.227   1.747
 4409SOL    HW114126   4.387   1.206   1.732
 4409SOL    HW214127   4.271   1.319   1.714
 4410SOL     OW14128   6.830   5.774   0.568
 4410SOL    HW114129   6.867   5.691   0.611
 4410SOL    HW214130   6.887   5.852   0.592
 4411SOL     OW14131   3.497   4.568   5.414
 4411SOL    HW114132   3.440   4.636   5.460
 4411SOL    HW214133   3.575   4.613   5.371
 4412SOL     OW14134   5.005   6.659   4.270
 4412SOL    HW114135   5.011   6.559   4.268
 4412SOL    HW214136   5.096   6.697   4.287
 4413SOL     OW14137   4.753   5.996   3.813
 4413SOL    HW114138   4.755   6.096   3.809
 4413SOL    HW214139   4.691   5.960   3.743
 4414SOL     OW14140   4.360   5.712   1.418
 4414SOL    HW114141   4.405   5.741   1.334
 4414SOL    HW214142   4.416   5.736   1.496
 4415SOL     OW14143   3.816   3.540   0.732
 4415SOL    HW114144   3.721   3.508   0.728
 4415SOL    HW214145   3.877   3.462   0.747
 4416SOL     OW14146   3.990   1.180   4.387
 4416SOL    HW114147   4.089   1.164   4.387
 4416SOL    HW214148   3.946   1.114   4.327
 4417SOL     OW14149   6.420   2.632   4.450
 4417SOL    HW114150   6.420   2.674   4.359
 4417SOL    HW214151   6.325   2.622   4.481
 4418SOL     OW14152   5.836   1.862   2.065
 4418SOL    HW114153   5.757   1.886   2.008
 4418SOL    HW214154   5.805   1.827   2.153
 4419SOL     OW14155   6.485   0.156   6.062
 4419SOL    HW114156   6.517   0.080   6.006
 4419SOL    HW214157   6.386   0.163   6.056
 4420SOL     OW14158   3.369   1.696   0.974
 4420SOL    HW114159   3.286   1.669   1.024
 4420SOL    HW214160   3.345   1.767   0.908
 4421SOL     OW14161   1.539   2.229   5.446
 4421SOL    HW114162   1.481   2.147   5.447
 4421SOL    HW214163   1.600   2.226   5.366
 4422SOL     OW14164   0.908   4.903   6.953
 4422SOL    HW114165   0.949   4.830   6.898
 4422SOL    HW214166   0.946   4.901   0.021
 4423SOL     OW14167   6.430   4.862   5.886
 4423SOL    HW114168   6.388   4.774   5.910
 4423SOL    HW214169   6.379   4.903   5.810
 4424SOL     OW14170   5.689   6.093   4.764
 4424SOL    HW114171   5.644   6.010   4.731
 4424SOL    HW214172   5.781   6.098   4.728
 4425SOL     OW14173   1.761   5.498   1.128
 4425SOL    HW114174   1.730   5.554   1.205
 4425SOL    HW214175   1.734   5.542   1.043
 4426SOL     OW14176   0.966   0.847   3.934
 4426SOL    HW114177   0.911   0.784   3.989
 4426SOL    HW214178   1.054   0.863   3.979
 4427SOL     OW14179   4.047   6.143   2.393
 4427SOL    HW114180   3.988   6.217   2.360
 4427SOL    HW214181   4.016   6.056   2.355
 4428SOL     OW14182   4.891   0.723   4.398
 4428SOL    HW114183   4.965   0.712   4.331
 4428SOL    HW214184   4.804   0.738   4.349
 4429SOL     OW14185   2.710   6.662   2.814
 4429SOL    HW114186   2.806   6.691   2.812
 4429SOL    HW214187   2.704   6.564   2.801
 4430SOL     OW14188   5.608   5.062   4.344
 4430SOL    HW114189   5.636   4.999   4.271
 4430SOL    HW214190   5.535   5.122   4.310
 4431SOL     OW14191   3.116   0.606   3.667
 4431SOL    HW114192   3.044   0.586   3.734
 4431SOL    HW214193   3.169   0.685   3.698
 4432SOL     OW14194   2.025   3.094   6.462
 4432SOL    HW114195   1.958   3.049   6.521
 4432SOL    HW214196   1.984   3.176   6.422
 4433SOL     OW14197   0.488   2.500   4.824
 4433SOL    HW114198   0.486   2.461   4.732
 4433SOL    HW214199   0.400   2.541   4.845
 4434SOL     OW14200   5.354   1.818   2.087
 4434SOL    HW114201   5.367   1.789   1.993
 4434SOL    HW214202   5.338   1.738   2.145
 4435SOL     OW14203   3.832   3.698   1.493
 4435SOL    HW114204   3.746   3.648   1.495
 4435SOL    HW214205   3.886   3.675   1.574
 4436SOL     OW14206   3.453   1.521   1.229
 4436SOL    HW114207   3.490   1.435   1.262
 4436SOL    HW214208   3.509   1.555   1.154
 4437SOL     OW14209   0.842   3.262   2.912
 4437SOL    HW114210   0.814   3.221   2.998
 4437SOL    HW214211   0.937   3.237   2.892
 4438SOL     OW14212   4.767   6.948   5.617
 4438SOL    HW114213   4.826   0.003   5.624
 4438SOL    HW214214   4.707   6.957   5.537
 4439SOL     OW14215   1.025   4.731   3.030
 4439SOL    HW114216   1.023   4.831   3.021
 4439SOL    HW214217   1.120   4.701   3.040
 4440SOL     OW14218   2.683   4.433   1.320
 4440SOL    HW114219   2.640   4.352   1.359
 4440SOL    HW214220   2.782   4.423   1.324
 4441SOL     OW14221   6.832   1.521   1.121
 4441SOL    HW114222   6.894   1.464   1.067
 4441SOL    HW214223   6.877   1.547   1.207
 4442SOL     OW14224   1.340   5.220   5.735
 4442SOL    HW114225   1.368   5.297   5.679
 4442SOL    HW214226   1.246   5.233   5.766
 4443SOL     OW14227   0.686   4.426   6.105
 4443SOL    HW114228   0.706   4.425   6.007
 4443SOL    HW214229   0.729   4.347   6.149
 4444SOL     OW14230   4.518   3.948   0.356
 4444SOL    HW114231   4.614   3.968   0.336
 4444SOL    HW214232   4.511   3.862   0.406
 4445SOL     OW14233   1.588   5.571   0.188
 4445SOL    HW114234   1.618   5.518   0.109
 4445SOL    HW214235   1.513   5.631   0.162
 4446SOL     OW14236   5.714   1.565   0.320
 4446SOL    HW114237   5.756   1.611   0.399
 4446SOL    HW214238   5.723   1.624   0.239
 4447SOL     OW14239   5.834   4.389   5.306
 4447SOL    HW114240   5.836   4.317   5.375
 4447SOL    HW214241   5.855   4.477   5.349
 4448SOL     OW14242   2.706   6.988   1.115
 4448SOL    HW114243   2.780   6.930   1.149
 4448SOL    HW214244   2.619   6.940   1.125
 4449SOL     OW14245   4.540   1.158   6.548
 4449SOL    HW114246   4.622   1.197   6.589
 4449SOL    HW214247   4.461   1.176   6.607
 4450SOL     OW14248   2.853   1.467   6.695
 4450SOL    HW114249   2.873   1.403   6.620
 4450SOL    HW214250   2.935   1.521   6.714
 4451SOL     OW14251   4.517   4.949   4.345
 4451SOL    HW114252   4.590   4.999   4.299
 4451SOL    HW214253   4.464   4.898   4.277
 4452SOL     OW14254   6.347   5.907   4.758
 4452SOL    HW114255   6.332   5.941   4.851
 4452SOL    HW214256   6.269   5.931   4.700
 4453SOL     OW14257   1.400   2.890   1.871
 4453SOL    HW114258   1.335   2.966   1.875
 4453SOL    HW214259   1.399   2.841   1.959
 4454SOL     OW14260   0.595   1.489   0.090
 4454SOL    HW114261   0.680   1.515   0.135
 4454SOL    HW214262   0.540   1.433   0.151
 4455SOL     OW14263   5.564   5.498   5.329
 4455SOL    HW114264   5.508   5.462   5.403
 4455SOL    HW214265   5.574   5.597   5.339
 4456SOL     OW14266   2.424   6.186   3.326
 4456SOL    HW114267   2.510   6.136   3.322
 4456SOL    HW214268   2.417   6.234   3.414
 4457SOL     OW14269   1.787   2.024   4.664
 4457SOL    HW114270   1.816   1.976   4.746
 4457SOL    HW214271   1.847   1.999   4.587
 4458SOL     OW14272   2.292   3.367   1.468
 4458SOL    HW114273   2.249   3.446   1.512
 4458SOL    HW214274   2.325   3.304   1.538
 4459SOL     OW14275   2.479   1.745   4.191
 4459SOL    HW114276   2.541   1.818   4.163
 4459SOL    HW214277   2.522   1.656   4.173
 4460SOL     OW14278   0.702   3.480   5.105
 4460SOL    HW114279   0.682   3.383   5.120
 4460SOL    HW214280   0.629   3.536   5.145
 4461SOL     OW14281   1.509   0.952   1.114
 4461SOL    HW114282   1.548   1.042   1.133
 4461SOL    HW214283   1.518   0.894   1.195
 4462SOL     OW14284   5.943   4.145   2.461
 4462SOL    HW114285   5.870   4.077   2.472
 4462SOL    HW214286   6.030   4.106   2.490
 4463SOL     OW14287   4.825   1.404   1.428
 4463SOL    HW114288   4.888   1.330   1.407
 4463SOL    HW214289   4.732   1.369   1.435
 4464SOL     OW14290   0.820   5.847   0.264
 4464SOL    HW114291   0.809   5.820   0.168
 4464SOL    HW214292   0.856   5.770   0.317
 4465SOL     OW14293   2.589   5.314   0.431
 4465SOL    HW114294   2.542   5.325   0.519
 4465SOL    HW214295   2.536   5.253   0.373
 4466SOL     OW14296   1.893   2.219   2.872
 4466SOL    HW114297   1.796   2.207   2.893
 4466SOL    HW214298   1.903   2.287   2.799
 4467SOL     OW14299   2.305   5.821   3.735
 4467SOL    HW114300   2.257   5.906   3.754
 4467SOL    HW214301   2.401   5.841   3.714
 4468SOL     OW14302   1.349   4.048   1.097
 4468SOL    HW114303   1.269   4.097   1.131
 4468SOL    HW214304   1.429   4.108   1.104
 4469SOL     OW14305   2.378   0.784   1.278
 4469SOL    HW114306   2.286   0.823   1.284
 4469SOL    HW214307   2.406   0.750   1.368
 4470SOL     OW14308   0.323   1.181   2.410
 4470SOL    HW114309   0.324   1.083   2.427
 4470SOL    HW214310   0.264   1.202   2.333
 4471SOL     OW14311   2.060   2.961   6.780
 4471SOL    HW114312   1.975   2.940   6.732
 4471SOL    HW214313   2.132   2.983   6.714
 4472SOL     OW14314   1.329   2.107   0.684
 4472SOL    HW114315   1.413   2.059   0.661
 4472SOL    HW214316   1.346   2.206   0.686
 4473SOL     OW14317   6.017   2.986   3.483
 4473SOL    HW114318   6.101   2.974   3.536
 4473SOL    HW214319   5.958   2.906   3.495
 4474SOL     OW14320   2.764   6.933   2.517
 4474SOL    HW114321   2.717   6.984   2.445
 4474SOL    HW214322   2.744   6.973   2.606
 4475SOL     OW14323   1.038   3.941   1.477
 4475SOL    HW114324   1.089   3.938   1.563
 4475SOL    HW214325   0.986   3.857   1.466
 4476SOL     OW14326   6.118   1.211   4.311
 4476SOL    HW114327   6.077   1.242   4.225
 4476SOL    HW214328   6.082   1.120   4.334
 4477SOL     OW14329   1.833   0.448   5.354
 4477SOL    HW114330   1.862   0.478   5.444
 4477SOL    HW214331   1.733   0.450   5.349
 4478SOL     OW14332   1.020   0.197   1.429
 4478SOL    HW114333   1.092   0.152   1.482
 4478SOL    HW214334   1.015   0.156   1.338
 4479SOL     OW14335   1.218   1.769   0.363
 4479SOL    HW114336   1.134   1.761   0.309
 4479SOL    HW214337   1.200   1.744   0.458
 4480SOL     OW14338   0.903   4.130   5.035
 4480SOL    HW114339   0.875   4.082   5.119
 4480SOL    HW214340   0.976   4.080   4.990
 4481SOL     OW14341   2.328   5.549   5.231
 4481SOL    HW114342   2.229   5.546   5.220
 4481SOL    HW214343   2.364   5.455   5.237
 4482SOL     OW14344   2.386   3.522   5.897
 4482SOL    HW114345   2.373   3.489   5.803
 4482SOL    HW214346   2.339   3.609   5.909
 4483SOL     OW14347   0.412   2.735   1.941
 4483SOL    HW114348   0.470   2.705   1.865
 4483SOL    HW214349   0.334   2.674   1.951
 4484SOL     OW14350   2.370   2.896   0.360
 4484SOL    HW114351   2.451   2.840   0.378
 4484SOL    HW214352   2.301   2.841   0.312
 4485SOL     OW14353   4.486   2.734   5.177
 4485SOL    HW114354   4.416   2.673   5.216
 4485SOL    HW214355   4.541   2.774   5.250
 4486SOL     OW14356   5.815   4.957   5.346
 4486SOL    HW114357   5.821   4.928   5.442
 4486SOL    HW214358   5.750   5.033   5.338
 4487SOL     OW14359   2.116   2.769   6.967
 4487SOL    HW114360   2.111   2.850   6.908
 4487SOL    HW214361   2.190   2.709   6.935
 4488SOL     OW14362   1.257   3.822   3.876
 4488SOL    HW114363   1.352   3.795   3.863
 4488SOL    HW214364   1.198   3.764   3.820
 4489SOL     OW14365   4.996   5.532   5.112
 4489SOL    HW114366   4.937   5.480   5.173
 4489SOL    HW214367   4.952   5.619   5.089
 4490SOL     OW14368   5.104   2.162   0.855
 4490SOL    HW114369   5.180   2.185   0.916
 4490SOL    HW214370   5.127   2.191   0.762
 4491SOL     OW14371   0.926   3.557   3.241
 4491SOL    HW114372   0.987   3.502   3.184
 4491SOL    HW214373   0.880   3.626   3.185
 4492SOL     OW14374   5.683   1.480   2.106
 4492SOL    HW114375   5.762   1.444   2.056
 4492SOL    HW214376   5.610   1.502   2.041
 4493SOL     OW14377   6.128   6.390   4.539
 4493SOL    HW114378   6.110   6.325   4.465
 4493SOL    HW214379   6.043   6.408   4.588
 4494SOL     OW14380   1.128   1.042   5.756
 4494SOL    HW114381   1.073   0.998   5.827
 4494SOL    HW214382   1.131   0.984   5.675
 4495SOL     OW14383   3.921   6.979   2.581
 4495SOL    HW114384   3.896   0.014   2.504
 4495SOL    HW214385   3.970   6.898   2.546
 4496SOL     OW14386   4.761   6.137   6.783
 4496SOL    HW114387   4.801   6.066   6.842
 4496SOL    HW214388   4.768   6.110   6.688
 4497SOL     OW14389   3.712   2.340   6.922
 4497SOL    HW114390   3.726   2.426   6.972
 4497SOL    HW214391   3.744   2.264   6.978
 4498SOL     OW14392   6.867   5.351   6.362
 4498SOL    HW114393   6.950   5.357   6.307
 4498SOL    HW214394   6.830   5.443   6.376
 4499SOL     OW14395   5.773   2.211   3.490
 4499SOL    HW114396   5.704   2.247   3.428
 4499SOL    HW214397   5.863   2.243   3.461
 4500SOL     OW14398   4.185   4.357   6.588
 4500SOL    HW114399   4.192   4.453   6.562
 4500SOL    HW214400   4.181   4.349   6.688
 4501SOL     OW14401   5.757   2.174   2.418
 4501SOL    HW114402   5.754   2.177   2.318
 4501SOL    HW214403   5.680   2.226   2.455
 4502SOL     OW14404   0.914   3.975   0.163
 4502SOL    HW114405   0.855   3.996   0.084
 4502SOL    HW214406   0.930   4.059   0.215
 4503SOL     OW14407   2.872   6.752   2.350
 4503SOL    HW114408   2.886   6.780   2.255
 4503SOL    HW214409   2.849   6.832   2.405
 4504SOL     OW14410   6.399   2.273   4.141
 4504SOL    HW114411   6.383   2.215   4.061
 4504SOL    HW214412   6.338   2.353   4.136
 4505SOL     OW14413   6.729   4.436   2.212
 4505SOL    HW114414   6.712   4.528   2.178
 4505SOL    HW214415   6.788   4.440   2.292
 4506SOL     OW14416   5.518   3.027   3.573
 4506SOL    HW114417   5.491   3.109   3.623
 4506SOL    HW214418   5.447   2.957   3.582
 4507SOL     OW14419   0.012   2.998   3.974
 4507SOL    HW114420   6.948   3.027   3.935
 4507SOL    HW214421   0.083   3.005   3.905
 4508SOL     OW14422   1.456   4.330   6.844
 4508SOL    HW114423   1.435   4.277   6.762
 4508SOL    HW214424   1.518   4.277   6.902
 4509SOL     OW14425   4.912   2.433   2.612
 4509SOL    HW114426   4.831   2.425   2.671
 4509SOL    HW214427   4.884   2.460   2.520
 4510SOL     OW14428   4.280   1.389   4.345
 4510SOL    HW114429   4.364   1.443   4.339
 4510SOL    HW214430   4.223   1.424   4.419
 4511SOL     OW14431   6.647   3.774   1.086
 4511SOL    HW114432   6.648   3.808   1.180
 4511SOL    HW214433   6.563   3.723   1.070
 4512SOL     OW14434   3.241   1.868   5.945
 4512SOL    HW114435   3.327   1.860   5.895
 4512SOL    HW214436   3.186   1.941   5.906
 4513SOL     OW14437   0.806   6.166   6.303
 4513SOL    HW114438   0.829   6.175   6.399
 4513SOL    HW214439   0.889   6.163   6.248
 4514SOL     OW14440   3.498   3.401   0.141
 4514SOL    HW114441   3.475   3.479   0.082
 4514SOL    HW214442   3.428   3.330   0.130
 4515SOL     OW14443   5.518   1.400   4.765
 4515SOL    HW114444   5.543   1.308   4.794
 4515SOL    HW214445   5.449   1.437   4.827
 4516SOL     OW14446   2.694   0.443   5.546
 4516SOL    HW114447   2.680   0.454   5.448
 4516SOL    HW214448   2.760   0.369   5.562
 4517SOL     OW14449   4.317   6.517   6.694
 4517SOL    HW114450   4.225   6.547   6.720
 4517SOL    HW214451   4.321   6.506   6.595
 4518SOL     OW14452   1.255   6.767   1.248
 4518SOL    HW114453   1.290   6.698   1.185
 4518SOL    HW214454   1.283   6.743   1.342
 4519SOL     OW14455   4.871   6.763   6.871
 4519SOL    HW114456   4.894   6.851   6.830
 4519SOL    HW214457   4.832   6.703   6.802
 4520SOL     OW14458   4.242   5.851   5.555
 4520SOL    HW114459   4.283   5.762   5.535
 4520SOL    HW214460   4.194   5.884   5.474
 4521SOL     OW14461   5.162   1.764   4.791
 4521SOL    HW114462   5.184   1.862   4.794
 4521SOL    HW214463   5.137   1.733   4.883
 4522SOL     OW14464   6.260   4.026   3.140
 4522SOL    HW114465   6.317   4.015   3.221
 4522SOL    HW214466   6.174   4.070   3.165
 4523SOL     OW14467   1.450   3.895   0.007
 4523SOL    HW114468   1.362   3.927   6.998
 4523SOL    HW214469   1.470   3.805   6.991
 4524SOL     OW14470   7.012   3.681   2.139
 4524SOL    HW114471   6.955   3.635   2.206
 4524SOL    HW214472   0.084   3.671   2.165
 4525SOL     OW14473   2.626   2.055   5.712
 4525SOL    HW114474   2.559   2.050   5.786
 4525SOL    HW214475   2.598   2.125   5.647
 4526SOL     OW14476   0.127   0.720   6.588
 4526SOL    HW114477   0.199   0.651   6.581
 4526SOL    HW214478   0.162   0.801   6.637
 4527SOL     OW14479   6.662   0.272   2.821
 4527SOL    HW114480   6.755   0.239   2.839
 4527SOL    HW214481   6.614   0.205   2.764
 4528SOL     OW14482   4.290   0.703   6.378
 4528SOL    HW114483   4.235   0.713   6.461
 4528SOL    HW214484   4.282   0.786   6.323
 4529SOL     OW14485   2.958   1.247   5.981
 4529SOL    HW114486   3.020   1.279   5.910
 4529SOL    HW214487   3.010   1.222   6.062
 4530SOL     OW14488   2.246   6.183   4.367
 4530SOL    HW114489   2.321   6.120   4.348
 4530SOL    HW214490   2.218   6.174   4.463
 4531SOL     OW14491   0.606   4.158   6.238
 4531SOL    HW114492   0.553   4.166   6.154
 4531SOL    HW214493   0.659   4.073   6.236
 4532SOL     OW14494   5.102   0.814   2.655
 4532SOL    HW114495   5.025   0.796   2.595
 4532SOL    HW214496   5.089   0.901   2.703
 4533SOL     OW14497   1.407   1.176   2.940
 4533SOL    HW114498   1.309   1.169   2.955
 4533SOL    HW214499   1.439   1.267   2.969
 4534SOL     OW14500   4.235   2.125   5.179
 4534SOL    HW114501   4.217   2.042   5.126
 4534SOL    HW214502   4.320   2.167   5.148
 4535SOL     OW14503   3.608   1.595   0.943
 4535SOL    HW114504   3.512   1.621   0.932
 4535SOL    HW214505   3.667   1.675   0.931
 4536SOL     OW14506   2.747   1.310   5.822
 4536SOL    HW114507   2.687   1.230   5.821
 4536SOL    HW214508   2.820   1.296   5.888
 4537SOL     OW14509   4.066   3.615   2.825
 4537SOL    HW114510   4.012   3.532   2.836
 4537SOL    HW214511   4.064   3.668   2.910
 4538SOL     OW14512   1.374   2.347   1.859
 4538SOL    HW114513   1.437   2.290   1.807
 4538SOL    HW214514   1.417   2.371   1.947
 4539SOL     OW14515   2.333   5.500   4.620
 4539SOL    HW114516   2.261   5.494   4.551
 4539SOL    HW214517   2.297   5.542   4.703
 4540SOL     OW14518   0.883   0.950   0.857
 4540SOL    HW114519   0.788   0.922   0.851
 4540SOL    HW214520   0.889   1.050   0.852
 4541SOL     OW14521   4.538   1.735   6.738
 4541SOL    HW114522   4.443   1.742   6.707
 4541SOL    HW214523   4.564   1.820   6.784
 4542SOL     OW14524   6.872   2.004   0.807
 4542SOL    HW114525   6.929   1.922   0.820
 4542SOL    HW214526   6.803   2.007   0.879
 4543SOL     OW14527   4.483   2.314   0.794
 4543SOL    HW114528   4.472   2.248   0.868
 4543SOL    HW214529   4.575   2.351   0.795
 4544SOL     OW14530   4.631   5.064   1.075
 4544SOL    HW114531   4.557   5.065   1.142
 4544SOL    HW214532   4.666   4.971   1.065
 4545SOL     OW14533   0.781   4.096   5.269
 4545SOL    HW114534   0.721   4.026   5.309
 4545SOL    HW214535   0.858   4.113   5.330
 4546SOL     OW14536   3.177   0.599   5.773
 4546SOL    HW114537   3.275   0.619   5.765
 4546SOL    HW214538   3.137   0.592   5.681
 4547SOL     OW14539   6.516   0.537   0.033
 4547SOL    HW114540   6.500   0.584   6.970
 4547SOL    HW214541   6.509   0.438   0.019
 4548SOL     OW14542   2.511   2.443   3.467
 4548SOL    HW114543   2.508   2.538   3.435
 4548SOL    HW214544   2.477   2.439   3.561
 4549SOL     OW14545   5.045   4.450   2.599
 4549SOL    HW114546   5.003   4.364   2.629
 4549SOL    HW214547   5.066   4.444   2.501
 4550SOL     OW14548   0.946   4.681   3.738
 4550SOL    HW114549   1.013   4.610   3.762
 4550SOL    HW214550   0.854   4.644   3.749
 4551SOL     OW14551   0.696   3.803   5.097
 4551SOL    HW114552   0.617   3.770   5.045
 4551SOL    HW214553   0.668   3.824   5.190
 4552SOL     OW14554   5.776   2.272   2.151
 4552SOL    HW114555   5.806   2.367   2.163
 4552SOL    HW214556   5.741   2.260   2.058
 4553SOL     OW14557   5.342   4.559   6.515
 4553SOL    HW114558   5.431   4.558   6.560
 4553SOL    HW214559   5.290   4.478   6.543
 4554SOL     OW14560   0.718   6.592   1.187
 4554SOL    HW114561   0.643   6.529   1.209
 4554SOL    HW214562   0.683   6.686   1.182
 4555SOL     OW14563   1.253   1.181   6.752
 4555SOL    HW114564   1.295   1.107   6.699
 4555SOL    HW214565   1.219   1.251   6.690
 4556SOL     OW14566   6.111   3.321   5.444
 4556SOL    HW114567   6.015   3.308   5.420
 4556SOL    HW214568   6.164   3.338   5.361
 4557SOL     OW14569   6.061   5.282   5.015
 4557SOL    HW114570   6.138   5.321   4.966
 4557SOL    HW214571   5.991   5.252   4.950
 4558SOL     OW14572   6.619   3.250   5.091
 4558SOL    HW114573   6.709   3.251   5.135
 4558SOL    HW214574   6.580   3.343   5.092
 4559SOL     OW14575   0.696   3.271   2.699
 4559SOL    HW114576   0.611   3.314   2.730
 4559SOL    HW214577   0.757   3.256   2.777
 4560SOL     OW14578   5.943   4.319   2.228
 4560SOL    HW114579   5.933   4.257   2.306
 4560SOL    HW214580   6.039   4.346   2.219
 4561SOL     OW14581   3.534   2.151   3.904
 4561SOL    HW114582   3.512   2.117   3.995
 4561SOL    HW214583   3.451   2.189   3.861
 4562SOL     OW14584   2.133   6.583   0.362
 4562SOL    HW114585   2.172   6.650   0.425
 4562SOL    HW214586   2.198   6.508   0.349
 4563SOL     OW14587   6.713   3.358   1.619
 4563SOL    HW114588   6.637   3.393   1.673
 4563SOL    HW214589   6.751   3.277   1.665
 4564SOL     OW14590   7.012   4.537   2.016
 4564SOL    HW114591   6.984   4.499   2.104
 4564SOL    HW214592   0.027   4.628   2.031
 4565SOL     OW14593   1.474   1.273   4.234
 4565SOL    HW114594   1.552   1.267   4.172
 4565SOL    HW214595   1.487   1.210   4.310
 4566SOL     OW14596   0.544   3.649   1.149
 4566SOL    HW114597   0.564   3.745   1.134
 4566SOL    HW214598   0.608   3.612   1.217
 4567SOL     OW14599   6.960   0.578   0.104
 4567SOL    HW114600   6.923   0.521   0.031
 4567SOL    HW214601   6.902   0.658   0.118
 4568SOL     OW14602   0.576   4.437   4.882
 4568SOL    HW114603   0.676   4.442   4.887
 4568SOL    HW214604   0.543   4.368   4.947
 4569SOL     OW14605   3.115   0.895   2.644
 4569SOL    HW114606   3.019   0.869   2.635
 4569SOL    HW214607   3.147   0.871   2.736
 4570SOL     OW14608   6.141   6.309   2.314
 4570SOL    HW114609   6.092   6.371   2.375
 4570SOL    HW214610   6.113   6.327   2.220
 4571SOL     OW14611   4.859   2.863   6.605
 4571SOL    HW114612   4.907   2.911   6.679
 4571SOL    HW214613   4.785   2.807   6.644
 4572SOL     OW14614   2.452   1.998   6.151
 4572SOL    HW114615   2.424   2.043   6.236
 4572SOL    HW214616   2.551   1.992   6.148
 4573SOL     OW14617   0.854   7.017   0.637
 4573SOL    HW114618   0.916   0.021   0.711
 4573SOL    HW214619   0.761   7.011   0.673
 4574SOL     OW14620   5.847   4.260   6.953
 4574SOL    HW114621   5.881   4.235   6.863
 4574SOL    HW214622   5.924   4.273   7.016
 4575SOL     OW14623   5.859   0.943   4.537
 4575SOL    HW114624   5.808   0.869   4.580
 4575SOL    HW214625   5.956   0.920   4.533
 4576SOL     OW14626   2.323   4.669   5.345
 4576SOL    HW114627   2.331   4.683   5.247
 4576SOL    HW214628   2.393   4.723   5.393
 4577SOL     OW14629   1.054   2.603   2.926
 4577SOL    HW114630   0.960   2.589   2.894
 4577SOL    HW214631   1.104   2.655   2.857
 4578SOL     OW14632   0.256   0.553   3.644
 4578SOL    HW114633   0.353   0.528   3.637
 4578SOL    HW214634   0.200   0.475   3.617
 4579SOL     OW14635   4.536   1.134   1.717
 4579SOL    HW114636   4.632   1.162   1.723
 4579SOL    HW214637   4.530   1.043   1.678
 4580SOL     OW14638   5.696   4.373   0.836
 4580SOL    HW114639   5.648   4.305   0.780
 4580SOL    HW214640   5.792   4.347   0.844
 4581SOL     OW14641   2.888   6.422   2.100
 4581SOL    HW114642   2.900   6.342   2.041
 4581SOL    HW214643   2.797   6.461   2.086
 4582SOL     OW14644   4.609   0.560   3.086
 4582SOL    HW114645   4.541   0.558   3.012
 4582SOL    HW214646   4.701   0.564   3.047
 4583SOL     OW14647   2.124   1.089   6.626
 4583SOL    HW114648   2.141   1.041   6.540
 4583SOL    HW214649   2.181   1.171   6.630
 4584SOL     OW14650   1.835   6.695   5.881
 4584SOL    HW114651   1.809   6.624   5.947
 4584SOL    HW214652   1.754   6.721   5.828
 4585SOL     OW14653   1.865   3.975   3.468
 4585SOL    HW114654   1.862   4.033   3.387
 4585SOL    HW214655   1.860   4.032   3.550
 4586SOL     OW14656   4.795   4.177   0.664
 4586SOL    HW114657   4.840   4.142   0.582
 4586SOL    HW214658   4.743   4.104   0.707
 4587SOL     OW14659   3.486   3.523   4.503
 4587SOL    HW114660   3.477   3.431   4.464
 4587SOL    HW214661   3.581   3.539   4.527
 4588SOL     OW14662   3.241   3.357   5.394
 4588SOL    HW114663   3.292   3.443   5.389
 4588SOL    HW214664   3.304   3.280   5.404
 4589SOL     OW14665   5.638   6.103   1.792
 4589SOL    HW114666   5.737   6.111   1.777
 4589SOL    HW214667   5.595   6.066   1.709
 4590SOL     OW14668   3.578   6.065   1.830
 4590SOL    HW114669   3.664   6.073   1.881
 4590SOL    HW214670   3.596   6.017   1.744
 4591SOL     OW14671   1.889   1.025   5.017
 4591SOL    HW114672   1.847   1.030   5.107
 4591SOL    HW214673   1.831   0.970   4.956
 4592SOL     OW14674   2.662   1.961   3.442
 4592SOL    HW114675   2.634   1.906   3.520
 4592SOL    HW214676   2.668   2.057   3.470
 4593SOL     OW14677   6.628   5.503   2.685
 4593SOL    HW114678   6.695   5.536   2.618
 4593SOL    HW214679   6.630   5.561   2.766
 4594SOL     OW14680   2.743   0.008   3.024
 4594SOL    HW114681   2.719   0.089   3.077
 4594SOL    HW214682   2.839   0.013   2.996
 4595SOL     OW14683   4.872   2.825   5.743
 4595SOL    HW114684   4.859   2.744   5.685
 4595SOL    HW214685   4.788   2.879   5.744
 4596SOL     OW14686   0.155   1.236   2.226
 4596SOL    HW114687   0.089   1.312   2.228
 4596SOL    HW214688   0.182   1.219   2.131
 4597SOL     OW14689   2.478   4.926   6.844
 4597SOL    HW114690   2.401   4.958   6.789
 4597SOL    HW214691   2.466   4.828   6.864
 4598SOL     OW14692   2.212   5.429   0.523
 4598SOL    HW114693   2.194   5.350   0.582
 4598SOL    HW214694   2.302   5.467   0.545
 4599SOL     OW14695   1.804   3.627   2.108
 4599SOL    HW114696   1.791   3.583   2.019
 4599SOL    HW214697   1.897   3.611   2.141
 4600SOL     OW14698   0.370   6.904   6.164
 4600SOL    HW114699   0.361   6.949   6.075
 4600SOL    HW214700   0.293   6.930   6.222
 4601SOL     OW14701   0.759   0.951   4.548
 4601SOL    HW114702   0.762   0.894   4.630
 4601SOL    HW214703   0.810   0.907   4.475
 4602SOL     OW14704   2.717   0.017   6.132
 4602SOL    HW114705   2.811   7.019   6.156
 4602SOL    HW214706   2.655   7.005   6.202
 4603SOL     OW14707   3.507   6.058   0.979
 4603SOL    HW114708   3.602   6.030   0.996
 4603SOL    HW214709   3.506   6.144   0.928
 4604SOL     OW14710   4.995   0.098   5.642
 4604SOL    HW114711   5.050   0.080   5.723
 4604SOL    HW214712   5.047   0.155   5.578
 4605SOL     OW14713   1.965   0.176   1.610
 4605SOL    HW114714   1.918   0.105   1.663
 4605SOL    HW214715   2.064   0.162   1.615
 4606SOL     OW14716   0.071   6.505   2.708
 4606SOL    HW114717   0.037   6.418   2.672
 4606SOL    HW214718   0.156   6.488   2.759
 4607SOL     OW14719   2.155   3.790   3.341
 4607SOL    HW114720   2.057   3.801   3.323
 4607SOL    HW214721   2.196   3.880   3.358
 4608SOL     OW14722   0.392   3.122   4.194
 4608SOL    HW114723   0.348   3.187   4.256
 4608SOL    HW214724   0.433   3.047   4.247
 4609SOL     OW14725   4.629   5.597   6.664
 4609SOL    HW114726   4.670   5.642   6.585
 4609SOL    HW214727   4.664   5.504   6.673
 4610SOL     OW14728   5.213   1.916   6.685
 4610SOL    HW114729   5.168   1.896   6.772
 4610SOL    HW214730   5.148   1.899   6.610
 4611SOL     OW14731   0.399   1.004   5.845
 4611SOL    HW114732   0.334   0.945   5.798
 4611SOL    HW214733   0.455   0.950   5.908
 4612SOL     OW14734   2.306   6.335   2.041
 4612SOL    HW114735   2.325   6.252   2.094
 4612SOL    HW214736   2.271   6.406   2.103
 4613SOL     OW14737   1.793   5.049   2.505
 4613SOL    HW114738   1.889   5.058   2.532
 4613SOL    HW214739   1.748   4.982   2.565
 4614SOL     OW14740   6.814   3.418   3.927
 4614SOL    HW114741   6.742   3.455   3.870
 4614SOL    HW214742   6.805   3.453   4.020
 4615SOL     OW14743   0.936   0.755   1.501
 4615SOL    HW114744   0.967   0.789   1.412
 4615SOL    HW214745   0.963   0.660   1.512
 4616SOL     OW14746   6.445   2.485   4.938
 4616SOL    HW114747   6.357   2.455   4.974
 4616SOL    HW214748   6.446   2.585   4.932
 4617SOL     OW14749   1.149   2.630   2.238
 4617SOL    HW114750   1.113   2.559   2.179
 4617SOL    HW214751   1.143   2.601   2.333
 4618SOL     OW14752   2.750   3.553   5.294
 4618SOL    HW114753   2.834   3.505   5.322
 4618SOL    HW214754   2.774   3.628   5.233
 4619SOL     OW14755   3.080   6.459   3.639
 4619SOL    HW114756   3.012   6.406   3.589
 4619SOL    HW214757   3.151   6.489   3.576
 4620SOL     OW14758   0.802   5.298   1.392
 4620SOL    HW114759   0.794   5.380   1.335
 4620SOL    HW214760   0.718   5.244   1.386
 4621SOL     OW14761   4.944   0.171   2.189
 4621SOL    HW114762   4.857   0.133   2.158
 4621SOL    HW214763   4.981   0.233   2.119
 4622SOL     OW14764   4.611   4.766   0.992
 4622SOL    HW114765   4.620   4.668   1.012
 4622SOL    HW214766   4.661   4.788   0.909
 4623SOL     OW14767   4.088   5.691   1.159
 4623SOL    HW114768   3.998   5.731   1.168
 4623SOL    HW214769   4.151   5.758   1.121
 4624SOL     OW14770   4.058   1.266   3.314
 4624SOL    HW114771   3.991   1.292   3.384
 4624SOL    HW214772   4.138   1.326   3.321
 4625SOL     OW14773   2.370   5.950   1.726
 4625SOL    HW114774   2.393   5.852   1.727
 4625SOL    HW214775   2.310   5.971   1.803
 4626SOL     OW14776   4.032   3.884   1.864
 4626SOL    HW114777   4.054   3.792   1.833
 4626SOL    HW214778   4.090   3.950   1.817
 4627SOL     OW14779   0.158   6.061   5.183
 4627SOL    HW114780   0.084   6.092   5.123
 4627SOL    HW214781   0.129   5.982   5.236
 4628SOL     OW14782   4.781   4.824   3.443
 4628SOL    HW114783   4.773   4.742   3.387
 4628SOL    HW214784   4.709   4.889   3.417
 4629SOL     OW14785   2.471   5.163   6.090
 4629SOL    HW114786   2.405   5.237   6.105
 4629SOL    HW214787   2.448   5.116   6.005
 4630SOL     OW14788   1.621   5.705   2.781
 4630SOL    HW114789   1.601   5.775   2.849
 4630SOL    HW214790   1.709   5.724   2.738
 4631SOL     OW14791   1.126   7.001   3.663
 4631SOL    HW114792   1.161   0.069   3.648
 4631SOL    HW214793   1.106   6.988   3.760
 4632SOL     OW14794   2.564   5.609   2.749
 4632SOL    HW114795   2.545   5.693   2.799
 4632SOL    HW214796   2.662   5.603   2.730
 4633SOL     OW14797   5.095   1.324   4.230
 4633SOL    HW114798   5.066   1.304   4.136
 4633SOL    HW214799   5.153   1.405   4.230
 4634SOL     OW14800   2.964   3.829   4.843
 4634SOL    HW114801   2.971   3.909   4.903
 4634SOL    HW214802   2.937   3.749   4.896
 4635SOL     OW14803   4.212   4.778   1.078
 4635SOL    HW114804   4.219   4.683   1.047
 4635SOL    HW214805   4.190   4.779   1.175
 4636SOL     OW14806   1.968   4.785   0.871
 4636SOL    HW114807   1.944   4.689   0.857
 4636SOL    HW214808   1.916   4.822   0.948
 4637SOL     OW14809   0.990   6.767   0.584
 4637SOL    HW114810   1.065   6.778   0.650
 4637SOL    HW214811   0.942   6.854   0.574
 4638SOL     OW14812   3.466   4.929   6.715
 4638SOL    HW114813   3.437   5.020   6.744
 4638SOL    HW214814   3.562   4.932   6.686
 4639SOL     OW14815   2.873   2.357   6.381
 4639SOL    HW114816   2.823   2.354   6.294
 4639SOL    HW214817   2.967   2.325   6.367
 4640SOL     OW14818   5.956   2.553   5.138
 4640SOL    HW114819   6.016   2.631   5.118
 4640SOL    HW214820   5.864   2.574   5.106
 4641SOL     OW14821   1.939   7.004   3.618
 4641SOL    HW114822   1.886   6.924   3.644
 4641SOL    HW214823   1.891   0.063   3.645
 4642SOL     OW14824   1.678   0.971   3.798
 4642SOL    HW114825   1.612   0.896   3.792
 4642SOL    HW214826   1.758   0.950   3.742
 4643SOL     OW14827   6.243   2.018   0.421
 4643SOL    HW114828   6.258   2.094   0.484
 4643SOL    HW214829   6.213   1.938   0.472
 4644SOL     OW14830   7.003   0.974   5.755
 4644SOL    HW114831   6.959   0.927   5.831
 4644SOL    HW214832   6.950   1.054   5.729
 4645SOL     OW14833   1.479   0.724   4.184
 4645SOL    HW114834   1.527   0.788   4.124
 4645SOL    HW214835   1.540   0.694   4.257
 4646SOL     OW14836   2.492   4.898   4.909
 4646SOL    HW114837   2.541   4.812   4.892
 4646SOL    HW214838   2.404   4.879   4.951
 4647SOL     OW14839   1.667   0.085   3.089
 4647SOL    HW114840   1.673   0.012   3.021
 4647SOL    HW214841   1.601   0.153   3.060
 4648SOL     OW14842   3.010   0.716   4.023
 4648SOL    HW114843   2.994   0.635   3.967
 4648SOL    HW214844   2.946   0.788   3.997
 4649SOL     OW14845   5.635   1.094   1.324
 4649SOL    HW114846   5.538   1.083   1.302
 4649SOL    HW214847   5.689   1.090   1.240
 4650SOL     OW14848   4.317   6.129   1.161
 4650SOL    HW114849   4.364   6.088   1.239
 4650SOL    HW214850   4.316   6.229   1.172
 4651SOL     OW14851   6.259   3.579   6.504
 4651SOL    HW114852   6.179   3.575   6.564
 4651SOL    HW214853   6.290   3.674   6.495
 4652SOL     OW14854   6.805   5.846   4.265
 4652SOL    HW114855   6.815   5.749   4.245
 4652SOL    HW214856   6.834   5.864   4.359
 4653SOL     OW14857   4.789   5.733   0.413
 4653SOL    HW114858   4.887   5.749   0.424
 4653SOL    HW214859   4.772   5.682   0.329
 4654SOL     OW14860   6.887   6.724   5.406
 4654SOL    HW114861   6.954   6.712   5.479
 4654SOL    HW214862   6.934   6.730   5.318
 4655SOL     OW14863   4.798   3.613   1.878
 4655SOL    HW114864   4.758   3.659   1.799
 4655SOL    HW214865   4.762   3.520   1.885
 4656SOL     OW14866   0.659   0.313   1.642
 4656SOL    HW114867   0.615   0.309   1.732
 4656SOL    HW214868   0.650   0.405   1.605
 4657SOL     OW14869   5.550   6.003   1.544
 4657SOL    HW114870   5.537   5.951   1.460
 4657SOL    HW214871   5.624   6.068   1.532
 4658SOL     OW14872   2.861   2.584   5.531
 4658SOL    HW114873   2.914   2.622   5.455
 4658SOL    HW214874   2.844   2.655   5.599
 4659SOL     OW14875   3.520   4.264   1.495
 4659SOL    HW114876   3.520   4.343   1.433
 4659SOL    HW214877   3.430   4.254   1.536
 4660SOL     OW14878   1.682   0.017   4.117
 4660SOL    HW114879   1.671   7.021   4.020
 4660SOL    HW214880   1.649   6.963   4.171
 4661SOL     OW14881   2.627   4.775   5.706
 4661SOL    HW114882   2.555   4.791   5.774
 4661SOL    HW214883   2.629   4.679   5.681
 4662SOL     OW14884   2.718   0.224   5.054
 4662SOL    HW114885   2.779   0.153   5.018
 4662SOL    HW214886   2.733   0.235   5.152
 4663SOL     OW14887   1.242   6.714   0.106
 4663SOL    HW114888   1.172   6.705   0.176
 4663SOL    HW214889   1.265   6.811   0.094
 4664SOL     OW14890   6.828   0.331   0.965
 4664SOL    HW114891   6.887   0.404   1.002
 4664SOL    HW214892   6.823   0.257   1.031
 4665SOL     OW14893   2.122   0.887   6.439
 4665SOL    HW114894   2.057   0.818   6.472
 4665SOL    HW214895   2.147   0.867   6.344
 4666SOL     OW14896   1.922   2.399   6.934
 4666SOL    HW114897   1.977   2.320   6.907
 4666SOL    HW214898   1.935   2.417   0.007
 4667SOL     OW14899   6.371   4.044   2.159
 4667SOL    HW114900   6.348   4.071   2.066
 4667SOL    HW214901   6.417   4.119   2.206
 4668SOL     OW14902   4.054   1.911   5.086
 4668SOL    HW114903   4.041   1.813   5.071
 4668SOL    HW214904   4.006   1.962   5.016
 4669SOL     OW14905   4.931   0.121   0.032
 4669SOL    HW114906   4.833   0.141   0.029
 4669SOL    HW214907   4.952   0.072   0.117
 4670SOL     OW14908   1.311   3.240   0.211
 4670SOL    HW114909   1.265   3.269   0.295
 4670SOL    HW214910   1.358   3.153   0.226
 4671SOL     OW14911   0.507   3.468   0.068
 4671SOL    HW114912   0.490   3.493   6.996
 4671SOL    HW214913   0.585   3.406   0.072
 4672SOL     OW14914   4.608   4.626   6.180
 4672SOL    HW114915   4.580   4.587   6.092
 4672SOL    HW214916   4.704   4.653   6.175
 4673SOL     OW14917   5.334   0.249   0.059
 4673SOL    HW114918   5.393   0.174   0.031
 4673SOL    HW214919   5.389   0.329   0.081
 4674SOL     OW14920   6.383   1.235   0.682
 4674SOL    HW114921   6.463   1.176   0.687
 4674SOL    HW214922   6.301   1.179   0.666
 4675SOL     OW14923   4.032   0.390   6.557
 4675SOL    HW114924   3.964   0.350   6.619
 4675SOL    HW214925   4.123   0.353   6.578
 4676SOL     OW14926   0.804   6.653   4.355
 4676SOL    HW114927   0.883   6.633   4.412
 4676SOL    HW214928   0.720   6.644   4.408
 4677SOL     OW14929   2.840   0.542   6.855
 4677SOL    HW114930   2.793   0.631   6.855
 4677SOL    HW214931   2.772   0.469   6.849
 4678SOL     OW14932   1.857   5.209   2.119
 4678SOL    HW114933   1.881   5.273   2.192
 4678SOL    HW214934   1.760   5.218   2.098
 4679SOL     OW14935   2.942   1.611   5.835
 4679SOL    HW114936   2.998   1.623   5.917
 4679SOL    HW214937   2.846   1.599   5.861
 4680SOL     OW14938   2.395   5.638   1.314
 4680SOL    HW114939   2.334   5.636   1.235
 4680SOL    HW214940   2.351   5.593   1.392
 4681SOL     OW14941   6.488   6.254   4.186
 4681SOL    HW114942   6.433   6.193   4.243
 4681SOL    HW214943   6.558   6.298   4.242
 4682SOL     OW14944   4.191   5.585   6.947
 4682SOL    HW114945   4.222   5.497   6.911
 4682SOL    HW214946   4.106   5.612   6.901
 4683SOL     OW14947   5.916   4.391   2.635
 4683SOL    HW114948   5.871   4.335   2.705
 4683SOL    HW214949   5.944   4.333   2.559
 4684SOL     OW14950   0.976   2.187   4.518
 4684SOL    HW114951   0.903   2.139   4.470
 4684SOL    HW214952   0.940   2.229   4.601
 4685SOL     OW14953   6.536   5.424   4.735
 4685SOL    HW114954   6.608   5.403   4.802
 4685SOL    HW214955   6.475   5.494   4.774
 4686SOL     OW14956   5.110   5.523   0.333
 4686SOL    HW114957   5.194   5.474   0.358
 4686SOL    HW214958   5.031   5.477   0.374
 4687SOL     OW14959   6.360   4.233   4.961
 4687SOL    HW114960   6.329   4.213   4.868
 4687SOL    HW214961   6.340   4.328   4.984
 4688SOL     OW14962   0.905   3.351   6.938
 4688SOL    HW114963   0.857   3.388   6.858
 4688SOL    HW214964   0.999   3.328   6.913
 4689SOL     OW14965   6.243   0.537   5.784
 4689SOL    HW114966   6.220   0.440   5.774
 4689SOL    HW214967   6.341   0.546   5.800
 4690SOL     OW14968   1.277   1.136   7.008
 4690SOL    HW114969   1.198   1.089   0.024
 4690SOL    HW214970   1.267   1.141   6.909
 4691SOL     OW14971   2.575   3.918   0.986
 4691SOL    HW114972   2.497   3.865   0.951
 4691SOL    HW214973   2.542   4.006   1.020
 4692SOL     OW14974   0.095   5.112   2.702
 4692SOL    HW114975   0.006   5.118   2.746
 4692SOL    HW214976   0.147   5.037   2.743
 4693SOL     OW14977   0.397   1.425   5.091
 4693SOL    HW114978   0.302   1.423   5.123
 4693SOL    HW214979   0.435   1.516   5.104
 4694SOL     OW14980   3.051   0.495   0.279
 4694SOL    HW114981   3.136   0.507   0.331
 4694SOL    HW214982   3.069   0.439   0.198
 4695SOL     OW14983   3.682   3.303   1.681
 4695SOL    HW114984   3.659   3.309   1.778
 4695SOL    HW214985   3.779   3.326   1.668
 4696SOL     OW14986   1.298   4.355   5.770
 4696SOL    HW114987   1.296   4.268   5.721
 4696SOL    HW214988   1.206   4.394   5.773
 4697SOL     OW14989   1.567   3.496   0.930
 4697SOL    HW114990   1.484   3.445   0.910
 4697SOL    HW214991   1.637   3.476   0.862
 4698SOL     OW14992   4.873   4.766   2.241
 4698SOL    HW114993   4.833   4.687   2.288
 4698SOL    HW214994   4.817   4.847   2.259
 4699SOL     OW14995   0.181   6.667   2.510
 4699SOL    HW114996   0.144   6.592   2.456
 4699SOL    HW214997   0.164   6.651   2.607
 4700SOL     OW14998   5.496   1.775   1.734
 4700SOL    HW114999   5.405   1.760   1.773
 4700SOL    HW215000   5.491   1.841   1.659
 4701SOL     OW15001   0.977   1.364   0.086
 4701SOL    HW115002   1.010   1.389   7.019
 4701SOL    HW215003   1.025   1.283   0.118
 4702SOL     OW15004   4.595   4.038   6.431
 4702SOL    HW115005   4.652   4.088   6.496
 4702SOL    HW215006   4.523   4.098   6.395
 4703SOL     OW15007   0.715   1.938   2.864
 4703SOL    HW115008   0.631   1.992   2.858
 4703SOL    HW215009   0.780   1.968   2.794
 4704SOL     OW15010   0.262   5.894   0.847
 4704SOL    HW115011   0.344   5.839   0.833
 4704SOL    HW215012   0.202   5.886   0.767
 4705SOL     OW15013   3.362   2.974   3.509
 4705SOL    HW115014   3.284   2.978   3.447
 4705SOL    HW215015   3.332   2.951   3.601
 4706SOL     OW15016   3.686   5.719   6.701
 4706SOL    HW115017   3.708   5.788   6.632
 4706SOL    HW215018   3.770   5.686   6.744
 4707SOL     OW15019   2.242   5.570   1.049
 4707SOL    HW115020   2.186   5.498   1.090
 4707SOL    HW215021   2.185   5.651   1.032
 4708SOL     OW15022   2.845   2.890   0.600
 4708SOL    HW115023   2.933   2.871   0.645
 4708SOL    HW215024   2.854   2.972   0.543
 4709SOL     OW15025   4.035   5.242   4.857
 4709SOL    HW115026   4.112   5.301   4.882
 4709SOL    HW215027   3.988   5.212   4.940
 4710SOL     OW15028   4.689   1.414   6.317
 4710SOL    HW115029   4.641   1.452   6.395
 4710SOL    HW215030   4.712   1.318   6.334
 4711SOL     OW15031   3.785   0.396   2.306
 4711SOL    HW115032   3.770   0.495   2.310
 4711SOL    HW215033   3.702   0.352   2.271
 4712SOL     OW15034   2.476   4.611   1.425
 4712SOL    HW115035   2.559   4.566   1.393
 4712SOL    HW215036   2.466   4.597   1.523
 4713SOL     OW15037   3.419   4.483   1.350
 4713SOL    HW115038   3.326   4.444   1.346
 4713SOL    HW215039   3.413   4.582   1.365
 4714SOL     OW15040   1.835   1.642   0.598
 4714SOL    HW115041   1.743   1.613   0.574
 4714SOL    HW215042   1.893   1.641   0.516
 4715SOL     OW15043   6.684   3.489   2.469
 4715SOL    HW115044   6.612   3.559   2.471
 4715SOL    HW215045   6.705   3.466   2.374
 4716SOL     OW15046   3.905   4.542   6.319
 4716SOL    HW115047   3.920   4.490   6.403
 4716SOL    HW215048   3.816   4.588   6.323
 4717SOL     OW15049   1.060   5.844   2.093
 4717SOL    HW115050   1.038   5.762   2.145
 4717SOL    HW215051   1.139   5.890   2.135
 4718SOL     OW15052   5.166   1.952   6.410
 4718SOL    HW115053   5.177   1.880   6.341
 4718SOL    HW215054   5.244   2.015   6.405
 4719SOL     OW15055   4.997   3.658   3.095
 4719SOL    HW115056   4.987   3.715   3.176
 4719SOL    HW215057   5.093   3.634   3.082
 4720SOL     OW15058   2.181   6.714   5.599
 4720SOL    HW115059   2.103   6.766   5.637
 4720SOL    HW215060   2.237   6.775   5.543
 4721SOL     OW15061   0.670   2.351   1.831
 4721SOL    HW115062   0.597   2.303   1.783
 4721SOL    HW215063   0.657   2.450   1.822
 4722SOL     OW15064   1.674   5.920   0.002
 4722SOL    HW115065   1.755   5.866   7.002
 4722SOL    HW215066   1.696   5.980   0.079
 4723SOL     OW15067   2.283   5.849   6.065
 4723SOL    HW115068   2.286   5.870   5.967
 4723SOL    HW215069   2.356   5.785   6.088
 4724SOL     OW15070   4.187   6.367   2.814
 4724SOL    HW115071   4.269   6.327   2.773
 4724SOL    HW215072   4.134   6.415   2.743
 4725SOL     OW15073   5.193   6.247   3.065
 4725SOL    HW115074   5.202   6.253   3.165
 4725SOL    HW215075   5.111   6.296   3.036
 4726SOL     OW15076   0.961   3.679   6.804
 4726SOL    HW115077   0.989   3.669   6.900
 4726SOL    HW215078   0.903   3.602   6.779
 4727SOL     OW15079   6.958   5.789   0.137
 4727SOL    HW115080   6.982   5.858   0.068
 4727SOL    HW215081   0.008   5.722   0.145
 4728SOL     OW15082   5.443   1.417   0.776
 4728SOL    HW115083   5.354   1.435   0.733
 4728SOL    HW215084   5.487   1.504   0.798
 4729SOL     OW15085   1.642   1.062   2.867
 4729SOL    HW115086   1.709   1.121   2.911
 4729SOL    HW215087   1.550   1.091   2.893
 4730SOL     OW15088   2.367   5.914   5.454
 4730SOL    HW115089   2.409   6.001   5.430
 4730SOL    HW215090   2.437   5.843   5.462
 4731SOL     OW15091   5.946   0.560   5.238
 4731SOL    HW115092   6.040   0.577   5.209
 4731SOL    HW215093   5.946   0.522   5.331
 4732SOL     OW15094   6.848   3.453   6.492
 4732SOL    HW115095   6.921   3.422   6.431
 4732SOL    HW215096   6.851   3.400   6.576
 4733SOL     OW15097   0.594   3.593   3.184
 4733SOL    HW115098   0.588   3.512   3.126
 4733SOL    HW215099   0.660   3.657   3.145
 4734SOL     OW15100   5.848   2.890   6.710
 4734SOL    HW115101   5.880   2.933   6.795
 4734SOL    HW215102   5.911   2.817   6.684
 4735SOL     OW15103   1.429   4.544   3.552
 4735SOL    HW115104   1.486   4.591   3.485
 4735SOL    HW215105   1.345   4.595   3.567
 4736SOL     OW15106   0.117   1.034   6.466
 4736SOL    HW115107   0.140   0.998   6.556
 4736SOL    HW215108   0.199   1.041   6.410
 4737SOL     OW15109   2.189   4.972   2.221
 4737SOL    HW115110   2.168   4.959   2.318
 4737SOL    HW215111   2.104   4.991   2.171
 4738SOL     OW15112   6.896   5.833   1.586
 4738SOL    HW115113   6.980   5.820   1.532
 4738SOL    HW215114   6.857   5.744   1.609
 4739SOL     OW15115   4.543   0.264   2.154
 4739SOL    HW115116   4.567   0.282   2.249
 4739SOL    HW215117   4.507   0.347   2.112
 4740SOL     OW15118   0.227   1.454   2.477
 4740SOL    HW115119   0.265   1.383   2.418
 4740SOL    HW215120   0.141   1.487   2.438
 4741SOL     OW15121   3.904   2.373   1.423
 4741SOL    HW115122   3.848   2.320   1.486
 4741SOL    HW215123   3.975   2.422   1.473
 4742SOL     OW15124   2.293   6.711   6.959
 4742SOL    HW115125   2.231   6.698   0.012
 4742SOL    HW215126   2.380   6.665   6.978
 4743SOL     OW15127   1.833   3.861   2.362
 4743SOL    HW115128   1.930   3.884   2.373
 4743SOL    HW215129   1.823   3.761   2.361
 4744SOL     OW15130   2.261   5.874   0.805
 4744SOL    HW115131   2.313   5.799   0.762
 4744SOL    HW215132   2.163   5.855   0.796
 4745SOL     OW15133   2.817   3.323   0.153
 4745SOL    HW115134   2.844   3.349   0.060
 4745SOL    HW215135   2.861   3.384   0.219
 4746SOL     OW15136   4.563   5.331   4.176
 4746SOL    HW115137   4.475   5.283   4.179
 4746SOL    HW215138   4.559   5.402   4.106
 4747SOL     OW15139   1.303   2.698   0.807
 4747SOL    HW115140   1.393   2.658   0.786
 4747SOL    HW215141   1.294   2.786   0.762
 4748SOL     OW15142   1.747   6.536   1.958
 4748SOL    HW115143   1.760   6.590   1.876
 4748SOL    HW215144   1.784   6.444   1.944
 4749SOL     OW15145   2.344   6.854   0.321
 4749SOL    HW115146   2.421   6.889   0.266
 4749SOL    HW215147   2.269   6.829   0.260
 4750SOL     OW15148   6.119   4.171   5.357
 4750SOL    HW115149   6.207   4.126   5.341
 4750SOL    HW215150   6.128   4.270   5.341
 4751SOL     OW15151   4.846   1.940   2.283
 4751SOL    HW115152   4.864   1.970   2.377
 4751SOL    HW215153   4.758   1.976   2.253
 4752SOL     OW15154   4.556   1.216   0.251
 4752SOL    HW115155   4.582   1.307   0.218
 4752SOL    HW215156   4.637   1.157   0.253
 4753SOL     OW15157   1.463   6.568   4.911
 4753SOL    HW115158   1.525   6.500   4.949
 4753SOL    HW215159   1.471   6.568   4.811
 4754SOL     OW15160   4.376   3.996   5.914
 4754SOL    HW115161   4.423   4.083   5.928
 4754SOL    HW215162   4.390   3.937   5.993
 4755SOL     OW15163   1.611   0.515   1.299
 4755SOL    HW115164   1.690   0.464   1.266
 4755SOL    HW215165   1.528   0.460   1.287
 4756SOL     OW15166   6.663   4.479   0.016
 4756SOL    HW115167   6.679   4.405   6.975
 4756SOL    HW215168   6.708   4.562   7.008
 4757SOL     OW15169   1.312   2.710   1.599
 4757SOL    HW115170   1.280   2.623   1.637
 4757SOL    HW215171   1.249   2.740   1.528
 4758SOL     OW15172   1.521   0.343   3.375
 4758SOL    HW115173   1.604   0.291   3.355
 4758SOL    HW215174   1.515   0.360   3.473
 4759SOL     OW15175   1.016   5.268   0.127
 4759SOL    HW115176   1.024   5.280   0.226
 4759SOL    HW215177   1.073   5.191   0.098
 4760SOL     OW15178   1.147   6.986   0.941
 4760SOL    HW115179   1.226   0.022   0.954
 4760SOL    HW215180   1.178   6.900   0.900
 4761SOL     OW15181   0.276   6.756   0.632
 4761SOL    HW115182   0.201   6.803   0.585
 4761SOL    HW215183   0.336   6.823   0.675
 4762SOL     OW15184   1.666   5.597   2.033
 4762SOL    HW115185   1.644   5.571   1.939
 4762SOL    HW215186   1.684   5.695   2.036
 4763SOL     OW15187   4.816   6.191   2.036
 4763SOL    HW115188   4.843   6.113   2.093
 4763SOL    HW215189   4.897   6.243   2.009
 4764SOL     OW15190   4.863   3.665   5.343
 4764SOL    HW115191   4.816   3.726   5.407
 4764SOL    HW215192   4.796   3.611   5.293
 4765SOL     OW15193   3.115   0.835   5.399
 4765SOL    HW115194   3.144   0.741   5.379
 4765SOL    HW215195   3.016   0.838   5.408
 4766SOL     OW15196   5.813   6.772   4.563
 4766SOL    HW115197   5.855   6.857   4.533
 4766SOL    HW215198   5.717   6.771   4.537
 4767SOL     OW15199   2.565   5.517   4.980
 4767SOL    HW115200   2.600   5.591   5.038
 4767SOL    HW215201   2.531   5.443   5.038
 4768SOL     OW15202   4.582   2.702   6.512
 4768SOL    HW115203   4.662   2.647   6.487
 4768SOL    HW215204   4.580   2.784   6.456
 4769SOL     OW15205   3.081   6.073   1.010
 4769SOL    HW115206   3.087   6.037   0.917
 4769SOL    HW215207   3.073   6.173   1.006
 4770SOL     OW15208   6.798   2.058   5.775
 4770SOL    HW115209   6.896   2.045   5.789
 4770SOL    HW215210   6.749   2.025   5.856
 4771SOL     OW15211   2.321   0.050   5.088
 4771SOL    HW115212   2.330   6.975   5.073
 4771SOL    HW215213   2.231   0.070   5.126
 4772SOL     OW15214   2.959   5.053   0.804
 4772SOL    HW115215   2.902   5.073   0.724
 4772SOL    HW215216   2.943   4.958   0.833
 4773SOL     OW15217   2.373   6.038   4.726
 4773SOL    HW115218   2.326   5.978   4.791
 4773SOL    HW215219   2.305   6.093   4.677
 4774SOL     OW15220   2.258   4.183   0.715
 4774SOL    HW115221   2.354   4.210   0.729
 4774SOL    HW215222   2.254   4.111   0.646
 4775SOL     OW15223   5.325   6.358   4.483
 4775SOL    HW115224   5.353   6.310   4.400
 4775SOL    HW215225   5.246   6.416   4.462
 4776SOL     OW15226   1.542   0.388   5.322
 4776SOL    HW115227   1.469   0.355   5.381
 4776SOL    HW215228   1.589   0.310   5.280
 4777SOL     OW15229   1.257   5.272   0.838
 4777SOL    HW115230   1.174   5.263   0.782
 4777SOL    HW215231   1.262   5.195   0.903
 4778SOL     OW15232   0.787   2.433   5.033
 4778SOL    HW115233   0.838   2.439   5.119
 4778SOL    HW215234   0.803   2.516   4.980
 4779SOL     OW15235   5.953   0.516   4.258
 4779SOL    HW115236   5.983   0.556   4.171
 4779SOL    HW215237   6.012   0.439   4.282
 4780SOL     OW15238   5.630   2.536   5.616
 4780SOL    HW115239   5.540   2.552   5.576
 4780SOL    HW215240   5.619   2.492   5.705
 4781SOL     OW15241   2.449   5.865   2.488
 4781SOL    HW115242   2.468   5.955   2.449
 4781SOL    HW215243   2.406   5.807   2.419
 4782SOL     OW15244   5.467   5.388   5.886
 4782SOL    HW115245   5.395   5.345   5.832
 4782SOL    HW215246   5.529   5.438   5.825
 4783SOL     OW15247   5.695   4.211   0.438
 4783SOL    HW115248   5.653   4.128   0.403
 4783SOL    HW215249   5.664   4.290   0.384
 4784SOL     OW15250   6.019   2.278   6.387
 4784SOL    HW115251   5.919   2.276   6.387
 4784SOL    HW215252   6.052   2.258   6.295
 4785SOL     OW15253   0.279   6.277   3.121
 4785SOL    HW115254   0.334   6.194   3.113
 4785SOL    HW215255   0.336   6.353   3.150
 4786SOL     OW15256   2.705   7.011   0.822
 4786SOL    HW115257   2.626   0.047   0.812
 4786SOL    HW215258   2.715   6.985   0.918
 4787SOL     OW15259   4.498   2.068   4.236
 4787SOL    HW115260   4.410   2.021   4.228
 4787SOL    HW215261   4.527   2.099   4.146
 4788SOL     OW15262   6.028   5.905   6.982
 4788SOL    HW115263   6.103   5.854   6.941
 4788SOL    HW215264   5.958   5.841   7.014
 4789SOL     OW15265   4.652   2.076   2.134
 4789SOL    HW115266   4.565   2.126   2.129
 4789SOL    HW215267   4.707   2.098   2.053
 4790SOL     OW15268   5.521   1.713   5.389
 4790SOL    HW115269   5.615   1.738   5.411
 4790SOL    HW215270   5.500   1.623   5.426
 4791SOL     OW15271   0.366   2.999   0.921
 4791SOL    HW115272   0.377   3.095   0.947
 4791SOL    HW215273   0.450   2.949   0.940
 4792SOL     OW15274   1.494   4.610   4.775
 4792SOL    HW115275   1.478   4.652   4.863
 4792SOL    HW215276   1.508   4.511   4.787
 4793SOL     OW15277   1.181   4.329   6.109
 4793SOL    HW115278   1.130   4.268   6.049
 4793SOL    HW215279   1.265   4.283   6.139
 4794SOL     OW15280   4.986   0.147   3.777
 4794SOL    HW115281   5.039   0.231   3.761
 4794SOL    HW215282   4.962   0.106   3.689
 4795SOL     OW15283   0.358   1.860   4.164
 4795SOL    HW115284   0.424   1.933   4.179
 4795SOL    HW215285   0.377   1.815   4.077
 4796SOL     OW15286   3.815   1.294   6.004
 4796SOL    HW115287   3.717   1.274   5.998
 4796SOL    HW215288   3.864   1.238   5.938
 4797SOL     OW15289   0.335   5.460   4.597
 4797SOL    HW115290   0.347   5.464   4.498
 4797SOL    HW215291   0.273   5.533   4.627
 4798SOL     OW15292   5.184   5.277   6.643
 4798SOL    HW115293   5.162   5.236   6.555
 4798SOL    HW215294   5.192   5.205   6.712
 4799SOL     OW15295   3.259   2.337   6.128
 4799SOL    HW115296   3.187   2.305   6.190
 4799SOL    HW215297   3.331   2.268   6.123
 4800SOL     OW15298   2.491   4.766   0.677
 4800SOL    HW115299   2.555   4.710   0.729
 4800SOL    HW215300   2.460   4.842   0.734
 4801SOL     OW15301   4.809   2.511   1.250
 4801SOL    HW115302   4.843   2.538   1.160
 4801SOL    HW215303   4.721   2.557   1.267
 4802SOL     OW15304   0.100   6.089   1.900
 4802SOL    HW115305   0.070   5.999   1.930
 4802SOL    HW215306   0.110   6.089   1.801
 4803SOL     OW15307   5.600   4.789   0.221
 4803SOL    HW115308   5.626   4.735   0.302
 4803SOL    HW215309   5.668   4.777   0.150
 4804SOL     OW15310   5.212   1.644   0.503
 4804SOL    HW115311   5.211   1.560   0.558
 4804SOL    HW215312   5.172   1.626   0.414
 4805SOL     OW15313   6.662   1.764   1.791
 4805SOL    HW115314   6.715   1.683   1.817
 4805SOL    HW215315   6.714   1.846   1.813
 4806SOL     OW15316   1.517   3.628   2.712
 4806SOL    HW115317   1.441   3.651   2.650
 4806SOL    HW215318   1.587   3.699   2.705
 4807SOL     OW15319   1.133   3.387   6.776
 4807SOL    HW115320   1.205   3.351   6.836
 4807SOL    HW215321   1.173   3.457   6.716
 4808SOL     OW15322   3.825   6.068   1.082
 4808SOL    HW115323   3.904   6.069   1.143
 4808SOL    HW215324   3.854   6.041   0.990
 4809SOL     OW15325   3.648   4.770   1.564
 4809SOL    HW115326   3.594   4.701   1.612
 4809SOL    HW215327   3.616   4.778   1.470
 4810SOL     OW15328   0.799   3.921   4.202
 4810SOL    HW115329   0.818   4.019   4.193
 4810SOL    HW215330   0.769   3.901   4.295
 4811SOL     OW15331   3.287   3.726   4.511
 4811SOL    HW115332   3.354   3.651   4.515
 4811SOL    HW215333   3.332   3.808   4.476
 4812SOL     OW15334   0.580   6.594   1.683
 4812SOL    HW115335   0.593   6.495   1.690
 4812SOL    HW215336   0.623   6.639   1.761
 4813SOL     OW15337   6.002   1.636   0.021
 4813SOL    HW115338   6.026   1.618   0.116
 4813SOL    HW215339   5.985   1.550   6.998
 4814SOL     OW15340   6.754   4.265   1.964
 4814SOL    HW115341   6.702   4.345   1.933
 4814SOL    HW215342   6.771   4.273   2.062
 4815SOL     OW15343   5.681   5.222   3.056
 4815SOL    HW115344   5.652   5.150   2.993
 4815SOL    HW215345   5.697   5.306   3.005
 4816SOL     OW15346   1.914   6.571   1.367
 4816SOL    HW115347   1.824   6.543   1.400
 4816SOL    HW215348   1.911   6.667   1.340
 4817SOL     OW15349   3.515   0.823   1.704
 4817SOL    HW115350   3.425   0.824   1.748
 4817SOL    HW215351   3.553   0.731   1.707
 4818SOL     OW15352   2.703   0.486   4.340
 4818SOL    HW115353   2.641   0.559   4.369
 4818SOL    HW215354   2.663   0.438   4.261
 4819SOL     OW15355   2.747   2.031   0.945
 4819SOL    HW115356   2.846   2.020   0.956
 4819SOL    HW215357   2.703   2.035   1.034
 4820SOL     OW15358   0.129   3.311   1.755
 4820SOL    HW115359   0.202   3.378   1.771
 4820SOL    HW215360   0.086   3.329   1.667
 4821SOL     OW15361   6.209   5.766   1.749
 4821SOL    HW115362   6.268   5.800   1.676
 4821SOL    HW215363   6.249   5.684   1.789
 4822SOL     OW15364   1.653   3.919   3.746
 4822SOL    HW115365   1.709   3.845   3.709
 4822SOL    HW215366   1.565   3.923   3.698
 4823SOL     OW15367   1.046   0.029   3.943
 4823SOL    HW115368   0.976   0.085   3.988
 4823SOL    HW215369   1.087   6.991   4.010
 4824SOL     OW15370   5.208   1.943   3.280
 4824SOL    HW115371   5.207   1.929   3.181
 4824SOL    HW215372   5.130   1.999   3.307
 4825SOL     OW15373   1.352   3.083   4.469
 4825SOL    HW115374   1.311   3.122   4.386
 4825SOL    HW215375   1.439   3.040   4.447
 4826SOL     OW15376   0.465   6.404   0.259
 4826SOL    HW115377   0.503   6.338   0.194
 4826SOL    HW215378   0.468   6.365   0.351
 4827SOL     OW15379   4.621   0.886   1.610
 4827SOL    HW115380   4.617   0.812   1.677
 4827SOL    HW215381   4.654   0.852   1.523
 4828SOL     OW15382   5.613   3.824   1.774
 4828SOL    HW115383   5.573   3.856   1.860
 4828SOL    HW215384   5.696   3.875   1.755
 4829SOL     OW15385   3.593   0.241   5.991
 4829SOL    HW115386   3.616   0.151   5.953
 4829SOL    HW215387   3.496   0.242   6.017
 4830SOL     OW15388   4.687   5.961   3.480
 4830SOL    HW115389   4.743   6.042   3.492
 4830SOL    HW215390   4.596   5.977   3.518
 4831SOL     OW15391   6.752   5.029   4.933
 4831SOL    HW115392   6.706   4.981   5.008
 4831SOL    HW215393   6.835   4.980   4.907
 4832SOL     OW15394   3.519   2.490   6.156
 4832SOL    HW115395   3.572   2.413   6.122
 4832SOL    HW215396   3.421   2.466   6.154
 4833SOL     OW15397   4.629   1.512   2.945
 4833SOL    HW115398   4.627   1.586   2.878
 4833SOL    HW215399   4.712   1.520   3.001
 4834SOL     OW15400   4.077   0.520   0.701
 4834SOL    HW115401   4.176   0.537   0.696
 4834SOL    HW215402   4.049   0.466   0.621
 4835SOL     OW15403   1.882   0.202   6.394
 4835SOL    HW115404   1.930   0.286   6.370
 4835SOL    HW215405   1.832   0.216   6.480
 4836SOL     OW15406   4.328   1.790   3.867
 4836SOL    HW115407   4.404   1.852   3.847
 4836SOL    HW215408   4.279   1.823   3.948
 4837SOL     OW15409   3.261   2.613   1.551
 4837SOL    HW115410   3.314   2.628   1.635
 4837SOL    HW215411   3.227   2.519   1.550
 4838SOL     OW15412   3.623   4.910   2.243
 4838SOL    HW115413   3.537   4.952   2.214
 4838SOL    HW215414   3.662   4.857   2.168
 4839SOL     OW15415   0.268   4.756   5.180
 4839SOL    HW115416   0.313   4.758   5.269
 4839SOL    HW215417   0.171   4.775   5.191
 4840SOL     OW15418   5.986   6.547   6.787
 4840SOL    HW115419   5.977   6.590   6.877
 4840SOL    HW215420   6.033   6.610   6.725
 4841SOL     OW15421   3.524   5.595   1.487
 4841SOL    HW115422   3.589   5.566   1.417
 4841SOL    HW215423   3.432   5.601   1.447
 4842SOL     OW15424   3.673   5.253   1.962
 4842SOL    HW115425   3.596   5.195   1.936
 4842SOL    HW215426   3.676   5.334   1.904
 4843SOL     OW15427   6.460   3.964   0.212
 4843SOL    HW115428   6.405   3.895   0.259
 4843SOL    HW215429   6.484   4.037   0.276
 4844SOL     OW15430   6.919   4.104   6.987
 4844SOL    HW115431   7.000   4.122   0.019
 4844SOL    HW215432   6.844   4.076   0.022
 4845SOL     OW15433   6.453   5.322   4.330
 4845SOL    HW115434   6.379   5.294   4.391
 4845SOL    HW215435   6.458   5.260   4.252
 4846SOL     OW15436   0.306   3.878   0.665
 4846SOL    HW115437   0.367   3.799   0.658
 4846SOL    HW215438   0.248   3.868   0.746
 4847SOL     OW15439   3.589   2.037   5.750
 4847SOL    HW115440   3.630   2.097   5.819
 4847SOL    HW215441   3.539   2.092   5.683
 4848SOL     OW15442   1.666   1.570   4.064
 4848SOL    HW115443   1.641   1.552   4.159
 4848SOL    HW215444   1.758   1.535   4.046
 4849SOL     OW15445   1.698   6.411   6.777
 4849SOL    HW115446   1.670   6.445   6.687
 4849SOL    HW215447   1.622   6.420   6.841
 4850SOL     OW15448   3.055   0.782   2.007
 4850SOL    HW115449   3.154   0.774   1.996
 4850SOL    HW215450   3.011   0.697   1.979
 4851SOL     OW15451   3.847   6.495   5.369
 4851SOL    HW115452   3.790   6.461   5.444
 4851SOL    HW215453   3.789   6.537   5.299
 4852SOL     OW15454   1.607   0.274   0.062
 4852SOL    HW115455   1.591   0.334   0.140
 4852SOL    HW215456   1.673   0.317   0.000
 4853SOL     OW15457   3.701   1.451   2.453
 4853SOL    HW115458   3.609   1.430   2.419
 4853SOL    HW215459   3.732   1.377   2.512
 4854SOL     OW15460   4.789   6.074   2.619
 4854SOL    HW115461   4.802   6.159   2.568
 4854SOL    HW215462   4.696   6.040   2.603
 4855SOL     OW15463   5.638   2.192   1.931
 4855SOL    HW115464   5.649   2.107   1.879
 4855SOL    HW215465   5.547   2.195   1.971
 4856SOL     OW15466   2.298   4.928   2.865
 4856SOL    HW115467   2.254   5.014   2.889
 4856SOL    HW215468   2.311   4.924   2.766
 4857SOL     OW15469   1.400   1.664   6.059
 4857SOL    HW115470   1.324   1.660   6.124
 4857SOL    HW215471   1.483   1.692   6.107
 4858SOL     OW15472   1.701   1.316   3.793
 4858SOL    HW115473   1.724   1.218   3.792
 4858SOL    HW215474   1.623   1.331   3.853
 4859SOL     OW15475   1.436   5.989   4.343
 4859SOL    HW115476   1.347   6.008   4.303
 4859SOL    HW215477   1.425   5.956   4.437
 4860SOL     OW15478   4.035   5.463   1.972
 4860SOL    HW115479   4.015   5.373   2.011
 4860SOL    HW215480   3.990   5.533   2.027
 4861SOL     OW15481   5.308   5.326   0.311
 4861SOL    HW115482   5.296   5.334   0.212
 4861SOL    HW215483   5.299   5.230   0.337
 4862SOL     OW15484   2.323   5.094   4.400
 4862SOL    HW115485   2.364   5.003   4.411
 4862SOL    HW215486   2.370   5.159   4.460
 4863SOL     OW15487   5.764   4.849   0.578
 4863SOL    HW115488   5.742   4.906   0.656
 4863SOL    HW215489   5.859   4.865   0.551
 4864SOL     OW15490   3.497   1.143   3.971
 4864SOL    HW115491   3.547   1.202   4.034
 4864SOL    HW215492   3.421   1.195   3.931
 4865SOL     OW15493   2.063   0.476   5.024
 4865SOL    HW115494   2.059   0.419   5.106
 4865SOL    HW215495   1.982   0.535   5.021
 4866SOL     OW15496   6.631   3.885   1.335
 4866SOL    HW115497   6.573   3.966   1.337
 4866SOL    HW215498   6.697   3.889   1.410
 4867SOL     OW15499   4.700   5.559   2.452
 4867SOL    HW115500   4.608   5.584   2.419
 4867SOL    HW215501   4.767   5.623   2.414
 4868SOL     OW15502   6.570   4.763   2.395
 4868SOL    HW115503   6.485   4.725   2.432
 4868SOL    HW215504   6.645   4.699   2.411
 4869SOL     OW15505   1.244   1.744   0.725
 4869SOL    HW115506   1.151   1.771   0.704
 4869SOL    HW215507   1.259   1.748   0.824
 4870SOL     OW15508   0.676   6.304   1.719
 4870SOL    HW115509   0.698   6.207   1.710
 4870SOL    HW215510   0.690   6.333   1.814
 4871SOL     OW15511   0.991   0.473   4.409
 4871SOL    HW115512   1.058   0.458   4.336
 4871SOL    HW215513   1.027   0.437   4.495
 4872SOL     OW15514   6.587   6.701   2.956
 4872SOL    HW115515   6.650   6.636   2.999
 4872SOL    HW215516   6.540   6.755   3.026
 4873SOL     OW15517   6.931   5.813   4.541
 4873SOL    HW115518   7.009   5.750   4.541
 4873SOL    HW215519   6.861   5.779   4.604
 4874SOL     OW15520   5.162   2.962   2.566
 4874SOL    HW115521   5.154   3.059   2.541
 4874SOL    HW215522   5.132   2.906   2.489
 4875SOL     OW15523   5.299   0.336   6.766
 4875SOL    HW115524   5.224   0.365   6.825
 4875SOL    HW215525   5.261   0.301   6.680
 4876SOL     OW15526   6.966   1.372   3.812
 4876SOL    HW115527   6.973   1.337   3.719
 4876SOL    HW215528   6.989   1.469   3.814
 4877SOL     OW15529   0.438   2.307   5.393
 4877SOL    HW115530   0.475   2.399   5.384
 4877SOL    HW215531   0.347   2.311   5.434
 4878SOL     OW15532   6.529   1.950   2.348
 4878SOL    HW115533   6.434   1.936   2.322
 4878SOL    HW215534   6.558   2.042   2.319
 4879SOL     OW15535   4.490   2.274   2.065
 4879SOL    HW115536   4.436   2.298   2.146
 4879SOL    HW215537   4.431   2.229   1.997
 4880SOL     OW15538   6.243   3.679   7.010
 4880SOL    HW115539   6.189   3.597   6.992
 4880SOL    HW215540   6.267   3.683   0.083
 4881SOL     OW15541   1.854   1.935   0.562
 4881SOL    HW115542   1.834   1.837   0.559
 4881SOL    HW215543   1.890   1.964   0.473
 4882SOL     OW15544   3.956   2.086   5.349
 4882SOL    HW115545   3.990   2.081   5.443
 4882SOL    HW215546   3.989   2.007   5.297
 4883SOL     OW15547   5.219   3.895   1.410
 4883SOL    HW115548   5.205   3.993   1.402
 4883SOL    HW215549   5.314   3.876   1.436
 4884SOL     OW15550   3.745   5.142   0.497
 4884SOL    HW115551   3.670   5.187   0.448
 4884SOL    HW215552   3.777   5.201   0.571
 4885SOL     OW15553   2.359   4.336   1.969
 4885SOL    HW115554   2.362   4.407   2.040
 4885SOL    HW215555   2.314   4.372   1.888
 4886SOL     OW15556   3.113   0.145   1.345
 4886SOL    HW115557   3.092   0.056   1.383
 4886SOL    HW215558   3.028   0.192   1.320
 4887SOL     OW15559   0.960   6.265   1.827
 4887SOL    HW115560   0.920   6.191   1.774
 4887SOL    HW215561   0.937   6.353   1.784
 4888SOL     OW15562   2.426   0.224   2.767
 4888SOL    HW115563   2.376   0.261   2.846
 4888SOL    HW215564   2.501   0.285   2.743
 4889SOL     OW15565   6.740   1.834   5.167
 4889SOL    HW115566   6.785   1.915   5.204
 4889SOL    HW215567   6.647   1.828   5.205
 4890SOL     OW15568   0.966   2.202   5.741
 4890SOL    HW115569   1.053   2.180   5.786
 4890SOL    HW215570   0.939   2.126   5.683
 4891SOL     OW15571   2.771   4.904   6.717
 4891SOL    HW115572   2.831   4.956   6.656
 4891SOL    HW215573   2.693   4.960   6.743
 4892SOL     OW15574   5.405   5.779   1.999
 4892SOL    HW115575   5.473   5.849   2.020
 4892SOL    HW215576   5.348   5.810   1.923
 4893SOL     OW15577   6.749   3.388   2.207
 4893SOL    HW115578   6.669   3.363   2.153
 4893SOL    HW215579   6.831   3.350   2.163
 4894SOL     OW15580   3.627   7.019   2.518
 4894SOL    HW115581   3.598   6.967   2.598
 4894SOL    HW215582   3.678   0.076   2.548
 4895SOL     OW15583   0.940   5.083   3.346
 4895SOL    HW115584   0.973   5.091   3.440
 4895SOL    HW215585   1.013   5.110   3.283
 4896SOL     OW15586   2.627   4.834   2.565
 4896SOL    HW115587   2.661   4.782   2.487
 4896SOL    HW215588   2.701   4.887   2.604
 4897SOL     OW15589   1.977   5.883   5.651
 4897SOL    HW115590   1.883   5.851   5.639
 4897SOL    HW215591   1.978   5.961   5.714
 4898SOL     OW15592   4.356   1.014   5.186
 4898SOL    HW115593   4.428   1.048   5.126
 4898SOL    HW215594   4.276   1.074   5.181
 4899SOL     OW15595   6.364   5.121   3.006
 4899SOL    HW115596   6.440   5.066   3.040
 4899SOL    HW215597   6.384   5.218   3.020
 4900SOL     OW15598   4.216   6.165   5.833
 4900SOL    HW115599   4.221   6.191   5.737
 4900SOL    HW215600   4.208   6.246   5.890
 4901SOL     OW15601   1.925   1.594   5.152
 4901SOL    HW115602   1.981   1.521   5.111
 4901SOL    HW215603   1.831   1.584   5.121
 4902SOL     OW15604   1.410   1.013   5.829
 4902SOL    HW115605   1.324   1.060   5.808
 4902SOL    HW215606   1.390   0.920   5.861
 4903SOL     OW15607   4.369   5.834   1.119
 4903SOL    HW115608   4.431   5.771   1.074
 4903SOL    HW215609   4.372   5.923   1.072
 4904SOL     OW15610   1.796   1.160   5.660
 4904SOL    HW115611   1.792   1.067   5.696
 4904SOL    HW215612   1.739   1.220   5.716
 4905SOL     OW15613   2.200   0.731   3.515
 4905SOL    HW115614   2.252   0.647   3.531
 4905SOL    HW215615   2.199   0.752   3.418
 4906SOL     OW15616   4.869   3.321   5.554
 4906SOL    HW115617   4.894   3.310   5.650
 4906SOL    HW215618   4.801   3.252   5.529
 4907SOL     OW15619   4.956   1.369   1.056
 4907SOL    HW115620   4.913   1.458   1.070
 4907SOL    HW215621   5.047   1.370   1.095
 4908SOL     OW15622   4.893   0.018   0.312
 4908SOL    HW115623   4.844   6.970   0.263
 4908SOL    HW215624   4.949   7.001   0.384
 4909SOL     OW15625   7.012   4.546   3.821
 4909SOL    HW115626   6.933   4.597   3.786
 4909SOL    HW215627   0.035   4.502   3.745
 4910SOL     OW15628   5.851   0.793   3.975
 4910SOL    HW115629   5.937   0.743   3.976
 4910SOL    HW215630   5.861   0.875   3.919
 4911SOL     OW15631   1.889   3.398   3.633
 4911SOL    HW115632   1.883   3.379   3.535
 4911SOL    HW215633   1.985   3.413   3.658
 4912SOL     OW15634   5.418   1.816   5.651
 4912SOL    HW115635   5.435   1.830   5.554
 4912SOL    HW215636   5.322   1.839   5.672
 4913SOL     OW15637   5.509   3.490   5.478
 4913SOL    HW115638   5.422   3.489   5.527
 4913SOL    HW215639   5.493   3.478   5.380
 4914SOL     OW15640   4.321   0.201   5.538
 4914SOL    HW115641   4.412   0.243   5.532
 4914SOL    HW215642   4.305   0.146   5.456
 4915SOL     OW15643   2.742   6.542   5.360
 4915SOL    HW115644   2.658   6.597   5.362
 4915SOL    HW215645   2.776   6.531   5.454
 4916SOL     OW15646   0.077   0.744   4.099
 4916SOL    HW115647   0.021   0.713   4.022
 4916SOL    HW215648   0.065   0.842   4.112
 4917SOL     OW15649   3.901   6.021   0.801
 4917SOL    HW115650   3.952   5.935   0.805
 4917SOL    HW215651   3.825   6.012   0.737
 4918SOL     OW15652   6.228   6.072   2.399
 4918SOL    HW115653   6.183   6.136   2.336
 4918SOL    HW215654   6.183   5.983   2.395
 4919SOL     OW15655   3.798   2.897   2.137
 4919SOL    HW115656   3.845   2.938   2.058
 4919SOL    HW215657   3.798   2.797   2.127
 4920SOL     OW15658   5.622   0.308   5.258
 4920SOL    HW115659   5.556   0.278   5.328
 4920SOL    HW215660   5.576   0.315   5.170
 4921SOL     OW15661   2.025   5.008   0.397
 4921SOL    HW115662   2.036   4.966   0.307
 4921SOL    HW215663   2.043   4.940   0.468
 4922SOL     OW15664   3.369   2.129   4.965
 4922SOL    HW115665   3.284   2.159   5.008
 4922SOL    HW215666   3.411   2.205   4.916
 4923SOL     OW15667   2.236   1.817   2.684
 4923SOL    HW115668   2.278   1.907   2.669
 4923SOL    HW215669   2.195   1.785   2.598
 4924SOL     OW15670   2.089   2.151   4.968
 4924SOL    HW115671   2.077   2.052   4.954
 4924SOL    HW215672   2.046   2.200   4.892
 4925SOL     OW15673   4.519   0.522   2.846
 4925SOL    HW115674   4.491   0.615   2.823
 4925SOL    HW215675   4.572   0.483   2.770
 4926SOL     OW15676   5.386   1.936   1.502
 4926SOL    HW115677   5.302   1.896   1.540
 4926SOL    HW215678   5.363   1.996   1.425
 4927SOL     OW15679   3.378   3.037   6.013
 4927SOL    HW115680   3.388   3.015   5.916
 4927SOL    HW215681   3.441   2.981   6.067
 4928SOL     OW15682   1.492   0.942   0.017
 4928SOL    HW115683   1.589   0.966   0.018
 4928SOL    HW215684   1.437   1.026   0.023
 4929SOL     OW15685   6.668   6.990   3.443
 4929SOL    HW115686   6.716   0.023   3.509
 4929SOL    HW215687   6.731   6.959   3.372
 4930SOL     OW15688   5.950   6.765   2.543
 4930SOL    HW115689   5.988   6.839   2.598
 4930SOL    HW215690   5.898   6.803   2.466
 4931SOL     OW15691   6.664   6.175   1.501
 4931SOL    HW115692   6.676   6.257   1.444
 4931SOL    HW215693   6.566   6.155   1.509
 4932SOL     OW15694   3.838   3.965   3.323
 4932SOL    HW115695   3.803   4.056   3.346
 4932SOL    HW215696   3.762   3.906   3.296
 4933SOL     OW15697   2.247   6.626   3.407
 4933SOL    HW115698   2.245   6.541   3.458
 4933SOL    HW215699   2.187   6.619   3.327
 4934SOL     OW15700   3.778   5.783   2.723
 4934SOL    HW115701   3.794   5.857   2.788
 4934SOL    HW215702   3.680   5.766   2.716
 4935SOL     OW15703   1.831   2.078   6.827
 4935SOL    HW115704   1.931   2.075   6.818
 4935SOL    HW215705   1.807   2.097   6.922
 4936SOL     OW15706   2.900   4.813   1.008
 4936SOL    HW115707   2.961   4.736   1.026
 4936SOL    HW215708   2.916   4.885   1.074
 4937SOL     OW15709   5.329   3.283   5.008
 4937SOL    HW115710   5.299   3.189   5.026
 4937SOL    HW215711   5.328   3.300   4.910
 4938SOL     OW15712   3.083   5.414   5.925
 4938SOL    HW115713   3.142   5.495   5.927
 4938SOL    HW215714   3.131   5.339   5.879
 4939SOL     OW15715   5.194   2.236   5.096
 4939SOL    HW115716   5.291   2.230   5.120
 4939SOL    HW215717   5.154   2.144   5.096
 4940SOL     OW15718   1.200   0.807   4.987
 4940SOL    HW115719   1.226   0.725   5.038
 4940SOL    HW215720   1.282   0.850   4.950
 4941SOL     OW15721   3.347   1.929   6.536
 4941SOL    HW115722   3.405   1.948   6.615
 4941SOL    HW215723   3.328   1.831   6.531
 4942SOL     OW15724   4.823   3.331   5.176
 4942SOL    HW115725   4.920   3.348   5.158
 4942SOL    HW215726   4.769   3.410   5.145
 4943SOL     OW15727   4.296   2.183   0.046
 4943SOL    HW115728   4.256   2.147   6.986
 4943SOL    HW215729   4.223   2.212   0.108
 4944SOL     OW15730   1.966   4.016   3.065
 4944SOL    HW115731   1.905   3.950   3.110
 4944SOL    HW215732   2.055   4.014   3.109
 4945SOL     OW15733   1.135   0.518   3.854
 4945SOL    HW115734   1.216   0.543   3.906
 4945SOL    HW215735   1.109   0.594   3.794
 4946SOL     OW15736   0.787   3.038   1.039
 4946SOL    HW115737   0.805   3.134   1.013
 4946SOL    HW215738   0.872   2.996   1.070
 4947SOL     OW15739   0.763   6.684   0.756
 4947SOL    HW115740   0.767   6.706   0.659
 4947SOL    HW215741   0.668   6.669   0.783
 4948SOL     OW15742   2.849   0.796   2.682
 4948SOL    HW115743   2.801   0.797   2.594
 4948SOL    HW215744   2.790   0.754   2.751
 4949SOL     OW15745   4.588   0.503   5.578
 4949SOL    HW115746   4.595   0.409   5.544
 4949SOL    HW215747   4.493   0.534   5.569
 4950SOL     OW15748   2.645   5.812   3.753
 4950SOL    HW115749   2.725   5.804   3.811
 4950SOL    HW215750   2.661   5.764   3.667
 4951SOL     OW15751   4.694   1.217   4.275
 4951SOL    HW115752   4.764   1.277   4.313
 4951SOL    HW215753   4.677   1.142   4.339
 4952SOL     OW15754   0.284   6.461   5.234
 4952SOL    HW115755   0.314   6.393   5.167
 4952SOL    HW215756   0.332   6.547   5.218
 4953SOL     OW15757   2.524   5.355   1.850
 4953SOL    HW115758   2.440   5.301   1.841
 4953SOL    HW215759   2.544   5.401   1.764
 4954SOL     OW15760   4.840   4.242   6.956
 4954SOL    HW115761   4.823   4.146   6.936
 4954SOL    HW215762   4.882   4.251   0.022
 4955SOL     OW15763   1.910   5.815   0.115
 4955SOL    HW115764   1.901   5.715   0.121
 4955SOL    HW215765   1.911   5.854   0.207
 4956SOL     OW15766   3.802   6.905   5.454
 4956SOL    HW115767   3.897   6.877   5.470
 4956SOL    HW215768   3.788   6.920   5.356
 4957SOL     OW15769   0.115   1.483   4.121
 4957SOL    HW115770   0.092   1.554   4.055
 4957SOL    HW215771   0.169   1.523   4.196
 4958SOL     OW15772   0.752   6.634   6.100
 4958SOL    HW115773   0.827   6.648   6.164
 4958SOL    HW215774   0.772   6.681   6.014
 4959SOL     OW15775   0.972   0.772   6.694
 4959SOL    HW115776   0.989   0.689   6.747
 4959SOL    HW215777   1.009   0.761   6.602
 4960SOL     OW15778   3.506   6.646   4.068
 4960SOL    HW115779   3.452   6.574   4.024
 4960SOL    HW215780   3.594   6.655   4.020
 4961SOL     OW15781   5.439   0.875   5.052
 4961SOL    HW115782   5.493   0.922   4.982
 4961SOL    HW215783   5.415   0.783   5.020
 4962SOL     OW15784   5.593   3.199   1.970
 4962SOL    HW115785   5.598   3.141   2.051
 4962SOL    HW215786   5.548   3.285   1.993
 4963SOL     OW15787   0.203   5.687   1.369
 4963SOL    HW115788   0.192   5.735   1.456
 4963SOL    HW215789   0.135   5.614   1.361
 4964SOL     OW15790   3.589   5.776   3.133
 4964SOL    HW115791   3.673   5.727   3.157
 4964SOL    HW215792   3.606   5.875   3.136
 4965SOL     OW15793   0.485   6.947   4.923
 4965SOL    HW115794   0.451   6.868   4.873
 4965SOL    HW215795   0.483   0.004   4.865
 4966SOL     OW15796   2.660   5.922   4.735
 4966SOL    HW115797   2.573   5.968   4.716
 4966SOL    HW215798   2.646   5.823   4.733
 4967SOL     OW15799   4.186   2.522   6.653
 4967SOL    HW115800   4.157   2.459   6.582
 4967SOL    HW215801   4.252   2.477   6.713
 4968SOL     OW15802   4.918   3.328   3.492
 4968SOL    HW115803   4.883   3.313   3.399
 4968SOL    HW215804   4.937   3.425   3.505
 4969SOL     OW15805   1.437   1.091   2.319
 4969SOL    HW115806   1.469   1.183   2.342
 4969SOL    HW215807   1.439   1.034   2.401
 4970SOL     OW15808   1.018   2.460   4.644
 4970SOL    HW115809   1.046   2.495   4.733
 4970SOL    HW215810   1.094   2.466   4.580
 4971SOL     OW15811   6.515   5.867   4.154
 4971SOL    HW115812   6.603   5.829   4.182
 4971SOL    HW215813   6.488   5.939   4.217
 4972SOL     OW15814   2.553   3.283   0.098
 4972SOL    HW115815   2.488   3.345   0.054
 4972SOL    HW215816   2.643   3.326   0.102
 4973SOL     OW15817   6.105   6.270   2.039
 4973SOL    HW115818   6.023   6.213   2.037
 4973SOL    HW215819   6.180   6.222   1.993
 4974SOL     OW15820   5.853   5.344   1.845
 4974SOL    HW115821   5.848   5.248   1.874
 4974SOL    HW215822   5.939   5.359   1.796
 4975SOL     OW15823   6.239   6.085   0.915
 4975SOL    HW115824   6.269   6.001   0.961
 4975SOL    HW215825   6.316   6.148   0.908
 4976SOL     OW15826   3.435   0.585   4.164
 4976SOL    HW115827   3.347   0.564   4.121
 4976SOL    HW215828   3.421   0.601   4.262
 4977SOL     OW15829   4.583   3.791   0.567
 4977SOL    HW115830   4.661   3.784   0.505
 4977SOL    HW215831   4.563   3.701   0.606
 4978SOL     OW15832   6.124   3.891   5.732
 4978SOL    HW115833   6.056   3.840   5.680
 4978SOL    HW215834   6.135   3.982   5.690
 4979SOL     OW15835   0.070   1.939   5.055
 4979SOL    HW115836   0.082   1.841   5.039
 4979SOL    HW215837   0.099   1.990   4.973
 4980SOL     OW15838   3.670   6.164   2.473
 4980SOL    HW115839   3.663   6.069   2.443
 4980SOL    HW215840   3.586   6.190   2.521
 4981SOL     OW15841   4.311   6.772   5.536
 4981SOL    HW115842   4.353   6.811   5.618
 4981SOL    HW215843   4.382   6.748   5.470
 4982SOL     OW15844   1.982   1.717   0.043
 4982SOL    HW115845   2.078   1.737   0.021
 4982SOL    HW215846   1.932   1.699   6.982
 4983SOL     OW15847   5.788   3.326   3.862
 4983SOL    HW115848   5.865   3.316   3.924
 4983SOL    HW215849   5.769   3.239   3.817
 4984SOL     OW15850   5.423   3.880   4.396
 4984SOL    HW115851   5.364   3.838   4.328
 4984SOL    HW215852   5.377   3.879   4.485
 4985SOL     OW15853   5.904   5.218   3.769
 4985SOL    HW115854   5.962   5.266   3.703
 4985SOL    HW215855   5.954   5.208   3.855
 4986SOL     OW15856   6.321   4.657   3.147
 4986SOL    HW115857   6.307   4.563   3.116
 4986SOL    HW215858   6.311   4.720   3.069
 4987SOL     OW15859   0.542   2.850   0.673
 4987SOL    HW115860   0.630   2.898   0.679
 4987SOL    HW215861   0.470   2.916   0.655
 4988SOL     OW15862   0.133   1.772   3.989
 4988SOL    HW115863   0.204   1.771   3.919
 4988SOL    HW215864   0.133   1.860   4.036
 4989SOL     OW15865   5.791   1.697   1.435
 4989SOL    HW115866   5.780   1.627   1.505
 4989SOL    HW215867   5.884   1.734   1.440
 4990SOL     OW15868   0.684   2.615   6.043
 4990SOL    HW115869   0.596   2.654   6.014
 4990SOL    HW215870   0.693   2.523   6.005
 4991SOL     OW15871   0.830   3.166   4.258
 4991SOL    HW115872   0.743   3.138   4.298
 4991SOL    HW215873   0.886   3.085   4.240
 4992SOL     OW15874   3.578   0.602   4.664
 4992SOL    HW115875   3.586   0.534   4.592
 4992SOL    HW215876   3.551   0.557   4.750
 4993SOL     OW15877   2.886   5.322   3.849
 4993SOL    HW115878   2.839   5.252   3.795
 4993SOL    HW215879   2.983   5.298   3.857
 4994SOL     OW15880   1.185   6.808   2.970
 4994SOL    HW115881   1.179   6.901   3.007
 4994SOL    HW215882   1.119   6.749   3.016
 4995SOL     OW15883   6.745   2.938   6.187
 4995SOL    HW115884   6.735   3.006   6.115
 4995SOL    HW215885   6.829   2.886   6.173
 4996SOL     OW15886   6.926   1.292   1.402
 4996SOL    HW115887   6.849   1.229   1.408
 4996SOL    HW215888   7.002   1.248   1.355
 4997SOL     OW15889   6.602   2.187   3.020
 4997SOL    HW115890   6.511   2.160   2.989
 4997SOL    HW215891   6.634   2.125   3.091
 4998SOL     OW15892   1.742   4.868   5.015
 4998SOL    HW115893   1.812   4.934   5.044
 4998SOL    HW215894   1.777   4.813   4.940
 4999SOL     OW15895   5.216   5.757   1.363
 4999SOL    HW115896   5.194   5.739   1.459
 4999SOL    HW215897   5.245   5.672   1.319
 5000SOL     OW15898   0.976   0.449   4.717
 5000SOL    HW115899   0.881   0.474   4.734
 5000SOL    HW215900   1.033   0.531   4.718
 5001SOL     OW15901   1.964   3.835   6.370
 5001SOL    HW115902   1.866   3.827   6.351
 5001SOL    HW215903   2.016   3.811   6.288
 5002SOL     OW15904   1.171   2.044   3.262
 5002SOL    HW115905   1.140   1.956   3.225
 5002SOL    HW215906   1.145   2.050   3.358
 5003SOL     OW15907   0.426   6.710   3.306
 5003SOL    HW115908   0.418   6.798   3.260
 5003SOL    HW215909   0.491   6.719   3.382
 5004SOL     OW15910   2.576   5.394   5.705
 5004SOL    HW115911   2.597   5.439   5.792
 5004SOL    HW215912   2.494   5.435   5.665
 5005SOL     OW15913   3.774   2.329   0.708
 5005SOL    HW115914   3.845   2.399   0.697
 5005SOL    HW215915   3.817   2.241   0.727
 5006SOL     OW15916   5.828   0.131   5.255
 5006SOL    HW115917   5.817   0.082   5.169
 5006SOL    HW215918   5.768   0.211   5.256
 5007SOL     OW15919   3.466   0.715   6.052
 5007SOL    HW115920   3.535   0.643   6.062
 5007SOL    HW215921   3.439   0.722   5.955
 5008SOL     OW15922   6.058   1.354   3.259
 5008SOL    HW115923   6.054   1.454   3.253
 5008SOL    HW215924   5.966   1.317   3.269
 5009SOL     OW15925   1.182   6.073   1.466
 5009SOL    HW115926   1.087   6.073   1.432
 5009SOL    HW215927   1.237   6.012   1.409
 5010SOL     OW15928   3.505   4.042   4.007
 5010SOL    HW115929   3.419   4.006   3.974
 5010SOL    HW215930   3.488   4.124   4.063
 5011SOL     OW15931   2.114   3.258   2.175
 5011SOL    HW115932   2.163   3.333   2.130
 5011SOL    HW215933   2.020   3.286   2.194
 5012SOL     OW15934   6.531   2.384   5.789
 5012SOL    HW115935   6.482   2.332   5.718
 5012SOL    HW215936   6.526   2.481   5.768
 5013SOL     OW15937   4.640   0.831   6.278
 5013SOL    HW115938   4.641   0.819   6.377
 5013SOL    HW215939   4.598   0.751   6.235
 5014SOL     OW15940   6.424   5.865   0.990
 5014SOL    HW115941   6.467   5.831   0.906
 5014SOL    HW215942   6.491   5.918   1.043
 5015SOL     OW15943   4.712   1.904   3.420
 5015SOL    HW115944   4.696   1.805   3.416
 5015SOL    HW215945   4.627   1.952   3.401
 5016SOL     OW15946   1.864   1.316   2.858
 5016SOL    HW115947   1.863   1.302   2.957
 5016SOL    HW215948   1.772   1.338   2.826
 5017SOL     OW15949   2.595   2.205   0.380
 5017SOL    HW115950   2.651   2.127   0.351
 5017SOL    HW215951   2.519   2.216   0.316
 5018SOL     OW15952   6.991   4.193   2.232
 5018SOL    HW115953   6.955   4.137   2.306
 5018SOL    HW215954   6.993   4.140   2.147
 5019SOL     OW15955   2.672   3.732   0.299
 5019SOL    HW115956   2.699   3.793   0.225
 5019SOL    HW215957   2.726   3.753   0.381
 5020SOL     OW15958   5.622   5.722   6.113
 5020SOL    HW115959   5.613   5.625   6.136
 5020SOL    HW215960   5.683   5.766   6.179
 5021SOL     OW15961   1.305   4.580   6.103
 5021SOL    HW115962   1.368   4.586   6.181
 5021SOL    HW215963   1.262   4.490   6.101
 5022SOL     OW15964   2.033   6.516   0.666
 5022SOL    HW115965   1.975   6.588   0.704
 5022SOL    HW215966   2.015   6.506   0.568
 5023SOL     OW15967   6.183   2.690   0.748
 5023SOL    HW115968   6.165   2.781   0.786
 5023SOL    HW215969   6.154   2.621   0.814
 5024SOL     OW15970   6.983   3.924   3.268
 5024SOL    HW115971   6.948   3.841   3.312
 5024SOL    HW215972   6.999   3.994   3.338
 5025SOL     OW15973   4.793   1.671   2.357
 5025SOL    HW115974   4.696   1.674   2.334
 5025SOL    HW215975   4.833   1.762   2.349
 5026SOL     OW15976   6.144   5.585   5.550
 5026SOL    HW115977   6.081   5.654   5.516
 5026SOL    HW215978   6.215   5.629   5.605
 5027SOL     OW15979   0.300   6.585   2.857
 5027SOL    HW115980   0.365   6.543   2.794
 5027SOL    HW215981   0.331   6.676   2.882
 5028SOL     OW15982   6.949   5.813   1.861
 5028SOL    HW115983   6.909   5.885   1.804
 5028SOL    HW215984   6.917   5.724   1.828
 5029SOL     OW15985   6.821   2.371   2.291
 5029SOL    HW115986   6.838   2.433   2.367
 5029SOL    HW215987   6.877   2.398   2.212
 5030SOL     OW15988   0.315   0.006   0.273
 5030SOL    HW115989   0.320   0.069   0.351
 5030SOL    HW215990   0.261   0.048   0.200
 5031SOL     OW15991   5.774   1.151   4.376
 5031SOL    HW115992   5.837   1.223   4.406
 5031SOL    HW215993   5.800   1.065   4.419
 5032SOL     OW15994   1.868   5.313   0.743
 5032SOL    HW115995   1.809   5.277   0.671
 5032SOL    HW215996   1.937   5.244   0.768
 5033SOL     OW15997   2.919   4.992   5.197
 5033SOL    HW115998   2.864   4.914   5.227
 5033SOL    HW215999   2.983   5.017   5.270
 5034SOL     OW16000   6.467   2.819   2.260
 5034SOL    HW116001   6.421   2.798   2.347
 5034SOL    HW216002   6.471   2.918   2.247
 5035SOL     OW16003   4.833   5.343   0.454
 5035SOL    HW116004   4.767   5.334   0.528
 5035SOL    HW216005   4.901   5.271   0.460
 5036SOL     OW16006   1.462   6.263   6.625
 5036SOL    HW116007   1.489   6.239   6.718
 5036SOL    HW216008   1.519   6.214   6.559
 5037SOL     OW16009   3.892   1.855   3.201
 5037SOL    HW116010   3.887   1.880   3.297
 5037SOL    HW216011   3.843   1.770   3.186
 5038SOL     OW16012   1.425   5.857   5.571
 5038SOL    HW116013   1.452   5.937   5.624
 5038SOL    HW216014   1.330   5.867   5.541
 5039SOL     OW16015   2.706   2.949   5.354
 5039SOL    HW116016   2.694   2.951   5.453
 5039SOL    HW216017   2.626   2.989   5.309
 5040SOL     OW16018   2.474   3.467   6.716
 5040SOL    HW116019   2.529   3.420   6.785
 5040SOL    HW216020   2.504   3.561   6.707
 5041SOL     OW16021   0.838   4.445   1.482
 5041SOL    HW116022   0.768   4.386   1.441
 5041SOL    HW216023   0.924   4.394   1.490
 5042SOL     OW16024   6.666   3.547   6.807
 5042SOL    HW116025   6.659   3.486   6.728
 5042SOL    HW216026   6.731   3.621   6.786
 5043SOL     OW16027   3.350   1.418   4.331
 5043SOL    HW116028   3.253   1.407   4.352
 5043SOL    HW216029   3.398   1.331   4.345
 5044SOL     OW16030   6.087   5.984   3.699
 5044SOL    HW116031   6.136   6.070   3.684
 5044SOL    HW216032   6.042   5.986   3.788
 5045SOL     OW16033   6.373   3.260   0.253
 5045SOL    HW116034   6.445   3.313   0.298
 5045SOL    HW216035   6.290   3.263   0.308
 5046SOL     OW16036   3.920   3.081   4.759
 5046SOL    HW116037   3.973   3.142   4.818
 5046SOL    HW216038   3.845   3.041   4.812
 5047SOL     OW16039   5.646   1.135   2.869
 5047SOL    HW116040   5.746   1.138   2.866
 5047SOL    HW216041   5.617   1.046   2.904
 5048SOL     OW16042   6.876   2.332   1.853
 5048SOL    HW116043   6.870   2.429   1.875
 5048SOL    HW216044   6.846   2.279   1.933
 5049SOL     OW16045   0.830   1.784   2.471
 5049SOL    HW116046   0.756   1.732   2.514
 5049SOL    HW216047   0.878   1.838   2.539
 5050SOL     OW16048   0.218   1.839   1.883
 5050SOL    HW116049   0.261   1.750   1.901
 5050SOL    HW216050   0.259   1.881   1.802
 5051SOL     OW16051   2.804   3.903   1.107
 5051SOL    HW116052   2.870   3.832   1.080
 5051SOL    HW216053   2.719   3.890   1.056
 5052SOL     OW16054   4.046   4.837   0.860
 5052SOL    HW116055   4.037   4.759   0.799
 5052SOL    HW216056   4.118   4.819   0.927
 5053SOL     OW16057   2.279   3.931   1.948
 5053SOL    HW116058   2.203   3.969   1.895
 5053SOL    HW216059   2.283   3.976   2.038
 5054SOL     OW16060   3.532   6.215   5.266
 5054SOL    HW116061   3.623   6.218   5.305
 5054SOL    HW216062   3.470   6.272   5.320
 5055SOL     OW16063   0.647   1.771   4.874
 5055SOL    HW116064   0.708   1.827   4.931
 5055SOL    HW216065   0.590   1.715   4.934
 5056SOL     OW16066   0.215   4.287   6.119
 5056SOL    HW116067   0.178   4.254   6.206
 5056SOL    HW216068   0.288   4.353   6.137
 5057SOL     OW16069   0.951   5.635   3.365
 5057SOL    HW116070   0.929   5.635   3.463
 5057SOL    HW216071   0.998   5.720   3.342
 5058SOL     OW16072   4.165   4.405   0.068
 5058SOL    HW116073   4.264   4.396   0.059
 5058SOL    HW216074   4.122   4.315   0.059
 5059SOL     OW16075   3.889   1.862   4.693
 5059SOL    HW116076   3.794   1.890   4.683
 5059SOL    HW216077   3.945   1.942   4.718
 5060SOL     OW16078   0.238   3.434   5.583
 5060SOL    HW116079   0.292   3.383   5.650
 5060SOL    HW216080   0.298   3.466   5.510
 5061SOL     OW16081   2.943   3.605   4.347
 5061SOL    HW116082   2.937   3.667   4.425
 5061SOL    HW216083   2.979   3.654   4.267
 5062SOL     OW16084   4.271   1.597   2.258
 5062SOL    HW116085   4.304   1.679   2.212
 5062SOL    HW216086   4.189   1.564   2.211
 5063SOL     OW16087   1.924   6.295   1.754
 5063SOL    HW116088   1.875   6.209   1.742
 5063SOL    HW216089   2.016   6.277   1.788
 5064SOL     OW16090   4.650   5.360   0.660
 5064SOL    HW116091   4.589   5.430   0.698
 5064SOL    HW216092   4.605   5.271   0.664
 5065SOL     OW16093   1.973   0.565   3.523
 5065SOL    HW116094   1.957   0.532   3.429
 5065SOL    HW216095   2.045   0.634   3.521
 5066SOL     OW16096   2.009   4.620   1.951
 5066SOL    HW116097   2.066   4.682   1.896
 5066SOL    HW216098   2.024   4.639   2.048
 5067SOL     OW16099   4.020   2.084   1.571
 5067SOL    HW116100   4.041   2.024   1.493
 5067SOL    HW216101   3.928   2.122   1.559
 5068SOL     OW16102   3.493   6.273   0.848
 5068SOL    HW116103   3.413   6.331   0.862
 5068SOL    HW216104   3.533   6.294   0.759
 5069SOL     OW16105   2.262   3.753   6.292
 5069SOL    HW116106   2.238   3.829   6.352
 5069SOL    HW216107   2.288   3.673   6.347
 5070SOL     OW16108   6.315   2.952   3.926
 5070SOL    HW116109   6.314   2.856   3.953
 5070SOL    HW216110   6.396   2.997   3.964
 5071SOL     OW16111   4.005   1.151   3.969
 5071SOL    HW116112   4.072   1.089   3.929
 5071SOL    HW216113   4.051   1.232   4.006
 5072SOL     OW16114   1.389   0.703   1.019
 5072SOL    HW116115   1.413   0.785   1.071
 5072SOL    HW216116   1.354   0.730   0.929
 5073SOL     OW16117   2.585   6.068   2.340
 5073SOL    HW116118   2.683   6.080   2.331
 5073SOL    HW216119   2.549   6.020   2.260
 5074SOL     OW16120   3.320   1.737   1.589
 5074SOL    HW116121   3.412   1.698   1.585
 5074SOL    HW216122   3.264   1.697   1.516
 5075SOL     OW16123   1.098   3.075   0.121
 5075SOL    HW116124   1.137   3.022   0.045
 5075SOL    HW216125   1.162   3.148   0.146
 5076SOL     OW16126   5.496   0.360   0.354
 5076SOL    HW116127   5.505   0.261   0.354
 5076SOL    HW216128   5.401   0.385   0.375
 5077SOL     OW16129   1.689   4.033   4.675
 5077SOL    HW116130   1.624   4.003   4.744
 5077SOL    HW216131   1.778   4.050   4.718
 5078SOL     OW16132   0.422   1.418   3.964
 5078SOL    HW116133   0.396   1.491   4.028
 5078SOL    HW216134   0.428   1.331   4.013
 5079SOL     OW16135   1.755   1.967   5.796
 5079SOL    HW116136   1.795   2.027   5.865
 5079SOL    HW216137   1.692   1.903   5.840
 5080SOL     OW16138   5.882   5.386   5.971
 5080SOL    HW116139   5.861   5.366   5.875
 5080SOL    HW216140   5.947   5.318   6.006
 5081SOL     OW16141   2.971   5.693   5.011
 5081SOL    HW116142   2.909   5.768   4.990
 5081SOL    HW216143   3.033   5.678   4.934
 5082SOL     OW16144   4.801   6.613   0.250
 5082SOL    HW116145   4.728   6.572   0.196
 5082SOL    HW216146   4.880   6.551   0.250
 5083SOL     OW16147   2.837   0.751   2.151
 5083SOL    HW116148   2.815   0.676   2.088
 5083SOL    HW216149   2.919   0.797   2.119
 5084SOL     OW16150   1.111   5.308   5.398
 5084SOL    HW116151   1.179   5.328   5.469
 5084SOL    HW216152   1.065   5.221   5.420
 5085SOL     OW16153   1.510   3.384   5.958
 5085SOL    HW116154   1.468   3.293   5.961
 5085SOL    HW216155   1.598   3.381   6.004
 5086SOL     OW16156   0.674   4.535   2.932
 5086SOL    HW116157   0.575   4.547   2.945
 5086SOL    HW216158   0.721   4.559   3.016
 5087SOL     OW16159   6.924   5.314   2.188
 5087SOL    HW116160   6.898   5.287   2.281
 5087SOL    HW216161   7.022   5.297   2.175
 5088SOL     OW16162   4.541   5.936   2.670
 5088SOL    HW116163   4.511   5.843   2.647
 5088SOL    HW216164   4.474   5.977   2.732
 5089SOL     OW16165   6.012   4.023   4.381
 5089SOL    HW116166   5.995   3.949   4.316
 5089SOL    HW216167   5.946   4.096   4.365
 5090SOL     OW16168   1.932   0.166   4.023
 5090SOL    HW116169   1.852   0.123   4.064
 5090SOL    HW216170   1.929   0.265   4.037
 5091SOL     OW16171   6.775   0.302   0.208
 5091SOL    HW116172   6.857   0.336   0.161
 5091SOL    HW216173   6.740   0.222   0.160
 5092SOL     OW16174   3.942   3.521   4.166
 5092SOL    HW116175   3.930   3.619   4.155
 5092SOL    HW216176   3.997   3.502   4.247
 5093SOL     OW16177   2.460   0.895   2.793
 5093SOL    HW116178   2.536   0.833   2.778
 5093SOL    HW216179   2.380   0.863   2.741
 5094SOL     OW16180   2.815   5.501   0.037
 5094SOL    HW116181   2.776   5.546   0.117
 5094SOL    HW216182   2.789   5.552   6.979
 5095SOL     OW16183   0.700   1.389   3.907
 5095SOL    HW116184   0.604   1.383   3.933
 5095SOL    HW216185   0.740   1.298   3.906
 5096SOL     OW16186   6.056   3.895   6.408
 5096SOL    HW116187   6.065   3.811   6.461
 5096SOL    HW216188   6.084   3.878   6.314
 5097SOL     OW16189   6.738   6.714   0.033
 5097SOL    HW116190   6.815   6.730   6.994
 5097SOL    HW216191   6.755   6.762   0.119
 5098SOL     OW16192   3.942   2.247   1.835
 5098SOL    HW116193   3.986   2.157   1.831
 5098SOL    HW216194   3.843   2.235   1.845
 5099SOL     OW16195   0.018   5.921   1.373
 5099SOL    HW116196   6.996   5.978   1.306
 5099SOL    HW216197   0.114   5.907   1.346
 5100SOL     OW16198   4.710   5.006   3.021
 5100SOL    HW116199   4.733   4.936   3.089
 5100SOL    HW216200   4.732   5.096   3.058
 5101SOL     OW16201   3.733   0.416   4.954
 5101SOL    HW116202   3.669   0.451   4.886
 5101SOL    HW216203   3.780   0.492   4.999
 5102SOL     OW16204   4.732   5.904   4.092
 5102SOL    HW116205   4.735   5.927   3.994
 5102SOL    HW216206   4.817   5.931   4.135
 5103SOL     OW16207   0.723   0.453   4.798
 5103SOL    HW116208   0.715   0.374   4.738
 5103SOL    HW216209   0.638   0.506   4.794
 5104SOL     OW16210   3.386   6.265   1.920
 5104SOL    HW116211   3.368   6.268   2.018
 5104SOL    HW216212   3.477   6.226   1.904
 5105SOL     OW16213   2.938   3.382   6.941
 5105SOL    HW116214   2.990   3.304   6.908
 5105SOL    HW216215   2.996   3.463   6.941
 5106SOL     OW16216   4.131   2.069   0.878
 5106SOL    HW116217   4.124   1.970   0.889
 5106SOL    HW216218   4.212   2.103   0.927
 5107SOL     OW16219   5.607   3.174   1.394
 5107SOL    HW116220   5.660   3.257   1.379
 5107SOL    HW216221   5.659   3.111   1.451
 5108SOL     OW16222   4.746   4.005   5.715
 5108SOL    HW116223   4.647   4.008   5.702
 5108SOL    HW216224   4.768   3.949   5.795
 5109SOL     OW16225   1.838   2.981   1.523
 5109SOL    HW116226   1.839   3.075   1.488
 5109SOL    HW216227   1.818   2.918   1.448
 5110SOL     OW16228   0.104   7.009   6.223
 5110SOL    HW116229   0.109   0.058   6.291
 5110SOL    HW216230   0.154   0.012   6.141
 5111SOL     OW16231   0.967   6.359   4.907
 5111SOL    HW116232   1.009   6.317   4.987
 5111SOL    HW216233   0.975   6.458   4.914
 5112SOL     OW16234   0.389   6.901   2.708
 5112SOL    HW116235   0.407   6.826   2.644
 5112SOL    HW216236   0.475   6.944   2.734
 5113SOL     OW16237   1.728   5.157   0.532
 5113SOL    HW116238   1.786   5.110   0.465
 5113SOL    HW216239   1.686   5.090   0.593
 5114SOL     OW16240   3.460   7.018   0.797
 5114SOL    HW116241   3.485   6.939   0.741
 5114SOL    HW216242   3.360   0.005   0.796
 5115SOL     OW16243   2.163   3.564   1.586
 5115SOL    HW116244   2.129   3.634   1.524
 5115SOL    HW216245   2.228   3.605   1.651
 5116SOL     OW16246   2.983   6.326   6.835
 5116SOL    HW116247   3.035   6.331   6.749
 5116SOL    HW216248   3.024   6.258   6.895
 5117SOL     OW16249   0.955   3.275   4.707
 5117SOL    HW116250   1.035   3.336   4.707
 5117SOL    HW216251   0.896   3.297   4.630
 5118SOL     OW16252   6.097   6.961   0.774
 5118SOL    HW116253   6.119   6.876   0.727
 5118SOL    HW216254   6.181   7.003   0.808
 5119SOL     OW16255   5.217   1.831   0.898
 5119SOL    HW116256   5.120   1.852   0.889
 5119SOL    HW216257   5.232   1.733   0.884
 5120SOL     OW16258   4.955   0.239   5.092
 5120SOL    HW116259   5.007   0.304   5.146
 5120SOL    HW216260   4.915   0.286   5.013
 5121SOL     OW16261   3.492   3.712   0.266
 5121SOL    HW116262   3.590   3.691   0.270
 5121SOL    HW216263   3.440   3.629   0.246
 5122SOL     OW16264   3.594   5.324   3.546
 5122SOL    HW116265   3.541   5.337   3.462
 5122SOL    HW216266   3.543   5.267   3.610
 5123SOL     OW16267   5.521   2.308   2.478
 5123SOL    HW116268   5.456   2.342   2.547
 5123SOL    HW216269   5.500   2.351   2.390
 5124SOL     OW16270   2.033   6.251   3.621
 5124SOL    HW116271   2.110   6.315   3.625
 5124SOL    HW216272   1.960   6.291   3.566
 5125SOL     OW16273   0.360   1.843   3.819
 5125SOL    HW116274   0.347   1.757   3.771
 5125SOL    HW216275   0.452   1.878   3.800
 5126SOL     OW16276   1.171   6.400   0.348
 5126SOL    HW116277   1.100   6.330   0.339
 5126SOL    HW216278   1.172   6.435   0.441
 5127SOL     OW16279   2.151   5.527   0.084
 5127SOL    HW116280   2.219   5.537   0.156
 5127SOL    HW216281   2.059   5.536   0.124
 5128SOL     OW16282   0.108   5.909   1.076
 5128SOL    HW116283   0.156   5.875   0.995
 5128SOL    HW216284   0.023   5.856   1.089
 5129SOL     OW16285   4.942   6.476   1.485
 5129SOL    HW116286   4.968   6.403   1.548
 5129SOL    HW216287   4.933   6.562   1.535
 5130SOL     OW16288   7.016   4.928   2.931
 5130SOL    HW116289   6.934   4.906   2.878
 5130SOL    HW216290   0.059   4.854   2.921
 5131SOL     OW16291   1.250   3.697   3.428
 5131SOL    HW116292   1.250   3.600   3.453
 5131SOL    HW216293   1.336   3.739   3.458
 5132SOL     OW16294   3.660   3.883   6.152
 5132SOL    HW116295   3.598   3.898   6.076
 5132SOL    HW216296   3.737   3.828   6.122
 5133SOL     OW16297   3.364   5.256   0.068
 5133SOL    HW116298   3.316   5.255   0.155
 5133SOL    HW216299   3.460   5.283   0.083
 5134SOL     OW16300   0.544   2.914   1.573
 5134SOL    HW116301   0.612   2.880   1.508
 5134SOL    HW216302   0.454   2.879   1.548
 5135SOL     OW16303   6.932   2.171   6.190
 5135SOL    HW116304   6.868   2.107   6.233
 5135SOL    HW216305   6.888   2.260   6.182
 5136SOL     OW16306   4.876   0.534   4.596
 5136SOL    HW116307   4.877   0.603   4.523
 5136SOL    HW216308   4.943   0.463   4.576
 5137SOL     OW16309   5.970   3.068   6.416
 5137SOL    HW116310   5.960   3.147   6.356
 5137SOL    HW216311   5.888   3.010   6.408
 5138SOL     OW16312   3.892   3.304   6.745
 5138SOL    HW116313   3.962   3.240   6.774
 5138SOL    HW216314   3.899   3.320   6.646
 5139SOL     OW16315   1.623   0.054   3.840
 5139SOL    HW116316   1.606   0.153   3.834
 5139SOL    HW216317   1.632   0.017   3.748
 5140SOL     OW16318   2.342   1.510   0.403
 5140SOL    HW116319   2.411   1.576   0.432
 5140SOL    HW216320   2.379   1.417   0.410
 5141SOL     OW16321   5.874   3.563   1.182
 5141SOL    HW116322   5.945   3.493   1.175
 5141SOL    HW216323   5.883   3.627   1.106
 5142SOL     OW16324   5.872   2.063   4.401
 5142SOL    HW116325   5.884   2.109   4.312
 5142SOL    HW216326   5.907   2.123   4.473
 5143SOL     OW16327   1.196   3.890   4.230
 5143SOL    HW116328   1.138   3.863   4.154
 5143SOL    HW216329   1.286   3.848   4.220
 5144SOL     OW16330   1.721   6.840   6.128
 5144SOL    HW116331   1.720   6.741   6.116
 5144SOL    HW216332   1.627   6.874   6.134
 5145SOL     OW16333   2.617   5.392   6.310
 5145SOL    HW116334   2.649   5.463   6.247
 5145SOL    HW216335   2.675   5.391   6.392
 5146SOL     OW16336   4.307   3.688   6.518
 5146SOL    HW116337   4.281   3.604   6.471
 5146SOL    HW216338   4.227   3.749   6.524
 5147SOL     OW16339   6.991   4.154   1.842
 5147SOL    HW116340   6.901   4.185   1.873
 5147SOL    HW216341   0.014   4.230   1.797
 5148SOL     OW16342   0.799   5.864   0.956
 5148SOL    HW116343   0.835   5.783   0.909
 5148SOL    HW216344   0.798   5.941   0.893
 5149SOL     OW16345   5.938   0.029   3.588
 5149SOL    HW116346   5.987   6.979   3.542
 5149SOL    HW216347   5.891   7.017   3.669
 5150SOL     OW16348   1.929   5.901   4.197
 5150SOL    HW116349   1.963   5.995   4.199
 5150SOL    HW216350   1.869   5.888   4.118
 5151SOL     OW16351   5.602   0.841   6.752
 5151SOL    HW116352   5.525   0.827   6.814
 5151SOL    HW216353   5.639   0.933   6.764
 5152SOL     OW16354   2.406   4.670   6.972
 5152SOL    HW116355   2.495   4.669   6.928
 5152SOL    HW216356   2.379   4.577   6.995
 5153SOL     OW16357   2.068   1.895   6.776
 5153SOL    HW116358   1.988   1.834   6.776
 5153SOL    HW216359   2.115   1.887   6.688
 5154SOL     OW16360   2.106   3.381   6.164
 5154SOL    HW116361   2.189   3.424   6.200
 5154SOL    HW216362   2.047   3.353   6.239
 5155SOL     OW16363   4.316   6.670   1.871
 5155SOL    HW116364   4.390   6.609   1.900
 5155SOL    HW216365   4.351   6.740   1.810
 5156SOL     OW16366   6.800   2.440   6.274
 5156SOL    HW116367   6.751   2.511   6.223
 5156SOL    HW216368   6.755   2.424   6.361
 5157SOL     OW16369   4.738   2.957   3.466
 5157SOL    HW116370   4.803   2.953   3.391
 5157SOL    HW216371   4.714   2.864   3.495
 5158SOL     OW16372   3.014   2.042   1.459
 5158SOL    HW116373   3.089   2.014   1.518
 5158SOL    HW216374   2.938   2.076   1.515
 5159SOL     OW16375   1.321   3.864   5.091
 5159SOL    HW116376   1.332   3.877   5.190
 5159SOL    HW216377   1.362   3.778   5.063
 5160SOL     OW16378   1.659   4.054   4.332
 5160SOL    HW116379   1.707   4.106   4.262
 5160SOL    HW216380   1.725   4.012   4.394
 5161SOL     OW16381   1.343   4.209   5.405
 5161SOL    HW116382   1.420   4.268   5.378
 5161SOL    HW216383   1.257   4.254   5.380
 5162SOL     OW16384   6.983   5.153   4.237
 5162SOL    HW116385   6.945   5.103   4.315
 5162SOL    HW216386   0.052   5.120   4.219
 5163SOL     OW16387   4.620   5.173   1.557
 5163SOL    HW116388   4.707   5.150   1.599
 5163SOL    HW216389   4.589   5.097   1.499
 5164SOL     OW16390   5.629   2.391   5.872
 5164SOL    HW116391   5.638   2.342   5.959
 5164SOL    HW216392   5.667   2.336   5.798
 5165SOL     OW16393   5.566   4.786   4.772
 5165SOL    HW116394   5.639   4.822   4.831
 5165SOL    HW216395   5.553   4.849   4.695
 5166SOL     OW16396   1.558   5.020   1.805
 5166SOL    HW116397   1.571   5.031   1.706
 5166SOL    HW216398   1.620   4.948   1.838
 5167SOL     OW16399   6.139   6.748   5.450
 5167SOL    HW116400   6.198   6.785   5.522
 5167SOL    HW216401   6.149   6.805   5.368
 5168SOL     OW16402   4.615   2.608   3.681
 5168SOL    HW116403   4.695   2.556   3.653
 5168SOL    HW216404   4.556   2.550   3.738
 5169SOL     OW16405   3.640   3.649   6.596
 5169SOL    HW116406   3.632   3.710   6.517
 5169SOL    HW216407   3.605   3.558   6.572
 5170SOL     OW16408   6.746   4.606   6.128
 5170SOL    HW116409   6.744   4.682   6.192
 5170SOL    HW216410   6.739   4.641   6.034
 5171SOL     OW16411   2.400   4.496   4.543
 5171SOL    HW116412   2.327   4.557   4.574
 5171SOL    HW216413   2.372   4.401   4.557
 5172SOL     OW16414   1.006   3.153   1.679
 5172SOL    HW116415   0.913   3.140   1.645
 5172SOL    HW216416   1.067   3.178   1.603
 5173SOL     OW16417   6.178   4.099   6.729
 5173SOL    HW116418   6.148   4.053   6.812
 5173SOL    HW216419   6.244   4.041   6.680
 5174SOL     OW16420   1.688   4.574   4.542
 5174SOL    HW116421   1.601   4.570   4.591
 5174SOL    HW216422   1.681   4.637   4.465
 5175SOL     OW16423   2.049   4.275   0.214
 5175SOL    HW116424   2.079   4.310   0.303
 5175SOL    HW216425   2.076   4.179   0.206
 5176SOL     OW16426   3.851   3.109   0.406
 5176SOL    HW116427   3.945   3.075   0.412
 5176SOL    HW216428   3.787   3.033   0.421
 5177SOL     OW16429   4.601   0.221   5.505
 5177SOL    HW116430   4.682   0.239   5.561
 5177SOL    HW216431   4.612   0.134   5.458
 5178SOL     OW16432   2.239   2.244   1.567
 5178SOL    HW116433   2.225   2.300   1.485
 5178SOL    HW216434   2.266   2.303   1.643
 5179SOL     OW16435   4.890   6.072   5.001
 5179SOL    HW116436   4.884   6.107   4.908
 5179SOL    HW216437   4.801   6.038   5.030
 5180SOL     OW16438   3.540   2.367   6.720
 5180SOL    HW116439   3.608   2.339   6.788
 5180SOL    HW216440   3.499   2.453   6.748
 5181SOL     OW16441   3.796   0.788   3.099
 5181SOL    HW116442   3.741   0.814   3.019
 5181SOL    HW216443   3.771   0.847   3.176
 5182SOL     OW16444   5.618   4.604   1.664
 5182SOL    HW116445   5.548   4.621   1.732
 5182SOL    HW216446   5.611   4.510   1.631
 5183SOL     OW16447   4.762   0.011   1.652
 5183SOL    HW116448   4.735   0.100   1.688
 5183SOL    HW216449   4.788   6.974   1.727
 5184SOL     OW16450   0.936   1.806   4.093
 5184SOL    HW116451   0.903   1.896   4.066
 5184SOL    HW216452   0.872   1.735   4.062
 5185SOL     OW16453   3.882   6.880   2.860
 5185SOL    HW116454   3.964   6.924   2.896
 5185SOL    HW216455   3.886   6.880   2.760
 5186SOL     OW16456   6.583   4.138   1.017
 5186SOL    HW116457   6.601   4.090   1.103
 5186SOL    HW216458   6.669   4.170   0.978
 5187SOL     OW16459   6.553   0.994   3.620
 5187SOL    HW116460   6.525   1.001   3.716
 5187SOL    HW216461   6.529   1.078   3.572
 5188SOL     OW16462   0.552   4.927   0.189
 5188SOL    HW116463   0.592   4.975   0.111
 5188SOL    HW216464   0.526   4.835   0.162
 5189SOL     OW16465   4.665   4.861   6.742
 5189SOL    HW116466   4.654   4.790   6.672
 5189SOL    HW216467   4.676   4.818   6.832
 5190SOL     OW16468   1.127   2.088   4.122
 5190SOL    HW116469   1.192   2.066   4.049
 5190SOL    HW216470   1.045   2.032   4.112
 5191SOL     OW16471   3.206   1.173   1.443
 5191SOL    HW116472   3.140   1.174   1.518
 5191SOL    HW216473   3.298   1.161   1.480
 5192SOL     OW16474   5.100   5.421   2.601
 5192SOL    HW116475   5.123   5.340   2.548
 5192SOL    HW216476   5.005   5.416   2.631
 5193SOL     OW16477   4.370   4.667   3.857
 5193SOL    HW116478   4.414   4.740   3.908
 5193SOL    HW216479   4.275   4.658   3.886
 5194SOL     OW16480   5.208   0.505   5.832
 5194SOL    HW116481   5.124   0.470   5.874
 5194SOL    HW216482   5.188   0.589   5.782
 5195SOL     OW16483   5.988   6.963   4.466
 5195SOL    HW116484   6.066   6.995   4.520
 5195SOL    HW216485   6.013   6.880   4.417
 5196SOL     OW16486   0.581   4.302   1.677
 5196SOL    HW116487   0.544   4.356   1.753
 5196SOL    HW216488   0.629   4.362   1.613
 5197SOL     OW16489   1.556   5.938   4.051
 5197SOL    HW116490   1.458   5.937   4.071
 5197SOL    HW216491   1.583   5.852   4.008
 5198SOL     OW16492   2.853   6.838   4.506
 5198SOL    HW116493   2.792   6.881   4.572
 5198SOL    HW216494   2.803   6.765   4.458
 5199SOL     OW16495   2.284   5.431   1.540
 5199SOL    HW116496   2.275   5.360   1.471
 5199SOL    HW216497   2.381   5.453   1.552
 5200SOL     OW16498   1.030   1.946   5.025
 5200SOL    HW116499   1.021   1.974   5.121
 5200SOL    HW216500   0.944   1.962   4.978
 5201SOL     OW16501   5.811   4.837   4.554
 5201SOL    HW116502   5.780   4.753   4.510
 5201SOL    HW216503   5.905   4.856   4.526
 5202SOL     OW16504   5.341   3.302   6.951
 5202SOL    HW116505   5.407   3.241   6.907
 5202SOL    HW216506   5.283   3.249   7.013
 5203SOL     OW16507   1.583   0.597   6.363
 5203SOL    HW116508   1.484   0.586   6.352
 5203SOL    HW216509   1.618   0.523   6.421
 5204SOL     OW16510   3.398   6.230   6.604
 5204SOL    HW116511   3.365   6.259   6.514
 5204SOL    HW216512   3.348   6.149   6.633
 5205SOL     OW16513   6.831   5.820   1.226
 5205SOL    HW116514   6.912   5.826   1.285
 5205SOL    HW216515   6.759   5.769   1.274
 5206SOL     OW16516   1.046   4.527   5.037
 5206SOL    HW116517   1.140   4.512   5.005
 5206SOL    HW216518   1.023   4.624   5.024
 5207SOL     OW16519   6.854   0.213   3.897
 5207SOL    HW116520   6.765   0.231   3.938
 5207SOL    HW216521   6.912   0.294   3.908
 5208SOL     OW16522   4.422   2.794   0.270
 5208SOL    HW116523   4.418   2.892   0.250
 5208SOL    HW216524   4.362   2.774   0.348
 5209SOL     OW16525   4.643   6.968   3.454
 5209SOL    HW116526   4.606   6.965   3.361
 5209SOL    HW216527   4.622   0.032   3.495
 5210SOL     OW16528   5.000   4.514   1.114
 5210SOL    HW116529   4.997   4.607   1.076
 5210SOL    HW216530   5.086   4.471   1.089
 5211SOL     OW16531   4.880   2.106   4.540
 5211SOL    HW116532   4.950   2.061   4.485
 5211SOL    HW216533   4.921   2.182   4.591
 5212SOL     OW16534   1.427   2.091   1.025
 5212SOL    HW116535   1.475   2.138   1.100
 5212SOL    HW216536   1.476   2.006   1.003
 5213SOL     OW16537   4.064   3.790   2.149
 5213SOL    HW116538   4.106   3.860   2.091
 5213SOL    HW216539   4.127   3.712   2.157
 5214SOL     OW16540   5.521   4.273   6.395
 5214SOL    HW116541   5.434   4.226   6.412
 5214SOL    HW216542   5.504   4.354   6.339
 5215SOL     OW16543   0.123   3.173   4.953
 5215SOL    HW116544   0.053   3.211   4.894
 5215SOL    HW216545   0.213   3.206   4.923
 5216SOL     OW16546   5.674   5.259   1.076
 5216SOL    HW116547   5.626   5.314   1.008
 5216SOL    HW216548   5.662   5.299   1.166
 5217SOL     OW16549   3.740   5.722   4.290
 5217SOL    HW116550   3.817   5.662   4.268
 5217SOL    HW216551   3.734   5.734   4.389
 5218SOL     OW16552   0.622   0.841   0.738
 5218SOL    HW116553   0.618   0.924   0.683
 5218SOL    HW216554   0.530   0.804   0.748
 5219SOL     OW16555   2.948   1.931   4.949
 5219SOL    HW116556   2.991   2.013   4.911
 5219SOL    HW216557   2.974   1.921   5.045
 5220SOL     OW16558   2.337   5.510   3.582
 5220SOL    HW116559   2.259   5.458   3.615
 5220SOL    HW216560   2.332   5.518   3.482
 5221SOL     OW16561   6.836   0.560   1.732
 5221SOL    HW116562   6.915   0.499   1.735
 5221SOL    HW216563   6.856   0.639   1.674
 5222SOL     OW16564   4.442   4.700   1.422
 5222SOL    HW116565   4.497   4.628   1.465
 5222SOL    HW216566   4.373   4.658   1.362
 5223SOL     OW16567   0.097   2.984   0.488
 5223SOL    HW116568   0.156   2.904   0.479
 5223SOL    HW216569   0.135   3.046   0.557
 5224SOL     OW16570   1.260   1.851   4.513
 5224SOL    HW116571   1.219   1.878   4.601
 5224SOL    HW216572   1.188   1.843   4.444
 5225SOL     OW16573   6.403   1.090   4.628
 5225SOL    HW116574   6.390   1.154   4.552
 5225SOL    HW216575   6.470   1.021   4.602
 5226SOL     OW16576   0.487   5.752   3.336
 5226SOL    HW116577   0.553   5.678   3.345
 5226SOL    HW216578   0.535   5.840   3.334
 5227SOL     OW16579   6.885   3.890   5.950
 5227SOL    HW116580   6.827   3.864   6.028
 5227SOL    HW216581   6.920   3.983   5.965
 5228SOL     OW16582   1.183   2.922   6.347
 5228SOL    HW116583   1.240   2.856   6.395
 5228SOL    HW216584   1.238   2.971   6.280
 5229SOL     OW16585   3.571   6.386   6.725
 5229SOL    HW116586   3.645   6.416   6.665
 5229SOL    HW216587   3.502   6.339   6.670
 5230SOL     OW16588   6.757   6.917   2.265
 5230SOL    HW116589   6.794   7.005   2.238
 5230SOL    HW216590   6.725   6.921   2.360
 5231SOL     OW16591   5.300   1.670   2.910
 5231SOL    HW116592   5.363   1.626   2.973
 5231SOL    HW216593   5.352   1.726   2.845
 5232SOL     OW16594   1.690   3.908   6.268
 5232SOL    HW116595   1.761   3.977   6.283
 5232SOL    HW216596   1.670   3.901   6.171
 5233SOL     OW16597   2.821   1.176   2.433
 5233SOL    HW116598   2.784   1.152   2.343
 5233SOL    HW216599   2.769   1.253   2.471
 5234SOL     OW16600   1.993   2.497   0.742
 5234SOL    HW116601   2.064   2.426   0.746
 5234SOL    HW216602   1.989   2.535   0.650
 5235SOL     OW16603   2.113   1.755   0.702
 5235SOL    HW116604   2.076   1.672   0.658
 5235SOL    HW216605   2.057   1.778   0.781
 5236SOL     OW16606   3.350   4.972   2.131
 5236SOL    HW116607   3.302   5.030   2.197
 5236SOL    HW216608   3.284   4.913   2.084
 5237SOL     OW16609   1.609   1.825   4.793
 5237SOL    HW116610   1.685   1.762   4.781
 5237SOL    HW216611   1.630   1.911   4.746
 5238SOL     OW16612   1.291   4.729   3.088
 5238SOL    HW116613   1.324   4.718   3.182
 5238SOL    HW216614   1.307   4.823   3.058
 5239SOL     OW16615   3.252   4.100   1.140
 5239SOL    HW116616   3.215   4.013   1.174
 5239SOL    HW216617   3.218   4.116   1.047
 5240SOL     OW16618   2.708   2.815   5.723
 5240SOL    HW116619   2.622   2.855   5.688
 5240SOL    HW216620   2.688   2.759   5.803
 5241SOL     OW16621   1.491   5.674   2.248
 5241SOL    HW116622   1.554   5.623   2.190
 5241SOL    HW216623   1.544   5.729   2.314
 5242SOL     OW16624   4.948   0.955   1.260
 5242SOL    HW116625   4.955   0.971   1.162
 5242SOL    HW216626   4.868   0.898   1.279
 5243SOL     OW16627   2.315   6.417   1.585
 5243SOL    HW116628   2.253   6.489   1.617
 5243SOL    HW216629   2.336   6.431   1.489
 5244SOL     OW16630   5.015   3.164   0.703
 5244SOL    HW116631   4.998   3.211   0.616
 5244SOL    HW216632   5.053   3.073   0.684
 5245SOL     OW16633   3.801   4.362   0.263
 5245SOL    HW116634   3.761   4.325   0.180
 5245SOL    HW216635   3.870   4.431   0.240
 5246SOL     OW16636   6.676   2.779   2.006
 5246SOL    HW116637   6.645   2.811   1.916
 5246SOL    HW216638   6.596   2.764   2.064
 5247SOL     OW16639   3.898   1.513   5.446
 5247SOL    HW116640   3.855   1.468   5.367
 5247SOL    HW216641   3.949   1.593   5.415
 5248SOL     OW16642   6.956   1.901   2.995
 5248SOL    HW116643   6.942   1.863   3.087
 5248SOL    HW216644   0.028   1.892   2.969
 5249SOL     OW16645   0.971   4.786   0.200
 5249SOL    HW116646   0.908   4.814   0.273
 5249SOL    HW216647   1.065   4.804   0.228
 5250SOL     OW16648   2.150   5.249   0.290
 5250SOL    HW116649   2.089   5.181   0.330
 5250SOL    HW216650   2.212   5.283   0.360
 5251SOL     OW16651   0.974   4.531   1.228
 5251SOL    HW116652   0.957   4.503   1.323
 5251SOL    HW216653   0.897   4.585   1.195
 5252SOL     OW16654   3.129   6.494   2.190
 5252SOL    HW116655   3.139   6.498   2.289
 5252SOL    HW216656   3.038   6.460   2.167
 5253SOL     OW16657   5.699   4.053   4.727
 5253SOL    HW116658   5.727   4.100   4.643
 5253SOL    HW216659   5.657   4.119   4.790
 5254SOL     OW16660   5.780   0.310   3.150
 5254SOL    HW116661   5.748   0.233   3.094
 5254SOL    HW216662   5.799   0.388   3.090
 5255SOL     OW16663   5.258   2.119   4.554
 5255SOL    HW116664   5.344   2.069   4.539
 5255SOL    HW216665   5.205   2.120   4.469
 5256SOL     OW16666   4.804   1.011   2.965
 5256SOL    HW116667   4.823   1.109   2.969
 5256SOL    HW216668   4.886   0.961   2.992
 5257SOL     OW16669   4.353   0.409   0.225
 5257SOL    HW116670   4.298   0.325   0.224
 5257SOL    HW216671   4.413   0.409   0.144
 5258SOL     OW16672   5.855   1.885   2.798
 5258SOL    HW116673   5.808   1.912   2.881
 5258SOL    HW216674   5.795   1.899   2.719
 5259SOL     OW16675   5.242   5.887   2.748
 5259SOL    HW116676   5.308   5.821   2.711
 5259SOL    HW216677   5.236   5.876   2.847
 5260SOL     OW16678   3.177   5.551   0.081
 5260SOL    HW116679   3.130   5.498   0.152
 5260SOL    HW216680   3.140   5.526   7.016
 5261SOL     OW16681   0.111   5.034   0.950
 5261SOL    HW116682   0.182   5.077   0.895
 5261SOL    HW216683   0.058   4.970   0.893
 5262SOL     OW16684   2.632   0.672   2.821
 5262SOL    HW116685   2.692   0.635   2.892
 5262SOL    HW216686   2.606   0.600   2.757
 5263SOL     OW16687   1.812   1.217   3.104
 5263SOL    HW116688   1.781   1.149   3.171
 5263SOL    HW216689   1.869   1.285   3.150
 5264SOL     OW16690   6.761   2.045   1.816
 5264SOL    HW116691   6.860   2.050   1.804
 5264SOL    HW216692   6.723   2.137   1.824
 5265SOL     OW16693   5.665   2.984   4.424
 5265SOL    HW116694   5.586   2.934   4.461
 5265SOL    HW216695   5.724   3.013   4.499
 5266SOL     OW16696   2.291   6.457   0.751
 5266SOL    HW116697   2.202   6.497   0.728
 5266SOL    HW216698   2.359   6.530   0.761
 5267SOL     OW16699   4.286   2.310   4.580
 5267SOL    HW116700   4.282   2.292   4.678
 5267SOL    HW216701   4.365   2.369   4.560
 5268SOL     OW16702   5.474   0.495   0.088
 5268SOL    HW116703   5.490   0.469   0.184
 5268SOL    HW216704   5.560   0.517   0.044
 5269SOL     OW16705   0.451   6.725   2.495
 5269SOL    HW116706   0.510   6.653   2.457
 5269SOL    HW216707   0.355   6.698   2.485
 5270SOL     OW16708   6.020   1.812   0.729
 5270SOL    HW116709   6.005   1.905   0.763
 5270SOL    HW216710   5.932   1.768   0.713
 5271SOL     OW16711   6.398   5.460   5.053
 5271SOL    HW116712   6.379   5.454   4.955
 5271SOL    HW216713   6.455   5.382   5.081
 5272SOL     OW16714   4.052   6.326   0.986
 5272SOL    HW116715   3.990   6.319   0.908
 5272SOL    HW216716   4.004   6.367   1.064
 5273SOL     OW16717   1.094   3.226   2.857
 5273SOL    HW116718   1.164   3.195   2.921
 5273SOL    HW216719   1.136   3.246   2.769
 5274SOL     OW16720   4.551   6.949   2.472
 5274SOL    HW116721   4.509   6.881   2.412
 5274SOL    HW216722   4.639   6.914   2.505
 5275SOL     OW16723   2.632   0.338   0.923
 5275SOL    HW116724   2.679   0.412   0.971
 5275SOL    HW216725   2.534   0.343   0.942
 5276SOL     OW16726   2.255   6.970   1.778
 5276SOL    HW116727   2.291   7.023   1.701
 5276SOL    HW216728   2.168   7.008   1.808
 5277SOL     OW16729   3.022   1.200   2.623
 5277SOL    HW116730   3.077   1.117   2.636
 5277SOL    HW216731   2.946   1.180   2.561
 5278SOL     OW16732   4.077   4.843   3.072
 5278SOL    HW116733   4.123   4.790   3.001
 5278SOL    HW216734   3.988   4.875   3.039
 5279SOL     OW16735   2.719   5.443   1.009
 5279SOL    HW116736   2.766   5.397   0.934
 5279SOL    HW216737   2.621   5.448   0.989
 5280SOL     OW16738   2.798   6.545   5.066
 5280SOL    HW116739   2.739   6.598   5.005
 5280SOL    HW216740   2.749   6.526   5.151
 5281SOL     OW16741   6.893   1.612   2.738
 5281SOL    HW116742   6.821   1.649   2.796
 5281SOL    HW216743   6.917   1.520   2.769
 5282SOL     OW16744   2.385   1.745   3.762
 5282SOL    HW116745   2.451   1.764   3.689
 5282SOL    HW216746   2.297   1.721   3.721
 5283SOL     OW16747   5.552   5.423   0.904
 5283SOL    HW116748   5.555   5.434   0.805
 5283SOL    HW216749   5.484   5.485   0.943
 5284SOL     OW16750   5.688   4.503   2.956
 5284SOL    HW116751   5.612   4.555   2.996
 5284SOL    HW216752   5.713   4.542   2.867
 5285SOL     OW16753   3.180   4.930   3.895
 5285SOL    HW116754   3.118   4.925   3.973
 5285SOL    HW216755   3.274   4.942   3.928
 5286SOL     OW16756   2.334   4.202   1.213
 5286SOL    HW116757   2.290   4.256   1.284
 5286SOL    HW216758   2.265   4.151   1.162
 5287SOL     OW16759   2.546   1.175   0.486
 5287SOL    HW116760   2.611   1.241   0.525
 5287SOL    HW216761   2.453   1.199   0.515
 5288SOL     OW16762   3.448   0.110   1.340
 5288SOL    HW116763   3.535   0.142   1.378
 5288SOL    HW216764   3.399   0.187   1.299
 5289SOL     OW16765   0.749   5.266   0.435
 5289SOL    HW116766   0.684   5.191   0.424
 5289SOL    HW216767   0.713   5.348   0.391
 5290SOL     OW16768   3.569   5.862   6.909
 5290SOL    HW116769   3.605   5.926   6.842
 5290SOL    HW216770   3.611   5.772   6.897
 5291SOL     OW16771   1.842   4.538   5.480
 5291SOL    HW116772   1.837   4.489   5.393
 5291SOL    HW216773   1.909   4.612   5.473
 5292SOL     OW16774   5.036   3.183   6.743
 5292SOL    HW116775   4.963   3.188   6.674
 5292SOL    HW216776   5.071   3.090   6.747
 5293SOL     OW16777   0.717   0.644   4.431
 5293SOL    HW116778   0.755   0.560   4.471
 5293SOL    HW216779   0.693   0.628   4.336
 5294SOL     OW16780   5.690   2.856   6.308
 5294SOL    HW116781   5.656   2.939   6.351
 5294SOL    HW216782   5.621   2.820   6.245
 5295SOL     OW16783   5.159   1.184   2.964
 5295SOL    HW116784   5.185   1.247   2.890
 5295SOL    HW216785   5.088   1.225   3.019
 5296SOL     OW16786   2.218   4.437   0.823
 5296SOL    HW116787   2.273   4.426   0.906
 5296SOL    HW216788   2.213   4.349   0.775
 5297SOL     OW16789   2.154   1.258   1.128
 5297SOL    HW116790   2.150   1.287   1.223
 5297SOL    HW216791   2.084   1.189   1.111
 5298SOL     OW16792   6.444   4.684   1.849
 5298SOL    HW116793   6.449   4.685   1.949
 5298SOL    HW216794   6.495   4.606   1.813
 5299SOL     OW16795   2.615   0.457   1.543
 5299SOL    HW116796   2.611   0.516   1.462
 5299SOL    HW216797   2.708   0.425   1.556
 5300SOL     OW16798   0.344   6.540   3.660
 5300SOL    HW116799   0.283   6.551   3.582
 5300SOL    HW216800   0.291   6.546   3.745
 5301SOL     OW16801   4.273   1.699   6.651
 5301SOL    HW116802   4.235   1.676   6.741
 5301SOL    HW216803   4.321   1.620   6.613
 5302SOL     OW16804   6.771   4.377   3.284
 5302SOL    HW116805   6.682   4.394   3.326
 5302SOL    HW216806   6.810   4.465   3.255
 5303SOL     OW16807   6.897   4.891   3.561
 5303SOL    HW116808   6.969   4.857   3.621
 5303SOL    HW216809   6.809   4.851   3.588
 5304SOL     OW16810   4.966   1.919   5.910
 5304SOL    HW116811   4.984   1.841   5.970
 5304SOL    HW216812   4.891   1.897   5.847
 5305SOL     OW16813   2.150   0.913   3.797
 5305SOL    HW116814   2.233   0.934   3.746
 5305SOL    HW216815   2.124   0.991   3.854
 5306SOL     OW16816   2.771   6.596   5.970
 5306SOL    HW116817   2.742   6.649   5.890
 5306SOL    HW216818   2.842   6.532   5.943
 5307SOL     OW16819   4.573   6.748   5.949
 5307SOL    HW116820   4.625   6.833   5.953
 5307SOL    HW216821   4.575   6.703   6.039
 5308SOL     OW16822   6.864   0.827   3.310
 5308SOL    HW116823   6.940   0.885   3.282
 5308SOL    HW216824   6.798   0.882   3.361
 5309SOL     OW16825   3.810   4.059   4.085
 5309SOL    HW116826   3.854   4.107   4.009
 5309SOL    HW216827   3.711   4.063   4.074
 5310SOL     OW16828   5.390   2.228   1.319
 5310SOL    HW116829   5.346   2.317   1.306
 5310SOL    HW216830   5.483   2.242   1.353
 5311SOL     OW16831   2.332   5.337   6.829
 5311SOL    HW116832   2.276   5.386   6.762
 5311SOL    HW216833   2.401   5.398   6.866
 5312SOL     OW16834   0.922   3.983   3.029
 5312SOL    HW116835   0.950   4.055   3.093
 5312SOL    HW216836   0.971   3.993   2.943
 5313SOL     OW16837   1.371   5.738   6.354
 5313SOL    HW116838   1.292   5.686   6.386
 5313SOL    HW216839   1.409   5.791   6.429
 5314SOL     OW16840   4.197   5.295   6.699
 5314SOL    HW116841   4.297   5.284   6.696
 5314SOL    HW216842   4.159   5.272   6.610
 5315SOL     OW16843   5.672   3.534   1.779
 5315SOL    HW116844   5.647   3.631   1.785
 5315SOL    HW216845   5.758   3.519   1.828
 5316SOL     OW16846   7.004   4.798   4.606
 5316SOL    HW116847   6.930   4.731   4.610
 5316SOL    HW216848   0.033   4.785   4.522
 5317SOL     OW16849   5.212   0.378   2.260
 5317SOL    HW116850   5.272   0.453   2.285
 5317SOL    HW216851   5.178   0.333   2.343
 5318SOL     OW16852   7.013   2.607   4.580
 5318SOL    HW116853   7.023   2.671   4.657
 5318SOL    HW216854   0.002   2.656   4.494
 5319SOL     OW16855   5.159   0.207   0.292
 5319SOL    HW116856   5.133   0.113   0.314
 5319SOL    HW216857   5.209   0.210   0.206
 5320SOL     OW16858   5.481   3.708   6.588
 5320SOL    HW116859   5.493   3.614   6.619
 5320SOL    HW216860   5.386   3.723   6.561
 5321SOL     OW16861   1.732   5.741   5.619
 5321SOL    HW116862   1.683   5.763   5.535
 5321SOL    HW216863   1.769   5.649   5.613
 5322SOL     OW16864   3.792   5.574   6.236
 5322SOL    HW116865   3.754   5.576   6.328
 5322SOL    HW216866   3.722   5.545   6.171
 5323SOL     OW16867   4.282   1.809   0.522
 5323SOL    HW116868   4.285   1.902   0.485
 5323SOL    HW216869   4.320   1.745   0.456
 5324SOL     OW16870   4.243   2.892   1.387
 5324SOL    HW116871   4.174   2.915   1.455
 5324SOL    HW216872   4.228   2.945   1.304
 5325SOL     OW16873   5.030   6.350   1.964
 5325SOL    HW116874   5.122   6.311   1.968
 5325SOL    HW216875   5.023   6.423   2.032
 5326SOL     OW16876   6.568   5.698   1.661
 5326SOL    HW116877   6.470   5.714   1.651
 5326SOL    HW216878   6.599   5.735   1.749
 5327SOL     OW16879   6.751   6.628   4.468
 5327SOL    HW116880   6.802   6.628   4.554
 5327SOL    HW216881   6.744   6.721   4.433
 5328SOL     OW16882   3.830   3.813   0.099
 5328SOL    HW116883   3.800   3.728   0.143
 5328SOL    HW216884   3.833   3.887   0.167
 5329SOL     OW16885   0.630   4.680   0.799
 5329SOL    HW116886   0.567   4.602   0.798
 5329SOL    HW216887   0.723   4.648   0.820
 5330SOL     OW16888   3.769   3.988   1.416
 5330SOL    HW116889   3.758   3.893   1.447
 5330SOL    HW216890   3.734   4.050   1.486
 5331SOL     OW16891   4.282   2.510   0.467
 5331SOL    HW116892   4.229   2.578   0.416
 5331SOL    HW216893   4.268   2.523   0.565
 5332SOL     OW16894   5.992   4.903   0.446
 5332SOL    HW116895   6.049   4.938   0.372
 5332SOL    HW216896   6.044   4.834   0.498
 5333SOL     OW16897   1.556   0.989   3.528
 5333SOL    HW116898   1.621   0.918   3.500
 5333SOL    HW216899   1.501   0.954   3.604
 5334SOL     OW16900   4.506   4.758   3.244
 5334SOL    HW116901   4.451   4.748   3.161
 5334SOL    HW216902   4.466   4.830   3.302
 5335SOL     OW16903   7.002   5.046   1.216
 5335SOL    HW116904   0.050   5.009   1.275
 5335SOL    HW216905   0.009   5.044   1.121
 5336SOL     OW16906   1.843   2.236   4.226
 5336SOL    HW116907   1.873   2.259   4.319
 5336SOL    HW216908   1.759   2.182   4.230
 5337SOL     OW16909   0.001   4.408   1.194
 5337SOL    HW116910   6.952   4.342   1.210
 5337SOL    HW216911   6.985   4.498   1.175
 5338SOL     OW16912   6.549   3.422   0.371
 5338SOL    HW116913   6.546   3.503   0.312
 5338SOL    HW216914   6.576   3.449   0.464
 5339SOL     OW16915   6.155   2.484   2.696
 5339SOL    HW116916   6.135   2.386   2.699
 5339SOL    HW216917   6.199   2.512   2.781
 5340SOL     OW16918   5.652   2.973   2.736
 5340SOL    HW116919   5.729   3.021   2.778
 5340SOL    HW216920   5.646   2.997   2.639
 5341SOL     OW16921   4.497   5.152   3.647
 5341SOL    HW116922   4.563   5.177   3.718
 5341SOL    HW216923   4.530   5.185   3.558
 5342SOL     OW16924   5.900   0.362   5.015
 5342SOL    HW116925   5.897   0.430   5.089
 5342SOL    HW216926   5.828   0.294   5.029
 5343SOL     OW16927   4.038   3.560   5.407
 5343SOL    HW116928   4.055   3.655   5.432
 5343SOL    HW216929   4.060   3.546   5.311
 5344SOL     OW16930   0.421   1.943   6.309
 5344SOL    HW116931   0.353   1.962   6.380
 5344SOL    HW216932   0.384   1.968   6.219
 5345SOL     OW16933   5.069   1.438   6.918
 5345SOL    HW116934   5.127   1.507   6.961
 5345SOL    HW216935   5.001   1.483   6.860
 5346SOL     OW16936   2.615   5.405   4.014
 5346SOL    HW116937   2.554   5.472   3.971
 5346SOL    HW216938   2.563   5.322   4.034
 5347SOL     OW16939   6.447   2.017   4.004
 5347SOL    HW116940   6.487   1.966   3.927
 5347SOL    HW216941   6.464   1.968   4.089
 5348SOL     OW16942   5.422   2.574   4.075
 5348SOL    HW116943   5.485   2.570   3.998
 5348SOL    HW216944   5.332   2.540   4.047
 5349SOL     OW16945   0.720   3.038   1.972
 5349SOL    HW116946   0.630   3.021   2.013
 5349SOL    HW216947   0.782   2.964   1.998
 5350SOL     OW16948   2.620   6.724   5.715
 5350SOL    HW116949   2.532   6.747   5.755
 5350SOL    HW216950   2.683   6.801   5.727
 5351SOL     OW16951   0.634   5.613   1.656
 5351SOL    HW116952   0.725   5.578   1.635
 5351SOL    HW216953   0.597   5.566   1.736
 5352SOL     OW16954   1.928   4.068   4.077
 5352SOL    HW116955   1.910   4.070   4.176
 5352SOL    HW216956   1.842   4.056   4.028
 5353SOL     OW16957   4.729   5.572   3.307
 5353SOL    HW116958   4.704   5.530   3.394
 5353SOL    HW216959   4.677   5.657   3.295
 5354SOL     OW16960   4.081   5.640   0.612
 5354SOL    HW116961   4.131   5.576   0.670
 5354SOL    HW216962   4.097   5.733   0.643
 5355SOL     OW16963   5.036   4.794   5.265
 5355SOL    HW116964   5.126   4.823   5.233
 5355SOL    HW216965   5.023   4.697   5.244
 5356SOL     OW16966   0.329   4.956   1.085
 5356SOL    HW116967   0.239   4.976   1.047
 5356SOL    HW216968   0.322   4.880   1.150
 5357SOL     OW16969   4.963   5.148   2.291
 5357SOL    HW116970   4.892   5.078   2.301
 5357SOL    HW216971   4.922   5.232   2.255
 5358SOL     OW16972   4.351   1.230   0.432
 5358SOL    HW116973   4.265   1.202   0.388
 5358SOL    HW216974   4.426   1.220   0.367
 5359SOL     OW16975   1.701   2.123   6.599
 5359SOL    HW116976   1.773   2.142   6.533
 5359SOL    HW216977   1.741   2.112   6.690
 5360SOL     OW16978   5.487   4.465   3.247
 5360SOL    HW116979   5.402   4.430   3.207
 5360SOL    HW216980   5.476   4.476   3.346
 5361SOL     OW16981   3.244   5.977   2.785
 5361SOL    HW116982   3.217   5.883   2.766
 5361SOL    HW216983   3.336   5.979   2.824
 5362SOL     OW16984   5.736   0.220   1.871
 5362SOL    HW116985   5.698   0.281   1.802
 5362SOL    HW216986   5.663   0.164   1.910
 5363SOL     OW16987   5.562   5.166   4.937
 5363SOL    HW116988   5.610   5.143   4.853
 5363SOL    HW216989   5.524   5.083   4.977
 5364SOL     OW16990   4.635   0.966   2.273
 5364SOL    HW116991   4.633   0.867   2.288
 5364SOL    HW216992   4.562   1.008   2.326
 5365SOL     OW16993   3.198   3.009   4.045
 5365SOL    HW116994   3.219   3.092   3.993
 5365SOL    HW216995   3.277   2.984   4.101
 5366SOL     OW16996   6.278   6.441   1.707
 5366SOL    HW116997   6.222   6.376   1.656
 5366SOL    HW216998   6.338   6.491   1.645
 5367SOL     OW16999   6.947   6.387   1.543
 5367SOL    HW117000   6.858   6.414   1.580
 5367SOL    HW217001   7.009   6.364   1.619
 5368SOL     OW17002   6.585   5.871   3.778
 5368SOL    HW117003   6.519   5.889   3.706
 5368SOL    HW217004   6.645   5.950   3.790
 5369SOL     OW17005   2.757   5.784   1.851
 5369SOL    HW117006   2.663   5.809   1.829
 5369SOL    HW217007   2.820   5.828   1.787
 5370SOL     OW17008   3.015   3.818   1.359
 5370SOL    HW117009   2.977   3.900   1.316
 5370SOL    HW217010   2.952   3.786   1.430
 5371SOL     OW17011   6.583   5.268   5.185
 5371SOL    HW117012   6.682   5.283   5.181
 5371SOL    HW217013   6.559   5.233   5.275
 5372SOL     OW17014   0.894   0.123   2.294
 5372SOL    HW117015   0.809   0.075   2.315
 5372SOL    HW217016   0.872   0.210   2.249
 5373SOL     OW17017   3.667   0.505   6.087
 5373SOL    HW117018   3.754   0.527   6.131
 5373SOL    HW217019   3.667   0.410   6.058
 5374SOL     OW17020   3.173   5.137   1.489
 5374SOL    HW117021   3.268   5.106   1.496
 5374SOL    HW217022   3.170   5.237   1.499
 5375SOL     OW17023   0.478   6.083   4.575
 5375SOL    HW117024   0.439   6.023   4.505
 5375SOL    HW217025   0.576   6.093   4.559
 5376SOL     OW17026   0.632   1.725   6.978
 5376SOL    HW117027   0.558   1.788   6.955
 5376SOL    HW217028   0.595   1.643   7.021
 5377SOL     OW17029   2.264   0.467   3.544
 5377SOL    HW117030   2.297   0.480   3.450
 5377SOL    HW217031   2.195   0.395   3.545
 5378SOL     OW17032   5.524   0.814   1.824
 5378SOL    HW117033   5.551   0.896   1.874
 5378SOL    HW217034   5.433   0.785   1.852
 5379SOL     OW17035   0.856   3.170   6.353
 5379SOL    HW117036   0.857   3.104   6.428
 5379SOL    HW217037   0.764   3.207   6.343
 5380SOL     OW17038   4.823   0.183   1.204
 5380SOL    HW117039   4.818   0.105   1.266
 5380SOL    HW217040   4.839   0.150   1.111
 5381SOL     OW17041   4.558   6.291   2.896
 5381SOL    HW117042   4.480   6.228   2.888
 5381SOL    HW217043   4.586   6.321   2.805
 5382SOL     OW17044   3.810   1.841   1.713
 5382SOL    HW117045   3.737   1.905   1.739
 5382SOL    HW217046   3.833   1.783   1.790
 5383SOL     OW17047   2.218   3.051   4.382
 5383SOL    HW117048   2.256   3.106   4.456
 5383SOL    HW217049   2.190   2.962   4.417
 5384SOL     OW17050   4.510   6.315   5.524
 5384SOL    HW117051   4.595   6.346   5.567
 5384SOL    HW217052   4.498   6.217   5.539
 5385SOL     OW17053   5.390   2.544   5.534
 5385SOL    HW117054   5.309   2.590   5.496
 5385SOL    HW217055   5.379   2.536   5.633
 5386SOL     OW17056   6.829   3.579   4.156
 5386SOL    HW117057   6.770   3.653   4.120
 5386SOL    HW217058   6.917   3.618   4.182
 5387SOL     OW17059   1.984   1.539   2.528
 5387SOL    HW117060   1.909   1.537   2.462
 5387SOL    HW217061   1.977   1.460   2.589
 5388SOL     OW17062   0.667   6.936   2.754
 5388SOL    HW117063   0.723   7.019   2.743
 5388SOL    HW217064   0.714   6.858   2.713
 5389SOL     OW17065   4.330   1.781   4.226
 5389SOL    HW117066   4.291   1.785   4.318
 5389SOL    HW217067   4.270   1.828   4.161
 5390SOL     OW17068   6.659   3.131   3.599
 5390SOL    HW117069   6.624   3.043   3.566
 5390SOL    HW217070   6.671   3.193   3.521
 5391SOL     OW17071   2.422   2.475   0.301
 5391SOL    HW117072   2.440   2.538   0.225
 5391SOL    HW217073   2.419   2.382   0.266
 5392SOL     OW17074   5.394   1.939   3.478
 5392SOL    HW117075   5.318   1.964   3.417
 5392SOL    HW217076   5.467   1.896   3.426
 5393SOL     OW17077   3.703   1.853   5.541
 5393SOL    HW117078   3.680   1.760   5.570
 5393SOL    HW217079   3.689   1.916   5.618
 5394SOL     OW17080   1.859   0.368   0.962
 5394SOL    HW117081   1.863   0.302   0.887
 5394SOL    HW217082   1.913   0.449   0.938
 5395SOL     OW17083   5.341   2.157   1.046
 5395SOL    HW117084   5.357   2.190   1.139
 5395SOL    HW217085   5.393   2.073   1.032
 5396SOL     OW17086   5.850   5.156   3.397
 5396SOL    HW117087   5.947   5.158   3.370
 5396SOL    HW217088   5.839   5.100   3.479
 5397SOL     OW17089   6.275   1.231   3.128
 5397SOL    HW117090   6.296   1.165   3.056
 5397SOL    HW217091   6.180   1.260   3.121
 5398SOL     OW17092   4.893   2.039   3.248
 5398SOL    HW117093   4.826   1.985   3.299
 5398SOL    HW217094   4.845   2.098   3.183
 5399SOL     OW17095   2.609   0.124   5.645
 5399SOL    HW117096   2.577   0.213   5.678
 5399SOL    HW217097   2.572   0.051   5.703
 5400SOL     OW17098   3.486   3.280   1.430
 5400SOL    HW117099   3.532   3.306   1.515
 5400SOL    HW217100   3.404   3.335   1.417
 5401SOL     OW17101   5.996   4.366   1.604
 5401SOL    HW117102   5.920   4.303   1.593
 5401SOL    HW217103   5.962   4.460   1.601
 5402SOL     OW17104   1.744   0.044   1.019
 5402SOL    HW117105   1.804   0.028   1.098
 5402SOL    HW217106   1.794   0.095   0.949
 5403SOL     OW17107   5.123   3.425   0.562
 5403SOL    HW117108   5.106   3.516   0.525
 5403SOL    HW217109   5.137   3.432   0.661
 5404SOL     OW17110   6.169   1.115   1.132
 5404SOL    HW117111   6.121   1.202   1.148
 5404SOL    HW217112   6.184   1.069   1.220
 5405SOL     OW17113   4.911   5.955   6.911
 5405SOL    HW117114   4.999   5.988   6.944
 5405SOL    HW217115   4.924   5.901   6.828
 5406SOL     OW17116   2.896   0.313   4.043
 5406SOL    HW117117   2.937   0.293   4.132
 5406SOL    HW217118   2.941   0.258   3.972
 5407SOL     OW17119   1.616   0.481   1.850
 5407SOL    HW117120   1.666   0.543   1.910
 5407SOL    HW217121   1.618   0.516   1.757
 5408SOL     OW17122   2.577   2.396   4.531
 5408SOL    HW117123   2.615   2.436   4.615
 5408SOL    HW217124   2.533   2.309   4.553
 5409SOL     OW17125   1.575   2.469   1.141
 5409SOL    HW117126   1.489   2.425   1.115
 5409SOL    HW217127   1.558   2.566   1.158
 5410SOL     OW17128   0.874   2.539   0.889
 5410SOL    HW117129   0.835   2.481   0.817
 5410SOL    HW217130   0.805   2.603   0.921
 5411SOL     OW17131   3.737   4.838   6.706
 5411SOL    HW117132   3.780   4.900   6.641
 5411SOL    HW217133   3.717   4.751   6.661
 5412SOL     OW17134   0.374   2.300   6.011
 5412SOL    HW117135   0.335   2.287   5.920
 5412SOL    HW217136   0.303   2.330   6.074
 5413SOL     OW17137   6.847   6.979   4.548
 5413SOL    HW117138   6.904   0.032   4.523
 5413SOL    HW217139   6.786   6.956   4.471
 5414SOL     OW17140   6.350   4.048   5.331
 5414SOL    HW117141   6.405   4.042   5.415
 5414SOL    HW217142   6.323   3.957   5.302
 5415SOL     OW17143   3.342   0.318   0.661
 5415SOL    HW117144   3.291   0.374   0.597
 5415SOL    HW217145   3.419   0.274   0.614
 5416SOL     OW17146   3.244   5.209   5.826
 5416SOL    HW117147   3.295   5.259   5.896
 5416SOL    HW217148   3.287   5.120   5.811
 5417SOL     OW17149   4.495   6.112   3.612
 5417SOL    HW117150   4.427   6.165   3.561
 5417SOL    HW217151   4.550   6.173   3.668
 5418SOL     OW17152   6.279   3.882   4.696
 5418SOL    HW117153   6.325   3.934   4.624
 5418SOL    HW217154   6.223   3.944   4.751
 5419SOL     OW17155   4.268   0.126   6.366
 5419SOL    HW117156   4.213   0.108   6.448
 5419SOL    HW217157   4.294   0.223   6.364
 5420SOL     OW17158   0.892   0.995   1.643
 5420SOL    HW117159   0.936   0.980   1.732
 5420SOL    HW217160   0.875   0.907   1.599
 5421SOL     OW17161   3.806   5.451   2.370
 5421SOL    HW117162   3.866   5.390   2.317
 5421SOL    HW217163   3.711   5.426   2.354
 5422SOL     OW17164   2.500   6.527   3.974
 5422SOL    HW117165   2.533   6.557   4.063
 5422SOL    HW217166   2.512   6.428   3.966
 5423SOL     OW17167   6.363   6.426   2.216
 5423SOL    HW117168   6.340   6.433   2.119
 5423SOL    HW217169   6.299   6.365   2.262
 5424SOL     OW17170   4.447   4.220   5.551
 5424SOL    HW117171   4.363   4.236   5.499
 5424SOL    HW217172   4.450   4.124   5.581
 5425SOL     OW17173   0.296   3.613   5.971
 5425SOL    HW117174   0.334   3.644   6.058
 5425SOL    HW217175   0.202   3.646   5.962
 5426SOL     OW17176   5.648   5.222   2.483
 5426SOL    HW117177   5.611   5.155   2.419
 5426SOL    HW217178   5.700   5.291   2.432
 5427SOL     OW17179   4.774   2.296   6.536
 5427SOL    HW117180   4.821   2.350   6.605
 5427SOL    HW217181   4.812   2.203   6.535
 5428SOL     OW17182   0.243   5.619   2.971
 5428SOL    HW117183   0.319   5.560   2.997
 5428SOL    HW217184   0.187   5.573   2.902
 5429SOL     OW17185   2.882   0.262   3.743
 5429SOL    HW117186   2.814   0.190   3.757
 5429SOL    HW217187   2.963   0.242   3.799
 5430SOL     OW17188   2.535   3.776   6.189
 5430SOL    HW117189   2.539   3.709   6.114
 5430SOL    HW217190   2.446   3.771   6.234
 5431SOL     OW17191   3.464   5.210   6.040
 5431SOL    HW117192   3.439   5.147   6.113
 5431SOL    HW217193   3.563   5.210   6.030
 5432SOL     OW17194   5.405   5.024   0.322
 5432SOL    HW117195   5.432   5.010   0.418
 5432SOL    HW217196   5.472   4.979   0.262
 5433SOL     OW17197   1.517   6.909   1.048
 5433SOL    HW117198   1.617   6.906   1.050
 5433SOL    HW217199   1.484   6.859   0.968
 5434SOL     OW17200   5.156   0.641   4.329
 5434SOL    HW117201   5.194   0.661   4.419
 5434SOL    HW217202   5.188   0.551   4.298
 5435SOL     OW17203   6.827   3.997   1.047
 5435SOL    HW117204   6.754   3.935   1.020
 5435SOL    HW217205   6.857   4.050   0.968
 5436SOL     OW17206   1.288   4.287   2.598
 5436SOL    HW117207   1.198   4.330   2.589
 5436SOL    HW217208   1.359   4.350   2.568
 5437SOL     OW17209   3.692   5.965   0.624
 5437SOL    HW117210   3.615   5.905   0.645
 5437SOL    HW217211   3.739   5.932   0.543
 5438SOL     OW17212   4.827   4.708   2.848
 5438SOL    HW117213   4.745   4.765   2.849
 5438SOL    HW217214   4.802   4.612   2.853
 5439SOL     OW17215   1.174   4.703   1.446
 5439SOL    HW117216   1.098   4.756   1.410
 5439SOL    HW217217   1.253   4.713   1.385
 5440SOL     OW17218   5.807   5.741   3.643
 5440SOL    HW117219   5.729   5.681   3.665
 5440SOL    HW217220   5.773   5.825   3.601
 5441SOL     OW17221   4.665   2.209   3.640
 5441SOL    HW117222   4.615   2.194   3.555
 5441SOL    HW217223   4.603   2.249   3.708
 5442SOL     OW17224   5.107   0.029   4.942
 5442SOL    HW117225   5.030   0.086   4.915
 5442SOL    HW217226   5.088   6.957   4.919
 5443SOL     OW17227   4.628   0.259   4.437
 5443SOL    HW117228   4.640   0.295   4.530
 5443SOL    HW217229   4.541   0.291   4.400
 5444SOL     OW17230   6.847   0.666   4.659
 5444SOL    HW117231   6.829   0.762   4.681
 5444SOL    HW217232   6.855   0.656   4.560
 5445SOL     OW17233   5.192   5.352   5.327
 5445SOL    HW117234   5.183   5.440   5.374
 5445SOL    HW217235   5.145   5.356   5.239
 5446SOL     OW17236   0.741   4.446   5.814
 5446SOL    HW117237   0.702   4.469   5.725
 5446SOL    HW217238   0.724   4.350   5.834
 5447SOL     OW17239   1.107   1.320   0.369
 5447SOL    HW117240   1.043   1.301   0.294
 5447SOL    HW217241   1.189   1.363   0.332
 5448SOL     OW17242   4.664   5.396   3.099
 5448SOL    HW117243   4.723   5.462   3.145
 5448SOL    HW217244   4.570   5.407   3.132
 5449SOL     OW17245   3.042   1.849   2.048
 5449SOL    HW117246   3.086   1.833   1.959
 5449SOL    HW217247   3.112   1.858   2.118
 5450SOL     OW17248   4.021   5.552   1.666
 5450SOL    HW117249   4.108   5.510   1.693
 5450SOL    HW217250   4.026   5.578   1.569
 5451SOL     OW17251   0.930   0.198   3.475
 5451SOL    HW117252   0.947   0.224   3.570
 5451SOL    HW217253   1.013   0.214   3.421
 5452SOL     OW17254   2.081   4.830   1.810
 5452SOL    HW117255   1.990   4.866   1.831
 5452SOL    HW217256   2.126   4.889   1.743
 5453SOL     OW17257   5.871   4.476   3.160
 5453SOL    HW117258   5.820   4.441   3.239
 5453SOL    HW217259   5.808   4.488   3.083
 5454SOL     OW17260   5.839   5.004   3.629
 5454SOL    HW117261   5.886   5.066   3.691
 5454SOL    HW217262   5.759   4.965   3.674
 5455SOL     OW17263   0.413   1.559   2.835
 5455SOL    HW117264   0.416   1.593   2.741
 5455SOL    HW217265   0.485   1.491   2.848
 5456SOL     OW17266   5.607   0.889   0.057
 5456SOL    HW117267   5.529   0.899   0.120
 5456SOL    HW217268   5.614   0.970   7.023
 5457SOL     OW17269   6.121   2.377   0.211
 5457SOL    HW117270   6.213   2.385   0.250
 5457SOL    HW217271   6.061   2.331   0.277
 5458SOL     OW17272   6.469   4.819   0.670
 5458SOL    HW117273   6.405   4.888   0.703
 5458SOL    HW217274   6.554   4.864   0.641
 5459SOL     OW17275   1.823   4.154   5.673
 5459SOL    HW117276   1.828   4.130   5.576
 5459SOL    HW217277   1.874   4.238   5.690
 5460SOL     OW17278   2.031   0.069   0.129
 5460SOL    HW117279   1.974   0.027   0.199
 5460SOL    HW217280   2.030   0.169   0.141
 5461SOL     OW17281   6.800   1.356   6.439
 5461SOL    HW117282   6.775   1.416   6.364
 5461SOL    HW217283   6.809   1.262   6.406
 5462SOL     OW17284   5.581   5.445   6.741
 5462SOL    HW117285   5.556   5.350   6.760
 5462SOL    HW217286   5.533   5.476   6.658
 5463SOL     OW17287   7.016   2.824   0.276
 5463SOL    HW117288   6.953   2.895   0.309
 5463SOL    HW217289   0.025   2.850   0.185
 5464SOL     OW17290   6.757   6.510   5.521
 5464SOL    HW117291   6.812   6.578   5.472
 5464SOL    HW217292   6.797   6.419   5.508
 5465SOL     OW17293   6.721   6.594   3.572
 5465SOL    HW117294   6.732   6.509   3.520
 5465SOL    HW217295   6.808   6.642   3.574
 5466SOL     OW17296   5.779   2.844   5.357
 5466SOL    HW117297   5.750   2.916   5.421
 5466SOL    HW217298   5.710   2.771   5.357
 5467SOL     OW17299   5.551   3.802   3.481
 5467SOL    HW117300   5.561   3.777   3.384
 5467SOL    HW217301   5.497   3.886   3.488
 5468SOL     OW17302   6.936   1.401   2.187
 5468SOL    HW117303   6.879   1.401   2.270
 5468SOL    HW217304   6.942   1.495   2.151
 5469SOL     OW17305   2.285   1.125   5.391
 5469SOL    HW117306   2.326   1.095   5.305
 5469SOL    HW217307   2.321   1.215   5.415
 5470SOL     OW17308   3.852   5.309   4.097
 5470SOL    HW117309   3.925   5.309   4.166
 5470SOL    HW217310   3.767   5.276   4.139
 5471SOL     OW17311   4.764   0.176   2.711
 5471SOL    HW117312   4.731   0.269   2.694
 5471SOL    HW217313   4.692   0.123   2.756
 5472SOL     OW17314   2.863   1.487   6.175
 5472SOL    HW117315   2.807   1.473   6.094
 5472SOL    HW217316   2.903   1.400   6.203
 5473SOL     OW17317   2.647   4.261   1.598
 5473SOL    HW117318   2.583   4.237   1.672
 5473SOL    HW217319   2.605   4.240   1.510
 5474SOL     OW17320   0.689   5.451   3.774
 5474SOL    HW117321   0.738   5.393   3.710
 5474SOL    HW217322   0.590   5.439   3.761
 5475SOL     OW17323   0.021   1.931   6.458
 5475SOL    HW117324   6.987   2.010   6.478
 5475SOL    HW217325   0.114   1.949   6.492
 5476SOL     OW17326   2.552   6.271   6.120
 5476SOL    HW117327   2.458   6.279   6.153
 5476SOL    HW217328   2.553   6.284   6.021
 5477SOL     OW17329   2.232   5.631   4.363
 5477SOL    HW117330   2.169   5.625   4.287
 5477SOL    HW217331   2.212   5.713   4.417
 5478SOL     OW17332   5.656   4.804   6.523
 5478SOL    HW117333   5.599   4.885   6.538
 5478SOL    HW217334   5.638   4.768   6.431
 5479SOL     OW17335   4.220   2.027   4.645
 5479SOL    HW117336   4.265   2.068   4.565
 5479SOL    HW217337   4.164   2.097   4.690
 5480SOL     OW17338   6.282   4.492   4.835
 5480SOL    HW117339   6.319   4.581   4.807
 5480SOL    HW217340   6.183   4.492   4.823
 5481SOL     OW17341   4.549   1.104   6.284
 5481SOL    HW117342   4.532   1.126   6.380
 5481SOL    HW217343   4.590   1.013   6.278
 5482SOL     OW17344   4.067   3.157   1.704
 5482SOL    HW117345   4.005   3.209   1.645
 5482SOL    HW217346   4.134   3.218   1.745
 5483SOL     OW17347   6.958   3.576   6.150
 5483SOL    HW117348   6.962   3.673   6.173
 5483SOL    HW217349   6.899   3.528   6.215
 5484SOL     OW17350   6.958   6.543   4.285
 5484SOL    HW117351   6.861   6.550   4.309
 5484SOL    HW217352   6.972   6.465   4.225
 5485SOL     OW17353   3.964   6.982   4.891
 5485SOL    HW117354   4.010   6.936   4.968
 5485SOL    HW217355   3.889   6.925   4.858
 5486SOL     OW17356   1.049   0.581   3.178
 5486SOL    HW117357   0.988   0.526   3.121
 5486SOL    HW217358   1.143   0.574   3.143
 5487SOL     OW17359   6.303   4.567   0.308
 5487SOL    HW117360   6.312   4.545   0.406
 5487SOL    HW217361   6.206   4.576   0.285
 5488SOL     OW17362   5.206   2.202   6.906
 5488SOL    HW117363   5.239   2.113   6.936
 5488SOL    HW217364   5.251   2.274   6.958
 5489SOL     OW17365   1.706   4.575   2.449
 5489SOL    HW117366   1.780   4.569   2.383
 5489SOL    HW217367   1.699   4.489   2.499
 5490SOL     OW17368   3.292   1.054   6.932
 5490SOL    HW117369   3.384   1.031   6.899
 5490SOL    HW217370   3.270   0.999   7.012
 5491SOL     OW17371   1.817   4.638   0.496
 5491SOL    HW117372   1.867   4.551   0.492
 5491SOL    HW217373   1.882   4.712   0.514
 5492SOL     OW17374   0.759   2.295   6.970
 5492SOL    HW117375   0.800   2.382   6.997
 5492SOL    HW217376   0.673   2.312   6.923
 5493SOL     OW17377   3.781   3.340   5.747
 5493SOL    HW117378   3.716   3.406   5.784
 5493SOL    HW217379   3.742   3.248   5.753
 5494SOL     OW17380   6.565   3.487   1.813
 5494SOL    HW117381   6.540   3.391   1.807
 5494SOL    HW217382   6.659   3.496   1.848
 5495SOL     OW17383   3.822   4.000   2.008
 5495SOL    HW117384   3.893   3.997   1.939
 5495SOL    HW217385   3.862   4.025   2.096
 5496SOL     OW17386   3.786   6.331   1.970
 5496SOL    HW117387   3.746   6.360   1.883
 5496SOL    HW217388   3.802   6.411   2.028
 5497SOL     OW17389   0.240   1.256   3.003
 5497SOL    HW117390   0.333   1.269   3.037
 5497SOL    HW217391   0.218   1.328   2.937
 5498SOL     OW17392   4.859   1.256   5.982
 5498SOL    HW117393   4.825   1.296   5.896
 5498SOL    HW217394   4.821   1.306   6.059
 5499SOL     OW17395   6.724   1.387   3.441
 5499SOL    HW117396   6.724   1.292   3.470
 5499SOL    HW217397   6.783   1.398   3.361
 5500SOL     OW17398   2.473   5.055   0.920
 5500SOL    HW117399   2.552   5.013   0.964
 5500SOL    HW217400   2.406   4.984   0.897
 5501SOL     OW17401   2.498   7.017   1.939
 5501SOL    HW117402   2.445   0.074   1.964
 5501SOL    HW217403   2.455   6.973   1.861
 5502SOL     OW17404   5.910   4.132   5.730
 5502SOL    HW117405   5.848   4.055   5.741
 5502SOL    HW217406   5.977   4.132   5.804
 5503SOL     OW17407   1.000   4.832   3.479
 5503SOL    HW117408   0.940   4.902   3.440
 5503SOL    HW217409   0.978   4.819   3.576
 5504SOL     OW17410   3.361   1.410   5.219
 5504SOL    HW117411   3.399   1.369   5.302
 5504SOL    HW217412   3.283   1.357   5.188
 5505SOL     OW17413   2.526   5.720   5.192
 5505SOL    HW117414   2.434   5.683   5.198
 5505SOL    HW217415   2.593   5.648   5.210
 5506SOL     OW17416   6.719   0.818   4.986
 5506SOL    HW117417   6.751   0.739   5.039
 5506SOL    HW217418   6.619   0.815   4.980
 5507SOL     OW17419   2.296   6.876   3.243
 5507SOL    HW117420   2.214   6.841   3.197
 5507SOL    HW217421   2.322   6.813   3.316
 5508SOL     OW17422   2.231   0.632   6.166
 5508SOL    HW117423   2.281   0.717   6.177
 5508SOL    HW217424   2.176   0.636   6.082
 5509SOL     OW17425   5.856   6.415   0.396
 5509SOL    HW117426   5.880   6.476   0.320
 5509SOL    HW217427   5.762   6.433   0.425
 5510SOL     OW17428   4.654   0.142   6.177
 5510SOL    HW117429   4.647   0.164   6.080
 5510SOL    HW217430   4.680   0.224   6.228
 5511SOL     OW17431   0.509   0.476   2.548
 5511SOL    HW117432   0.510   0.529   2.633
 5511SOL    HW217433   0.576   0.515   2.484
 5512SOL     OW17434   6.547   1.993   0.425
 5512SOL    HW117435   6.502   1.909   0.394
 5512SOL    HW217436   6.478   2.064   0.439
 5513SOL     OW17437   4.440   4.533   4.556
 5513SOL    HW117438   4.539   4.539   4.546
 5513SOL    HW217439   4.409   4.596   4.628
 5514SOL     OW17440   5.889   4.866   3.054
 5514SOL    HW117441   5.962   4.930   3.081
 5514SOL    HW217442   5.810   4.878   3.114
 5515SOL     OW17443   6.717   2.670   2.303
 5515SOL    HW117444   6.691   2.581   2.267
 5515SOL    HW217445   6.647   2.738   2.279
 5516SOL     OW17446   1.591   2.630   7.020
 5516SOL    HW117447   1.571   2.575   0.077
 5516SOL    HW217448   1.671   2.687   0.014
 5517SOL     OW17449   3.113   2.207   1.245
 5517SOL    HW117450   3.073   2.146   1.314
 5517SOL    HW217451   3.084   2.301   1.263
 5518SOL     OW17452   5.269   4.888   6.447
 5518SOL    HW117453   5.324   4.929   6.520
 5518SOL    HW217454   5.248   4.958   6.379
 5519SOL     OW17455   5.314   3.836   2.920
 5519SOL    HW117456   5.220   3.847   2.950
 5519SOL    HW217457   5.328   3.743   2.886
 5520SOL     OW17458   1.498   4.066   2.856
 5520SOL    HW117459   1.482   4.066   2.757
 5520SOL    HW217460   1.421   4.110   2.902
 5521SOL     OW17461   4.925   6.313   1.728
 5521SOL    HW117462   4.861   6.237   1.737
 5521SOL    HW217463   4.968   6.331   1.817
 5522SOL     OW17464   2.755   3.535   1.609
 5522SOL    HW117465   2.753   3.491   1.520
 5522SOL    HW217466   2.667   3.578   1.628
 5523SOL     OW17467   3.432   6.915   2.949
 5523SOL    HW117468   3.380   6.905   3.034
 5523SOL    HW217469   3.371   6.898   2.871
 5524SOL     OW17470   0.663   5.703   4.859
 5524SOL    HW117471   0.736   5.654   4.905
 5524SOL    HW217472   0.626   5.647   4.785
 5525SOL     OW17473   6.864   4.975   6.901
 5525SOL    HW117474   6.831   5.011   6.988
 5525SOL    HW217475   6.961   4.953   6.909
 5526SOL     OW17476   6.426   3.546   3.600
 5526SOL    HW117477   6.360   3.476   3.570
 5526SOL    HW217478   6.377   3.622   3.643
 5527SOL     OW17479   0.626   2.631   1.794
 5527SOL    HW117480   0.662   2.643   1.702
 5527SOL    HW217481   0.645   2.713   1.849
 5528SOL     OW17482   6.929   2.701   5.232
 5528SOL    HW117483   0.002   2.678   5.231
 5528SOL    HW217484   6.875   2.618   5.241
 5529SOL     OW17485   2.480   0.583   4.673
 5529SOL    HW117486   2.534   0.615   4.595
 5529SOL    HW217487   2.433   0.660   4.716
 5530SOL     OW17488   0.117   2.657   0.992
 5530SOL    HW117489   0.044   2.590   0.981
 5530SOL    HW217490   0.144   2.662   1.088
 5531SOL     OW17491   3.990   3.303   4.566
 5531SOL    HW117492   3.919   3.286   4.499
 5531SOL    HW217493   4.003   3.222   4.622
 5532SOL     OW17494   1.558   0.786   0.454
 5532SOL    HW117495   1.648   0.795   0.413
 5532SOL    HW217496   1.488   0.801   0.384
 5533SOL     OW17497   2.653   0.871   3.313
 5533SOL    HW117498   2.614   0.944   3.369
 5533SOL    HW217499   2.746   0.896   3.286
 5534SOL     OW17500   1.324   3.036   6.741
 5534SOL    HW117501   1.395   3.093   6.781
 5534SOL    HW217502   1.328   2.945   6.782
 5535SOL     OW17503   6.762   3.079   3.146
 5535SOL    HW117504   6.816   3.033   3.218
 5535SOL    HW217505   6.778   3.177   3.151
 5536SOL     OW17506   2.341   0.571   4.324
 5536SOL    HW117507   2.343   0.670   4.339
 5536SOL    HW217508   2.309   0.525   4.406
 5537SOL     OW17509   3.573   0.011   4.760
 5537SOL    HW117510   3.504   0.080   4.783
 5537SOL    HW217511   3.545   6.946   4.796
 5538SOL     OW17512   4.007   0.551   5.593
 5538SOL    HW117513   3.965   0.529   5.505
 5538SOL    HW217514   4.044   0.467   5.634
 5539SOL     OW17515   0.559   1.588   2.081
 5539SOL    HW117516   0.462   1.614   2.075
 5539SOL    HW217517   0.578   1.549   2.170
 5540SOL     OW17518   5.127   2.971   1.334
 5540SOL    HW117519   5.153   3.067   1.330
 5540SOL    HW217520   5.209   2.914   1.333
 5541SOL     OW17521   5.222   3.162   5.634
 5541SOL    HW117522   5.213   3.113   5.547
 5541SOL    HW217523   5.166   3.117   5.703
 5542SOL     OW17524   5.614   5.218   6.459
 5542SOL    HW117525   5.564   5.300   6.435
 5542SOL    HW217526   5.688   5.203   6.393
 5543SOL     OW17527   2.486   5.539   6.894
 5543SOL    HW117528   2.437   5.622   6.922
 5543SOL    HW217529   2.584   5.559   6.889
 5544SOL     OW17530   5.506   5.208   6.118
 5544SOL    HW117531   5.487   5.232   6.023
 5544SOL    HW217532   5.495   5.109   6.130
 5545SOL     OW17533   4.140   1.125   2.639
 5545SOL    HW117534   4.207   1.189   2.601
 5545SOL    HW217535   4.066   1.111   2.573
 5546SOL     OW17536   1.022   6.548   4.522
 5546SOL    HW117537   1.018   6.458   4.565
 5546SOL    HW217538   1.057   6.615   4.588
 5547SOL     OW17539   4.129   1.564   5.857
 5547SOL    HW117540   4.048   1.543   5.801
 5547SOL    HW217541   4.121   1.658   5.892
 5548SOL     OW17542   6.538   4.427   6.044
 5548SOL    HW117543   6.464   4.406   6.108
 5548SOL    HW217544   6.578   4.516   6.067
 5549SOL     OW17545   3.898   3.144   1.223
 5549SOL    HW117546   3.847   3.223   1.257
 5549SOL    HW217547   3.865   3.061   1.269
 5550SOL     OW17548   2.466   4.535   3.314
 5550SOL    HW117549   2.555   4.557   3.355
 5550SOL    HW217550   2.477   4.525   3.215
 5551SOL     OW17551   1.701   6.273   2.595
 5551SOL    HW117552   1.631   6.204   2.612
 5551SOL    HW217553   1.659   6.353   2.553
 5552SOL     OW17554   6.229   0.134   6.028
 5552SOL    HW117555   6.149   0.121   5.970
 5552SOL    HW217556   6.201   0.125   6.124
 5553SOL     OW17557   4.504   6.909   6.855
 5553SOL    HW117558   4.519   6.922   6.953
 5553SOL    HW217559   4.575   6.957   6.804
 5554SOL     OW17560   4.738   3.323   1.801
 5554SOL    HW117561   4.709   3.355   1.710
 5554SOL    HW217562   4.679   3.247   1.829
 5555SOL     OW17563   0.989   3.502   2.338
 5555SOL    HW117564   0.967   3.465   2.428
 5555SOL    HW217565   1.055   3.576   2.347
 5556SOL     OW17566   6.193   0.912   3.811
 5556SOL    HW117567   6.142   0.969   3.747
 5556SOL    HW217568   6.171   0.816   3.795
 5557SOL     OW17569   4.232   5.433   1.773
 5557SOL    HW117570   4.265   5.339   1.776
 5557SOL    HW217571   4.153   5.443   1.833
 5558SOL     OW17572   3.754   3.612   0.266
 5558SOL    HW117573   3.780   3.520   0.234
 5558SOL    HW217574   3.798   3.630   0.353
 5559SOL     OW17575   1.120   0.295   2.067
 5559SOL    HW117576   1.122   0.249   1.978
 5559SOL    HW217577   1.207   0.343   2.081
 5560SOL     OW17578   0.024   5.473   1.341
 5560SOL    HW117579   0.077   5.423   1.273
 5560SOL    HW217580   6.970   5.416   1.370
 5561SOL     OW17581   2.827   0.614   4.802
 5561SOL    HW117582   2.735   0.632   4.838
 5561SOL    HW217583   2.883   0.696   4.811
 5562SOL     OW17584   4.222   3.676   0.617
 5562SOL    HW117585   4.136   3.728   0.620
 5562SOL    HW217586   4.246   3.658   0.521
 5563SOL     OW17587   2.969   5.220   2.813
 5563SOL    HW117588   2.874   5.239   2.838
 5563SOL    HW217589   3.022   5.203   2.896
 5564SOL     OW17590   4.831   6.800   6.205
 5564SOL    HW117591   4.745   6.846   6.226
 5564SOL    HW217592   4.861   6.747   6.284
 5565SOL     OW17593   3.816   2.611   6.167
 5565SOL    HW117594   3.729   2.589   6.123
 5565SOL    HW217595   3.810   2.593   6.265
 5566SOL     OW17596   2.206   4.365   0.446
 5566SOL    HW117597   2.272   4.392   0.376
 5566SOL    HW217598   2.249   4.370   0.536
 5567SOL     OW17599   0.310   3.950   2.049
 5567SOL    HW117600   0.344   4.044   2.042
 5567SOL    HW217601   0.210   3.951   2.050
 5568SOL     OW17602   4.590   1.036   3.112
 5568SOL    HW117603   4.674   0.986   3.092
 5568SOL    HW217604   4.546   1.063   3.026
 5569SOL     OW17605   2.140   2.087   2.495
 5569SOL    HW117606   2.236   2.059   2.492
 5569SOL    HW217607   2.124   2.145   2.575
 5570SOL     OW17608   6.342   2.997   3.353
 5570SOL    HW117609   6.401   2.929   3.396
 5570SOL    HW217610   6.369   3.010   3.258
 5571SOL     OW17611   6.814   5.557   2.133
 5571SOL    HW117612   6.873   5.478   2.151
 5571SOL    HW217613   6.840   5.599   2.046
 5572SOL     OW17614   1.536   4.327   4.798
 5572SOL    HW117615   1.593   4.263   4.849
 5572SOL    HW217616   1.557   4.321   4.701
 5573SOL     OW17617   1.602   5.719   5.386
 5573SOL    HW117618   1.614   5.767   5.299
 5573SOL    HW217619   1.530   5.763   5.439
 5574SOL     OW17620   0.240   3.177   0.663
 5574SOL    HW117621   0.299   3.254   0.684
 5574SOL    HW217622   0.214   3.131   0.748
 5575SOL     OW17623   6.783   0.685   0.899
 5575SOL    HW117624   6.761   0.746   0.822
 5575SOL    HW217625   6.710   0.618   0.909
 5576SOL     OW17626   1.295   4.188   2.290
 5576SOL    HW117627   1.208   4.159   2.330
 5576SOL    HW217628   1.330   4.116   2.230
 5577SOL     OW17629   2.416   2.797   6.893
 5577SOL    HW117630   2.452   2.889   6.911
 5577SOL    HW217631   2.442   2.769   6.801
 5578SOL     OW17632   3.376   4.110   2.238
 5578SOL    HW117633   3.471   4.135   2.257
 5578SOL    HW217634   3.318   4.192   2.245
 5579SOL     OW17635   0.454   3.659   0.762
 5579SOL    HW117636   0.544   3.615   0.755
 5579SOL    HW217637   0.460   3.736   0.826
 5580SOL     OW17638   4.527   1.681   5.581
 5580SOL    HW117639   4.603   1.679   5.516
 5580SOL    HW217640   4.550   1.625   5.661
 5581SOL     OW17641   1.202   0.759   1.934
 5581SOL    HW117642   1.159   0.703   1.862
 5581SOL    HW217643   1.200   0.855   1.908
 5582SOL     OW17644   2.704   4.256   6.389
 5582SOL    HW117645   2.763   4.265   6.469
 5582SOL    HW217646   2.721   4.168   6.346
 5583SOL     OW17647   4.434   0.777   2.782
 5583SOL    HW117648   4.409   0.863   2.825
 5583SOL    HW217649   4.352   0.728   2.752
 5584SOL     OW17650   6.469   3.583   4.399
 5584SOL    HW117651   6.474   3.490   4.437
 5584SOL    HW217652   6.463   3.649   4.473
 5585SOL     OW17653   5.147   5.699   3.140
 5585SOL    HW117654   5.150   5.795   3.115
 5585SOL    HW217655   5.240   5.665   3.155
 5586SOL     OW17656   0.215   4.051   5.738
 5586SOL    HW117657   0.207   3.963   5.786
 5586SOL    HW217658   0.142   4.112   5.770
 5587SOL     OW17659   4.499   0.119   0.481
 5587SOL    HW117660   4.437   0.193   0.505
 5587SOL    HW217661   4.471   0.035   0.528
 5588SOL     OW17662   2.929   5.945   2.989
 5588SOL    HW117663   2.932   6.013   3.063
 5588SOL    HW217664   2.854   5.965   2.927
 5589SOL     OW17665   6.235   3.845   6.157
 5589SOL    HW117666   6.147   3.850   6.110
 5589SOL    HW217667   6.280   3.759   6.134
 5590SOL     OW17668   6.660   6.611   3.882
 5590SOL    HW117669   6.669   6.607   3.783
 5590SOL    HW217670   6.649   6.519   3.919
 5591SOL     OW17671   6.797   2.392   1.579
 5591SOL    HW117672   6.881   2.415   1.529
 5591SOL    HW217673   6.821   2.347   1.665
 5592SOL     OW17674   2.307   5.864   3.311
 5592SOL    HW117675   2.389   5.897   3.359
 5592SOL    HW217676   2.227   5.913   3.346
 5593SOL     OW17677   6.933   3.089   6.760
 5593SOL    HW117678   6.877   3.026   6.706
 5593SOL    HW217679   6.967   3.041   6.841
 5594SOL     OW17680   4.849   0.407   4.839
 5594SOL    HW117681   4.837   0.473   4.913
 5594SOL    HW217682   4.858   0.457   4.752
 5595SOL     OW17683   0.791   1.443   4.559
 5595SOL    HW117684   0.715   1.498   4.595
 5595SOL    HW217685   0.878   1.482   4.589
 5596SOL     OW17686   3.772   6.616   2.930
 5596SOL    HW117687   3.726   6.572   2.853
 5596SOL    HW217688   3.800   6.709   2.904
 5597SOL     OW17689   4.538   2.436   4.536
 5597SOL    HW117690   4.578   2.522   4.505
 5597SOL    HW217691   4.598   2.360   4.511
 5598SOL     OW17692   5.308   3.760   4.168
 5598SOL    HW117693   5.274   3.699   4.239
 5598SOL    HW217694   5.232   3.792   4.112
 5599SOL     OW17695   1.090   1.588   4.350
 5599SOL    HW117696   1.082   1.569   4.447
 5599SOL    HW217697   1.054   1.680   4.331
 5600SOL     OW17698   1.020   0.977   1.880
 5600SOL    HW117699   0.997   0.923   1.961
 5600SOL    HW217700   1.039   1.071   1.908
 5601SOL     OW17701   2.379   1.036   5.147
 5601SOL    HW117702   2.353   0.940   5.138
 5601SOL    HW217703   2.479   1.044   5.140
 5602SOL     OW17704   6.095   1.873   1.205
 5602SOL    HW117705   6.145   1.786   1.202
 5602SOL    HW217706   6.043   1.884   1.120
 5603SOL     OW17707   5.739   2.018   6.542
 5603SOL    HW117708   5.700   1.994   6.631
 5603SOL    HW217709   5.744   2.117   6.533
 5604SOL     OW17710   6.143   2.329   4.622
 5604SOL    HW117711   6.144   2.229   4.619
 5604SOL    HW217712   6.235   2.363   4.642
 5605SOL     OW17713   0.483   0.553   4.935
 5605SOL    HW117714   0.472   0.651   4.954
 5605SOL    HW217715   0.541   0.512   5.005
 5606SOL     OW17716   4.668   6.756   0.442
 5606SOL    HW117717   4.746   6.815   0.465
 5606SOL    HW217718   4.693   6.696   0.366
 5607SOL     OW17719   5.294   0.613   2.427
 5607SOL    HW117720   5.357   0.691   2.423
 5607SOL    HW217721   5.295   0.574   2.519
 5608SOL     OW17722   4.750   0.066   5.156
 5608SOL    HW117723   4.691   0.037   5.082
 5608SOL    HW217724   4.811   0.139   5.124
 5609SOL     OW17725   2.946   5.765   0.900
 5609SOL    HW117726   2.968   5.668   0.909
 5609SOL    HW217727   2.934   5.805   0.991
 5610SOL     OW17728   4.775   6.710   0.808
 5610SOL    HW117729   4.757   6.613   0.791
 5610SOL    HW217730   4.689   6.758   0.822
 5611SOL     OW17731   0.827   5.344   2.501
 5611SOL    HW117732   0.896   5.412   2.526
 5611SOL    HW217733   0.865   5.252   2.508
 5612SOL     OW17734   3.819   1.640   6.825
 5612SOL    HW117735   3.824   1.654   6.727
 5612SOL    HW217736   3.809   1.728   6.872
 5613SOL     OW17737   5.520   3.906   3.830
 5613SOL    HW117738   5.568   3.820   3.852
 5613SOL    HW217739   5.422   3.892   3.837
 5614SOL     OW17740   4.638   2.712   4.509
 5614SOL    HW117741   4.679   2.789   4.558
 5614SOL    HW217742   4.633   2.732   4.412
 5615SOL     OW17743   0.169   1.182   4.541
 5615SOL    HW117744   0.225   1.126   4.601
 5615SOL    HW217745   0.214   1.270   4.525
 5616SOL     OW17746   2.486   1.847   4.895
 5616SOL    HW117747   2.486   1.946   4.906
 5616SOL    HW217748   2.429   1.805   4.965
 5617SOL     OW17749   3.134   0.287   6.500
 5617SOL    HW117750   3.182   0.355   6.445
 5617SOL    HW217751   3.201   0.228   6.546
 5618SOL     OW17752   0.358   4.244   3.731
 5618SOL    HW117753   0.446   4.213   3.694
 5618SOL    HW217754   0.374   4.311   3.803
 5619SOL     OW17755   3.006   3.899   5.858
 5619SOL    HW117756   3.010   3.855   5.948
 5619SOL    HW217757   3.062   3.981   5.858
 5620SOL     OW17758   3.387   2.875   1.027
 5620SOL    HW117759   3.351   2.968   1.018
 5620SOL    HW217760   3.462   2.874   1.094
 5621SOL     OW17761   0.825   2.784   6.174
 5621SOL    HW117762   0.913   2.754   6.210
 5621SOL    HW217763   0.781   2.709   6.124
 5622SOL     OW17764   4.622   0.239   5.919
 5622SOL    HW117765   4.536   0.221   5.871
 5622SOL    HW217766   4.686   0.283   5.856
 5623SOL     OW17767   2.261   5.864   5.765
 5623SOL    HW117768   2.166   5.832   5.767
 5623SOL    HW217769   2.297   5.856   5.672
 5624SOL     OW17770   1.053   4.515   3.345
 5624SOL    HW117771   1.007   4.603   3.350
 5624SOL    HW217772   0.986   4.441   3.353
 5625SOL     OW17773   6.703   1.586   4.288
 5625SOL    HW117774   6.700   1.628   4.197
 5625SOL    HW217775   6.790   1.537   4.299
 5626SOL     OW17776   2.825   6.421   4.046
 5626SOL    HW117777   2.846   6.431   4.143
 5626SOL    HW217778   2.735   6.379   4.035
 5627SOL     OW17779   0.938   5.913   6.727
 5627SOL    HW117780   1.031   5.947   6.742
 5627SOL    HW217781   0.928   5.823   6.769
 5628SOL     OW17782   1.577   2.735   6.690
 5628SOL    HW117783   1.609   2.653   6.738
 5628SOL    HW217784   1.493   2.769   6.733
 5629SOL     OW17785   3.075   3.892   2.599
 5629SOL    HW117786   3.061   3.934   2.510
 5629SOL    HW217787   3.162   3.923   2.638
 5630SOL     OW17788   2.019   4.824   1.168
 5630SOL    HW117789   1.997   4.807   1.264
 5630SOL    HW217790   2.053   4.739   1.126
 5631SOL     OW17791   4.349   2.077   0.424
 5631SOL    HW117792   4.283   2.121   0.485
 5631SOL    HW217793   4.438   2.119   0.436
 5632SOL     OW17794   3.690   3.217   6.047
 5632SOL    HW117795   3.637   3.296   6.015
 5632SOL    HW217796   3.643   3.176   6.126
 5633SOL     OW17797   6.893   3.029   4.415
 5633SOL    HW117798   6.912   2.934   4.392
 5633SOL    HW217799   6.921   3.088   4.339
 5634SOL     OW17800   1.930   5.869   5.040
 5634SOL    HW117801   2.029   5.876   5.031
 5634SOL    HW217802   1.886   5.944   4.991
 5635SOL     OW17803   2.246   3.753   5.251
 5635SOL    HW117804   2.282   3.828   5.195
 5635SOL    HW217805   2.218   3.789   5.341
 5636SOL     OW17806   3.643   6.753   3.335
 5636SOL    HW117807   3.632   6.724   3.240
 5636SOL    HW217808   3.708   6.829   3.339
 5637SOL     OW17809   5.082   6.570   3.352
 5637SOL    HW117810   4.991   6.531   3.341
 5637SOL    HW217811   5.113   6.610   3.266
 5638SOL     OW17812   5.858   3.916   1.716
 5638SOL    HW117813   5.892   3.920   1.810
 5638SOL    HW217814   5.888   3.831   1.673
 5639SOL     OW17815   0.688   0.509   6.935
 5639SOL    HW117816   0.691   0.551   6.844
 5639SOL    HW217817   0.623   0.434   6.935
 5640SOL     OW17818   2.923   0.533   3.849
 5640SOL    HW117819   2.833   0.574   3.834
 5640SOL    HW217820   2.918   0.435   3.830
 5641SOL     OW17821   0.333   5.004   5.399
 5641SOL    HW117822   0.252   4.993   5.456
 5641SOL    HW217823   0.383   4.918   5.395
 5642SOL     OW17824   2.002   6.887   5.678
 5642SOL    HW117825   1.955   6.838   5.751
 5642SOL    HW217826   2.017   6.982   5.707
 5643SOL     OW17827   4.947   0.791   4.883
 5643SOL    HW117828   4.888   0.820   4.807
 5643SOL    HW217829   5.031   0.752   4.846
 5644SOL     OW17830   3.293   0.169   5.006
 5644SOL    HW117831   3.316   0.074   5.028
 5644SOL    HW217832   3.315   0.187   4.910
 5645SOL     OW17833   6.486   4.285   3.761
 5645SOL    HW117834   6.575   4.318   3.729
 5645SOL    HW217835   6.457   4.208   3.704
 5646SOL     OW17836   1.896   5.378   3.301
 5646SOL    HW117837   1.878   5.288   3.339
 5646SOL    HW217838   1.919   5.369   3.204
 5647SOL     OW17839   5.135   6.698   1.055
 5647SOL    HW117840   5.166   6.630   1.121
 5647SOL    HW217841   5.052   6.741   1.089
 5648SOL     OW17842   2.241   6.135   2.914
 5648SOL    HW117843   2.201   6.083   2.989
 5648SOL    HW217844   2.260   6.229   2.944
 5649SOL     OW17845   1.392   7.022   4.002
 5649SOL    HW117846   1.482   7.022   3.959
 5649SOL    HW217847   1.326   6.979   3.941
 5650SOL     OW17848   1.459   4.436   1.407
 5650SOL    HW117849   1.383   4.480   1.456
 5650SOL    HW217850   1.538   4.428   1.469
 5651SOL     OW17851   1.374   0.829   0.264
 5651SOL    HW117852   1.288   0.873   0.289
 5651SOL    HW217853   1.404   0.863   0.175
 5652SOL     OW17854   6.808   5.701   0.957
 5652SOL    HW117855   6.891   5.645   0.958
 5652SOL    HW217856   6.793   5.740   1.047
 5653SOL     OW17857   0.740   6.002   6.896
 5653SOL    HW117858   0.703   6.094   6.881
 5653SOL    HW217859   0.823   5.990   6.842
 5654SOL     OW17860   1.431   5.476   4.459
 5654SOL    HW117861   1.509   5.446   4.404
 5654SOL    HW217862   1.458   5.556   4.513
 5655SOL     OW17863   0.314   2.929   3.306
 5655SOL    HW117864   0.315   2.871   3.225
 5655SOL    HW217865   0.233   2.988   3.303
 5656SOL     OW17866   6.815   4.351   6.209
 5656SOL    HW117867   6.769   4.421   6.155
 5656SOL    HW217868   6.747   4.296   6.258
 5657SOL     OW17869   4.655   4.388   5.161
 5657SOL    HW117870   4.719   4.455   5.124
 5657SOL    HW217871   4.704   4.303   5.182
 5658SOL     OW17872   3.193   3.317   5.771
 5658SOL    HW117873   3.224   3.402   5.812
 5658SOL    HW217874   3.125   3.274   5.831
 5659SOL     OW17875   3.520   3.912   5.899
 5659SOL    HW117876   3.557   3.964   5.822
 5659SOL    HW217877   3.426   3.886   5.879
 5660SOL     OW17878   4.374   6.852   6.603
 5660SOL    HW117879   4.460   6.870   6.555
 5660SOL    HW217880   4.394   6.822   6.696
 5661SOL     OW17881   1.074   5.358   4.790
 5661SOL    HW117882   1.094   5.336   4.886
 5661SOL    HW217883   1.159   5.362   4.738
 5662SOL     OW17884   2.354   0.024   2.296
 5662SOL    HW117885   2.260   7.016   2.294
 5662SOL    HW217886   2.385   0.032   2.391
 5663SOL     OW17887   1.939   2.172   0.706
 5663SOL    HW117888   1.925   2.086   0.658
 5663SOL    HW217889   1.982   2.239   0.644
 5664SOL     OW17890   6.184   3.358   4.314
 5664SOL    HW117891   6.244   3.361   4.233
 5664SOL    HW217892   6.200   3.273   4.364
 5665SOL     OW17893   1.204   5.752   0.418
 5665SOL    HW117894   1.215   5.849   0.440
 5665SOL    HW217895   1.280   5.700   0.458
 5666SOL     OW17896   6.051   0.608   4.006
 5666SOL    HW117897   6.141   0.641   3.978
 5666SOL    HW217898   6.017   0.542   3.940
 5667SOL     OW17899   1.753   5.293   4.794
 5667SOL    HW117900   1.776   5.289   4.891
 5667SOL    HW217901   1.696   5.374   4.776
 5668SOL     OW17902   6.089   2.634   3.083
 5668SOL    HW117903   6.027   2.684   3.021
 5668SOL    HW217904   6.080   2.536   3.067
 5669SOL     OW17905   6.687   5.023   0.343
 5669SOL    HW117906   6.654   5.094   0.405
 5669SOL    HW217907   6.674   4.933   0.386
 5670SOL     OW17908   1.642   3.541   4.039
 5670SOL    HW117909   1.614   3.543   4.135
 5670SOL    HW217910   1.670   3.449   4.014
 5671SOL     OW17911   6.314   5.353   5.636
 5671SOL    HW117912   6.249   5.297   5.689
 5671SOL    HW217913   6.264   5.405   5.567
 5672SOL     OW17914   4.807   4.167   5.277
 5672SOL    HW117915   4.893   4.135   5.238
 5672SOL    HW217916   4.751   4.088   5.304
 5673SOL     OW17917   1.043   6.110   1.146
 5673SOL    HW117918   0.989   6.167   1.083
 5673SOL    HW217919   0.991   6.027   1.167
 5674SOL     OW17920   2.109   4.933   4.782
 5674SOL    HW117921   2.113   4.852   4.723
 5674SOL    HW217922   2.202   4.970   4.794
 5675SOL     OW17923   4.005   2.229   0.234
 5675SOL    HW117924   3.973   2.322   0.214
 5675SOL    HW217925   4.025   2.221   0.332
 5676SOL     OW17926   3.060   1.675   2.309
 5676SOL    HW117927   3.145   1.694   2.259
 5676SOL    HW217928   3.045   1.746   2.378
 5677SOL     OW17929   0.433   0.684   0.009
 5677SOL    HW117930   0.382   0.598   0.008
 5677SOL    HW217931   0.369   0.761   0.013
 5678SOL     OW17932   4.261   0.950   1.851
 5678SOL    HW117933   4.293   0.883   1.784
 5678SOL    HW217934   4.254   1.040   1.807
 5679SOL     OW17935   5.689   1.877   4.352
 5679SOL    HW117936   5.772   1.925   4.379
 5679SOL    HW217937   5.711   1.780   4.336
 5680SOL     OW17938   1.263   5.031   6.540
 5680SOL    HW117939   1.298   5.048   6.633
 5680SOL    HW217940   1.259   5.118   6.490
 5681SOL     OW17941   0.417   4.026   2.524
 5681SOL    HW117942   0.317   4.026   2.525
 5681SOL    HW217943   0.452   4.097   2.585
 5682SOL     OW17944   2.229   5.626   3.939
 5682SOL    HW117945   2.258   5.566   4.013
 5682SOL    HW217946   2.309   5.666   3.895
 5683SOL     OW17947   4.137   2.385   5.836
 5683SOL    HW117948   4.169   2.379   5.931
 5683SOL    HW217949   4.177   2.312   5.782
 5684SOL     OW17950   1.938   3.571   6.537
 5684SOL    HW117951   1.845   3.560   6.571
 5684SOL    HW217952   1.942   3.651   6.478
 5685SOL     OW17953   2.098   2.302   3.222
 5685SOL    HW117954   2.184   2.326   3.267
 5685SOL    HW217955   2.071   2.375   3.160
 5686SOL     OW17956   3.163   1.150   4.659
 5686SOL    HW117957   3.259   1.141   4.687
 5686SOL    HW217958   3.132   1.063   4.620
 5687SOL     OW17959   1.152   5.979   6.108
 5687SOL    HW117960   1.108   5.896   6.073
 5687SOL    HW217961   1.246   5.958   6.134
 5688SOL     OW17962   2.189   2.970   3.261
 5688SOL    HW117963   2.230   2.984   3.351
 5688SOL    HW217964   2.167   2.873   3.249
 5689SOL     OW17965   2.196   0.333   1.744
 5689SOL    HW117966   2.247   0.403   1.694
 5689SOL    HW217967   2.108   0.370   1.772
 5690SOL     OW17968   0.940   4.966   6.409
 5690SOL    HW117969   0.933   4.925   6.318
 5690SOL    HW217970   1.028   5.012   6.418
 5691SOL     OW17971   3.900   1.207   2.912
 5691SOL    HW117972   3.906   1.144   2.990
 5691SOL    HW217973   3.975   1.188   2.849
 5692SOL     OW17974   4.934   4.740   0.983
 5692SOL    HW117975   4.932   4.711   0.887
 5692SOL    HW217976   4.974   4.831   0.990
 5693SOL     OW17977   4.432   0.311   1.375
 5693SOL    HW117978   4.462   0.336   1.467
 5693SOL    HW217979   4.333   0.300   1.374
 5694SOL     OW17980   0.093   7.019   2.527
 5694SOL    HW117981   0.163   6.976   2.586
 5694SOL    HW217982   0.041   0.061   2.581
 5695SOL     OW17983   0.938   0.835   2.475
 5695SOL    HW117984   0.915   0.798   2.565
 5695SOL    HW217985   0.963   0.760   2.414
 5696SOL     OW17986   1.458   0.275   4.328
 5696SOL    HW117987   1.398   0.197   4.311
 5696SOL    HW217988   1.549   0.256   4.293
 5697SOL     OW17989   6.129   2.394   2.015
 5697SOL    HW117990   6.188   2.315   2.031
 5697SOL    HW217991   6.103   2.397   1.919
 5698SOL     OW17992   1.681   4.053   3.987
 5698SOL    HW117993   1.590   4.090   4.004
 5698SOL    HW217994   1.676   3.983   3.916
 5699SOL     OW17995   1.918   2.616   2.858
 5699SOL    HW117996   1.835   2.606   2.913
 5699SOL    HW217997   1.948   2.711   2.859
 5700SOL     OW17998   6.563   0.372   3.088
 5700SOL    HW117999   6.561   0.311   3.009
 5700SOL    HW218000   6.638   0.346   3.148
 5701SOL     OW18001   6.777   0.759   1.447
 5701SOL    HW118002   6.709   0.710   1.500
 5701SOL    HW218003   6.782   0.720   1.355
 5702SOL     OW18004   1.627   6.476   4.236
 5702SOL    HW118005   1.634   6.394   4.179
 5702SOL    HW218006   1.718   6.517   4.247
 5703SOL     OW18007   0.103   4.378   6.673
 5703SOL    HW118008   0.103   4.336   6.764
 5703SOL    HW218009   0.117   4.476   6.680
 5704SOL     OW18010   4.821   4.215   3.515
 5704SOL    HW118011   4.880   4.296   3.511
 5704SOL    HW218012   4.805   4.190   3.611
 5705SOL     OW18013   5.818   5.702   0.010
 5705SOL    HW118014   5.762   5.705   0.093
 5705SOL    HW218015   5.858   5.611   0.001
 5706SOL     OW18016   5.127   3.049   1.703
 5706SOL    HW118017   5.051   2.992   1.735
 5706SOL    HW218018   5.096   3.143   1.693
 5707SOL     OW18019   6.183   0.208   1.065
 5707SOL    HW118020   6.109   0.164   1.015
 5707SOL    HW218021   6.151   0.233   1.156
 5708SOL     OW18022   5.119   6.391   2.679
 5708SOL    HW118023   5.191   6.380   2.610
 5708SOL    HW218024   5.111   6.307   2.733
 5709SOL     OW18025   0.238   0.810   2.641
 5709SOL    HW118026   0.266   0.885   2.702
 5709SOL    HW218027   0.213   0.731   2.697
 5710SOL     OW18028   2.878   2.156   0.618
 5710SOL    HW118029   2.856   2.059   0.607
 5710SOL    HW218030   2.871   2.201   0.529
 5711SOL     OW18031   4.760   0.461   1.957
 5711SOL    HW118032   4.796   0.371   1.936
 5711SOL    HW218033   4.822   0.509   2.018
 5712SOL     OW18034   6.512   6.960   0.343
 5712SOL    HW118035   6.423   6.934   0.381
 5712SOL    HW218036   6.581   6.955   0.415
 5713SOL     OW18037   3.428   5.167   0.776
 5713SOL    HW118038   3.339   5.180   0.821
 5713SOL    HW218039   3.416   5.107   0.697
 5714SOL     OW18040   6.961   6.509   1.030
 5714SOL    HW118041   6.906   6.588   1.056
 5714SOL    HW218042   6.999   6.466   1.113
 5715SOL     OW18043   6.836   0.168   1.830
 5715SOL    HW118044   6.752   0.215   1.806
 5715SOL    HW218045   6.827   0.071   1.807
 5716SOL     OW18046   0.709   5.739   6.262
 5716SOL    HW118047   0.706   5.837   6.241
 5716SOL    HW218048   0.736   5.726   6.357
 5717SOL     OW18049   2.354   5.063   1.820
 5717SOL    HW118050   2.271   5.117   1.835
 5717SOL    HW218051   2.329   4.972   1.789
 5718SOL     OW18052   0.703   3.437   0.362
 5718SOL    HW118053   0.694   3.533   0.336
 5718SOL    HW218054   0.711   3.381   0.280
 5719SOL     OW18055   2.986   3.725   0.779
 5719SOL    HW118056   3.000   3.699   0.874
 5719SOL    HW218057   3.074   3.752   0.739
 5720SOL     OW18058   1.747   6.599   4.748
 5720SOL    HW118059   1.775   6.515   4.701
 5720SOL    HW218060   1.777   6.596   4.843
 5721SOL     OW18061   6.086   4.160   1.033
 5721SOL    HW118062   6.019   4.128   0.966
 5721SOL    HW218063   6.045   4.231   1.090
 5722SOL     OW18064   0.155   2.294   5.455
 5722SOL    HW118065   0.080   2.228   5.455
 5722SOL    HW218066   0.125   2.379   5.498
 5723SOL     OW18067   3.993   3.484   7.023
 5723SOL    HW118068   4.076   3.527   6.987
 5723SOL    HW218069   4.006   3.385   0.003
 5724SOL     OW18070   6.446   2.737   3.285
 5724SOL    HW118071   6.433   2.679   3.365
 5724SOL    HW218072   6.416   2.689   3.202
 5725SOL     OW18073   6.670   5.233   3.726
 5725SOL    HW118074   6.610   5.248   3.804
 5725SOL    HW218075   6.750   5.292   3.733
 5726SOL     OW18076   6.025   4.894   3.947
 5726SOL    HW118077   6.039   4.993   3.940
 5726SOL    HW218078   6.073   4.848   3.873
 5727SOL     OW18079   0.231   2.592   4.796
 5727SOL    HW118080   0.274   2.667   4.746
 5727SOL    HW218081   0.153   2.626   4.847
 5728SOL     OW18082   5.190   6.032   5.304
 5728SOL    HW118083   5.185   6.083   5.390
 5728SOL    HW218084   5.274   5.977   5.302
 5729SOL     OW18085   1.056   2.418   6.005
 5729SOL    HW118086   1.061   2.336   5.948
 5729SOL    HW218087   0.970   2.419   6.055
 5730SOL     OW18088   6.600   4.487   6.440
 5730SOL    HW118089   6.683   4.474   6.387
 5730SOL    HW218090   6.622   4.485   6.538
 5731SOL     OW18091   6.687   6.560   1.650
 5731SOL    HW118092   6.611   6.622   1.670
 5731SOL    HW218093   6.716   6.574   1.555
 5732SOL     OW18094   1.182   6.824   3.465
 5732SOL    HW118095   1.117   6.806   3.392
 5732SOL    HW218096   1.143   6.891   3.529
 5733SOL     OW18097   4.257   6.559   5.166
 5733SOL    HW118098   4.175   6.604   5.202
 5733SOL    HW218099   4.327   6.557   5.237
 5734SOL     OW18100   1.318   6.751   5.079
 5734SOL    HW118101   1.285   6.824   5.019
 5734SOL    HW218102   1.361   6.679   5.024
 5735SOL     OW18103   2.963   1.296   1.132
 5735SOL    HW118104   3.028   1.242   1.079
 5735SOL    HW218105   2.870   1.279   1.099
 5736SOL     OW18106   0.662   4.221   0.038
 5736SOL    HW118107   0.663   4.256   0.132
 5736SOL    HW218108   0.568   4.207   0.009
 5737SOL     OW18109   5.507   6.381   6.738
 5737SOL    HW118110   5.569   6.346   6.668
 5737SOL    HW218111   5.551   6.456   6.787
 5738SOL     OW18112   1.606   3.465   6.961
 5738SOL    HW118113   1.615   3.374   7.000
 5738SOL    HW218114   1.696   3.501   6.938
 5739SOL     OW18115   1.653   0.960   6.743
 5739SOL    HW118116   1.657   0.993   6.837
 5739SOL    HW218117   1.662   1.037   6.680
 5740SOL     OW18118   4.384   5.969   0.228
 5740SOL    HW118119   4.437   5.962   0.313
 5740SOL    HW218120   4.290   5.940   0.247
 5741SOL     OW18121   6.352   5.688   4.512
 5741SOL    HW118122   6.410   5.658   4.587
 5741SOL    HW218123   6.286   5.755   4.546
 5742SOL     OW18124   5.542   6.452   2.195
 5742SOL    HW118125   5.529   6.368   2.248
 5742SOL    HW218126   5.640   6.473   2.189
 5743SOL     OW18127   2.474   6.898   4.740
 5743SOL    HW118128   2.423   6.815   4.760
 5743SOL    HW218129   2.572   6.881   4.753
 5744SOL     OW18130   5.126   1.071   0.398
 5744SOL    HW118131   5.093   0.993   0.345
 5744SOL    HW218132   5.053   1.139   0.407
 5745SOL     OW18133   1.637   1.405   4.477
 5745SOL    HW118134   1.551   1.355   4.467
 5745SOL    HW218135   1.659   1.452   4.391
 5746SOL     OW18136   4.968   1.004   0.031
 5746SOL    HW118137   4.996   0.911   0.054
 5746SOL    HW218138   5.036   1.069   0.067
 5747SOL     OW18139   0.354   5.604   2.475
 5747SOL    HW118140   0.429   5.646   2.423
 5747SOL    HW218141   0.342   5.653   2.561
 5748SOL     OW18142   2.616   4.931   1.832
 5748SOL    HW118143   2.551   5.008   1.833
 5748SOL    HW218144   2.580   4.857   1.889
 5749SOL     OW18145   2.106   1.651   4.277
 5749SOL    HW118146   2.026   1.687   4.325
 5749SOL    HW218147   2.092   1.661   4.178
 5750SOL     OW18148   6.416   4.875   4.266
 5750SOL    HW118149   6.509   4.902   4.242
 5750SOL    HW218150   6.367   4.953   4.306
 5751SOL     OW18151   2.198   3.046   5.264
 5751SOL    HW118152   2.296   3.064   5.255
 5751SOL    HW218153   2.179   2.951   5.241
 5752SOL     OW18154   6.777   0.233   5.984
 5752SOL    HW118155   6.677   0.232   5.989
 5752SOL    HW218156   6.814   0.172   6.054
 5753SOL     OW18157   3.460   3.382   6.422
 5753SOL    HW118158   3.365   3.367   6.452
 5753SOL    HW218159   3.462   3.452   6.351
 5754SOL     OW18160   5.823   5.059   2.263
 5754SOL    HW118161   5.756   5.003   2.313
 5754SOL    HW218162   5.787   5.080   2.172
 5755SOL     OW18163   2.938   3.857   6.397
 5755SOL    HW118164   2.988   3.821   6.477
 5755SOL    HW218165   2.998   3.917   6.345
 5756SOL     OW18166   6.834   4.939   3.156
 5756SOL    HW118167   6.835   4.882   3.238
 5756SOL    HW218168   6.918   4.924   3.104
 5757SOL     OW18169   5.845   5.852   1.553
 5757SOL    HW118170   5.769   5.824   1.612
 5757SOL    HW218171   5.835   5.810   1.463
 5758SOL     OW18172   2.671   2.360   5.053
 5758SOL    HW118173   2.722   2.284   5.091
 5758SOL    HW218174   2.620   2.406   5.126
 5759SOL     OW18175   5.172   2.021   6.071
 5759SOL    HW118176   5.132   1.946   6.019
 5759SOL    HW218177   5.258   2.051   6.027
 5760SOL     OW18178   2.047   5.627   2.235
 5760SOL    HW118179   2.101   5.618   2.319
 5760SOL    HW218180   1.971   5.562   2.237
 5761SOL     OW18181   5.209   0.211   4.732
 5761SOL    HW118182   5.235   0.201   4.828
 5761SOL    HW218183   5.223   0.124   4.684
 5762SOL     OW18184   5.571   6.848   0.758
 5762SOL    HW118185   5.645   6.785   0.731
 5762SOL    HW218186   5.497   6.796   0.799
 5763SOL     OW18187   1.287   0.255   0.403
 5763SOL    HW118188   1.293   0.355   0.397
 5763SOL    HW218189   1.191   0.227   0.400
 5764SOL     OW18190   5.691   4.643   5.606
 5764SOL    HW118191   5.733   4.609   5.690
 5764SOL    HW218192   5.646   4.731   5.623
 5765SOL     OW18193   6.742   4.254   6.862
 5765SOL    HW118194   6.827   4.210   6.889
 5765SOL    HW218195   6.665   4.192   6.879
 5766SOL     OW18196   3.321   1.454   2.136
 5766SOL    HW118197   3.350   1.398   2.058
 5766SOL    HW218198   3.233   1.496   2.115
 5767SOL     OW18199   0.881   6.115   0.722
 5767SOL    HW118200   0.965   6.162   0.696
 5767SOL    HW218201   0.855   6.051   0.650
 5768SOL     OW18202   6.712   0.944   2.994
 5768SOL    HW118203   6.651   0.958   2.916
 5768SOL    HW218204   6.665   0.892   3.065
 5769SOL     OW18205   2.955   6.411   3.217
 5769SOL    HW118206   3.026   6.464   3.170
 5769SOL    HW218207   2.865   6.443   3.188
 5770SOL     OW18208   6.879   6.745   1.104
 5770SOL    HW118209   6.803   6.786   1.155
 5770SOL    HW218210   6.934   6.817   1.062
 5771SOL     OW18211   1.050   0.603   1.158
 5771SOL    HW118212   1.102   0.520   1.137
 5771SOL    HW218213   1.066   0.671   1.087
 5772SOL     OW18214   6.294   2.857   0.562
 5772SOL    HW118215   6.373   2.894   0.611
 5772SOL    HW218216   6.241   2.799   0.624
 5773SOL     OW18217   5.629   6.466   3.889
 5773SOL    HW118218   5.557   6.493   3.824
 5773SOL    HW218219   5.664   6.376   3.865
 5774SOL     OW18220   2.261   4.702   3.230
 5774SOL    HW118221   2.340   4.647   3.257
 5774SOL    HW218222   2.219   4.742   3.312
 5775SOL     OW18223   0.234   6.569   0.199
 5775SOL    HW118224   0.237   6.598   0.103
 5775SOL    HW218225   0.312   6.509   0.218
 5776SOL     OW18226   5.804   0.369   6.154
 5776SOL    HW118227   5.739   0.326   6.217
 5776SOL    HW218228   5.758   0.443   6.104
 5777SOL     OW18229   6.215   1.014   4.089
 5777SOL    HW118230   6.149   1.088   4.102
 5777SOL    HW218231   6.208   0.978   3.996
 5778SOL     OW18232   1.358   6.631   3.058
 5778SOL    HW118233   1.430   6.593   3.001
 5778SOL    HW218234   1.307   6.699   3.006
 5779SOL     OW18235   3.682   1.106   1.310
 5779SOL    HW118236   3.673   1.086   1.213
 5779SOL    HW218237   3.779   1.107   1.336
 5780SOL     OW18238   6.882   4.431   1.519
 5780SOL    HW118239   6.849   4.483   1.441
 5780SOL    HW218240   6.895   4.492   1.597
 5781SOL     OW18241   1.920   4.206   4.829
 5781SOL    HW118242   1.918   4.250   4.739
 5781SOL    HW218243   1.983   4.255   4.890
 5782SOL     OW18244   1.911   0.953   1.828
 5782SOL    HW118245   1.915   1.024   1.758
 5782SOL    HW218246   1.971   0.978   1.904
 5783SOL     OW18247   1.507   0.043   1.286
 5783SOL    HW118248   1.493   0.137   1.255
 5783SOL    HW218249   1.507   7.005   1.208
 5784SOL     OW18250   1.033   6.033   0.302
 5784SOL    HW118251   0.977   5.959   0.265
 5784SOL    HW218252   0.981   6.118   0.300
 5785SOL     OW18253   1.492   0.878   0.701
 5785SOL    HW118254   1.500   0.836   0.610
 5785SOL    HW218255   1.561   0.840   0.761
 5786SOL     OW18256   1.860   3.286   1.549
 5786SOL    HW118257   1.857   3.205   1.607
 5786SOL    HW218258   1.942   3.340   1.569
 5787SOL     OW18259   5.730   2.645   4.778
 5787SOL    HW118260   5.772   2.721   4.828
 5787SOL    HW218261   5.795   2.569   4.772
 5788SOL     OW18262   3.320   0.822   2.453
 5788SOL    HW118263   3.241   0.861   2.499
 5788SOL    HW218264   3.343   0.734   2.494
 5789SOL     OW18265   4.238   4.001   0.518
 5789SOL    HW118266   4.287   4.064   0.578
 5789SOL    HW218267   4.265   4.018   0.423
 5790SOL     OW18268   5.808   5.295   4.697
 5790SOL    HW118269   5.775   5.202   4.684
 5790SOL    HW218270   5.896   5.306   4.650
 5791SOL     OW18271   3.716   1.239   2.646
 5791SOL    HW118272   3.783   1.272   2.713
 5791SOL    HW218273   3.758   1.166   2.591
 5792SOL     OW18274   4.767   4.026   3.063
 5792SOL    HW118275   4.678   4.057   3.097
 5792SOL    HW218276   4.828   4.105   3.053
 5793SOL     OW18277   5.483   2.223   5.186
 5793SOL    HW118278   5.531   2.280   5.252
 5793SOL    HW218279   5.522   2.236   5.095
 5794SOL     OW18280   3.033   6.669   5.780
 5794SOL    HW118281   3.068   6.735   5.714
 5794SOL    HW218282   3.107   6.637   5.839
 5795SOL     OW18283   1.228   5.156   2.032
 5795SOL    HW118284   1.133   5.180   2.050
 5795SOL    HW218285   1.273   5.230   1.983
 5796SOL     OW18286   4.510   1.336   6.106
 5796SOL    HW118287   4.537   1.389   6.186
 5796SOL    HW218288   4.522   1.239   6.125
 5797SOL     OW18289   5.219   2.475   0.086
 5797SOL    HW118290   5.302   2.428   0.116
 5797SOL    HW218291   5.174   2.517   0.165
 5798SOL     OW18292   1.700   3.834   5.003
 5798SOL    HW118293   1.783   3.871   4.962
 5798SOL    HW218294   1.724   3.761   5.067
 5799SOL     OW18295   1.646   6.267   3.570
 5799SOL    HW118296   1.675   6.233   3.659
 5799SOL    HW218297   1.546   6.265   3.565
 5800SOL     OW18298   0.313   6.842   0.945
 5800SOL    HW118299   0.368   6.760   0.932
 5800SOL    HW218300   0.359   6.903   1.010
 5801SOL     OW18301   2.588   2.474   2.523
 5801SOL    HW118302   2.545   2.399   2.573
 5801SOL    HW218303   2.687   2.474   2.540
 5802SOL     OW18304   7.024   1.690   2.494
 5802SOL    HW118305   6.969   1.665   2.573
 5802SOL    HW218306   7.002   1.784   2.467
 5803SOL     OW18307   0.896   5.408   4.358
 5803SOL    HW118308   0.993   5.385   4.364
 5803SOL    HW218309   0.849   5.340   4.302
 5804SOL     OW18310   5.745   6.932   3.782
 5804SOL    HW118311   5.686   6.869   3.731
 5804SOL    HW218312   5.689   7.001   3.828
 5805SOL     OW18313   2.679   3.187   0.890
 5805SOL    HW118314   2.668   3.093   0.859
 5805SOL    HW218315   2.689   3.247   0.811
 5806SOL     OW18316   0.658   3.167   3.165
 5806SOL    HW118317   0.600   3.181   3.245
 5806SOL    HW218318   0.754   3.170   3.193
 5807SOL     OW18319   0.998   6.491   0.580
 5807SOL    HW118320   0.903   6.469   0.557
 5807SOL    HW218321   1.007   6.590   0.592
 5808SOL     OW18322   5.708   1.140   4.693
 5808SOL    HW118323   5.748   1.067   4.637
 5808SOL    HW218324   5.780   1.205   4.718
 5809SOL     OW18325   0.296   2.692   6.102
 5809SOL    HW118326   0.290   2.698   6.202
 5809SOL    HW218327   0.211   2.655   6.065
 5810SOL     OW18328   4.187   6.609   4.672
 5810SOL    HW118329   4.223   6.561   4.592
 5810SOL    HW218330   4.103   6.657   4.647
 5811SOL     OW18331   2.822   3.474   5.963
 5811SOL    HW118332   2.904   3.511   6.006
 5811SOL    HW218333   2.816   3.376   5.981
 5812SOL     OW18334   5.769   3.268   0.545
 5812SOL    HW118335   5.787   3.240   0.639
 5812SOL    HW218336   5.671   3.263   0.527
 5813SOL     OW18337   4.568   6.512   1.179
 5813SOL    HW118338   4.473   6.513   1.207
 5813SOL    HW218339   4.618   6.584   1.228
 5814SOL     OW18340   5.233   1.834   1.828
 5814SOL    HW118341   5.159   1.857   1.891
 5814SOL    HW218342   5.202   1.848   1.734
 5815SOL     OW18343   6.440   1.002   3.869
 5815SOL    HW118344   6.353   0.953   3.862
 5815SOL    HW218345   6.482   0.982   3.958
 5816SOL     OW18346   0.071   3.878   3.023
 5816SOL    HW118347   0.153   3.821   3.029
 5816SOL    HW218348   0.021   3.873   3.110
 5817SOL     OW18349   5.224   4.361   4.030
 5817SOL    HW118350   5.171   4.394   3.952
 5817SOL    HW218351   5.169   4.370   4.113
 5818SOL     OW18352   1.900   0.180   4.894
 5818SOL    HW118353   1.841   0.259   4.879
 5818SOL    HW218354   1.992   0.200   4.861
 5819SOL     OW18355   4.388   4.709   6.750
 5819SOL    HW118356   4.411   4.616   6.778
 5819SOL    HW218357   4.464   4.748   6.697
 5820SOL     OW18358   6.206   5.076   2.766
 5820SOL    HW118359   6.119   5.082   2.815
 5820SOL    HW218360   6.281   5.103   2.827
 5821SOL     OW18361   6.426   0.886   1.431
 5821SOL    HW118362   6.383   0.927   1.511
 5821SOL    HW218363   6.427   0.952   1.355
 5822SOL     OW18364   1.680   2.878   2.534
 5822SOL    HW118365   1.637   2.841   2.616
 5822SOL    HW218366   1.704   2.974   2.550
 5823SOL     OW18367   2.280   6.430   3.567
 5823SOL    HW118368   2.280   6.478   3.655
 5823SOL    HW218369   2.346   6.356   3.569
 5824SOL     OW18370   0.961   7.008   2.031
 5824SOL    HW118371   0.933   0.033   2.113
 5824SOL    HW218372   1.048   6.962   2.047
 5825SOL     OW18373   6.312   0.285   4.081
 5825SOL    HW118374   6.250   0.238   4.018
 5825SOL    HW218375   6.290   0.261   4.175
 5826SOL     OW18376   0.383   6.706   4.821
 5826SOL    HW118377   0.369   6.734   4.726
 5826SOL    HW218378   0.295   6.704   4.869
 5827SOL     OW18379   2.165   4.465   5.230
 5827SOL    HW118380   2.239   4.456   5.297
 5827SOL    HW218381   2.203   4.498   5.144
 5828SOL     OW18382   4.694   6.892   4.366
 5828SOL    HW118383   4.745   6.973   4.339
 5828SOL    HW218384   4.608   6.920   4.410
 5829SOL     OW18385   2.500   1.066   4.014
 5829SOL    HW118386   2.436   1.125   4.064
 5829SOL    HW218387   2.516   0.983   4.067
 5830SOL     OW18388   3.843   6.005   5.238
 5830SOL    HW118389   3.783   5.956   5.174
 5830SOL    HW218390   3.788   6.065   5.296
 5831SOL     OW18391   1.572   1.392   5.681
 5831SOL    HW118392   1.512   1.349   5.614
 5831SOL    HW218393   1.523   1.405   5.767
 5832SOL     OW18394   3.444   4.971   1.049
 5832SOL    HW118395   3.538   4.975   1.016
 5832SOL    HW218396   3.431   5.036   1.123
 5833SOL     OW18397   3.832   3.704   5.766
 5833SOL    HW118398   3.907   3.637   5.756
 5833SOL    HW218399   3.843   3.752   5.853
 5834SOL     OW18400   5.893   4.134   6.697
 5834SOL    HW118401   5.876   4.037   6.711
 5834SOL    HW218402   5.981   4.147   6.652
 5835SOL     OW18403   5.540   1.087   2.615
 5835SOL    HW118404   5.449   1.052   2.638
 5835SOL    HW218405   5.585   1.119   2.698
 5836SOL     OW18406   3.957   6.947   1.655
 5836SOL    HW118407   4.018   6.988   1.723
 5836SOL    HW218408   3.958   7.001   1.571
 5837SOL     OW18409   3.631   4.159   0.131
 5837SOL    HW118410   3.638   4.105   0.047
 5837SOL    HW218411   3.555   4.224   0.122
 5838SOL     OW18412   2.544   1.931   0.749
 5838SOL    HW118413   2.593   1.850   0.717
 5838SOL    HW218414   2.609   2.003   0.771
 5839SOL     OW18415   1.578   1.935   1.408
 5839SOL    HW118416   1.611   1.881   1.330
 5839SOL    HW218417   1.571   1.876   1.489
 5840SOL     OW18418   0.968   3.146   2.382
 5840SOL    HW118419   0.980   3.048   2.367
 5840SOL    HW218420   0.922   3.160   2.470
 5841SOL     OW18421   5.039   1.510   0.300
 5841SOL    HW118422   4.944   1.480   0.298
 5841SOL    HW218423   5.099   1.431   0.314
 5842SOL     OW18424   2.997   1.450   0.773
 5842SOL    HW118425   3.059   1.470   0.848
 5842SOL    HW218426   2.903   1.443   0.807
 5843SOL     OW18427   1.774   2.951   1.131
 5843SOL    HW118428   1.867   2.961   1.166
 5843SOL    HW218429   1.736   3.041   1.110
 5844SOL     OW18430   0.732   0.801   4.803
 5844SOL    HW118431   0.638   0.812   4.834
 5844SOL    HW218432   0.748   0.705   4.777
 5845SOL     OW18433   0.897   5.871   1.898
 5845SOL    HW118434   0.880   5.778   1.864
 5845SOL    HW218435   0.951   5.867   1.981
 5846SOL     OW18436   6.523   3.641   5.651
 5846SOL    HW118437   6.460   3.701   5.700
 5846SOL    HW218438   6.527   3.668   5.554
 5847SOL     OW18439   2.817   3.197   0.492
 5847SOL    HW118440   2.746   3.237   0.550
 5847SOL    HW218441   2.830   3.255   0.411
 5848SOL     OW18442   2.109   6.023   3.444
 5848SOL    HW118443   2.032   6.033   3.382
 5848SOL    HW218444   2.113   6.103   3.505
 5849SOL     OW18445   2.570   5.721   5.506
 5849SOL    HW118446   2.669   5.720   5.521
 5849SOL    HW218447   2.551   5.699   5.410
 5850SOL     OW18448   0.722   1.947   1.562
 5850SOL    HW118449   0.695   1.923   1.469
 5850SOL    HW218450   0.724   1.865   1.619
 5851SOL     OW18451   5.519   2.991   4.855
 5851SOL    HW118452   5.520   3.039   4.943
 5851SOL    HW218453   5.425   2.965   4.832
 5852SOL     OW18454   5.242   5.179   3.367
 5852SOL    HW118455   5.293   5.169   3.282
 5852SOL    HW218456   5.144   5.165   3.350
 5853SOL     OW18457   3.837   4.936   5.510
 5853SOL    HW118458   3.869   4.948   5.604
 5853SOL    HW218459   3.875   5.008   5.452
 5854SOL     OW18460   2.539   4.992   6.279
 5854SOL    HW118461   2.501   4.912   6.231
 5854SOL    HW218462   2.529   5.073   6.221
 5855SOL     OW18463   2.060   2.215   3.765
 5855SOL    HW118464   2.026   2.308   3.781
 5855SOL    HW218465   2.066   2.167   3.852
 5856SOL     OW18466   1.647   0.419   2.957
 5856SOL    HW118467   1.650   0.428   2.857
 5856SOL    HW218468   1.567   0.365   2.984
 5857SOL     OW18469   0.333   4.534   6.469
 5857SOL    HW118470   0.372   4.494   6.553
 5857SOL    HW218471   0.240   4.564   6.486
 5858SOL     OW18472   1.445   1.966   3.081
 5858SOL    HW118473   1.544   1.958   3.089
 5858SOL    HW218474   1.420   2.061   3.063
 5859SOL     OW18475   6.144   7.015   2.440
 5859SOL    HW118476   6.098   6.935   2.402
 5859SOL    HW218477   6.224   6.985   2.491
 5860SOL     OW18478   0.314   3.038   3.904
 5860SOL    HW118479   0.367   2.968   3.857
 5860SOL    HW218480   0.342   3.043   4.000
 5861SOL     OW18481   5.367   1.192   4.922
 5861SOL    HW118482   5.328   1.107   4.887
 5861SOL    HW218483   5.326   1.214   5.010
 5862SOL     OW18484   0.241   5.299   3.185
 5862SOL    HW118485   0.152   5.263   3.215
 5862SOL    HW218486   0.227   5.371   3.117
 5863SOL     OW18487   3.737   0.177   5.132
 5863SOL    HW118488   3.659   0.218   5.179
 5863SOL    HW218489   3.756   0.228   5.047
 5864SOL     OW18490   3.207   4.072   3.212
 5864SOL    HW118491   3.195   4.165   3.248
 5864SOL    HW218492   3.245   4.076   3.120
 5865SOL     OW18493   5.899   0.990   5.337
 5865SOL    HW118494   5.819   0.993   5.277
 5865SOL    HW218495   5.980   0.963   5.284
 5866SOL     OW18496   4.100   3.305   2.084
 5866SOL    HW118497   4.142   3.337   2.169
 5866SOL    HW218498   4.033   3.233   2.105
 5867SOL     OW18499   2.892   2.360   1.476
 5867SOL    HW118500   2.950   2.351   1.557
 5867SOL    HW218501   2.796   2.356   1.502
 5868SOL     OW18502   0.559   1.737   6.438
 5868SOL    HW118503   0.521   1.819   6.397
 5868SOL    HW218504   0.560   1.746   6.538
 5869SOL     OW18505   1.181   4.711   4.411
 5869SOL    HW118506   1.181   4.626   4.359
 5869SOL    HW218507   1.097   4.718   4.465
 5870SOL     OW18508   4.329   4.797   5.113
 5870SOL    HW118509   4.420   4.837   5.126
 5870SOL    HW218510   4.337   4.711   5.062
 5871SOL     OW18511   3.127   3.656   2.776
 5871SOL    HW118512   3.032   3.649   2.747
 5871SOL    HW218513   3.137   3.731   2.841
 5872SOL     OW18514   4.239   6.645   2.344
 5872SOL    HW118515   4.320   6.703   2.335
 5872SOL    HW218516   4.205   6.621   2.253
 5873SOL     OW18517   3.616   4.861   2.758
 5873SOL    HW118518   3.578   4.810   2.681
 5873SOL    HW218519   3.541   4.898   2.814
 5874SOL     OW18520   2.212   4.211   5.986
 5874SOL    HW118521   2.253   4.123   5.961
 5874SOL    HW218522   2.210   4.270   5.906
 5875SOL     OW18523   3.583   1.526   0.253
 5875SOL    HW118524   3.578   1.523   0.153
 5875SOL    HW218525   3.500   1.568   0.289
 5876SOL     OW18526   3.539   3.328   1.962
 5876SOL    HW118527   3.601   3.375   2.025
 5876SOL    HW218528   3.555   3.230   1.967
 5877SOL     OW18529   5.987   5.525   1.090
 5877SOL    HW118530   5.970   5.490   1.182
 5877SOL    HW218531   5.901   5.557   1.050
 5878SOL     OW18532   1.927   4.842   2.801
 5878SOL    HW118533   1.843   4.790   2.821
 5878SOL    HW218534   1.972   4.804   2.720
 5879SOL     OW18535   6.707   4.058   0.156
 5879SOL    HW118536   6.755   3.983   0.203
 5879SOL    HW218537   6.614   4.030   0.135
 5880SOL     OW18538   3.009   6.441   1.409
 5880SOL    HW118539   2.914   6.432   1.441
 5880SOL    HW218540   3.067   6.466   1.486
 5881SOL     OW18541   0.679   4.591   3.774
 5881SOL    HW118542   0.589   4.629   3.798
 5881SOL    HW218543   0.695   4.507   3.825
 5882SOL     OW18544   5.153   0.183   1.452
 5882SOL    HW118545   5.233   0.142   1.495
 5882SOL    HW218546   5.081   0.195   1.520
 5883SOL     OW18547   6.329   2.470   6.389
 5883SOL    HW118548   6.384   2.553   6.386
 5883SOL    HW218549   6.265   2.468   6.312
 5884SOL     OW18550   0.664   1.028   3.257
 5884SOL    HW118551   0.690   0.933   3.242
 5884SOL    HW218552   0.663   1.077   3.170
 5885SOL     OW18553   6.559   6.634   1.134
 5885SOL    HW118554   6.610   6.698   1.193
 5885SOL    HW218555   6.621   6.563   1.100
 5886SOL     OW18556   0.610   2.858   5.252
 5886SOL    HW118557   0.709   2.851   5.269
 5886SOL    HW218558   0.579   2.772   5.210
 5887SOL     OW18559   3.262   0.826   4.323
 5887SOL    HW118560   3.191   0.882   4.282
 5887SOL    HW218561   3.335   0.810   4.257
 5888SOL     OW18562   1.759   6.265   2.925
 5888SOL    HW118563   1.819   6.285   2.847
 5888SOL    HW218564   1.774   6.333   2.997
 5889SOL     OW18565   2.370   0.412   0.955
 5889SOL    HW118566   2.349   0.508   0.972
 5889SOL    HW218567   2.296   0.370   0.904
 5890SOL     OW18568   1.976   6.385   5.325
 5890SOL    HW118569   1.915   6.332   5.384
 5890SOL    HW218570   1.975   6.481   5.353
 5891SOL     OW18571   3.933   2.850   6.939
 5891SOL    HW118572   3.977   2.844   6.849
 5891SOL    HW218573   3.852   2.909   6.932
 5892SOL     OW18574   0.680   6.252   1.434
 5892SOL    HW118575   0.679   6.281   1.529
 5892SOL    HW218576   0.678   6.152   1.429
 5893SOL     OW18577   1.194   2.260   3.509
 5893SOL    HW118578   1.226   2.341   3.459
 5893SOL    HW218579   1.272   2.208   3.541
 5894SOL     OW18580   1.584   4.300   3.593
 5894SOL    HW118581   1.518   4.225   3.586
 5894SOL    HW218582   1.538   4.387   3.576
 5895SOL     OW18583   5.263   2.878   4.828
 5895SOL    HW118584   5.323   2.801   4.850
 5895SOL    HW218585   5.190   2.846   4.767
 5896SOL     OW18586   3.830   2.238   6.443
 5896SOL    HW118587   3.733   2.263   6.437
 5896SOL    HW218588   3.874   2.291   6.515
 5897SOL     OW18589   3.787   0.958   0.737
 5897SOL    HW118590   3.806   0.861   0.753
 5897SOL    HW218591   3.760   1.002   0.823
 5898SOL     OW18592   1.365   0.272   1.701
 5898SOL    HW118593   1.455   0.260   1.659
 5898SOL    HW218594   1.300   0.210   1.658
 5899SOL     OW18595   5.400   0.038   4.917
 5899SOL    HW118596   5.305   0.006   4.916
 5899SOL    HW218597   5.454   7.008   4.853
 5900SOL     OW18598   5.003   5.094   3.135
 5900SOL    HW118599   5.003   5.011   3.079
 5900SOL    HW218600   4.996   5.174   3.075
 5901SOL     OW18601   2.175   6.561   6.446
 5901SOL    HW118602   2.136   6.474   6.416
 5901SOL    HW218603   2.184   6.561   6.546
 5902SOL     OW18604   6.831   2.481   0.736
 5902SOL    HW118605   6.847   2.389   0.699
 5902SOL    HW218606   6.837   2.548   0.663
 5903SOL     OW18607   6.036   4.562   0.183
 5903SOL    HW118608   6.074   4.630   0.120
 5903SOL    HW218609   5.938   4.552   0.165
 5904SOL     OW18610   0.507   3.317   2.313
 5904SOL    HW118611   0.474   3.384   2.247
 5904SOL    HW218612   0.537   3.363   2.396
 5905SOL     OW18613   6.697   6.131   2.677
 5905SOL    HW118614   6.630   6.061   2.698
 5905SOL    HW218615   6.749   6.105   2.596
 5906SOL     OW18616   5.720   1.292   3.900
 5906SOL    HW118617   5.658   1.242   3.961
 5906SOL    HW218618   5.724   1.387   3.928
 5907SOL     OW18619   0.874   6.277   0.981
 5907SOL    HW118620   0.881   6.220   0.899
 5907SOL    HW218621   0.870   6.373   0.955
 5908SOL     OW18622   0.917   2.585   5.717
 5908SOL    HW118623   1.012   2.593   5.746
 5908SOL    HW218624   0.873   2.675   5.721
 5909SOL     OW18625   1.416   5.907   0.549
 5909SOL    HW118626   1.448   5.925   0.456
 5909SOL    HW218627   1.327   5.950   0.563
 5910SOL     OW18628   1.157   2.563   3.342
 5910SOL    HW118629   1.184   2.508   3.263
 5910SOL    HW218630   1.067   2.603   3.325
 5911SOL     OW18631   6.523   5.867   6.719
 5911SOL    HW118632   6.601   5.809   6.741
 5911SOL    HW218633   6.553   5.961   6.708
 5912SOL     OW18634   6.548   1.435   5.940
 5912SOL    HW118635   6.619   1.385   5.890
 5912SOL    HW218636   6.485   1.478   5.876
 5913SOL     OW18637   5.502   3.242   0.444
 5913SOL    HW118638   5.506   3.280   0.351
 5913SOL    HW218639   5.428   3.174   0.449
 5914SOL     OW18640   0.937   6.709   6.330
 5914SOL    HW118641   1.026   6.738   6.296
 5914SOL    HW218642   0.936   6.610   6.344
 5915SOL     OW18643   3.459   6.961   0.478
 5915SOL    HW118644   3.386   6.893   0.478
 5915SOL    HW218645   3.540   6.923   0.434
 5916SOL     OW18646   0.994   6.509   1.697
 5916SOL    HW118647   1.063   6.577   1.719
 5916SOL    HW218648   0.905   6.538   1.733
 5917SOL     OW18649   3.347   4.249   6.405
 5917SOL    HW118650   3.385   4.189   6.335
 5917SOL    HW218651   3.264   4.292   6.370
 5918SOL     OW18652   2.527   5.829   5.853
 5918SOL    HW118653   2.438   5.839   5.808
 5918SOL    HW218654   2.596   5.806   5.784
 5919SOL     OW18655   3.410   3.527   3.289
 5919SOL    HW118656   3.462   3.575   3.360
 5919SOL    HW218657   3.470   3.506   3.212
 5920SOL     OW18658   5.787   1.115   6.052
 5920SOL    HW118659   5.825   1.024   6.039
 5920SOL    HW218660   5.776   1.160   5.963
 5921SOL     OW18661   3.992   4.690   6.719
 5921SOL    HW118662   3.982   4.786   6.695
 5921SOL    HW218663   4.038   4.641   6.645
 5922SOL     OW18664   6.562   3.867   3.706
 5922SOL    HW118665   6.476   3.817   3.694
 5922SOL    HW218666   6.543   3.956   3.748
 5923SOL     OW18667   6.336   1.273   1.790
 5923SOL    HW118668   6.396   1.337   1.741
 5923SOL    HW218669   6.243   1.284   1.757
 5924SOL     OW18670   5.399   6.912   3.048
 5924SOL    HW118671   5.378   6.947   2.957
 5924SOL    HW218672   5.322   6.930   3.109
 5925SOL     OW18673   4.620   5.465   1.201
 5925SOL    HW118674   4.575   5.485   1.288
 5925SOL    HW218675   4.678   5.383   1.212
 5926SOL     OW18676   3.757   4.959   3.406
 5926SOL    HW118677   3.783   5.037   3.463
 5926SOL    HW218678   3.832   4.893   3.404
 5927SOL     OW18679   1.804   3.890   1.963
 5927SOL    HW118680   1.861   3.863   2.041
 5927SOL    HW218681   1.808   3.819   1.893
 5928SOL     OW18682   4.398   0.551   0.926
 5928SOL    HW118683   4.485   0.599   0.917
 5928SOL    HW218684   4.414   0.462   0.971
 5929SOL     OW18685   6.635   0.556   5.160
 5929SOL    HW118686   6.635   0.588   5.255
 5929SOL    HW218687   6.728   0.528   5.135
 5930SOL     OW18688   1.351   2.957   1.339
 5930SOL    HW118689   1.405   2.906   1.272
 5930SOL    HW218690   1.265   2.910   1.355
 5931SOL     OW18691   5.497   6.187   2.710
 5931SOL    HW118692   5.424   6.244   2.671
 5931SOL    HW218693   5.510   6.212   2.806
 5932SOL     OW18694   3.314   0.127   6.626
 5932SOL    HW118695   3.365   0.206   6.660
 5932SOL    HW218696   3.375   0.049   6.615
 5933SOL     OW18697   0.124   5.677   4.409
 5933SOL    HW118698   0.197   5.717   4.354
 5933SOL    HW218699   0.107   5.583   4.378
 5934SOL     OW18700   3.481   3.894   5.504
 5934SOL    HW118701   3.552   3.825   5.521
 5934SOL    HW218702   3.395   3.864   5.545
 5935SOL     OW18703   0.398   6.194   5.480
 5935SOL    HW118704   0.424   6.097   5.481
 5935SOL    HW218705   0.352   6.215   5.394
 5936SOL     OW18706   3.217   2.957   2.730
 5936SOL    HW118707   3.192   2.951   2.634
 5936SOL    HW218708   3.311   2.925   2.742
 5937SOL     OW18709   0.221   2.608   2.088
 5937SOL    HW118710   0.284   2.634   2.161
 5937SOL    HW218711   0.137   2.663   2.094
 5938SOL     OW18712   6.008   5.480   5.230
 5938SOL    HW118713   6.032   5.425   5.151
 5938SOL    HW218714   5.926   5.535   5.210
 5939SOL     OW18715   3.744   6.498   4.147
 5939SOL    HW118716   3.840   6.492   4.174
 5939SOL    HW218717   3.697   6.564   4.206
 5940SOL     OW18718   4.936   5.276   2.947
 5940SOL    HW118719   4.904   5.235   2.861
 5940SOL    HW218720   4.918   5.374   2.946
 5941SOL     OW18721   6.351   2.382   2.231
 5941SOL    HW118722   6.290   2.337   2.297
 5941SOL    HW218723   6.384   2.316   2.165
 5942SOL     OW18724   6.209   3.187   5.651
 5942SOL    HW118725   6.278   3.242   5.699
 5942SOL    HW218726   6.158   3.245   5.588
 5943SOL     OW18727   4.069   2.933   0.204
 5943SOL    HW118728   4.060   3.012   0.143
 5943SOL    HW218729   4.048   2.849   0.154
 5944SOL     OW18730   0.475   3.066   0.281
 5944SOL    HW118731   0.503   3.048   0.187
 5944SOL    HW218732   0.406   3.139   0.283
 5945SOL     OW18733   0.559   6.176   4.861
 5945SOL    HW118734   0.513   6.172   4.772
 5945SOL    HW218735   0.629   6.105   4.867
 5946SOL     OW18736   3.932   4.372   6.516
 5946SOL    HW118737   3.854   4.319   6.551
 5946SOL    HW218738   4.015   4.341   6.562
 5947SOL     OW18739   3.166   2.990   4.759
 5947SOL    HW118740   3.102   2.917   4.780
 5947SOL    HW218741   3.115   3.074   4.738
 5948SOL     OW18742   4.793   4.053   2.248
 5948SOL    HW118743   4.870   4.058   2.185
 5948SOL    HW218744   4.727   3.984   2.217
 5949SOL     OW18745   5.634   5.377   1.323
 5949SOL    HW118746   5.580   5.331   1.394
 5949SOL    HW218747   5.727   5.392   1.357
 5950SOL     OW18748   5.090   2.352   5.316
 5950SOL    HW118749   5.149   2.286   5.270
 5950SOL    HW218750   5.001   2.355   5.272
 5951SOL     OW18751   0.795   5.366   5.084
 5951SOL    HW118752   0.752   5.317   5.008
 5951SOL    HW218753   0.867   5.425   5.049
 5952SOL     OW18754   4.467   5.057   2.169
 5952SOL    HW118755   4.451   5.149   2.204
 5952SOL    HW218756   4.417   4.990   2.224
 5953SOL     OW18757   6.459   2.817   4.966
 5953SOL    HW118758   6.547   2.801   5.011
 5953SOL    HW218759   6.475   2.837   4.869
 5954SOL     OW18760   0.563   5.612   5.469
 5954SOL    HW118761   0.540   5.568   5.383
 5954SOL    HW218762   0.481   5.655   5.507
 5955SOL     OW18763   4.813   4.857   1.230
 5955SOL    HW118764   4.791   4.766   1.266
 5955SOL    HW218765   4.863   4.848   1.144
 5956SOL     OW18766   5.297   2.771   4.237
 5956SOL    HW118767   5.333   2.696   4.182
 5956SOL    HW218768   5.326   2.858   4.197
 5957SOL     OW18769   1.139   1.067   3.053
 5957SOL    HW118770   1.162   1.032   2.962
 5957SOL    HW218771   1.070   1.007   3.095
 5958SOL     OW18772   3.362   0.325   2.813
 5958SOL    HW118773   3.291   0.269   2.770
 5958SOL    HW218774   3.376   0.294   2.907
 5959SOL     OW18775   4.838   2.356   5.188
 5959SOL    HW118776   4.854   2.323   5.095
 5959SOL    HW218777   4.839   2.456   5.187
 5960SOL     OW18778   3.187   6.761   4.907
 5960SOL    HW118779   3.087   6.771   4.906
 5960SOL    HW218780   3.212   6.672   4.871
 5961SOL     OW18781   3.809   1.872   2.379
 5961SOL    HW118782   3.765   1.927   2.308
 5961SOL    HW218783   3.740   1.836   2.442
 5962SOL     OW18784   4.771   6.147   6.277
 5962SOL    HW118785   4.754   6.236   6.318
 5962SOL    HW218786   4.799   6.083   6.349
 5963SOL     OW18787   3.482   4.539   6.467
 5963SOL    HW118788   3.387   4.566   6.455
 5963SOL    HW218789   3.485   4.446   6.505
 5964SOL     OW18790   2.112   0.389   2.885
 5964SOL    HW118791   2.195   0.439   2.863
 5964SOL    HW218792   2.122   0.294   2.855
 5965SOL     OW18793   1.760   0.396   6.887
 5965SOL    HW118794   1.831   0.337   6.849
 5965SOL    HW218795   1.690   0.413   6.818
 5966SOL     OW18796   1.663   7.020   5.684
 5966SOL    HW118797   1.576   0.013   5.730
 5966SOL    HW218798   1.677   0.063   5.611
 5967SOL     OW18799   2.509   2.143   4.929
 5967SOL    HW118800   2.576   2.211   4.956
 5967SOL    HW218801   2.428   2.188   4.893
 5968SOL     OW18802   5.710   2.543   0.061
 5968SOL    HW118803   5.754   2.491   0.134
 5968SOL    HW218804   5.773   2.612   0.026
 5969SOL     OW18805   5.144   0.329   6.473
 5969SOL    HW118806   5.110   0.423   6.479
 5969SOL    HW218807   5.074   0.271   6.430
 5970SOL     OW18808   0.196   4.253   0.446
 5970SOL    HW118809   0.185   4.318   0.370
 5970SOL    HW218810   0.255   4.178   0.416
 5971SOL     OW18811   5.720   0.229   2.541
 5971SOL    HW118812   5.645   0.279   2.499
 5971SOL    HW218813   5.792   0.214   2.473
 5972SOL     OW18814   5.029   5.236   6.958
 5972SOL    HW118815   5.060   5.157   6.905
 5972SOL    HW218816   4.940   5.215   7.000
 5973SOL     OW18817   1.992   3.461   2.895
 5973SOL    HW118818   2.033   3.516   2.968
 5973SOL    HW218819   1.914   3.410   2.931
 5974SOL     OW18820   4.442   0.786   6.948
 5974SOL    HW118821   4.392   0.701   6.965
 5974SOL    HW218822   4.381   0.864   6.962
 5975SOL     OW18823   5.027   5.025   0.703
 5975SOL    HW118824   5.110   4.970   0.689
 5975SOL    HW218825   5.050   5.122   0.697
 5976SOL     OW18826   3.660   3.695   5.540
 5976SOL    HW118827   3.641   3.599   5.519
 5976SOL    HW218828   3.717   3.701   5.622
 5977SOL     OW18829   0.794   5.421   0.035
 5977SOL    HW118830   0.726   5.425   0.109
 5977SOL    HW218831   0.873   5.370   0.066
 5978SOL     OW18832   3.638   5.315   0.086
 5978SOL    HW118833   3.671   5.223   0.109
 5978SOL    HW218834   3.676   5.343   7.022
 5979SOL     OW18835   6.069   0.527   2.182
 5979SOL    HW118836   6.009   0.496   2.109
 5979SOL    HW218837   6.164   0.515   2.155
 5980SOL     OW18838   3.150   2.782   1.842
 5980SOL    HW118839   3.098   2.702   1.873
 5980SOL    HW218840   3.102   2.825   1.765
 5981SOL     OW18841   4.636   2.864   0.449
 5981SOL    HW118842   4.545   2.845   0.411
 5981SOL    HW218843   4.687   2.778   0.459
 5982SOL     OW18844   5.338   2.214   2.143
 5982SOL    HW118845   5.266   2.282   2.130
 5982SOL    HW218846   5.366   2.176   2.055
 5983SOL     OW18847   0.514   0.489   4.189
 5983SOL    HW118848   0.584   0.539   4.138
 5983SOL    HW218849   0.451   0.555   4.231
 5984SOL     OW18850   5.804   6.167   3.404
 5984SOL    HW118851   5.756   6.239   3.352
 5984SOL    HW218852   5.883   6.136   3.351
 5985SOL     OW18853   6.328   2.090   3.587
 5985SOL    HW118854   6.407   2.094   3.648
 5985SOL    HW218855   6.288   1.998   3.589
 5986SOL     OW18856   4.078   3.836   5.453
 5986SOL    HW118857   4.140   3.863   5.379
 5986SOL    HW218858   4.030   3.916   5.488
 5987SOL     OW18859   6.762   0.925   4.730
 5987SOL    HW118860   6.748   0.881   4.819
 5987SOL    HW218861   6.680   0.914   4.674
 5988SOL     OW18862   3.063   1.243   6.601
 5988SOL    HW118863   3.122   1.315   6.638
 5988SOL    HW218864   3.062   1.165   6.663
 5989SOL     OW18865   1.140   5.405   6.638
 5989SOL    HW118866   1.150   5.405   6.738
 5989SOL    HW218867   1.200   5.335   6.599
 5990SOL     OW18868   4.380   3.990   1.140
 5990SOL    HW118869   4.450   3.922   1.159
 5990SOL    HW218870   4.293   3.945   1.120
 5991SOL     OW18871   3.994   5.791   0.198
 5991SOL    HW118872   4.080   5.795   0.249
 5991SOL    HW218873   3.981   5.878   0.150
 5992SOL     OW18874   3.041   0.346   2.281
 5992SOL    HW118875   3.085   0.366   2.368
 5992SOL    HW218876   2.968   0.412   2.264
 5993SOL     OW18877   6.374   3.704   6.762
 5993SOL    HW118878   6.310   3.690   6.837
 5993SOL    HW218879   6.395   3.616   6.719
 5994SOL     OW18880   7.003   3.401   1.246
 5994SOL    HW118881   0.035   3.460   1.188
 5994SOL    HW218882   7.017   3.306   1.221
 5995SOL     OW18883   4.168   3.103   1.191
 5995SOL    HW118884   4.082   3.114   1.239
 5995SOL    HW218885   4.153   3.114   1.092
 5996SOL     OW18886   2.261   6.044   1.438
 5996SOL    HW118887   2.167   6.011   1.447
 5996SOL    HW218888   2.312   6.024   1.522
 5997SOL     OW18889   6.842   6.796   3.346
 5997SOL    HW118890   6.802   6.793   3.438
 5997SOL    HW218891   6.848   6.704   3.309
 5998SOL     OW18892   5.479   0.723   1.570
 5998SOL    HW118893   5.533   0.757   1.647
 5998SOL    HW218894   5.399   0.781   1.558
 5999SOL     OW18895   3.949   3.312   0.871
 5999SOL    HW118896   4.042   3.290   0.840
 5999SOL    HW218897   3.905   3.228   0.903
 6000SOL     OW18898   0.606   5.444   0.287
 6000SOL    HW118899   0.591   5.522   0.347
 6000SOL    HW218900   0.519   5.402   0.263
 6001SOL     OW18901   5.226   6.038   6.408
 6001SOL    HW118902   5.155   5.981   6.366
 6001SOL    HW218903   5.212   6.039   6.507
 6002SOL     OW18904   6.651   6.992   4.801
 6002SOL    HW118905   6.722   6.980   4.731
 6002SOL    HW218906   6.582   0.032   4.768
 6003SOL     OW18907   6.620   2.441   4.471
 6003SOL    HW118908   6.632   2.396   4.383
 6003SOL    HW218909   6.550   2.512   4.463
 6004SOL     OW18910   5.812   2.451   3.170
 6004SOL    HW118911   5.880   2.451   3.243
 6004SOL    HW218912   5.764   2.363   3.170
 6005SOL     OW18913   5.152   4.297   5.042
 6005SOL    HW118914   5.126   4.230   5.112
 6005SOL    HW218915   5.148   4.254   4.952
 6006SOL     OW18916   3.481   0.282   5.227
 6006SOL    HW118917   3.433   0.288   5.139
 6006SOL    HW218918   3.503   0.373   5.260
 6007SOL     OW18919   0.457   3.866   6.913
 6007SOL    HW118920   0.471   3.904   6.821
 6007SOL    HW218921   0.365   3.829   6.920
 6008SOL     OW18922   1.953   4.447   5.714
 6008SOL    HW118923   1.901   4.471   5.631
 6008SOL    HW218924   2.010   4.525   5.741
 6009SOL     OW18925   5.026   5.983   3.308
 6009SOL    HW118926   4.960   6.019   3.242
 6009SOL    HW218927   4.993   5.896   3.344
 6010SOL     OW18928   0.240   4.109   4.407
 6010SOL    HW118929   0.167   4.041   4.407
 6010SOL    HW218930   0.298   4.095   4.326
 6011SOL     OW18931   4.537   1.965   3.039
 6011SOL    HW118932   4.605   1.955   2.966
 6011SOL    HW218933   4.469   2.033   3.012
 6012SOL     OW18934   5.762   0.255   6.652
 6012SOL    HW118935   5.667   0.250   6.682
 6012SOL    HW218936   5.817   0.303   6.720
 6013SOL     OW18937   5.205   1.122   2.434
 6013SOL    HW118938   5.251   1.086   2.353
 6013SOL    HW218939   5.248   1.084   2.516
 6014SOL     OW18940   3.354   3.209   3.626
 6014SOL    HW118941   3.370   3.132   3.565
 6014SOL    HW218942   3.268   3.254   3.601
 6015SOL     OW18943   6.163   2.696   4.468
 6015SOL    HW118944   6.070   2.665   4.448
 6015SOL    HW218945   6.159   2.772   4.533
 6016SOL     OW18946   4.757   1.775   5.322
 6016SOL    HW118947   4.852   1.765   5.350
 6016SOL    HW218948   4.733   1.702   5.257
 6017SOL     OW18949   0.209   3.956   4.865
 6017SOL    HW118950   0.189   3.870   4.817
 6017SOL    HW218951   0.198   4.032   4.801
 6018SOL     OW18952   3.310   1.664   4.611
 6018SOL    HW118953   3.271   1.593   4.552
 6018SOL    HW218954   3.244   1.690   4.681
 6019SOL     OW18955   1.065   3.728   5.911
 6019SOL    HW118956   1.137   3.700   5.849
 6019SOL    HW218957   1.104   3.755   5.999
 6020SOL     OW18958   1.329   5.061   1.022
 6020SOL    HW118959   1.408   5.027   0.972
 6020SOL    HW218960   1.281   4.984   1.065
 6021SOL     OW18961   4.382   0.448   2.595
 6021SOL    HW118962   4.365   0.350   2.601
 6021SOL    HW218963   4.313   0.497   2.648
 6022SOL     OW18964   6.388   1.919   3.221
 6022SOL    HW118965   6.377   1.939   3.123
 6022SOL    HW218966   6.403   1.821   3.233
 6023SOL     OW18967   5.364   0.043   1.556
 6023SOL    HW118968   5.370   6.989   1.619
 6023SOL    HW218969   5.380   0.011   1.463
 6024SOL     OW18970   0.569   4.964   0.950
 6024SOL    HW118971   0.479   4.945   0.990
 6024SOL    HW218972   0.581   4.910   0.867
 6025SOL     OW18973   2.730   1.203   3.679
 6025SOL    HW118974   2.776   1.252   3.753
 6025SOL    HW218975   2.768   1.110   3.672
 6026SOL     OW18976   6.488   4.459   4.388
 6026SOL    HW118977   6.430   4.378   4.396
 6026SOL    HW218978   6.430   4.540   4.377
 6027SOL     OW18979   6.109   3.293   6.063
 6027SOL    HW118980   6.095   3.200   6.030
 6027SOL    HW218981   6.109   3.293   6.163
 6028SOL     OW18982   5.340   4.834   1.267
 6028SOL    HW118983   5.421   4.878   1.306
 6028SOL    HW218984   5.316   4.879   1.181
 6029SOL     OW18985   2.280   0.045   3.429
 6029SOL    HW118986   2.281   7.007   3.350
 6029SOL    HW218987   2.277   0.139   3.396
 6030SOL     OW18988   4.965   3.681   4.791
 6030SOL    HW118989   4.906   3.741   4.737
 6030SOL    HW218990   4.914   3.644   4.869
 6031SOL     OW18991   1.236   6.008   3.980
 6031SOL    HW118992   1.184   5.929   4.013
 6031SOL    HW218993   1.174   6.086   3.970
 6032SOL     OW18994   3.471   5.918   3.946
 6032SOL    HW118995   3.557   5.869   3.956
 6032SOL    HW218996   3.485   5.999   3.889
 6033SOL     OW18997   2.496   2.603   2.849
 6033SOL    HW118998   2.463   2.546   2.774
 6033SOL    HW218999   2.509   2.547   2.931
 6034SOL     OW19000   1.034   0.204   6.382
 6034SOL    HW119001   1.075   0.236   6.296
 6034SOL    HW219002   1.071   0.115   6.406
 6035SOL     OW19003   0.645   1.071   2.725
 6035SOL    HW119004   0.611   1.132   2.653
 6035SOL    HW219005   0.741   1.049   2.706
 6036SOL     OW19006   6.243   4.759   1.657
 6036SOL    HW119007   6.304   4.784   1.582
 6036SOL    HW219008   6.293   4.704   1.724
 6037SOL     OW19009   3.888   1.349   0.723
 6037SOL    HW119010   3.806   1.329   0.777
 6037SOL    HW219011   3.967   1.303   0.762
 6038SOL     OW19012   0.240   2.450   6.876
 6038SOL    HW119013   0.182   2.388   6.930
 6038SOL    HW219014   0.185   2.525   6.841
 6039SOL     OW19015   4.172   3.581   3.784
 6039SOL    HW119016   4.228   3.507   3.820
 6039SOL    HW219017   4.183   3.586   3.685
 6040SOL     OW19018   1.590   1.527   0.472
 6040SOL    HW119019   1.594   1.427   0.483
 6040SOL    HW219020   1.550   1.548   0.382
 6041SOL     OW19021   3.131   3.008   5.533
 6041SOL    HW119022   3.128   3.099   5.493
 6041SOL    HW219023   3.121   2.939   5.461
 6042SOL     OW19024   4.208   6.067   3.057
 6042SOL    HW119025   4.260   5.987   3.028
 6042SOL    HW219026   4.172   6.053   3.149
 6043SOL     OW19027   1.444   0.768   3.782
 6043SOL    HW119028   1.399   0.702   3.722
 6043SOL    HW219029   1.490   0.719   3.857
 6044SOL     OW19030   2.061   1.652   1.883
 6044SOL    HW119031   2.019   1.626   1.970
 6044SOL    HW219032   2.159   1.629   1.886
 6045SOL     OW19033   4.953   3.011   3.884
 6045SOL    HW119034   4.942   3.072   3.806
 6045SOL    HW219035   4.979   3.063   3.965
 6046SOL     OW19036   3.191   2.502   1.273
 6046SOL    HW119037   3.287   2.526   1.257
 6046SOL    HW219038   3.132   2.560   1.216
 6047SOL     OW19039   5.515   2.409   0.823
 6047SOL    HW119040   5.481   2.348   0.752
 6047SOL    HW219041   5.574   2.359   0.885
 6048SOL     OW19042   5.267   4.915   5.190
 6048SOL    HW119043   5.292   5.007   5.218
 6048SOL    HW219044   5.249   4.913   5.092
 6049SOL     OW19045   5.423   4.491   6.244
 6049SOL    HW119046   5.397   4.545   6.325
 6049SOL    HW219047   5.344   4.479   6.185
 6050SOL     OW19048   3.065   5.537   0.383
 6050SOL    HW119049   3.152   5.499   0.413
 6050SOL    HW219050   3.076   5.635   0.365
 6051SOL     OW19051   0.363   0.875   2.398
 6051SOL    HW119052   0.452   0.835   2.377
 6051SOL    HW219053   0.329   0.837   2.484
 6052SOL     OW19054   5.348   0.313   0.975
 6052SOL    HW119055   5.308   0.275   0.891
 6052SOL    HW219056   5.447   0.315   0.966
 6053SOL     OW19057   4.637   0.769   5.980
 6053SOL    HW119058   4.698   0.839   5.944
 6053SOL    HW219059   4.544   0.805   5.983
 6054SOL     OW19060   3.692   5.105   0.816
 6054SOL    HW119061   3.601   5.141   0.796
 6054SOL    HW219062   3.729   5.061   0.734
 6055SOL     OW19063   3.290   4.857   6.502
 6055SOL    HW119064   3.348   4.895   6.574
 6055SOL    HW219065   3.203   4.907   6.500
 6056SOL     OW19066   5.922   2.826   4.865
 6056SOL    HW119067   5.880   2.872   4.943
 6056SOL    HW219068   6.012   2.790   4.892
 6057SOL     OW19069   5.542   0.403   2.407
 6057SOL    HW119070   5.533   0.499   2.380
 6057SOL    HW219071   5.550   0.346   2.326
 6058SOL     OW19072   6.134   3.550   0.424
 6058SOL    HW119073   6.040   3.561   0.392
 6058SOL    HW219074   6.134   3.516   0.518
 6059SOL     OW19075   5.180   3.967   5.377
 6059SOL    HW119076   5.122   4.011   5.446
 6059SOL    HW219077   5.181   3.868   5.393
 6060SOL     OW19078   3.096   3.148   0.144
 6060SOL    HW119079   3.065   3.078   0.208
 6060SOL    HW219080   3.185   3.123   0.107
 6061SOL     OW19081   4.442   4.848   7.014
 6061SOL    HW119082   4.456   4.787   0.069
 6061SOL    HW219083   4.409   4.795   6.936
 6062SOL     OW19084   2.417   1.825   6.739
 6062SOL    HW119085   2.446   1.882   6.816
 6062SOL    HW219086   2.477   1.746   6.731
 6063SOL     OW19087   3.665   4.355   5.337
 6063SOL    HW119088   3.596   4.415   5.378
 6063SOL    HW219089   3.621   4.294   5.270
 6064SOL     OW19090   0.531   0.278   0.712
 6064SOL    HW119091   0.614   0.264   0.658
 6064SOL    HW219092   0.458   0.218   0.678
 6065SOL     OW19093   1.361   5.335   1.696
 6065SOL    HW119094   1.271   5.339   1.740
 6065SOL    HW219095   1.392   5.240   1.692
 6066SOL     OW19096   5.128   1.331   3.664
 6066SOL    HW119097   5.128   1.368   3.572
 6066SOL    HW219098   5.065   1.253   3.669
 6067SOL     OW19099   5.723   0.281   5.764
 6067SOL    HW119100   5.689   0.202   5.713
 6067SOL    HW219101   5.702   0.365   5.714
 6068SOL     OW19102   5.099   2.471   4.918
 6068SOL    HW119103   5.004   2.439   4.911
 6068SOL    HW219104   5.150   2.410   4.979
 6069SOL     OW19105   6.841   3.057   5.823
 6069SOL    HW119106   6.797   3.058   5.733
 6069SOL    HW219107   6.788   3.114   5.886
 6070SOL     OW19108   3.755   2.233   1.590
 6070SOL    HW119109   3.745   2.271   1.682
 6070SOL    HW219110   3.692   2.157   1.578
 6071SOL     OW19111   0.263   6.281   4.369
 6071SOL    HW119112   0.210   6.313   4.447
 6071SOL    HW219113   0.216   6.308   4.284
 6072SOL     OW19114   6.779   1.764   0.909
 6072SOL    HW119115   6.682   1.756   0.930
 6072SOL    HW219116   6.804   1.697   0.838
 6073SOL     OW19117   4.834   2.972   1.213
 6073SOL    HW119118   4.798   3.066   1.221
 6073SOL    HW219119   4.913   2.962   1.273
 6074SOL     OW19120   1.632   0.088   2.189
 6074SOL    HW119121   1.711   0.144   2.163
 6074SOL    HW219122   1.564   0.146   2.235
 6075SOL     OW19123   4.702   7.000   5.888
 6075SOL    HW119124   4.688   0.074   5.905
 6075SOL    HW219125   4.715   6.984   5.791
 6076SOL     OW19126   2.494   5.585   3.821
 6076SOL    HW119127   2.418   5.568   3.758
 6076SOL    HW219128   2.530   5.677   3.805
 6077SOL     OW19129   5.702   6.493   0.900
 6077SOL    HW119130   5.714   6.557   0.976
 6077SOL    HW219131   5.739   6.404   0.925
 6078SOL     OW19132   4.332   4.391   0.707
 6078SOL    HW119133   4.368   4.298   0.699
 6078SOL    HW219134   4.250   4.401   0.651
 6079SOL     OW19135   4.955   4.357   6.517
 6079SOL    HW119136   4.933   4.349   6.420
 6079SOL    HW219137   5.054   4.368   6.529
 6080SOL     OW19138   0.623   5.185   1.724
 6080SOL    HW119139   0.697   5.252   1.737
 6080SOL    HW219140   0.649   5.099   1.767
 6081SOL     OW19141   0.706   3.474   5.788
 6081SOL    HW119142   0.656   3.388   5.779
 6081SOL    HW219143   0.788   3.471   5.731
 6082SOL     OW19144   3.254   0.235   1.828
 6082SOL    HW119145   3.297   0.178   1.757
 6082SOL    HW219146   3.168   0.194   1.856
 6083SOL     OW19147   5.720   6.507   0.104
 6083SOL    HW119148   5.704   6.408   0.096
 6083SOL    HW219149   5.680   6.553   0.024
 6084SOL     OW19150   0.701   6.067   2.094
 6084SOL    HW119151   0.682   6.050   2.190
 6084SOL    HW219152   0.790   6.026   2.070
 6085SOL     OW19153   6.169   5.960   6.386
 6085SOL    HW119154   6.267   5.943   6.398
 6085SOL    HW219155   6.122   5.950   6.473
 6086SOL     OW19156   3.774   2.856   6.530
 6086SOL    HW119157   3.682   2.817   6.539
 6086SOL    HW219158   3.766   2.955   6.518
 6087SOL     OW19159   5.335   6.278   0.701
 6087SOL    HW119160   5.257   6.236   0.746
 6087SOL    HW219161   5.361   6.362   0.749
 6088SOL     OW19162   5.505   6.305   5.476
 6088SOL    HW119163   5.529   6.313   5.379
 6088SOL    HW219164   5.573   6.354   5.531
 6089SOL     OW19165   6.558   2.250   2.324
 6089SOL    HW119166   6.491   2.324   2.328
 6089SOL    HW219167   6.642   2.277   2.371
 6090SOL     OW19168   2.619   5.100   4.294
 6090SOL    HW119169   2.586   5.111   4.387
 6090SOL    HW219170   2.713   5.064   4.295
 6091SOL     OW19171   2.481   1.436   0.947
 6091SOL    HW119172   2.526   1.522   0.973
 6091SOL    HW219173   2.392   1.457   0.906
 6092SOL     OW19174   4.504   0.508   2.012
 6092SOL    HW119175   4.599   0.482   1.999
 6092SOL    HW219176   4.499   0.586   2.075
 6093SOL     OW19177   2.481   1.688   2.244
 6093SOL    HW119178   2.385   1.660   2.251
 6093SOL    HW219179   2.508   1.689   2.148
 6094SOL     OW19180   1.437   6.616   3.668
 6094SOL    HW119181   1.453   6.591   3.763
 6094SOL    HW219182   1.367   6.555   3.629
 6095SOL     OW19183   4.583   5.493   6.988
 6095SOL    HW119184   4.652   5.459   6.925
 6095SOL    HW219185   4.523   5.418   7.016
 6096SOL     OW19186   5.533   6.183   2.266
 6096SOL    HW119187   5.625   6.165   2.299
 6096SOL    HW219188   5.467   6.133   2.323
 6097SOL     OW19189   1.061   5.646   1.831
 6097SOL    HW119190   1.074   5.641   1.732
 6097SOL    HW219191   1.099   5.732   1.866
 6098SOL     OW19192   6.136   0.733   5.658
 6098SOL    HW119193   6.038   0.727   5.676
 6098SOL    HW219194   6.184   0.663   5.711
 6099SOL     OW19195   4.638   6.394   5.803
 6099SOL    HW119196   4.662   6.427   5.894
 6099SOL    HW219197   4.646   6.469   5.737
 6100SOL     OW19198   0.474   5.864   1.628
 6100SOL    HW119199   0.479   5.889   1.724
 6100SOL    HW219200   0.531   5.784   1.611
 6101SOL     OW19201   6.035   2.669   2.536
 6101SOL    HW119202   5.941   2.640   2.515
 6101SOL    HW219203   6.083   2.595   2.583
 6102SOL     OW19204   4.109   5.486   2.981
 6102SOL    HW119205   4.057   5.406   3.012
 6102SOL    HW219206   4.088   5.504   2.884
 6103SOL     OW19207   6.236   1.642   1.161
 6103SOL    HW119208   6.189   1.573   1.106
 6103SOL    HW219209   6.283   1.598   1.237
 6104SOL     OW19210   5.806   1.478   5.237
 6104SOL    HW119211   5.717   1.440   5.213
 6104SOL    HW219212   5.838   1.437   5.322
 6105SOL     OW19213   2.716   5.327   5.472
 6105SOL    HW119214   2.665   5.357   5.552
 6105SOL    HW219215   2.812   5.311   5.497
 6106SOL     OW19216   1.216   4.879   0.693
 6106SOL    HW119217   1.267   4.886   0.607
 6106SOL    HW219218   1.126   4.922   0.682
 6107SOL     OW19219   4.799   5.583   4.048
 6107SOL    HW119220   4.842   5.542   4.128
 6107SOL    HW219221   4.782   5.680   4.065
 6108SOL     OW19222   1.154   1.946   2.890
 6108SOL    HW119223   1.204   1.901   2.964
 6108SOL    HW219224   1.189   1.915   2.802
 6109SOL     OW19225   5.146   0.910   4.192
 6109SOL    HW119226   5.119   0.976   4.262
 6109SOL    HW219227   5.159   0.820   4.235
 6110SOL     OW19228   1.301   2.695   6.411
 6110SOL    HW119229   1.303   2.603   6.449
 6110SOL    HW219230   1.376   2.706   6.346
 6111SOL     OW19231   1.407   3.296   1.837
 6111SOL    HW119232   1.403   3.347   1.923
 6111SOL    HW219233   1.352   3.213   1.845
 6112SOL     OW19234   4.108   0.410   2.069
 6112SOL    HW119235   4.141   0.404   2.163
 6112SOL    HW219236   4.017   0.369   2.063
 6113SOL     OW19237   2.569   3.990   6.652
 6113SOL    HW119238   2.551   4.013   6.556
 6113SOL    HW219239   2.645   4.047   6.686
 6114SOL     OW19240   4.991   2.830   2.403
 6114SOL    HW119241   4.950   2.916   2.371
 6114SOL    HW219242   4.927   2.755   2.387
 6115SOL     OW19243   0.458   1.736   5.393
 6115SOL    HW119244   0.360   1.733   5.412
 6115SOL    HW219245   0.475   1.716   5.297
 6116SOL     OW19246   4.163   2.329   5.452
 6116SOL    HW119247   4.256   2.363   5.469
 6116SOL    HW219248   4.133   2.274   5.530
 6117SOL     OW19249   1.155   1.358   3.154
 6117SOL    HW119250   1.074   1.398   3.111
 6117SOL    HW219251   1.145   1.258   3.157
 6118SOL     OW19252   5.765   1.487   1.621
 6118SOL    HW119253   5.792   1.455   1.712
 6118SOL    HW219254   5.675   1.452   1.598
 6119SOL     OW19255   0.342   2.809   0.176
 6119SOL    HW119256   0.388   2.857   0.251
 6119SOL    HW219257   0.248   2.841   0.168
 6120SOL     OW19258   1.719   6.584   5.542
 6120SOL    HW119259   1.689   6.489   5.546
 6120SOL    HW219260   1.674   6.637   5.614
 6121SOL     OW19261   0.522   4.206   5.461
 6121SOL    HW119262   0.438   4.190   5.409
 6121SOL    HW219263   0.505   4.188   5.557
 6122SOL     OW19264   5.238   5.688   6.301
 6122SOL    HW119265   5.185   5.766   6.268
 6122SOL    HW219266   5.237   5.615   6.233
 6123SOL     OW19267   5.271   0.903   5.451
 6123SOL    HW119268   5.240   0.903   5.357
 6123SOL    HW219269   5.360   0.857   5.456
 6124SOL     OW19270   1.487   6.733   5.316
 6124SOL    HW119271   1.447   6.661   5.373
 6124SOL    HW219272   1.437   6.739   5.230
 6125SOL     OW19273   2.379   3.420   6.968
 6125SOL    HW119274   2.358   3.507   6.924
 6125SOL    HW219275   2.296   3.381   7.008
 6126SOL     OW19276   0.998   1.953   5.457
 6126SOL    HW119277   0.909   1.955   5.413
 6126SOL    HW219278   1.057   1.888   5.408
 6127SOL     OW19279   4.197   1.207   1.346
 6127SOL    HW119280   4.270   1.142   1.326
 6127SOL    HW219281   4.181   1.265   1.266
 6128SOL     OW19282   5.865   5.348   0.492
 6128SOL    HW119283   5.890   5.431   0.442
 6128SOL    HW219284   5.895   5.355   0.587
 6129SOL     OW19285   1.900   4.634   3.059
 6129SOL    HW119286   1.926   4.626   3.156
 6129SOL    HW219287   1.981   4.654   3.005
 6130SOL     OW19288   6.373   2.418   2.886
 6130SOL    HW119289   6.415   2.355   2.820
 6130SOL    HW219290   6.441   2.486   2.914
 6131SOL     OW19291   0.878   2.400   2.000
 6131SOL    HW119292   0.859   2.481   2.054
 6131SOL    HW219293   0.799   2.378   1.943
 6132SOL     OW19294   3.287   1.676   6.574
 6132SOL    HW119295   3.212   1.741   6.584
 6132SOL    HW219296   3.266   1.592   6.623
 6133SOL     OW19297   1.047   2.259   3.115
 6133SOL    HW119298   1.079   2.206   3.193
 6133SOL    HW219299   1.121   2.272   3.050
 6134SOL     OW19300   4.627   6.870   6.528
 6134SOL    HW119301   4.638   6.878   6.429
 6134SOL    HW219302   4.658   6.954   6.573
 6135SOL     OW19303   5.904   6.644   0.238
 6135SOL    HW119304   5.830   6.598   0.189
 6135SOL    HW219305   5.886   6.742   0.243
 6136SOL     OW19306   1.569   2.162   1.263
 6136SOL    HW119307   1.532   2.103   1.334
 6136SOL    HW219308   1.667   2.143   1.251
 6137SOL     OW19309   0.861   3.867   2.552
 6137SOL    HW119310   0.844   3.822   2.464
 6137SOL    HW219311   0.866   3.799   2.624
 6138SOL     OW19312   3.420   0.365   1.991
 6138SOL    HW119313   3.369   0.443   2.028
 6138SOL    HW219314   3.358   0.306   1.938
 6139SOL     OW19315   0.800   6.985   5.315
 6139SOL    HW119316   0.733   6.961   5.385
 6139SOL    HW219317   0.754   0.008   5.239
 6140SOL     OW19318   0.756   0.762   3.254
 6140SOL    HW119319   0.819   0.694   3.216
 6140SOL    HW219320   0.674   0.716   3.288
 6141SOL     OW19321   0.897   0.384   6.019
 6141SOL    HW119322   0.871   0.463   5.963
 6141SOL    HW219323   0.919   0.307   5.959
 6142SOL     OW19324   0.589   0.513   5.595
 6142SOL    HW119325   0.515   0.446   5.604
 6142SOL    HW219326   0.552   0.605   5.613
 6143SOL     OW19327   0.179   4.406   0.703
 6143SOL    HW119328   0.112   4.394   0.777
 6143SOL    HW219329   0.172   4.328   0.640
 6144SOL     OW19330   5.046   4.552   3.091
 6144SOL    HW119331   5.078   4.541   2.997
 6144SOL    HW219332   4.951   4.521   3.097
 6145SOL     OW19333   5.936   4.595   3.933
 6145SOL    HW119334   5.949   4.693   3.919
 6145SOL    HW219335   6.005   4.545   3.881
 6146SOL     OW19336   3.717   6.719   3.907
 6146SOL    HW119337   3.804   6.671   3.899
 6146SOL    HW219338   3.722   6.807   3.860
 6147SOL     OW19339   1.970   2.960   4.649
 6147SOL    HW119340   1.885   3.011   4.638
 6147SOL    HW219341   1.965   2.905   4.733
 6148SOL     OW19342   3.795   4.983   6.499
 6148SOL    HW119343   3.791   5.079   6.470
 6148SOL    HW219344   3.859   4.933   6.440
 6149SOL     OW19345   1.893   6.986   1.825
 6149SOL    HW119346   1.954   6.956   1.899
 6149SOL    HW219347   1.801   6.998   1.861
 6150SOL     OW19348   6.614   4.037   6.624
 6150SOL    HW119349   6.708   4.010   6.603
 6150SOL    HW219350   6.596   4.027   6.722
 6151SOL     OW19351   5.303   5.025   4.089
 6151SOL    HW119352   5.326   5.060   3.998
 6151SOL    HW219353   5.328   4.928   4.095
 6152SOL     OW19354   0.973   5.840   4.589
 6152SOL    HW119355   0.916   5.766   4.555
 6152SOL    HW219356   1.033   5.806   4.662
 6153SOL     OW19357   4.862   5.330   0.850
 6153SOL    HW119358   4.956   5.322   0.815
 6153SOL    HW219359   4.801   5.350   0.774
 6154SOL     OW19360   5.518   3.508   3.441
 6154SOL    HW119361   5.528   3.604   3.465
 6154SOL    HW219362   5.558   3.451   3.513
 6155SOL     OW19363   2.751   1.006   3.051
 6155SOL    HW119364   2.790   0.918   3.023
 6155SOL    HW219365   2.813   1.080   3.023
 6156SOL     OW19366   5.199   3.759   1.905
 6156SOL    HW119367   5.273   3.818   1.936
 6156SOL    HW219368   5.164   3.792   1.817
 6157SOL     OW19369   0.675   2.176   3.429
 6157SOL    HW119370   0.610   2.145   3.359
 6157SOL    HW219371   0.719   2.097   3.471
 6158SOL     OW19372   3.023   2.276   6.673
 6158SOL    HW119373   3.038   2.303   6.578
 6158SOL    HW219374   3.082   2.199   6.695
 6159SOL     OW19375   5.487   3.952   0.780
 6159SOL    HW119376   5.504   3.883   0.710
 6159SOL    HW219377   5.411   3.923   0.838
 6160SOL     OW19378   6.884   0.041   6.922
 6160SOL    HW119379   6.906   0.136   6.898
 6160SOL    HW219380   6.903   7.005   6.845
 6161SOL     OW19381   5.096   1.844   6.910
 6161SOL    HW119382   5.173   1.788   6.939
 6161SOL    HW219383   5.012   1.810   6.953
 6162SOL     OW19384   6.046   6.651   3.560
 6162SOL    HW119385   6.080   6.562   3.529
 6162SOL    HW219386   5.973   6.637   3.627
 6163SOL     OW19387   5.312   5.744   2.338
 6163SOL    HW119388   5.347   5.730   2.245
 6163SOL    HW219389   5.329   5.839   2.366
 6164SOL     OW19390   3.319   4.081   4.424
 6164SOL    HW119391   3.307   4.136   4.507
 6164SOL    HW219392   3.229   4.053   4.389
 6165SOL     OW19393   4.190   2.130   5.972
 6165SOL    HW119394   4.286   2.151   5.991
 6165SOL    HW219395   4.133   2.165   6.046
 6166SOL     OW19396   6.398   1.844   0.105
 6166SOL    HW119397   6.459   1.922   0.117
 6166SOL    HW219398   6.322   1.869   0.045
 6167SOL     OW19399   1.010   4.482   2.860
 6167SOL    HW119400   1.064   4.416   2.911
 6167SOL    HW219401   1.042   4.575   2.880
 6168SOL     OW19402   0.094   2.388   3.051
 6168SOL    HW119403   7.022   2.363   3.064
 6168SOL    HW219404   0.148   2.306   3.034
 6169SOL     OW19405   0.749   1.081   6.247
 6169SOL    HW119406   0.788   1.101   6.157
 6169SOL    HW219407   0.822   1.061   6.312
 6170SOL     OW19408   3.558   4.161   6.196
 6170SOL    HW119409   3.584   4.224   6.123
 6170SOL    HW219410   3.563   4.067   6.163
 6171SOL     OW19411   1.353   3.414   2.077
 6171SOL    HW119412   1.263   3.408   2.033
 6171SOL    HW219413   1.345   3.465   2.163
 6172SOL     OW19414   0.026   0.336   2.440
 6172SOL    HW119415   0.108   0.388   2.463
 6172SOL    HW219416   0.001   0.354   2.345
 6173SOL     OW19417   0.062   5.061   2.426
 6173SOL    HW119418   0.001   5.137   2.447
 6173SOL    HW219419   0.077   5.006   2.508
 6174SOL     OW19420   6.236   4.753   2.892
 6174SOL    HW119421   6.150   4.710   2.919
 6174SOL    HW219422   6.219   4.845   2.858
 6175SOL     OW19423   5.306   0.248   2.790
 6175SOL    HW119424   5.239   0.267   2.718
 6175SOL    HW219425   5.379   0.317   2.786
 6176SOL     OW19426   6.581   3.385   6.602
 6176SOL    HW119427   6.656   3.421   6.547
 6176SOL    HW219428   6.524   3.325   6.546
 6177SOL     OW19429   5.209   1.698   1.228
 6177SOL    HW119430   5.226   1.645   1.312
 6177SOL    HW219431   5.181   1.791   1.253
 6178SOL     OW19432   5.101   5.392   1.622
 6178SOL    HW119433   5.019   5.352   1.664
 6178SOL    HW219434   5.105   5.490   1.643
 6179SOL     OW19435   0.329   3.552   5.141
 6179SOL    HW119436   0.361   3.507   5.224
 6179SOL    HW219437   0.245   3.601   5.159
 6180SOL     OW19438   3.206   6.784   6.200
 6180SOL    HW119439   3.204   6.703   6.258
 6180SOL    HW219440   3.116   6.796   6.157
 6181SOL     OW19441   4.690   6.444   0.549
 6181SOL    HW119442   4.634   6.526   0.558
 6181SOL    HW219443   4.635   6.370   0.509
 6182SOL     OW19444   5.243   5.274   5.771
 6182SOL    HW119445   5.272   5.218   5.693
 6182SOL    HW219446   5.221   5.214   5.849
 6183SOL     OW19447   1.899   0.315   3.048
 6183SOL    HW119448   1.812   0.330   3.001
 6183SOL    HW219449   1.974   0.323   2.982
 6184SOL     OW19450   2.101   6.614   5.934
 6184SOL    HW119451   2.012   6.660   5.936
 6184SOL    HW219452   2.169   6.670   5.983
 6185SOL     OW19453   1.430   4.076   0.203
 6185SOL    HW119454   1.341   4.113   0.177
 6185SOL    HW219455   1.460   4.011   0.134
 6186SOL     OW19456   5.667   0.139   3.903
 6186SOL    HW119457   5.688   0.237   3.905
 6186SOL    HW219458   5.567   0.127   3.903
 6187SOL     OW19459   4.922   4.601   4.095
 6187SOL    HW119460   4.831   4.633   4.069
 6187SOL    HW219461   4.927   4.502   4.082
 6188SOL     OW19462   2.596   5.894   1.476
 6188SOL    HW119463   2.557   5.820   1.421
 6188SOL    HW219464   2.556   5.891   1.568
 6189SOL     OW19465   4.531   4.524   3.703
 6189SOL    HW119466   4.571   4.447   3.753
 6189SOL    HW219467   4.465   4.571   3.761
 6190SOL     OW19468   5.669   3.579   5.952
 6190SOL    HW119469   5.727   3.607   5.875
 6190SOL    HW219470   5.635   3.661   5.999
 6191SOL     OW19471   5.210   2.918   0.906
 6191SOL    HW119472   5.238   3.002   0.953
 6191SOL    HW219473   5.129   2.880   0.951
 6192SOL     OW19474   3.903   3.648   0.503
 6192SOL    HW119475   3.946   3.739   0.503
 6192SOL    HW219476   3.873   3.626   0.596
 6193SOL     OW19477   3.858   0.732   2.399
 6193SOL    HW119478   3.768   0.718   2.440
 6193SOL    HW219479   3.848   0.782   2.313
 6194SOL     OW19480   1.950   6.648   0.031
 6194SOL    HW119481   1.972   6.611   6.965
 6194SOL    HW219482   1.861   6.693   0.028
 6195SOL     OW19483   3.764   5.624   5.474
 6195SOL    HW119484   3.751   5.526   5.483
 6195SOL    HW219485   3.820   5.657   5.550
 6196SOL     OW19486   6.404   2.209   0.597
 6196SOL    HW119487   6.429   2.141   0.666
 6196SOL    HW219488   6.485   2.260   0.570
 6197SOL     OW19489   4.675   3.500   0.308
 6197SOL    HW119490   4.685   3.408   0.346
 6197SOL    HW219491   4.716   3.567   0.371
 6198SOL     OW19492   3.504   5.522   3.060
 6198SOL    HW119493   3.526   5.522   2.962
 6198SOL    HW219494   3.538   5.607   3.101
 6199SOL     OW19495   0.005   0.332   1.703
 6199SOL    HW119496   6.975   0.280   1.769
 6199SOL    HW219497   7.021   0.289   1.613
 6200SOL     OW19498   2.359   1.410   6.455
 6200SOL    HW119499   2.368   1.311   6.460
 6200SOL    HW219500   2.448   1.453   6.468
 6201SOL     OW19501   2.565   4.220   5.906
 6201SOL    HW119502   2.661   4.197   5.891
 6201SOL    HW219503   2.520   4.145   5.955
 6202SOL     OW19504   3.377   1.949   1.336
 6202SOL    HW119505   3.305   1.880   1.329
 6202SOL    HW219506   3.465   1.906   1.314
 6203SOL     OW19507   5.318   0.219   3.581
 6203SOL    HW119508   5.402   0.269   3.561
 6203SOL    HW219509   5.327   0.125   3.549
 6204SOL     OW19510   0.697   5.195   5.266
 6204SOL    HW119511   0.757   5.264   5.225
 6204SOL    HW219512   0.617   5.241   5.307
 6205SOL     OW19513   5.695   6.968   6.839
 6205SOL    HW119514   5.682   6.892   6.775
 6205SOL    HW219515   5.661   0.029   6.797
 6206SOL     OW19516   6.494   0.481   2.765
 6206SOL    HW119517   6.408   0.436   2.742
 6206SOL    HW219518   6.558   0.415   2.802
 6207SOL     OW19519   1.608   3.620   4.854
 6207SOL    HW119520   1.639   3.689   4.920
 6207SOL    HW219521   1.687   3.571   4.817
 6208SOL     OW19522   6.247   6.983   6.276
 6208SOL    HW119523   6.342   6.958   6.292
 6208SOL    HW219524   6.207   6.920   6.210
 6209SOL     OW19525   4.269   5.868   6.947
 6209SOL    HW119526   4.245   5.775   6.973
 6209SOL    HW219527   4.246   5.884   6.851
 6210SOL     OW19528   5.294   4.581   3.511
 6210SOL    HW119529   5.223   4.600   3.443
 6210SOL    HW219530   5.337   4.666   3.540
 6211SOL     OW19531   2.962   6.715   5.233
 6211SOL    HW119532   2.939   6.696   5.328
 6211SOL    HW219533   2.907   6.657   5.172
 6212SOL     OW19534   0.763   5.052   3.152
 6212SOL    HW119535   0.843   5.041   3.211
 6212SOL    HW219536   0.743   4.964   3.108
 6213SOL     OW19537   5.178   6.972   6.338
 6213SOL    HW119538   5.126   7.014   6.413
 6213SOL    HW219539   5.237   0.016   6.295
 6214SOL     OW19540   6.181   5.107   3.437
 6214SOL    HW119541   6.178   5.011   3.410
 6214SOL    HW219542   6.260   5.152   3.396
 6215SOL     OW19543   3.254   1.430   6.672
 6215SOL    HW119544   3.266   1.399   6.767
 6215SOL    HW219545   3.323   1.387   6.614
 6216SOL     OW19546   6.334   2.187   2.049
 6216SOL    HW119547   6.295   2.115   2.106
 6216SOL    HW219548   6.314   2.170   1.953
 6217SOL     OW19549   5.893   2.960   2.019
 6217SOL    HW119550   5.887   2.861   2.021
 6217SOL    HW219551   5.971   2.990   2.074
 6218SOL     OW19552   3.343   4.965   4.523
 6218SOL    HW119553   3.263   4.928   4.476
 6218SOL    HW219554   3.352   5.062   4.504
 6219SOL     OW19555   0.399   1.356   4.503
 6219SOL    HW119556   0.450   1.278   4.467
 6219SOL    HW219557   0.442   1.388   4.587
 6220SOL     OW19558   1.445   4.497   5.592
 6220SOL    HW119559   1.410   4.448   5.672
 6220SOL    HW219560   1.367   4.529   5.537
 6221SOL     OW19561   5.849   5.274   5.726
 6221SOL    HW119562   5.868   5.306   5.633
 6221SOL    HW219563   5.788   5.195   5.722
 6222SOL     OW19564   0.719   6.695   1.464
 6222SOL    HW119565   0.784   6.630   1.423
 6222SOL    HW219566   0.666   6.649   1.535
 6223SOL     OW19567   0.064   3.237   4.641
 6223SOL    HW119568   0.080   3.140   4.660
 6223SOL    HW219569   7.022   3.246   4.566
 6224SOL     OW19570   1.746   1.811   6.123
 6224SOL    HW119571   1.758   1.910   6.133
 6224SOL    HW219572   1.836   1.768   6.113
 6225SOL     OW19573   2.914   3.066   1.498
 6225SOL    HW119574   2.960   3.154   1.509
 6225SOL    HW219575   2.978   2.992   1.517
 6226SOL     OW19576   4.930   1.639   4.032
 6226SOL    HW119577   4.922   1.547   3.995
 6226SOL    HW219578   5.012   1.682   3.994
 6227SOL     OW19579   3.480   4.775   6.322
 6227SOL    HW119580   3.501   4.684   6.356
 6227SOL    HW219581   3.408   4.816   6.378
 6228SOL     OW19582   0.109   2.406   2.448
 6228SOL    HW119583   0.025   2.461   2.454
 6228SOL    HW219584   0.085   2.309   2.448
 6229SOL     OW19585   1.175   2.738   2.697
 6229SOL    HW119586   1.113   2.738   2.619
 6229SOL    HW219587   1.200   2.833   2.719
 6230SOL     OW19588   1.361   1.280   4.509
 6230SOL    HW119589   1.272   1.238   4.494
 6230SOL    HW219590   1.350   1.365   4.561
 6231SOL     OW19591   6.727   4.843   1.540
 6231SOL    HW119592   6.677   4.818   1.622
 6231SOL    HW219593   6.825   4.851   1.561
 6232SOL     OW19594   6.244   1.760   0.585
 6232SOL    HW119595   6.269   1.665   0.600
 6232SOL    HW219596   6.157   1.779   0.632
 6233SOL     OW19597   5.334   1.321   0.285
 6233SOL    HW119598   5.408   1.272   0.332
 6233SOL    HW219599   5.363   1.414   0.265
 6234SOL     OW19600   0.419   1.134   5.576
 6234SOL    HW119601   0.411   1.233   5.568
 6234SOL    HW219602   0.396   1.106   5.670
 6235SOL     OW19603   1.501   0.328   2.257
 6235SOL    HW119604   1.425   0.308   2.319
 6235SOL    HW219605   1.470   0.320   2.162
 6236SOL     OW19606   1.020   5.311   0.387
 6236SOL    HW119607   1.072   5.368   0.451
 6236SOL    HW219608   0.926   5.300   0.420
 6237SOL     OW19609   3.980   6.628   0.315
 6237SOL    HW119610   3.989   6.529   0.307
 6237SOL    HW219611   3.924   6.663   0.239
 6238SOL     OW19612   4.367   4.969   3.382
 6238SOL    HW119613   4.350   4.981   3.480
 6238SOL    HW219614   4.295   5.016   3.330
 6239SOL     OW19615   3.053   6.911   1.485
 6239SOL    HW119616   2.980   6.874   1.543
 6239SOL    HW219617   3.138   6.862   1.501
 6240SOL     OW19618   2.848   2.464   7.015
 6240SOL    HW119619   2.867   2.532   0.062
 6240SOL    HW219620   2.869   2.373   0.026
 6241SOL     OW19621   2.638   1.165   2.742
 6241SOL    HW119622   2.650   1.066   2.732
 6241SOL    HW219623   2.656   1.192   2.836
 6242SOL     OW19624   5.548   1.076   3.229
 6242SOL    HW119625   5.558   1.117   3.319
 6242SOL    HW219626   5.620   1.108   3.168
 6243SOL     OW19627   5.666   6.890   3.072
 6243SOL    HW119628   5.704   6.857   2.985
 6243SOL    HW219629   5.568   6.906   3.061
 6244SOL     OW19630   1.558   2.254   1.674
 6244SOL    HW119631   1.511   2.299   1.598
 6244SOL    HW219632   1.597   2.168   1.642
 6245SOL     OW19633   2.957   4.643   1.446
 6245SOL    HW119634   3.043   4.617   1.490
 6245SOL    HW219635   2.937   4.739   1.465
 6246SOL     OW19636   2.777   2.699   6.351
 6246SOL    HW119637   2.733   2.788   6.348
 6246SOL    HW219638   2.710   2.629   6.375
 6247SOL     OW19639   0.746   6.317   3.442
 6247SOL    HW119640   0.656   6.336   3.481
 6247SOL    HW219641   0.782   6.400   3.400
 6248SOL     OW19642   1.992   3.743   1.415
 6248SOL    HW119643   1.910   3.800   1.424
 6248SOL    HW219644   1.973   3.667   1.353
 6249SOL     OW19645   0.778   4.571   0.330
 6249SOL    HW119646   0.822   4.622   0.256
 6249SOL    HW219647   0.841   4.562   0.406
 6250SOL     OW19648   6.502   5.872   0.511
 6250SOL    HW119649   6.468   5.966   0.504
 6250SOL    HW219650   6.591   5.867   0.465
 6251SOL     OW19651   3.707   6.618   0.504
 6251SOL    HW119652   3.681   6.550   0.436
 6251SOL    HW219653   3.716   6.707   0.459
 6252SOL     OW19654   1.865   6.601   4.274
 6252SOL    HW119655   1.951   6.648   4.258
 6252SOL    HW219656   1.830   6.626   4.365
 6253SOL     OW19657   2.166   3.897   2.559
 6253SOL    HW119658   2.176   3.809   2.605
 6253SOL    HW219659   2.160   3.883   2.460
 6254SOL     OW19660   5.447   0.622   0.660
 6254SOL    HW119661   5.444   0.689   0.586
 6254SOL    HW219662   5.354   0.589   0.679
 6255SOL     OW19663   1.823   0.945   1.326
 6255SOL    HW119664   1.746   0.882   1.341
 6255SOL    HW219665   1.804   1.033   1.368
 6256SOL     OW19666   3.680   5.034   3.137
 6256SOL    HW119667   3.697   5.016   3.234
 6256SOL    HW219668   3.763   5.015   3.085
 6257SOL     OW19669   5.671   2.289   1.035
 6257SOL    HW119670   5.735   2.346   1.087
 6257SOL    HW219671   5.670   2.197   1.074
 6258SOL     OW19672   4.617   0.205   3.558
 6258SOL    HW119673   4.625   0.227   3.655
 6258SOL    HW219674   4.681   0.261   3.506
 6259SOL     OW19675   2.639   1.649   0.942
 6259SOL    HW119676   2.591   1.704   1.010
 6259SOL    HW219677   2.736   1.643   0.966
 6260SOL     OW19678   3.228   4.118   0.203
 6260SOL    HW119679   3.218   4.039   0.143
 6260SOL    HW219680   3.203   4.093   0.296
 6261SOL     OW19681   2.915   6.989   6.332
 6261SOL    HW119682   3.003   6.973   6.376
 6261SOL    HW219683   2.842   6.954   6.391
 6262SOL     OW19684   2.163   4.154   0.987
 6262SOL    HW119685   2.195   4.150   0.892
 6262SOL    HW219686   2.063   4.156   0.988
 6263SOL     OW19687   0.388   0.333   5.626
 6263SOL    HW119688   0.374   0.373   5.717
 6263SOL    HW219689   0.310   0.353   5.568
 6264SOL     OW19690   1.464   6.692   0.851
 6264SOL    HW119691   1.442   6.661   0.758
 6264SOL    HW219692   1.517   6.621   0.898
 6265SOL     OW19693   3.257   3.801   1.123
 6265SOL    HW119694   3.314   3.784   1.043
 6265SOL    HW219695   3.310   3.786   1.206
 6266SOL     OW19696   4.395   1.046   4.718
 6266SOL    HW119697   4.352   1.134   4.696
 6266SOL    HW219698   4.426   1.047   4.813
 6267SOL     OW19699   3.500   0.625   0.346
 6267SOL    HW119700   3.447   0.709   0.354
 6267SOL    HW219701   3.591   0.638   0.387
 6268SOL     OW19702   3.069   6.162   2.655
 6268SOL    HW119703   2.970   6.155   2.662
 6268SOL    HW219704   3.112   6.106   2.725
 6269SOL     OW19705   6.562   5.738   2.484
 6269SOL    HW119706   6.573   5.801   2.561
 6269SOL    HW219707   6.637   5.673   2.483
 6270SOL     OW19708   2.041   0.274   5.205
 6270SOL    HW119709   2.064   0.178   5.191
 6270SOL    HW219710   1.971   0.282   5.276
 6271SOL     OW19711   6.373   2.217   5.634
 6271SOL    HW119712   6.293   2.194   5.690
 6271SOL    HW219713   6.394   2.142   5.573
 6272SOL     OW19714   0.789   2.969   5.523
 6272SOL    HW119715   0.707   2.998   5.571
 6272SOL    HW219716   0.837   3.049   5.487
 6273SOL     OW19717   1.269   0.664   2.550
 6273SOL    HW119718   1.352   0.649   2.496
 6273SOL    HW219719   1.199   0.707   2.492
 6274SOL     OW19720   2.356   5.422   6.189
 6274SOL    HW119721   2.377   5.517   6.163
 6274SOL    HW219722   2.435   5.381   6.233
 6275SOL     OW19723   2.601   6.624   4.881
 6275SOL    HW119724   2.601   6.595   4.786
 6275SOL    HW219725   2.550   6.559   4.937
 6276SOL     OW19726   1.457   4.997   3.979
 6276SOL    HW119727   1.553   4.985   3.952
 6276SOL    HW219728   1.448   5.077   4.037
 6277SOL     OW19729   5.463   3.060   2.180
 6277SOL    HW119730   5.366   3.063   2.156
 6277SOL    HW219731   5.478   2.986   2.246
 6278SOL     OW19732   4.600   0.367   4.677
 6278SOL    HW119733   4.615   0.355   4.775
 6278SOL    HW219734   4.585   0.463   4.656
 6279SOL     OW19735   3.743   1.091   6.623
 6279SOL    HW119736   3.730   1.149   6.703
 6279SOL    HW219737   3.756   1.149   6.542
 6280SOL     OW19738   0.473   2.773   5.909
 6280SOL    HW119739   0.427   2.735   5.989
 6280SOL    HW219740   0.413   2.764   5.829
 6281SOL     OW19741   2.430   6.486   5.048
 6281SOL    HW119742   2.439   6.404   4.990
 6281SOL    HW219743   2.388   6.461   5.135
 6282SOL     OW19744   1.518   0.178   4.931
 6282SOL    HW119745   1.423   0.205   4.949
 6282SOL    HW219746   1.575   0.260   4.925
 6283SOL     OW19747   6.068   2.924   4.597
 6283SOL    HW119748   6.037   3.009   4.555
 6283SOL    HW219749   6.046   2.926   4.695
 6284SOL     OW19750   2.320   5.612   4.899
 6284SOL    HW119751   2.291   5.703   4.929
 6284SOL    HW219752   2.415   5.597   4.924
 6285SOL     OW19753   1.713   2.935   3.861
 6285SOL    HW119754   1.643   2.864   3.858
 6285SOL    HW219755   1.792   2.902   3.912
 6286SOL     OW19756   6.178   2.218   3.892
 6286SOL    HW119757   6.243   2.282   3.852
 6286SOL    HW219758   6.182   2.131   3.842
 6287SOL     OW19759   4.163   4.742   2.780
 6287SOL    HW119760   4.075   4.697   2.768
 6287SOL    HW219761   4.159   4.835   2.742
 6288SOL     OW19762   5.713   4.157   1.937
 6288SOL    HW119763   5.811   4.167   1.918
 6288SOL    HW219764   5.675   4.245   1.964
 6289SOL     OW19765   1.712   3.805   2.650
 6289SOL    HW119766   1.772   3.870   2.698
 6289SOL    HW219767   1.664   3.853   2.576
 6290SOL     OW19768   5.751   3.853   4.172
 6290SOL    HW119769   5.720   3.811   4.086
 6290SOL    HW219770   5.778   3.948   4.154
 6291SOL     OW19771   3.711   3.043   3.250
 6291SOL    HW119772   3.642   3.073   3.185
 6291SOL    HW219773   3.794   3.099   3.238
 6292SOL     OW19774   0.560   2.746   3.176
 6292SOL    HW119775   0.558   2.819   3.107
 6292SOL    HW219776   0.596   2.783   3.262
 6293SOL     OW19777   4.273   0.083   6.826
 6293SOL    HW119778   4.341   0.016   6.795
 6293SOL    HW219779   4.218   0.042   6.900
 6294SOL     OW19780   3.443   4.967   3.962
 6294SOL    HW119781   3.457   4.976   4.061
 6294SOL    HW219782   3.531   4.947   3.918
 6295SOL     OW19783   5.306   5.114   5.557
 6295SOL    HW119784   5.222   5.064   5.535
 6295SOL    HW219785   5.330   5.175   5.481
 6296SOL     OW19786   6.848   6.351   4.702
 6296SOL    HW119787   6.752   6.338   4.675
 6296SOL    HW219788   6.863   6.448   4.725
 6297SOL     OW19789   4.833   6.822   5.221
 6297SOL    HW119790   4.790   6.908   5.193
 6297SOL    HW219791   4.922   6.841   5.262
 6298SOL     OW19792   1.318   2.891   5.967
 6298SOL    HW119793   1.386   2.817   5.966
 6298SOL    HW219794   1.226   2.852   5.967
 6299SOL     OW19795   5.360   2.072   0.244
 6299SOL    HW119796   5.316   2.158   0.270
 6299SOL    HW219797   5.441   2.058   0.300
 6300SOL     OW19798   5.201   1.010   4.775
 6300SOL    HW119799   5.130   1.049   4.716
 6300SOL    HW219800   5.180   0.914   4.793
 6301SOL     OW19801   2.475   0.135   0.787
 6301SOL    HW119802   2.395   0.173   0.741
 6301SOL    HW219803   2.532   0.209   0.822
 6302SOL     OW19804   1.592   1.684   4.310
 6302SOL    HW119805   1.563   1.702   4.404
 6302SOL    HW219806   1.691   1.683   4.305
 6303SOL     OW19807   2.729   0.952   4.605
 6303SOL    HW119808   2.764   0.962   4.699
 6303SOL    HW219809   2.713   1.043   4.567
 6304SOL     OW19810   2.071   0.949   0.832
 6304SOL    HW119811   2.165   0.984   0.830
 6304SOL    HW219812   2.047   0.913   0.742
 6305SOL     OW19813   6.554   6.720   0.680
 6305SOL    HW119814   6.651   6.735   0.663
 6305SOL    HW219815   6.503   6.802   0.655
 6306SOL     OW19816   0.474   4.082   4.551
 6306SOL    HW119817   0.453   3.999   4.603
 6306SOL    HW219818   0.393   4.110   4.499
 6307SOL     OW19819   4.134   4.028   5.746
 6307SOL    HW119820   4.065   4.058   5.811
 6307SOL    HW219821   4.217   4.002   5.795
 6308SOL     OW19822   1.348   1.772   4.917
 6308SOL    HW119823   1.279   1.833   4.877
 6308SOL    HW219824   1.439   1.805   4.895
 6309SOL     OW19825   4.890   3.925   4.625
 6309SOL    HW119826   4.918   3.933   4.721
 6309SOL    HW219827   4.843   4.009   4.597
 6310SOL     OW19828   2.024   5.314   4.277
 6310SOL    HW119829   2.042   5.366   4.360
 6310SOL    HW219830   1.947   5.355   4.228
 6311SOL     OW19831   5.669   0.946   5.563
 6311SOL    HW119832   5.651   0.955   5.465
 6311SOL    HW219833   5.758   0.988   5.585
 6312SOL     OW19834   5.596   5.118   5.592
 6312SOL    HW119835   5.618   5.021   5.599
 6312SOL    HW219836   5.498   5.132   5.607
 6313SOL     OW19837   1.630   6.026   2.909
 6313SOL    HW119838   1.583   6.043   2.822
 6313SOL    HW219839   1.675   6.109   2.939
 6314SOL     OW19840   3.735   6.829   1.812
 6314SOL    HW119841   3.793   6.872   1.744
 6314SOL    HW219842   3.655   6.886   1.830
 6315SOL     OW19843   3.824   2.539   6.692
 6315SOL    HW119844   3.892   2.612   6.687
 6315SOL    HW219845   3.755   2.552   6.622
 6316SOL     OW19846   4.874   2.329   6.194
 6316SOL    HW119847   4.793   2.367   6.149
 6316SOL    HW219848   4.868   2.229   6.195
 6317SOL     OW19849   5.317   5.471   3.723
 6317SOL    HW119850   5.409   5.509   3.711
 6317SOL    HW219851   5.268   5.474   3.636
 6318SOL     OW19852   2.907   1.912   5.214
 6318SOL    HW119853   2.810   1.889   5.221
 6318SOL    HW219854   2.961   1.828   5.213
 6319SOL     OW19855   7.018   2.549   3.412
 6319SOL    HW119856   0.080   2.557   3.361
 6319SOL    HW219857   6.985   2.640   3.437
 6320SOL     OW19858   5.983   4.583   4.508
 6320SOL    HW119859   6.046   4.650   4.546
 6320SOL    HW219860   5.972   4.599   4.410
 6321SOL     OW19861   3.552   5.374   1.159
 6321SOL    HW119862   3.629   5.335   1.108
 6321SOL    HW219863   3.517   5.307   1.224
 6322SOL     OW19864   1.605   2.384   6.527
 6322SOL    HW119865   1.594   2.414   6.622
 6322SOL    HW219866   1.622   2.285   6.524
 6323SOL     OW19867   3.437   2.560   1.152
 6323SOL    HW119868   3.488   2.475   1.164
 6323SOL    HW219869   3.499   2.632   1.122
 6324SOL     OW19870   4.853   0.538   6.163
 6324SOL    HW119871   4.882   0.602   6.234
 6324SOL    HW219872   4.754   0.524   6.169
 6325SOL     OW19873   1.100   2.002   1.989
 6325SOL    HW119874   1.087   2.100   1.973
 6325SOL    HW219875   1.107   1.986   2.088
 6326SOL     OW19876   5.547   5.927   1.279
 6326SOL    HW119877   5.583   5.977   1.199
 6326SOL    HW219878   5.502   5.843   1.248
 6327SOL     OW19879   6.932   0.257   5.382
 6327SOL    HW119880   6.929   0.157   5.381
 6327SOL    HW219881   6.985   0.290   5.304
 6328SOL     OW19882   1.831   3.729   0.440
 6328SOL    HW119883   1.753   3.791   0.435
 6328SOL    HW219884   1.798   3.636   0.453
 6329SOL     OW19885   1.808   2.406   3.158
 6329SOL    HW119886   1.716   2.437   3.183
 6329SOL    HW219887   1.802   2.340   3.083
 6330SOL     OW19888   4.712   0.823   1.306
 6330SOL    HW119889   4.765   0.746   1.341
 6330SOL    HW219890   4.647   0.791   1.237
 6331SOL     OW19891   5.968   2.403   0.672
 6331SOL    HW119892   6.022   2.452   0.741
 6331SOL    HW219893   5.887   2.457   0.648
 6332SOL     OW19894   6.802   4.599   2.486
 6332SOL    HW119895   6.797   4.522   2.549
 6332SOL    HW219896   6.874   4.583   2.419
 6333SOL     OW19897   3.528   4.992   4.213
 6333SOL    HW119898   3.480   5.022   4.295
 6333SOL    HW219899   3.617   4.954   4.239
 6334SOL     OW19900   2.053   0.428   2.513
 6334SOL    HW119901   2.129   0.413   2.577
 6334SOL    HW219902   2.081   0.493   2.443
 6335SOL     OW19903   5.190   1.565   0.908
 6335SOL    HW119904   5.128   1.513   0.849
 6335SOL    HW219905   5.153   1.569   1.001
 6336SOL     OW19906   0.037   2.046   5.775
 6336SOL    HW119907   0.060   2.013   5.867
 6336SOL    HW219908   0.096   2.123   5.752
 6337SOL     OW19909   4.912   3.596   6.643
 6337SOL    HW119910   4.925   3.668   6.576
 6337SOL    HW219911   4.932   3.507   6.602
 6338SOL     OW19912   2.990   2.230   2.787
 6338SOL    HW119913   3.084   2.202   2.773
 6338SOL    HW219914   2.955   2.274   2.704
 6339SOL     OW19915   1.023   2.790   3.900
 6339SOL    HW119916   0.991   2.771   3.807
 6339SOL    HW219917   1.090   2.721   3.927
 6340SOL     OW19918   2.321   5.155   3.158
 6340SOL    HW119919   2.415   5.125   3.139
 6340SOL    HW219920   2.324   5.235   3.219
 6341SOL     OW19921   0.417   5.151   3.323
 6341SOL    HW119922   0.353   5.121   3.393
 6341SOL    HW219923   0.371   5.212   3.259
 6342SOL     OW19924   2.696   1.275   1.714
 6342SOL    HW119925   2.695   1.375   1.713
 6342SOL    HW219926   2.747   1.242   1.794
 6343SOL     OW19927   4.998   2.502   6.756
 6343SOL    HW119928   5.022   2.429   6.692
 6343SOL    HW219929   4.931   2.563   6.713
 6344SOL     OW19930   5.990   3.383   5.842
 6344SOL    HW119931   6.049   3.421   5.771
 6344SOL    HW219932   6.046   3.352   5.918
 6345SOL     OW19933   4.103   1.349   1.920
 6345SOL    HW119934   4.030   1.357   1.853
 6345SOL    HW219935   4.188   1.384   1.881
 6346SOL     OW19936   6.895   3.727   3.419
 6346SOL    HW119937   6.960   3.713   3.493
 6346SOL    HW219938   6.811   3.768   3.455
 6347SOL     OW19939   2.326   0.486   1.570
 6347SOL    HW119940   2.415   0.448   1.595
 6347SOL    HW219941   2.330   0.586   1.572
 6348SOL     OW19942   1.295   3.680   5.409
 6348SOL    HW119943   1.285   3.636   5.320
 6348SOL    HW219944   1.337   3.770   5.397
 6349SOL     OW19945   2.651   0.556   1.208
 6349SOL    HW119946   2.570   0.499   1.227
 6349SOL    HW219947   2.634   0.610   1.126
 6350SOL     OW19948   2.348   4.841   3.928
 6350SOL    HW119949   2.381   4.896   4.005
 6350SOL    HW219950   2.291   4.766   3.963
 6351SOL     OW19951   6.781   3.031   2.358
 6351SOL    HW119952   6.873   3.057   2.386
 6351SOL    HW219953   6.762   2.938   2.389
 6352SOL     OW19954   1.805   5.037   4.413
 6352SOL    HW119955   1.801   5.035   4.513
 6352SOL    HW219956   1.900   5.050   4.383
 6353SOL     OW19957   6.538   0.787   6.243
 6353SOL    HW119958   6.585   0.751   6.324
 6353SOL    HW219959   6.498   0.712   6.191
 6354SOL     OW19960   1.237   6.861   2.593
 6354SOL    HW119961   1.221   6.786   2.528
 6354SOL    HW219962   1.149   6.891   2.630
 6355SOL     OW19963   0.898   5.010   5.317
 6355SOL    HW119964   0.821   5.075   5.313
 6355SOL    HW219965   0.887   4.941   5.246
 6356SOL     OW19966   4.894   4.807   1.947
 6356SOL    HW119967   4.887   4.799   2.047
 6356SOL    HW219968   4.903   4.715   1.908
 6357SOL     OW19969   4.930   2.787   1.567
 6357SOL    HW119970   4.835   2.772   1.539
 6357SOL    HW219971   4.959   2.878   1.538
 6358SOL     OW19972   0.714   2.498   5.560
 6358SOL    HW119973   0.752   2.481   5.468
 6358SOL    HW219974   0.789   2.511   5.624
 6359SOL     OW19975   5.897   0.042   6.141
 6359SOL    HW119976   5.934   0.090   6.221
 6359SOL    HW219977   5.883   6.970   6.164
 6360SOL     OW19978   2.227   4.284   4.152
 6360SOL    HW119979   2.241   4.238   4.065
 6360SOL    HW219980   2.153   4.351   4.142
 6361SOL     OW19981   5.653   6.870   0.060
 6361SOL    HW119982   5.666   6.891   6.987
 6361SOL    HW219983   5.740   6.883   0.109
 6362SOL     OW19984   5.906   5.086   6.360
 6362SOL    HW119985   5.939   5.016   6.423
 6362SOL    HW219986   5.961   5.169   6.371
 6363SOL     OW19987   2.628   5.046   3.138
 6363SOL    HW119988   2.663   5.031   3.230
 6363SOL    HW219989   2.594   4.960   3.100
 6364SOL     OW19990   2.909   0.993   5.659
 6364SOL    HW119991   2.900   1.088   5.628
 6364SOL    HW219992   3.003   0.963   5.647
 6365SOL     OW19993   4.744   6.631   4.271
 6365SOL    HW119994   4.718   6.726   4.285
 6365SOL    HW219995   4.843   6.623   4.265
 6366SOL     OW19996   0.520   6.318   6.240
 6366SOL    HW119997   0.422   6.296   6.244
 6366SOL    HW219998   0.549   6.357   6.328
 6367SOL     OW19999   4.208   0.546   4.150
 6367SOL    HW120000   4.278   0.613   4.123
 6367SOL    HW220001   4.166   0.574   4.236
 6368SOL     OW20002   3.120   0.080   3.436
 6368SOL    HW120003   3.150   0.175   3.431
 6368SOL    HW220004   3.151   0.030   3.355
 6369SOL     OW20005   2.806   5.065   4.784
 6369SOL    HW120006   2.849   4.978   4.806
 6369SOL    HW220007   2.733   5.050   4.717
 6370SOL     OW20008   1.567   3.269   2.952
 6370SOL    HW120009   1.604   3.325   2.877
 6370SOL    HW220010   1.636   3.256   3.022
 6371SOL     OW20011   4.876   3.489   4.126
 6371SOL    HW120012   4.803   3.549   4.160
 6371SOL    HW220013   4.932   3.458   4.203
 6372SOL     OW20014   3.007   0.019   1.823
 6372SOL    HW120015   2.920   6.994   1.825
 6372SOL    HW220016   3.082   6.977   1.820
 6373SOL     OW20017   6.244   4.038   4.152
 6373SOL    HW120018   6.183   3.964   4.181
 6373SOL    HW220019   6.201   4.126   4.171
 6374SOL     OW20020   3.550   3.647   4.191
 6374SOL    HW120021   3.609   3.677   4.267
 6374SOL    HW220022   3.464   3.612   4.228
 6375SOL     OW20023   0.845   1.577   3.994
 6375SOL    HW120024   0.788   1.500   3.966
 6375SOL    HW220025   0.942   1.551   3.987
 6376SOL     OW20026   6.442   2.022   5.451
 6376SOL    HW120027   6.465   2.077   5.370
 6376SOL    HW220028   6.525   1.982   5.489
 6377SOL     OW20029   6.829   1.840   6.266
 6377SOL    HW120030   6.925   1.866   6.277
 6377SOL    HW220031   6.822   1.740   6.264
 6378SOL     OW20032   5.787   4.815   3.431
 6378SOL    HW120033   5.759   4.733   3.480
 6378SOL    HW220034   5.818   4.884   3.497
 6379SOL     OW20035   2.063   4.612   4.727
 6379SOL    HW120036   2.087   4.566   4.812
 6379SOL    HW220037   1.981   4.668   4.740
 6380SOL     OW20038   1.063   1.255   5.294
 6380SOL    HW120039   0.984   1.248   5.354
 6380SOL    HW220040   1.140   1.295   5.343
 6381SOL     OW20041   3.573   3.347   2.890
 6381SOL    HW120042   3.586   3.335   2.792
 6381SOL    HW220043   3.475   3.343   2.911
 6382SOL     OW20044   1.209   2.877   0.455
 6382SOL    HW120045   1.273   2.802   0.437
 6382SOL    HW220046   1.222   2.949   0.387
 6383SOL     OW20047   2.092   2.481   3.023
 6383SOL    HW120048   2.028   2.536   2.968
 6383SOL    HW220049   2.122   2.402   2.970
 6384SOL     OW20050   5.475   4.170   1.337
 6384SOL    HW120051   5.545   4.152   1.268
 6384SOL    HW220052   5.502   4.129   1.424
 6385SOL     OW20053   6.610   5.188   4.091
 6385SOL    HW120054   6.690   5.195   4.031
 6385SOL    HW220055   6.616   5.103   4.143
 6386SOL     OW20056   2.436   4.051   0.077
 6386SOL    HW120057   2.342   4.031   0.107
 6386SOL    HW220058   2.435   4.079   7.005
 6387SOL     OW20059   0.797   2.014   6.630
 6387SOL    HW120060   0.863   2.033   6.558
 6387SOL    HW220061   0.824   1.932   6.679
 6388SOL     OW20062   4.275   4.412   1.702
 6388SOL    HW120063   4.318   4.333   1.746
 6388SOL    HW220064   4.285   4.492   1.761
 6389SOL     OW20065   0.442   5.724   2.078
 6389SOL    HW120066   0.356   5.710   2.128
 6389SOL    HW220067   0.459   5.646   2.018
 6390SOL     OW20068   1.078   2.331   3.986
 6390SOL    HW120069   1.141   2.253   3.996
 6390SOL    HW220070   1.061   2.348   3.889
 6391SOL     OW20071   2.877   0.214   6.413
 6391SOL    HW120072   2.888   0.121   6.379
 6391SOL    HW220073   2.964   0.247   6.450
 6392SOL     OW20074   2.524   6.650   3.499
 6392SOL    HW120075   2.590   6.591   3.453
 6392SOL    HW220076   2.432   6.627   3.468
 6393SOL     OW20077   6.227   6.338   1.311
 6393SOL    HW120078   6.220   6.434   1.282
 6393SOL    HW220079   6.259   6.282   1.234
 6394SOL     OW20080   2.488   4.184   0.967
 6394SOL    HW120081   2.413   4.199   1.031
 6394SOL    HW220082   2.547   4.265   0.965
 6395SOL     OW20083   5.470   2.502   1.827
 6395SOL    HW120084   5.548   2.537   1.879
 6395SOL    HW220085   5.500   2.425   1.770
 6396SOL     OW20086   5.498   2.555   6.359
 6396SOL    HW120087   5.477   2.536   6.455
 6396SOL    HW220088   5.494   2.653   6.343
 6397SOL     OW20089   5.722   1.717   0.064
 6397SOL    HW120090   5.806   1.680   0.024
 6397SOL    HW220091   5.650   1.719   7.019
 6398SOL     OW20092   3.518   0.944   0.654
 6398SOL    HW120093   3.617   0.948   0.671
 6398SOL    HW220094   3.499   0.982   0.564
 6399SOL     OW20095   2.009   5.085   6.453
 6399SOL    HW120096   2.062   5.003   6.472
 6399SOL    HW220097   2.070   5.162   6.436
 6400SOL     OW20098   2.309   5.595   3.159
 6400SOL    HW120099   2.297   5.676   3.217
 6400SOL    HW220100   2.384   5.539   3.196
 6401SOL     OW20101   6.966   4.390   3.517
 6401SOL    HW120102   0.028   4.396   3.567
 6401SOL    HW220103   6.963   4.462   3.447
 6402SOL     OW20104   2.902   0.792   2.988
 6402SOL    HW120105   2.981   0.801   2.927
 6402SOL    HW220106   2.878   0.695   2.997
 6403SOL     OW20107   0.887   6.354   6.753
 6403SOL    HW120108   0.917   6.305   6.834
 6403SOL    HW220109   0.811   6.415   6.777
 6404SOL     OW20110   4.182   1.107   3.087
 6404SOL    HW120111   4.160   1.203   3.103
 6404SOL    HW220112   4.176   1.056   3.173
 6405SOL     OW20113   1.820   1.247   3.461
 6405SOL    HW120114   1.826   1.150   3.441
 6405SOL    HW220115   1.736   1.266   3.512
 6406SOL     OW20116   1.601   2.569   3.647
 6406SOL    HW120117   1.664   2.617   3.587
 6406SOL    HW220118   1.598   2.472   3.622
 6407SOL     OW20119   2.947   6.393   2.921
 6407SOL    HW120120   3.002   6.323   2.968
 6407SOL    HW220121   2.990   6.482   2.933
 6408SOL     OW20122   6.263   2.410   7.008
 6408SOL    HW120123   6.351   2.374   0.017
 6408SOL    HW220124   6.192   2.390   0.051
 6409SOL     OW20125   0.304   4.362   3.378
 6409SOL    HW120126   0.273   4.276   3.418
 6409SOL    HW220127   0.350   4.343   3.291
 6410SOL     OW20128   1.515   1.761   0.705
 6410SOL    HW120129   1.540   1.680   0.652
 6410SOL    HW220130   1.419   1.756   0.731
 6411SOL     OW20131   1.122   2.831   3.533
 6411SOL    HW120132   1.042   2.794   3.582
 6411SOL    HW220133   1.199   2.769   3.543
 6412SOL     OW20134   6.985   2.936   5.407
 6412SOL    HW120135   0.029   2.996   5.366
 6412SOL    HW220136   6.964   2.861   5.345
 6413SOL     OW20137   5.402   4.944   2.851
 6413SOL    HW120138   5.408   4.849   2.820
 6413SOL    HW220139   5.337   4.993   2.793
 6414SOL     OW20140   6.081   0.879   2.022
 6414SOL    HW120141   6.060   0.858   2.117
 6414SOL    HW220142   6.008   0.843   1.963
 6415SOL     OW20143   3.032   1.921   2.867
 6415SOL    HW120144   3.080   2.004   2.837
 6415SOL    HW220145   2.987   1.878   2.789
 6416SOL     OW20146   0.896   0.516   6.276
 6416SOL    HW120147   0.805   0.555   6.263
 6416SOL    HW220148   0.914   0.448   6.206
 6417SOL     OW20149   0.512   5.013   2.710
 6417SOL    HW120150   0.451   5.086   2.679
 6417SOL    HW220151   0.551   5.038   2.798
 6418SOL     OW20152   6.377   4.674   2.572
 6418SOL    HW120153   6.421   4.683   2.662
 6418SOL    HW220154   6.306   4.744   2.563
 6419SOL     OW20155   2.889   5.104   2.358
 6419SOL    HW120156   2.885   5.196   2.395
 6419SOL    HW220157   2.925   5.041   2.427
 6420SOL     OW20158   2.974   3.618   5.619
 6420SOL    HW120159   2.959   3.549   5.548
 6420SOL    HW220160   2.906   3.690   5.610
 6421SOL     OW20161   5.943   1.666   1.856
 6421SOL    HW120162   5.888   1.585   1.878
 6421SOL    HW220163   5.926   1.737   1.924
 6422SOL     OW20164   6.399   0.262   3.737
 6422SOL    HW120165   6.396   0.165   3.761
 6422SOL    HW220166   6.480   0.280   3.680
 6423SOL     OW20167   4.665   4.333   2.208
 6423SOL    HW120168   4.708   4.246   2.185
 6423SOL    HW220169   4.590   4.350   2.144
 6424SOL     OW20170   6.606   5.089   5.794
 6424SOL    HW120171   6.683   5.152   5.782
 6424SOL    HW220172   6.622   5.006   5.740
 6425SOL     OW20173   7.018   5.442   4.314
 6425SOL    HW120174   0.013   5.350   4.280
 6425SOL    HW220175   6.999   5.439   4.412
 6426SOL     OW20176   0.927   3.969   3.794
 6426SOL    HW120177   0.985   3.896   3.758
 6426SOL    HW220178   0.836   3.933   3.813
 6427SOL     OW20179   1.720   3.200   0.044
 6427SOL    HW120180   1.800   3.254   0.069
 6427SOL    HW220181   1.743   3.103   0.046
 6428SOL     OW20182   6.212   3.510   0.710
 6428SOL    HW120183   6.217   3.411   0.695
 6428SOL    HW220184   6.302   3.545   0.737
 6429SOL     OW20185   0.899   1.183   4.634
 6429SOL    HW120186   0.883   1.271   4.589
 6429SOL    HW220187   0.834   1.116   4.599
 6430SOL     OW20188   4.305   1.532   1.809
 6430SOL    HW120189   4.396   1.555   1.775
 6430SOL    HW220190   4.239   1.599   1.775
 6431SOL     OW20191   5.724   0.112   2.981
 6431SOL    HW120192   5.810   0.077   3.017
 6431SOL    HW220193   5.654   0.042   2.987
 6432SOL     OW20194   4.275   4.071   0.256
 6432SOL    HW120195   4.269   4.163   0.295
 6432SOL    HW220196   4.366   4.033   0.276
 6433SOL     OW20197   3.373   4.371   1.078
 6433SOL    HW120198   3.358   4.281   1.119
 6433SOL    HW220199   3.394   4.437   1.151
 6434SOL     OW20200   1.293   3.138   1.159
 6434SOL    HW120201   1.317   3.094   1.245
 6434SOL    HW220202   1.266   3.232   1.175
 6435SOL     OW20203   3.997   5.213   6.883
 6435SOL    HW120204   4.071   5.226   6.817
 6435SOL    HW220205   3.993   5.116   6.909
 6436SOL     OW20206   2.173   3.122   4.116
 6436SOL    HW120207   2.203   3.216   4.103
 6436SOL    HW220208   2.160   3.104   4.214
 6437SOL     OW20209   1.280   1.037   1.008
 6437SOL    HW120210   1.224   0.969   0.962
 6437SOL    HW220211   1.345   0.992   1.069
 6438SOL     OW20212   6.765   4.661   5.617
 6438SOL    HW120213   6.709   4.597   5.565
 6438SOL    HW220214   6.825   4.610   5.679
 6439SOL     OW20215   0.274   6.671   1.346
 6439SOL    HW120216   0.237   6.584   1.314
 6439SOL    HW220217   0.264   6.677   1.445
 6440SOL     OW20218   2.178   1.429   2.122
 6440SOL    HW120219   2.111   1.382   2.064
 6440SOL    HW220220   2.229   1.494   2.067
 6441SOL     OW20221   0.892   6.906   2.495
 6441SOL    HW120222   0.941   6.975   2.441
 6441SOL    HW220223   0.881   6.823   2.441
 6442SOL     OW20224   1.535   1.267   3.469
 6442SOL    HW120225   1.541   1.168   3.478
 6442SOL    HW220226   1.477   1.304   3.542
 6443SOL     OW20227   3.120   2.650   0.802
 6443SOL    HW120228   3.181   2.691   0.734
 6443SOL    HW220229   3.173   2.591   0.863
 6444SOL     OW20230   0.907   2.469   3.535
 6444SOL    HW120231   0.921   2.423   3.448
 6444SOL    HW220232   0.973   2.434   3.602
 6445SOL     OW20233   4.847   2.583   5.607
 6445SOL    HW120234   4.936   2.557   5.570
 6445SOL    HW220235   4.821   2.521   5.681
 6446SOL     OW20236   0.666   2.060   6.244
 6446SOL    HW120237   0.581   2.033   6.290
 6446SOL    HW220238   0.651   2.060   6.145
 6447SOL     OW20239   0.400   6.176   2.472
 6447SOL    HW120240   0.398   6.109   2.546
 6447SOL    HW220241   0.495   6.194   2.446
 6448SOL     OW20242   5.945   4.655   2.261
 6448SOL    HW120243   5.974   4.612   2.347
 6448SOL    HW220244   5.886   4.593   2.210
 6449SOL     OW20245   3.714   4.495   1.255
 6449SOL    HW120246   3.616   4.498   1.275
 6449SOL    HW220247   3.741   4.578   1.207
 6450SOL     OW20248   7.005   3.331   1.528
 6450SOL    HW120249   6.910   3.314   1.551
 6450SOL    HW220250   7.013   3.345   1.429
 6451SOL     OW20251   2.821   6.179   5.207
 6451SOL    HW120252   2.813   6.240   5.286
 6451SOL    HW220253   2.758   6.102   5.218
 6452SOL     OW20254   3.363   6.377   5.439
 6452SOL    HW120255   3.380   6.378   5.537
 6452SOL    HW220256   3.266   6.395   5.421
 6453SOL     OW20257   2.178   6.186   6.611
 6453SOL    HW120258   2.096   6.178   6.666
 6453SOL    HW220259   2.236   6.260   6.646
 6454SOL     OW20260   3.213   0.895   3.668
 6454SOL    HW120261   3.241   0.912   3.762
 6454SOL    HW220262   3.281   0.935   3.605
 6455SOL     OW20263   0.695   2.251   4.374
 6455SOL    HW120264   0.766   2.317   4.350
 6455SOL    HW220265   0.609   2.299   4.389
 6456SOL     OW20266   1.278   0.213   3.632
 6456SOL    HW120267   1.372   0.206   3.599
 6456SOL    HW220268   1.223   0.265   3.566
 6457SOL     OW20269   5.209   1.355   1.137
 6457SOL    HW120270   5.212   1.322   1.232
 6457SOL    HW220271   5.280   1.425   1.124
 6458SOL     OW20272   1.307   6.289   2.775
 6458SOL    HW120273   1.356   6.375   2.792
 6458SOL    HW220274   1.251   6.267   2.856
 6459SOL     OW20275   5.769   5.592   0.939
 6459SOL    HW120276   5.686   5.538   0.956
 6459SOL    HW220277   5.746   5.670   0.880
 6460SOL     OW20278   4.433   5.178   6.141
 6460SOL    HW120279   4.435   5.175   6.041
 6460SOL    HW220280   4.524   5.160   6.177
 6461SOL     OW20281   2.986   5.173   5.023
 6461SOL    HW120282   2.954   5.124   5.104
 6461SOL    HW220283   2.927   5.152   4.945
 6462SOL     OW20284   2.380   2.812   5.319
 6462SOL    HW120285   2.407   2.896   5.272
 6462SOL    HW220286   2.390   2.734   5.257
 6463SOL     OW20287   1.554   3.900   6.494
 6463SOL    HW120288   1.555   3.989   6.538
 6463SOL    HW220289   1.604   3.904   6.408
 6464SOL     OW20290   0.636   4.944   4.865
 6464SOL    HW120291   0.706   5.004   4.904
 6464SOL    HW220292   0.549   4.958   4.913
 6465SOL     OW20293   6.401   2.649   3.970
 6465SOL    HW120294   6.358   2.673   4.058
 6465SOL    HW220295   6.436   2.732   3.927
 6466SOL     OW20296   0.344   1.974   6.065
 6466SOL    HW120297   0.245   1.980   6.047
 6466SOL    HW220298   0.392   1.950   5.980
 6467SOL     OW20299   2.754   0.817   6.855
 6467SOL    HW120300   2.812   0.894   6.882
 6467SOL    HW220301   2.748   0.813   6.755
 6468SOL     OW20302   4.103   6.284   1.356
 6468SOL    HW120303   4.138   6.337   1.279
 6468SOL    HW220304   4.086   6.190   1.326
 6469SOL     OW20305   4.792   0.611   5.035
 6469SOL    HW120306   4.795   0.635   5.132
 6469SOL    HW220307   4.856   0.668   4.985
 6470SOL     OW20308   6.332   5.013   6.617
 6470SOL    HW120309   6.425   5.030   6.649
 6470SOL    HW220310   6.285   4.952   6.681
 6471SOL     OW20311   6.430   5.658   5.965
 6471SOL    HW120312   6.400   5.670   6.060
 6471SOL    HW220313   6.417   5.743   5.915
 6472SOL     OW20314   0.673   4.874   0.623
 6472SOL    HW120315   0.681   4.802   0.692
 6472SOL    HW220316   0.599   4.937   0.650
 6473SOL     OW20317   2.019   1.971   5.383
 6473SOL    HW120318   2.067   2.056   5.404
 6473SOL    HW220319   1.925   1.977   5.416
 6474SOL     OW20320   1.833   3.560   6.136
 6474SOL    HW120321   1.904   3.630   6.147
 6474SOL    HW220322   1.750   3.590   6.181
 6475SOL     OW20323   6.442   5.653   4.833
 6475SOL    HW120324   6.393   5.740   4.819
 6475SOL    HW220325   6.503   5.662   4.911
 6476SOL     OW20326   4.688   3.697   1.635
 6476SOL    HW120327   4.604   3.751   1.636
 6476SOL    HW220328   4.733   3.705   1.546
 6477SOL     OW20329   0.284   5.234   0.827
 6477SOL    HW120330   0.271   5.289   0.744
 6477SOL    HW220331   0.343   5.284   0.891
 6478SOL     OW20332   3.354   5.937   2.036
 6478SOL    HW120333   3.309   5.974   1.955
 6478SOL    HW220334   3.450   5.964   2.035
 6479SOL     OW20335   4.066   5.176   2.724
 6479SOL    HW120336   4.019   5.195   2.809
 6479SOL    HW220337   4.053   5.251   2.660
 6480SOL     OW20338   3.702   2.957   5.493
 6480SOL    HW120339   3.782   3.017   5.482
 6480SOL    HW220340   3.641   2.996   5.562
 6481SOL     OW20341   3.418   2.274   1.751
 6481SOL    HW120342   3.386   2.311   1.664
 6481SOL    HW220343   3.514   2.300   1.765
 6482SOL     OW20344   0.135   0.971   6.021
 6482SOL    HW120345   0.077   0.973   5.940
 6482SOL    HW220346   0.092   0.915   6.092
 6483SOL     OW20347   2.518   5.720   1.713
 6483SOL    HW120348   2.548   5.676   1.798
 6483SOL    HW220349   2.542   5.663   1.635
 6484SOL     OW20350   3.932   0.441   3.048
 6484SOL    HW120351   4.007   0.507   3.045
 6484SOL    HW220352   3.848   0.484   3.016
 6485SOL     OW20353   1.481   3.779   3.518
 6485SOL    HW120354   1.568   3.757   3.562
 6485SOL    HW220355   1.453   3.871   3.543
 6486SOL     OW20356   1.254   4.829   3.904
 6486SOL    HW120357   1.218   4.776   3.981
 6486SOL    HW220358   1.337   4.876   3.933
 6487SOL     OW20359   6.179   5.700   5.290
 6487SOL    HW120360   6.126   5.615   5.295
 6487SOL    HW220361   6.141   5.767   5.353
 6488SOL     OW20362   3.077   6.118   5.112
 6488SOL    HW120363   3.000   6.153   5.165
 6488SOL    HW220364   3.082   6.018   5.122
 6489SOL     OW20365   1.975   3.288   6.843
 6489SOL    HW120366   2.044   3.323   6.781
 6489SOL    HW220367   2.010   3.206   6.889
 6490SOL     OW20368   4.116   2.287   6.472
 6490SOL    HW120369   4.085   2.224   6.402
 6490SOL    HW220370   4.054   2.283   6.550
 6491SOL     OW20371   4.245   1.287   6.419
 6491SOL    HW120372   4.261   1.202   6.369
 6491SOL    HW220373   4.165   1.277   6.479
 6492SOL     OW20374   6.048   6.324   6.649
 6492SOL    HW120375   6.030   6.392   6.720
 6492SOL    HW220376   6.117   6.259   6.682
 6493SOL     OW20377   1.348   6.046   5.331
 6493SOL    HW120378   1.295   6.054   5.415
 6493SOL    HW220379   1.369   5.950   5.314
 6494SOL     OW20380   0.646   0.478   3.421
 6494SOL    HW120381   0.589   0.561   3.415
 6494SOL    HW220382   0.648   0.433   3.331
 6495SOL     OW20383   5.257   6.317   3.964
 6495SOL    HW120384   5.295   6.224   3.965
 6495SOL    HW220385   5.197   6.327   3.884
 6496SOL     OW20386   0.090   6.482   2.327
 6496SOL    HW120387   0.026   6.529   2.267
 6496SOL    HW220388   0.040   6.413   2.381
 6497SOL     OW20389   2.155   3.126   0.278
 6497SOL    HW120390   2.224   3.061   0.310
 6497SOL    HW220391   2.084   3.136   0.347
 6498SOL     OW20392   2.611   4.650   4.408
 6498SOL    HW120393   2.611   4.624   4.312
 6498SOL    HW220394   2.538   4.600   4.456
 6499SOL     OW20395   6.032   1.875   5.041
 6499SOL    HW120396   6.058   1.878   4.944
 6499SOL    HW220397   5.940   1.836   5.049
 6500SOL     OW20398   0.115   4.825   3.674
 6500SOL    HW120399   0.191   4.856   3.731
 6500SOL    HW220400   0.150   4.796   3.585
 6501SOL     OW20401   6.692   2.946   1.100
 6501SOL    HW120402   6.592   2.953   1.093
 6501SOL    HW220403   6.720   2.852   1.082
 6502SOL     OW20404   0.193   3.793   3.401
 6502SOL    HW120405   0.272   3.831   3.354
 6502SOL    HW220406   0.110   3.844   3.375
 6503SOL     OW20407   5.447   0.023   3.349
 6503SOL    HW120408   5.519   0.025   3.417
 6503SOL    HW220409   5.448   6.960   3.300
 6504SOL     OW20410   4.613   6.574   6.194
 6504SOL    HW120411   4.709   6.568   6.165
 6504SOL    HW220412   4.563   6.495   6.161
 6505SOL     OW20413   6.201   4.379   1.392
 6505SOL    HW120414   6.119   4.355   1.445
 6505SOL    HW220415   6.208   4.478   1.384
 6506SOL     OW20416   0.715   3.278   0.719
 6506SOL    HW120417   0.658   3.353   0.752
 6506SOL    HW220418   0.686   3.252   0.627
 6507SOL     OW20419   1.243   5.805   6.653
 6507SOL    HW120420   1.171   5.742   6.623
 6507SOL    HW220421   1.218   5.844   6.742
 6508SOL     OW20422   1.842   1.863   3.657
 6508SOL    HW120423   1.850   1.792   3.726
 6508SOL    HW220424   1.929   1.873   3.609
 6509SOL     OW20425   1.852   2.491   4.586
 6509SOL    HW120426   1.772   2.552   4.581
 6509SOL    HW220427   1.898   2.503   4.673
 6510SOL     OW20428   0.666   5.489   6.828
 6510SOL    HW120429   0.691   5.425   6.755
 6510SOL    HW220430   0.689   5.449   6.916
 6511SOL     OW20431   5.705   0.750   4.658
 6511SOL    HW120432   5.632   0.758   4.590
 6511SOL    HW220433   5.718   0.653   4.681
 6512SOL     OW20434   4.917   0.550   3.038
 6512SOL    HW120435   4.998   0.579   3.089
 6512SOL    HW220436   4.889   0.459   3.067
 6513SOL     OW20437   3.770   5.984   4.148
 6513SOL    HW120438   3.762   5.948   4.055
 6513SOL    HW220439   3.777   5.908   4.212
 6514SOL     OW20440   5.361   0.477   3.051
 6514SOL    HW120441   5.446   0.524   3.074
 6514SOL    HW220442   5.351   0.395   3.107
 6515SOL     OW20443   0.206   5.430   3.857
 6515SOL    HW120444   0.151   5.491   3.914
 6515SOL    HW220445   0.202   5.460   3.762
 6516SOL     OW20446   0.218   1.811   0.408
 6516SOL    HW120447   0.221   1.910   0.404
 6516SOL    HW220448   0.262   1.778   0.491
 6517SOL     OW20449   6.069   1.488   1.006
 6517SOL    HW120450   6.086   1.432   0.925
 6517SOL    HW220451   5.984   1.539   0.994
 6518SOL     OW20452   0.626   6.208   0.107
 6518SOL    HW120453   0.597   6.113   0.097
 6518SOL    HW220454   0.706   6.213   0.166
 6519SOL     OW20455   2.014   2.042   3.281
 6519SOL    HW120456   2.061   2.127   3.256
 6519SOL    HW220457   1.958   2.011   3.204
 6520SOL     OW20458   6.315   5.848   3.606
 6520SOL    HW120459   6.223   5.874   3.632
 6520SOL    HW220460   6.335   5.756   3.640
 6521SOL     OW20461   0.479   1.026   4.483
 6521SOL    HW120462   0.480   1.080   4.399
 6521SOL    HW220463   0.571   0.995   4.503
 6522SOL     OW20464   3.269   4.273   6.900
 6522SOL    HW120465   3.252   4.351   6.840
 6522SOL    HW220466   3.316   4.304   6.983
 6523SOL     OW20467   2.688   1.629   6.309
 6523SOL    HW120468   2.598   1.625   6.266
 6523SOL    HW220469   2.756   1.590   6.247
 6524SOL     OW20470   3.347   3.264   3.069
 6524SOL    HW120471   3.336   3.364   3.068
 6524SOL    HW220472   3.384   3.235   3.156
 6525SOL     OW20473   2.328   2.794   2.938
 6525SOL    HW120474   2.287   2.764   3.024
 6525SOL    HW220475   2.390   2.723   2.904
 6526SOL     OW20476   0.772   6.115   4.619
 6526SOL    HW120477   0.859   6.162   4.634
 6526SOL    HW220478   0.778   6.022   4.654
 6527SOL     OW20479   0.449   1.379   4.775
 6527SOL    HW120480   0.532   1.325   4.784
 6527SOL    HW220481   0.413   1.401   4.866
 6528SOL     OW20482   6.970   0.899   3.810
 6528SOL    HW120483   7.008   0.934   3.896
 6528SOL    HW220484   6.875   0.870   3.825
 6529SOL     OW20485   5.237   1.998   3.729
 6529SOL    HW120486   5.315   1.997   3.666
 6529SOL    HW220487   5.196   2.088   3.729
 6530SOL     OW20488   0.022   3.469   0.830
 6530SOL    HW120489   6.953   3.435   0.843
 6530SOL    HW220490   0.043   3.534   0.903
 6531SOL     OW20491   5.250   3.172   4.271
 6531SOL    HW120492   5.273   3.191   4.366
 6531SOL    HW220493   5.233   3.258   4.222
 6532SOL     OW20494   5.406   1.559   1.074
 6532SOL    HW120495   5.355   1.622   1.132
 6532SOL    HW220496   5.361   1.552   0.985
 6533SOL     OW20497   5.656   5.704   1.710
 6533SOL    HW120498   5.661   5.622   1.653
 6533SOL    HW220499   5.561   5.720   1.738
 6534SOL     OW20500   2.727   4.513   1.651
 6534SOL    HW120501   2.709   4.414   1.645
 6534SOL    HW220502   2.800   4.530   1.716
 6535SOL     OW20503   0.542   2.949   4.677
 6535SOL    HW120504   0.620   2.898   4.712
 6535SOL    HW220505   0.569   2.997   4.593
 6536SOL     OW20506   6.969   2.524   5.785
 6536SOL    HW120507   6.901   2.596   5.785
 6536SOL    HW220508   6.924   2.435   5.798
 6537SOL     OW20509   6.445   5.678   0.101
 6537SOL    HW120510   6.529   5.725   0.073
 6537SOL    HW220511   6.374   5.745   0.122
 6538SOL     OW20512   3.857   4.020   0.249
 6538SOL    HW120513   3.882   4.055   0.339
 6538SOL    HW220514   3.764   4.051   0.226
 6539SOL     OW20515   2.379   1.726   6.199
 6539SOL    HW120516   2.303   1.715   6.263
 6539SOL    HW220517   2.400   1.823   6.188
 6540SOL     OW20518   4.315   1.752   4.753
 6540SOL    HW120519   4.398   1.703   4.726
 6540SOL    HW220520   4.340   1.841   4.791
 6541SOL     OW20521   3.053   2.148   4.845
 6541SOL    HW120522   2.964   2.190   4.824
 6541SOL    HW220523   3.101   2.205   4.913
 6542SOL     OW20524   6.974   4.119   3.459
 6542SOL    HW120525   6.971   4.218   3.448
 6542SOL    HW220526   0.009   4.096   3.537
 6543SOL     OW20527   6.559   4.921   0.011
 6543SOL    HW120528   6.629   4.976   0.057
 6543SOL    HW220529   6.514   4.862   0.077
 6544SOL     OW20530   0.739   6.469   3.673
 6544SOL    HW120531   0.757   6.453   3.770
 6544SOL    HW220532   0.694   6.388   3.634
 6545SOL     OW20533   4.746   1.802   6.127
 6545SOL    HW120534   4.785   1.715   6.156
 6545SOL    HW220535   4.737   1.803   6.028
 6546SOL     OW20536   4.364   4.116   6.270
 6546SOL    HW120537   4.409   4.148   6.187
 6546SOL    HW220538   4.268   4.147   6.270
 6547SOL     OW20539   4.189   1.509   5.546
 6547SOL    HW120540   4.225   1.553   5.628
 6547SOL    HW220541   4.102   1.463   5.569
 6548SOL     OW20542   0.730   4.042   6.627
 6548SOL    HW120543   0.765   4.107   6.560
 6548SOL    HW220544   0.631   4.043   6.626
 6549SOL     OW20545   3.125   1.114   0.910
 6549SOL    HW120546   3.207   1.065   0.881
 6549SOL    HW220547   3.049   1.091   0.849
 6550SOL     OW20548   0.068   6.159   2.939
 6550SOL    HW120549   0.136   6.218   2.984
 6550SOL    HW220550   0.029   6.096   3.006
 6551SOL     OW20551   1.998   4.099   2.594
 6551SOL    HW120552   2.052   4.018   2.571
 6551SOL    HW220553   1.951   4.084   2.682
 6552SOL     OW20554   2.457   6.533   4.351
 6552SOL    HW120555   2.411   6.454   4.311
 6552SOL    HW220556   2.399   6.613   4.342
 6553SOL     OW20557   0.142   2.369   1.262
 6553SOL    HW120558   0.094   2.294   1.216
 6553SOL    HW220559   0.076   2.441   1.285
 6554SOL     OW20560   6.013   1.591   5.803
 6554SOL    HW120561   5.996   1.684   5.773
 6554SOL    HW220562   6.089   1.552   5.751
 6555SOL     OW20563   1.884   1.108   2.600
 6555SOL    HW120564   1.913   1.022   2.644
 6555SOL    HW220565   1.908   1.185   2.660
 6556SOL     OW20566   4.615   4.714   5.183
 6556SOL    HW120567   4.677   4.753   5.251
 6556SOL    HW220568   4.640   4.747   5.092
 6557SOL     OW20569   5.268   5.516   1.227
 6557SOL    HW120570   5.265   5.416   1.231
 6557SOL    HW220571   5.358   5.545   1.196
 6558SOL     OW20572   6.827   5.398   1.059
 6558SOL    HW120573   6.918   5.439   1.051
 6558SOL    HW220574   6.764   5.464   1.099
 6559SOL     OW20575   6.398   3.929   0.944
 6559SOL    HW120576   6.453   4.013   0.950
 6559SOL    HW220577   6.377   3.896   1.036
 6560SOL     OW20578   3.827   2.794   1.702
 6560SOL    HW120579   3.798   2.700   1.723
 6560SOL    HW220580   3.749   2.845   1.666
 6561SOL     OW20581   3.827   3.982   2.528
 6561SOL    HW120582   3.898   3.950   2.590
 6561SOL    HW220583   3.748   4.014   2.580
 6562SOL     OW20584   6.016   4.516   6.334
 6562SOL    HW120585   6.054   4.424   6.341
 6562SOL    HW220586   5.971   4.540   6.419
 6563SOL     OW20587   0.915   6.272   0.254
 6563SOL    HW120588   0.853   6.335   0.301
 6563SOL    HW220589   0.952   6.317   0.172
 6564SOL     OW20590   0.997   3.859   1.867
 6564SOL    HW120591   1.038   3.768   1.858
 6564SOL    HW220592   1.051   3.926   1.818
 6565SOL     OW20593   6.368   1.921   4.843
 6565SOL    HW120594   6.314   1.872   4.775
 6565SOL    HW220595   6.443   1.969   4.798
 6566SOL     OW20596   3.317   6.855   1.551
 6566SOL    HW120597   3.343   6.850   1.648
 6566SOL    HW220598   3.397   6.833   1.495
 6567SOL     OW20599   4.332   2.472   1.467
 6567SOL    HW120600   4.261   2.482   1.397
 6567SOL    HW220601   4.314   2.390   1.522
 6568SOL     OW20602   4.917   5.325   2.051
 6568SOL    HW120603   4.925   5.230   2.019
 6568SOL    HW220604   4.821   5.352   2.049
 6569SOL     OW20605   3.194   4.800   1.179
 6569SOL    HW120606   3.242   4.828   1.096
 6569SOL    HW220607   3.133   4.723   1.157
 6570SOL     OW20608   5.036   6.902   1.409
 6570SOL    HW120609   5.040   6.997   1.438
 6570SOL    HW220610   5.123   6.877   1.365
 6571SOL     OW20611   1.865   6.619   2.470
 6571SOL    HW120612   1.846   6.588   2.377
 6571SOL    HW220613   1.938   6.564   2.509
 6572SOL     OW20614   6.074   4.999   4.870
 6572SOL    HW120615   6.138   5.063   4.913
 6572SOL    HW220616   6.125   4.920   4.834
 6573SOL     OW20617   3.366   1.189   3.224
 6573SOL    HW120618   3.339   1.285   3.231
 6573SOL    HW220619   3.334   1.152   3.136
 6574SOL     OW20620   2.652   6.138   1.941
 6574SOL    HW120621   2.607   6.070   2.000
 6574SOL    HW220622   2.611   6.136   1.850
 6575SOL     OW20623   0.769   1.398   1.707
 6575SOL    HW120624   0.727   1.367   1.792
 6575SOL    HW220625   0.864   1.368   1.704
 6576SOL     OW20626   1.572   6.132   6.391
 6576SOL    HW120627   1.671   6.120   6.383
 6576SOL    HW220628   1.532   6.052   6.435
 6577SOL     OW20629   6.970   1.125   3.606
 6577SOL    HW120630   0.037   1.128   3.565
 6577SOL    HW220631   6.965   1.050   3.671
 6578SOL     OW20632   7.008   5.273   2.934
 6578SOL    HW120633   6.910   5.260   2.916
 6578SOL    HW220634   0.024   5.186   2.962
 6579SOL     OW20635   0.152   4.166   4.656
 6579SOL    HW120636   0.188   4.107   4.585
 6579SOL    HW220637   0.058   4.192   4.634
 6580SOL     OW20638   5.902   1.385   1.439
 6580SOL    HW120639   5.846   1.422   1.513
 6580SOL    HW220640   5.997   1.375   1.471
 6581SOL     OW20641   3.613   1.036   5.929
 6581SOL    HW120642   3.632   1.024   6.026
 6581SOL    HW220643   3.660   0.965   5.876
 6582SOL     OW20644   1.574   6.932   1.974
 6582SOL    HW120645   1.584   6.838   2.006
 6582SOL    HW220646   1.574   6.994   2.053
 6583SOL     OW20647   4.261   1.180   6.154
 6583SOL    HW120648   4.349   1.227   6.151
 6583SOL    HW220649   4.202   1.215   6.081
 6584SOL     OW20650   5.146   1.213   0.091
 6584SOL    HW120651   5.205   1.238   0.168
 6584SOL    HW220652   5.132   1.294   0.033
 6585SOL     OW20653   6.897   1.026   0.675
 6585SOL    HW120654   6.878   1.049   0.580
 6585SOL    HW220655   6.824   0.967   0.710
 6586SOL     OW20656   6.157   2.138   5.772
 6586SOL    HW120657   6.105   2.220   5.798
 6586SOL    HW220658   6.119   2.059   5.819
 6587SOL     OW20659   2.888   5.883   4.401
 6587SOL    HW120660   2.931   5.794   4.386
 6587SOL    HW220661   2.797   5.883   4.361
 6588SOL     OW20662   1.829   3.959   1.459
 6588SOL    HW120663   1.844   4.049   1.418
 6588SOL    HW220664   1.776   3.969   1.543
 6589SOL     OW20665   4.576   0.574   6.765
 6589SOL    HW120666   4.646   0.509   6.795
 6589SOL    HW220667   4.564   0.645   6.835
 6590SOL     OW20668   0.630   1.970   5.578
 6590SOL    HW120669   0.629   2.069   5.567
 6590SOL    HW220670   0.546   1.931   5.540
 6591SOL     OW20671   5.608   5.996   2.063
 6591SOL    HW120672   5.575   6.060   2.132
 6591SOL    HW220673   5.627   6.046   1.978
 6592SOL     OW20674   5.030   6.742   3.746
 6592SOL    HW120675   5.012   6.691   3.830
 6592SOL    HW220676   4.944   6.776   3.708
 6593SOL     OW20677   2.129   2.592   3.543
 6593SOL    HW120678   2.077   2.551   3.468
 6593SOL    HW220679   2.119   2.536   3.625
 6594SOL     OW20680   4.115   1.129   0.364
 6594SOL    HW120681   4.056   1.073   0.423
 6594SOL    HW220682   4.059   1.198   0.317
 6595SOL     OW20683   0.527   4.095   1.479
 6595SOL    HW120684   0.544   4.166   1.546
 6595SOL    HW220685   0.428   4.083   1.467
 6596SOL     OW20686   3.994   0.186   5.277
 6596SOL    HW120687   4.033   0.188   5.185
 6596SOL    HW220688   3.895   0.201   5.272
 6597SOL     OW20689   1.190   6.480   3.587
 6597SOL    HW120690   1.103   6.529   3.585
 6597SOL    HW220691   1.204   6.435   3.499
 6598SOL     OW20692   1.843   6.071   5.436
 6598SOL    HW120693   1.855   6.007   5.360
 6598SOL    HW220694   1.927   6.074   5.491
 6599SOL     OW20695   4.121   5.506   5.590
 6599SOL    HW120696   4.098   5.503   5.493
 6599SOL    HW220697   4.210   5.551   5.601
 6600SOL     OW20698   4.942   5.052   4.900
 6600SOL    HW120699   5.038   5.070   4.920
 6600SOL    HW220700   4.891   5.039   4.986
 6601SOL     OW20701   0.950   0.318   0.681
 6601SOL    HW120702   0.990   0.399   0.723
 6601SOL    HW220703   0.943   0.245   0.750
 6602SOL     OW20704   6.904   1.848   1.393
 6602SOL    HW120705   6.861   1.879   1.308
 6602SOL    HW220706   6.882   1.752   1.409
 6603SOL     OW20707   1.558   2.974   4.304
 6603SOL    HW120708   1.593   3.034   4.232
 6603SOL    HW220709   1.634   2.944   4.362
 6604SOL     OW20710   2.733   6.157   1.452
 6604SOL    HW120711   2.669   6.080   1.446
 6604SOL    HW220712   2.786   6.162   1.368
 6605SOL     OW20713   4.775   4.881   0.768
 6605SOL    HW120714   4.708   4.887   0.694
 6605SOL    HW220715   4.837   4.959   0.763
 6606SOL     OW20716   4.966   6.855   2.136
 6606SOL    HW120717   4.882   6.904   2.111
 6606SOL    HW220718   4.945   6.785   2.204
 6607SOL     OW20719   1.958   1.322   1.975
 6607SOL    HW120720   1.892   1.393   1.954
 6607SOL    HW220721   1.911   1.245   2.020
 6608SOL     OW20722   5.149   4.355   2.364
 6608SOL    HW120723   5.228   4.379   2.308
 6608SOL    HW220724   5.072   4.332   2.306
 6609SOL     OW20725   4.979   1.186   6.478
 6609SOL    HW120726   4.935   1.106   6.437
 6609SOL    HW220727   5.063   1.158   6.524
 6610SOL     OW20728   2.228   0.164   6.761
 6610SOL    HW120729   2.321   0.173   6.726
 6610SOL    HW220730   2.210   0.068   6.781
 6611SOL     OW20731   6.872   2.537   2.727
 6611SOL    HW120732   6.824   2.451   2.743
 6611SOL    HW220733   6.960   2.536   2.773
 6612SOL     OW20734   0.818   4.049   6.904
 6612SOL    HW120735   0.763   4.113   6.958
 6612SOL    HW220736   0.788   4.051   6.809
 6613SOL     OW20737   6.043   5.974   3.413
 6613SOL    HW120738   5.952   5.933   3.402
 6613SOL    HW220739   6.070   5.969   3.509
 6614SOL     OW20740   4.746   6.666   6.656
 6614SOL    HW120741   4.708   6.575   6.674
 6614SOL    HW220742   4.678   6.722   6.608
 6615SOL     OW20743   1.185   3.525   4.658
 6615SOL    HW120744   1.173   3.523   4.559
 6615SOL    HW220745   1.263   3.583   4.680
 6616SOL     OW20746   4.360   1.270   5.769
 6616SOL    HW120747   4.352   1.290   5.671
 6616SOL    HW220748   4.425   1.196   5.783
 6617SOL     OW20749   3.526   6.488   3.363
 6617SOL    HW120750   3.550   6.437   3.445
 6617SOL    HW220751   3.548   6.585   3.376
 6618SOL     OW20752   1.291   3.101   2.487
 6618SOL    HW120753   1.269   3.062   2.398
 6618SOL    HW220754   1.235   3.182   2.504
 6619SOL     OW20755   5.541   6.789   4.503
 6619SOL    HW120756   5.524   6.737   4.586
 6619SOL    HW220757   5.498   6.879   4.509
 6620SOL     OW20758   1.907   2.906   5.424
 6620SOL    HW120759   1.990   2.915   5.478
 6620SOL    HW220760   1.870   2.996   5.403
 6621SOL     OW20761   3.275   3.832   0.396
 6621SOL    HW120762   3.358   3.807   0.345
 6621SOL    HW220763   3.301   3.890   0.473
 6622SOL     OW20764   6.245   5.733   1.329
 6622SOL    HW120765   6.157   5.774   1.306
 6622SOL    HW220766   6.275   5.673   1.255
 6623SOL     OW20767   3.627   3.069   1.915
 6623SOL    HW120768   3.571   3.026   1.844
 6623SOL    HW220769   3.722   3.075   1.884
 6624SOL     OW20770   2.811   6.635   3.893
 6624SOL    HW120771   2.836   6.568   3.963
 6624SOL    HW220772   2.724   6.677   3.916
 6625SOL     OW20773   5.503   2.085   6.085
 6625SOL    HW120774   5.596   2.119   6.101
 6625SOL    HW220775   5.441   2.125   6.152
 6626SOL     OW20776   3.424   5.021   3.199
 6626SOL    HW120777   3.501   5.023   3.135
 6626SOL    HW220778   3.448   4.968   3.280
 6627SOL     OW20779   1.938   0.846   5.734
 6627SOL    HW120780   1.974   0.881   5.648
 6627SOL    HW220781   1.933   0.920   5.801
 6628SOL     OW20782   4.946   5.399   3.433
 6628SOL    HW120783   4.921   5.454   3.354
 6628SOL    HW220784   5.043   5.413   3.454
 6629SOL     OW20785   3.331   6.497   0.899
 6629SOL    HW120786   3.413   6.527   0.948
 6629SOL    HW220787   3.288   6.576   0.854
 6630SOL     OW20788   3.797   2.002   0.507
 6630SOL    HW120789   3.850   2.066   0.563
 6630SOL    HW220790   3.768   1.925   0.565
 6631SOL     OW20791   4.620   0.211   2.442
 6631SOL    HW120792   4.602   0.118   2.409
 6631SOL    HW220793   4.552   0.236   2.511
 6632SOL     OW20794   6.708   1.126   1.866
 6632SOL    HW120795   6.787   1.142   1.926
 6632SOL    HW220796   6.645   1.203   1.872
 6633SOL     OW20797   1.437   5.533   5.710
 6633SOL    HW120798   1.535   5.521   5.697
 6633SOL    HW220799   1.420   5.620   5.756
 6634SOL     OW20800   5.750   3.263   5.790
 6634SOL    HW120801   5.794   3.173   5.802
 6634SOL    HW220802   5.818   3.335   5.805
 6635SOL     OW20803   4.624   5.010   3.333
 6635SOL    HW120804   4.529   5.004   3.362
 6635SOL    HW220805   4.654   5.106   3.335
 6636SOL     OW20806   2.141   2.681   5.539
 6636SOL    HW120807   2.151   2.760   5.599
 6636SOL    HW220808   2.197   2.695   5.457
 6637SOL     OW20809   1.083   0.836   0.068
 6637SOL    HW120810   1.120   0.743   0.058
 6637SOL    HW220811   1.024   0.856   7.014
 6638SOL     OW20812   4.022   4.775   5.287
 6638SOL    HW120813   4.087   4.851   5.294
 6638SOL    HW220814   4.064   4.693   5.326
 6639SOL     OW20815   5.804   6.179   6.047
 6639SOL    HW120816   5.840   6.095   6.007
 6639SOL    HW220817   5.744   6.224   5.982
 6640SOL     OW20818   6.893   2.047   5.211
 6640SOL    HW120819   6.963   2.008   5.151
 6640SOL    HW220820   6.864   2.136   5.177
 6641SOL     OW20821   2.718   3.312   6.343
 6641SOL    HW120822   2.771   3.372   6.402
 6641SOL    HW220823   2.639   3.361   6.306
 6642SOL     OW20824   2.960   5.023   0.388
 6642SOL    HW120825   3.043   5.080   0.383
 6642SOL    HW220826   2.894   5.066   0.450
 6643SOL     OW20827   6.883   4.673   6.899
 6643SOL    HW120828   6.893   4.603   6.828
 6643SOL    HW220829   6.862   4.761   6.856
 6644SOL     OW20830   3.142   4.819   2.007
 6644SOL    HW120831   3.099   4.744   2.056
 6644SOL    HW220832   3.081   4.852   1.936
 6645SOL     OW20833   6.573   5.170   0.740
 6645SOL    HW120834   6.542   5.181   0.646
 6645SOL    HW220835   6.601   5.075   0.756
 6646SOL     OW20836   4.497   5.771   4.178
 6646SOL    HW120837   4.577   5.825   4.154
 6646SOL    HW220838   4.491   5.764   4.278
 6647SOL     OW20839   3.391   1.246   2.771
 6647SOL    HW120840   3.450   1.312   2.818
 6647SOL    HW220841   3.314   1.294   2.730
 6648SOL     OW20842   3.839   6.524   2.208
 6648SOL    HW120843   3.876   6.562   2.123
 6648SOL    HW220844   3.785   6.595   2.254
 6649SOL     OW20845   5.351   1.697   6.625
 6649SOL    HW120846   5.325   1.793   6.618
 6649SOL    HW220847   5.269   1.640   6.623
 6650SOL     OW20848   4.036   1.435   3.768
 6650SOL    HW120849   4.068   1.484   3.849
 6650SOL    HW220850   3.937   1.423   3.773
 6651SOL     OW20851   1.511   1.811   0.085
 6651SOL    HW120852   1.461   1.880   0.137
 6651SOL    HW220853   1.609   1.820   0.103
 6652SOL     OW20854   6.403   4.553   0.043
 6652SOL    HW120855   6.495   4.516   0.032
 6652SOL    HW220856   6.387   4.575   0.140
 6653SOL     OW20857   4.049   3.186   2.653
 6653SOL    HW120858   4.113   3.135   2.711
 6653SOL    HW220859   3.984   3.123   2.613
 6654SOL     OW20860   2.000   2.578   1.241
 6654SOL    HW120861   2.061   2.656   1.241
 6654SOL    HW220862   1.970   2.558   1.147
 6655SOL     OW20863   2.745   6.899   1.857
 6655SOL    HW120864   2.739   6.854   1.768
 6655SOL    HW220865   2.659   6.945   1.878
 6656SOL     OW20866   6.378   1.515   3.023
 6656SOL    HW120867   6.305   1.447   3.032
 6656SOL    HW220868   6.433   1.514   3.106
 6657SOL     OW20869   4.388   6.639   6.312
 6657SOL    HW120870   4.375   6.737   6.296
 6657SOL    HW220871   4.482   6.614   6.292
 6658SOL     OW20872   6.161   1.667   5.208
 6658SOL    HW120873   6.157   1.686   5.305
 6658SOL    HW220874   6.123   1.744   5.156
 6659SOL     OW20875   2.479   2.222   6.882
 6659SOL    HW120876   2.513   2.271   6.962
 6659SOL    HW220877   2.552   2.215   6.813
 6660SOL     OW20878   0.102   6.066   1.641
 6660SOL    HW120879   0.167   6.125   1.593
 6660SOL    HW220880   0.013   6.072   1.596
 6661SOL     OW20881   0.431   4.858   4.031
 6661SOL    HW120882   0.450   4.949   4.066
 6661SOL    HW220883   0.498   4.793   4.068
 6662SOL     OW20884   1.456   0.689   6.956
 6662SOL    HW120885   1.374   0.714   6.905
 6662SOL    HW220886   1.482   0.765   7.016
 6663SOL     OW20887   0.275   5.829   3.165
 6663SOL    HW120888   0.320   5.788   3.245
 6663SOL    HW220889   0.237   5.756   3.108
 6664SOL     OW20890   1.266   0.059   1.483
 6664SOL    HW120891   1.322   0.093   1.408
 6664SOL    HW220892   1.289   6.987   1.502
 6665SOL     OW20893   1.598   0.562   3.200
 6665SOL    HW120894   1.622   0.507   3.120
 6665SOL    HW220895   1.568   0.502   3.274
 6666SOL     OW20896   6.062   2.019   5.464
 6666SOL    HW120897   6.105   2.037   5.375
 6666SOL    HW220898   6.133   2.004   5.533
 6667SOL     OW20899   6.369   5.065   4.669
 6667SOL    HW120900   6.463   5.032   4.663
 6667SOL    HW220901   6.328   5.034   4.755
 6668SOL     OW20902   6.851   6.121   2.163
 6668SOL    HW120903   6.814   6.041   2.116
 6668SOL    HW220904   6.909   6.173   2.100
 6669SOL     OW20905   2.167   3.423   3.761
 6669SOL    HW120906   2.196   3.510   3.721
 6669SOL    HW220907   2.146   3.436   3.858
 6670SOL     OW20908   3.305   3.961   6.755
 6670SOL    HW120909   3.305   3.961   6.655
 6670SOL    HW220910   3.383   3.909   6.788
 6671SOL     OW20911   6.221   5.065   0.646
 6671SOL    HW120912   6.235   5.012   0.562
 6671SOL    HW220913   6.200   5.160   0.622
 6672SOL     OW20914   0.628   1.205   5.128
 6672SOL    HW120915   0.632   1.287   5.185
 6672SOL    HW220916   0.535   1.169   5.128
 6673SOL     OW20917   4.848   5.515   2.764
 6673SOL    HW120918   4.813   5.589   2.706
 6673SOL    HW220919   4.929   5.547   2.812
 6674SOL     OW20920   0.675   5.384   6.104
 6674SOL    HW120921   0.614   5.453   6.142
 6674SOL    HW220922   0.647   5.293   6.136
 6675SOL     OW20923   5.143   3.918   1.680
 6675SOL    HW120924   5.139   3.894   1.583
 6675SOL    HW220925   5.171   4.013   1.690
 6676SOL     OW20926   0.664   3.804   5.598
 6676SOL    HW120927   0.607   3.785   5.679
 6676SOL    HW220928   0.759   3.785   5.619
 6677SOL     OW20929   6.934   3.088   0.014
 6677SOL    HW120930   6.992   3.168   0.000
 6677SOL    HW220931   6.851   3.115   0.063
 6678SOL     OW20932   1.162   2.539   0.008
 6678SOL    HW120933   1.156   2.450   0.054
 6678SOL    HW220934   1.147   2.527   6.934
 6679SOL     OW20935   1.761   1.602   4.684
 6679SOL    HW120936   1.739   1.543   4.607
 6679SOL    HW220937   1.718   1.566   4.767
 6680SOL     OW20938   4.284   5.946   5.991
 6680SOL    HW120939   4.278   6.029   5.935
 6680SOL    HW220940   4.231   5.873   5.948
 6681SOL     OW20941   4.770   5.633   0.144
 6681SOL    HW120942   4.709   5.584   0.083
 6681SOL    HW220943   4.865   5.605   0.126
 6682SOL     OW20944   0.978   4.442   2.270
 6682SOL    HW120945   1.019   4.441   2.361
 6682SOL    HW220946   0.948   4.350   2.246
 6683SOL     OW20947   4.889   2.154   5.564
 6683SOL    HW120948   4.830   2.209   5.504
 6683SOL    HW220949   4.961   2.212   5.601
 6684SOL     OW20950   1.735   6.675   1.090
 6684SOL    HW120951   1.673   6.665   1.169
 6684SOL    HW220952   1.822   6.714   1.121
 6685SOL     OW20953   5.518   1.886   6.286
 6685SOL    HW120954   5.528   1.876   6.187
 6685SOL    HW220955   5.528   1.982   6.312
 6686SOL     OW20956   6.204   4.767   3.772
 6686SOL    HW120957   6.253   4.686   3.741
 6686SOL    HW220958   6.209   4.838   3.702
 6687SOL     OW20959   0.686   1.702   1.025
 6687SOL    HW120960   0.728   1.611   1.033
 6687SOL    HW220961   0.602   1.705   1.079
 6688SOL     OW20962   0.426   4.201   2.085
 6688SOL    HW120963   0.345   4.257   2.101
 6688SOL    HW220964   0.482   4.200   2.167
 6689SOL     OW20965   4.099   2.817   0.728
 6689SOL    HW120966   4.175   2.834   0.666
 6689SOL    HW220967   4.134   2.804   0.821
 6690SOL     OW20968   2.548   1.031   1.624
 6690SOL    HW120969   2.595   1.120   1.627
 6690SOL    HW220970   2.500   1.016   1.710
 6691SOL     OW20971   3.245   5.860   0.846
 6691SOL    HW120972   3.308   5.835   0.919
 6691SOL    HW220973   3.167   5.909   0.884
 6692SOL     OW20974   2.760   4.782   5.284
 6692SOL    HW120975   2.686   4.749   5.343
 6692SOL    HW220976   2.818   4.705   5.257
 6693SOL     OW20977   5.126   3.477   6.431
 6693SOL    HW120978   5.208   3.450   6.481
 6693SOL    HW220979   5.148   3.550   6.366
 6694SOL     OW20980   4.481   5.658   0.172
 6694SOL    HW120981   4.517   5.612   0.090
 6694SOL    HW220982   4.396   5.614   0.201
 6695SOL     OW20983   0.870   1.813   6.892
 6695SOL    HW120984   0.789   1.763   6.923
 6695SOL    HW220985   0.921   1.846   6.972
 6696SOL     OW20986   1.898   2.550   0.995
 6696SOL    HW120987   1.930   2.546   0.900
 6696SOL    HW220988   1.865   2.461   1.023
 6697SOL     OW20989   4.481   2.539   3.136
 6697SOL    HW120990   4.536   2.591   3.201
 6697SOL    HW220991   4.510   2.560   3.042
 6698SOL     OW20992   3.538   2.325   0.455
 6698SOL    HW120993   3.576   2.417   0.446
 6698SOL    HW220994   3.460   2.327   0.517
 6699SOL     OW20995   3.613   4.298   6.522
 6699SOL    HW120996   3.540   4.286   6.454
 6699SOL    HW220997   3.636   4.209   6.561
 6700SOL     OW20998   0.951   5.655   0.439
 6700SOL    HW120999   0.942   5.590   0.515
 6700SOL    HW221000   1.048   5.669   0.419
 6701SOL     OW21001   6.008   2.922   1.350
 6701SOL    HW121002   5.943   2.849   1.368
 6701SOL    HW221003   6.061   2.941   1.433
 6702SOL     OW21004   2.742   2.168   6.770
 6702SOL    HW121005   2.708   2.171   6.676
 6702SOL    HW221006   2.828   2.218   6.776
 6703SOL     OW21007   6.060   2.051   0.089
 6703SOL    HW121008   6.096   1.972   0.039
 6703SOL    HW221009   6.135   2.112   0.115
 6704SOL     OW21010   4.151   2.262   2.664
 6704SOL    HW121011   4.139   2.252   2.763
 6704SOL    HW221012   4.066   2.239   2.617
 6705SOL     OW21013   0.009   2.030   1.786
 6705SOL    HW121014   0.061   2.113   1.804
 6705SOL    HW221015   0.041   1.956   1.845
 6706SOL     OW21016   1.568   4.409   0.623
 6706SOL    HW121017   1.590   4.505   0.607
 6706SOL    HW221018   1.577   4.357   0.537
 6707SOL     OW21019   6.128   6.026   5.061
 6707SOL    HW121020   6.086   5.941   5.030
 6707SOL    HW221021   6.157   6.016   5.156
 6708SOL     OW21022   1.645   5.808   2.411
 6708SOL    HW121023   1.669   5.876   2.342
 6708SOL    HW221024   1.717   5.803   2.480
 6709SOL     OW21025   3.572   6.223   1.223
 6709SOL    HW121026   3.497   6.284   1.249
 6709SOL    HW221027   3.542   6.165   1.146
 6710SOL     OW21028   2.144   1.980   5.726
 6710SOL    HW121029   2.173   1.885   5.715
 6710SOL    HW221030   2.132   2.023   5.637
 6711SOL     OW21031   5.731   4.342   6.636
 6711SOL    HW121032   5.680   4.355   6.551
 6711SOL    HW221033   5.759   4.246   6.643
 6712SOL     OW21034   4.118   5.436   0.422
 6712SOL    HW121035   4.095   5.514   0.480
 6712SOL    HW221036   4.210   5.403   0.444
 6713SOL     OW21037   2.752   1.573   1.811
 6713SOL    HW121038   2.815   1.646   1.836
 6713SOL    HW221039   2.663   1.612   1.786
 6714SOL     OW21040   5.439   0.018   5.197
 6714SOL    HW121041   5.462   0.023   5.100
 6714SOL    HW221042   5.344   0.048   5.211
 6715SOL     OW21043   0.144   0.764   6.969
 6715SOL    HW121044   0.057   0.794   6.931
 6715SOL    HW221045   0.185   0.839   7.021
 6716SOL     OW21046   1.342   6.552   1.115
 6716SOL    HW121047   1.426   6.558   1.061
 6716SOL    HW221048   1.264   6.533   1.055
 6717SOL     OW21049   4.235   3.027   0.436
 6717SOL    HW121050   4.173   3.012   0.359
 6717SOL    HW221051   4.310   3.086   0.407
 6718SOL     OW21052   4.116   5.901   6.685
 6718SOL    HW121053   4.024   5.919   6.719
 6718SOL    HW221054   4.113   5.879   6.588
 6719SOL     OW21055   0.250   0.035   5.970
 6719SOL    HW121056   0.332   0.084   5.940
 6719SOL    HW221057   0.182   0.036   5.897
 6720SOL     OW21058   2.520   6.171   1.722
 6720SOL    HW121059   2.502   6.254   1.670
 6720SOL    HW221060   2.446   6.106   1.708
 6721SOL     OW21061   5.288   6.658   4.393
 6721SOL    HW121062   5.370   6.695   4.436
 6721SOL    HW221063   5.307   6.634   4.298
 6722SOL     OW21064   4.902   3.528   0.945
 6722SOL    HW121065   4.948   3.617   0.948
 6722SOL    HW221066   4.969   3.457   0.924
 6723SOL     OW21067   1.934   6.898   2.808
 6723SOL    HW121068   1.948   6.951   2.724
 6723SOL    HW221069   1.993   6.818   2.807
 6724SOL     OW21070   1.807   4.441   5.945
 6724SOL    HW121071   1.800   4.541   5.955
 6724SOL    HW221072   1.850   4.419   5.858
 6725SOL     OW21073   1.049   4.463   2.573
 6725SOL    HW121074   1.102   4.546   2.556
 6725SOL    HW221075   1.010   4.467   2.665
 6726SOL     OW21076   1.581   2.528   5.048
 6726SOL    HW121077   1.522   2.608   5.050
 6726SOL    HW221078   1.634   2.523   5.132
 6727SOL     OW21079   5.788   3.711   6.413
 6727SOL    HW121080   5.853   3.709   6.337
 6727SOL    HW221081   5.695   3.705   6.378
 6728SOL     OW21082   3.843   1.611   4.464
 6728SOL    HW121083   3.782   1.687   4.441
 6728SOL    HW221084   3.922   1.611   4.403
 6729SOL     OW21085   6.589   1.267   2.541
 6729SOL    HW121086   6.509   1.228   2.496
 6729SOL    HW221087   6.638   1.196   2.592
 6730SOL     OW21088   2.483   0.012   6.824
 6730SOL    HW121089   2.553   0.083   6.834
 6730SOL    HW221090   2.418   0.019   6.900
 6731SOL     OW21091   2.960   4.360   1.313
 6731SOL    HW121092   2.955   4.456   1.342
 6731SOL    HW221093   3.053   4.326   1.325
 6732SOL     OW21094   2.975   5.763   0.265
 6732SOL    HW121095   3.035   5.802   0.195
 6732SOL    HW221096   2.901   5.712   0.221
 6733SOL     OW21097   4.642   5.432   6.177
 6733SOL    HW121098   4.707   5.499   6.213
 6733SOL    HW221099   4.568   5.420   6.242
 6734SOL     OW21100   1.003   3.344   5.822
 6734SOL    HW121101   0.953   3.381   5.900
 6734SOL    HW221102   1.097   3.378   5.822
 6735SOL     OW21103   0.233   5.184   5.204
 6735SOL    HW121104   0.289   5.126   5.262
 6735SOL    HW221105   0.160   5.129   5.163
 6736SOL     OW21106   2.308   3.485   0.840
 6736SOL    HW121107   2.373   3.513   0.911
 6736SOL    HW221108   2.357   3.473   0.754
 6737SOL     OW21109   2.372   1.336   1.749
 6737SOL    HW121110   2.451   1.285   1.782
 6737SOL    HW221111   2.384   1.357   1.652
 6738SOL     OW21112   2.376   2.249   2.360
 6738SOL    HW121113   2.362   2.180   2.289
 6738SOL    HW221114   2.469   2.285   2.353
 6739SOL     OW21115   3.299   5.477   5.246
 6739SOL    HW121116   3.306   5.403   5.179
 6739SOL    HW221117   3.339   5.447   5.333
 6740SOL     OW21118   1.740   1.183   4.059
 6740SOL    HW121119   1.791   1.097   4.050
 6740SOL    HW221120   1.803   1.256   4.085
 6741SOL     OW21121   5.070   1.725   6.079
 6741SOL    HW121122   5.144   1.750   6.142
 6741SOL    HW221123   5.003   1.668   6.127
 6742SOL     OW21124   0.298   5.978   4.743
 6742SOL    HW121125   0.227   6.046   4.763
 6742SOL    HW221126   0.369   6.020   4.687
 6743SOL     OW21127   4.283   3.373   6.735
 6743SOL    HW121128   4.372   3.417   6.734
 6743SOL    HW221129   4.294   3.275   6.753
 6744SOL     OW21130   3.831   4.890   6.041
 6744SOL    HW121131   3.841   4.959   6.112
 6744SOL    HW221132   3.783   4.810   6.078
 6745SOL     OW21133   1.032   5.000   2.976
 6745SOL    HW121134   1.075   5.049   3.052
 6745SOL    HW221135   0.975   5.062   2.923
 6746SOL     OW21136   0.659   1.271   1.488
 6746SOL    HW121137   0.706   1.313   1.565
 6746SOL    HW221138   0.565   1.250   1.514
 6747SOL     OW21139   5.515   6.497   4.150
 6747SOL    HW121140   5.556   6.475   4.062
 6747SOL    HW221141   5.574   6.463   4.223
 6748SOL     OW21142   0.893   1.184   2.284
 6748SOL    HW121143   0.972   1.131   2.254
 6748SOL    HW221144   0.857   1.237   2.207
 6749SOL     OW21145   3.502   0.569   0.081
 6749SOL    HW121146   3.591   0.568   0.037
 6749SOL    HW221147   3.513   0.575   0.181
 6750SOL     OW21148   2.660   1.940   4.171
 6750SOL    HW121149   2.746   1.940   4.222
 6750SOL    HW221150   2.604   2.017   4.200
 6751SOL     OW21151   2.801   2.188   3.622
 6751SOL    HW121152   2.883   2.168   3.676
 6751SOL    HW221153   2.728   2.219   3.683
 6752SOL     OW21154   6.024   2.797   1.109
 6752SOL    HW121155   6.019   2.838   1.200
 6752SOL    HW221156   6.110   2.746   1.099
 6753SOL     OW21157   4.211   1.712   6.182
 6753SOL    HW121158   4.143   1.643   6.207
 6753SOL    HW221159   4.170   1.778   6.119
 6754SOL     OW21160   6.205   2.001   6.276
 6754SOL    HW121161   6.272   1.929   6.260
 6754SOL    HW221162   6.236   2.060   6.351
 6755SOL     OW21163   5.515   1.911   3.051
 6755SOL    HW121164   5.422   1.923   3.085
 6755SOL    HW221165   5.513   1.877   2.957
 6756SOL     OW21166   4.769   4.314   4.327
 6756SOL    HW121167   4.867   4.334   4.330
 6756SOL    HW221168   4.718   4.399   4.338
 6757SOL     OW21169   4.689   5.896   0.877
 6757SOL    HW121170   4.715   5.990   0.857
 6757SOL    HW221171   4.620   5.865   0.812
 6758SOL     OW21172   5.260   3.567   2.256
 6758SOL    HW121173   5.257   3.498   2.184
 6758SOL    HW221174   5.178   3.624   2.252
 6759SOL     OW21175   1.650   4.852   3.219
 6759SOL    HW121176   1.737   4.855   3.170
 6759SOL    HW221177   1.622   4.946   3.241
 6760SOL     OW21178   0.524   4.925   4.613
 6760SOL    HW121179   0.503   4.828   4.599
 6760SOL    HW221180   0.586   4.935   4.691
 6761SOL     OW21181   5.060   3.038   5.836
 6761SOL    HW121182   5.046   3.034   5.935
 6761SOL    HW221183   5.001   2.970   5.792
 6762SOL     OW21184   6.642   5.350   3.444
 6762SOL    HW121185   6.677   5.293   3.519
 6762SOL    HW221186   6.622   5.442   3.478
 6763SOL     OW21187   5.841   6.271   5.339
 6763SOL    HW121188   5.891   6.276   5.253
 6763SOL    HW221189   5.747   6.242   5.322
 6764SOL     OW21190   2.680   3.974   6.315
 6764SOL    HW121191   2.762   3.931   6.352
 6764SOL    HW221192   2.618   3.904   6.281
 6765SOL     OW21193   6.695   4.788   3.346
 6765SOL    HW121194   6.755   4.741   3.411
 6765SOL    HW221195   6.662   4.723   3.277
 6766SOL     OW21196   1.603   0.863   6.248
 6766SOL    HW121197   1.602   0.775   6.296
 6766SOL    HW221198   1.608   0.848   6.149
 6767SOL     OW21199   0.060   2.569   0.253
 6767SOL    HW121200   0.154   2.577   0.287
 6767SOL    HW221201   0.011   2.655   0.268
 6768SOL     OW21202   0.984   0.338   3.699
 6768SOL    HW121203   0.937   0.418   3.661
 6768SOL    HW221204   1.069   0.367   3.742
 6769SOL     OW21205   2.510   2.041   5.192
 6769SOL    HW121206   2.507   2.078   5.100
 6769SOL    HW221207   2.574   2.095   5.248
 6770SOL     OW21208   0.355   2.258   3.602
 6770SOL    HW121209   0.339   2.277   3.505
 6770SOL    HW221210   0.268   2.234   3.646
 6771SOL     OW21211   3.646   2.091   3.457
 6771SOL    HW121212   3.741   2.062   3.464
 6771SOL    HW221213   3.632   2.139   3.370
 6772SOL     OW21214   6.242   1.700   2.852
 6772SOL    HW121215   6.290   1.667   2.933
 6772SOL    HW221216   6.304   1.696   2.773
 6773SOL     OW21217   0.198   5.816   1.607
 6773SOL    HW121218   0.171   5.911   1.626
 6773SOL    HW221219   0.297   5.810   1.605
 6774SOL     OW21220   1.718   2.056   5.044
 6774SOL    HW121221   1.626   2.027   5.015
 6774SOL    HW221222   1.710   2.135   5.106
 6775SOL     OW21223   0.561   1.641   4.676
 6775SOL    HW121224   0.585   1.696   4.756
 6775SOL    HW221225   0.484   1.582   4.699
 6776SOL     OW21226   3.978   4.264   1.641
 6776SOL    HW121227   3.998   4.359   1.665
 6776SOL    HW221228   3.886   4.240   1.674
 6777SOL     OW21229   4.689   5.776   1.428
 6777SOL    HW121230   4.694   5.726   1.514
 6777SOL    HW221231   4.780   5.804   1.400
 6778SOL     OW21232   6.449   3.965   2.600
 6778SOL    HW121233   6.497   3.910   2.531
 6778SOL    HW221234   6.421   3.906   2.675
 6779SOL     OW21235   5.979   4.211   6.160
 6779SOL    HW121236   6.044   4.223   6.234
 6779SOL    HW221237   5.907   4.147   6.188
 6780SOL     OW21238   2.736   2.211   3.113
 6780SOL    HW121239   2.822   2.195   3.064
 6780SOL    HW221240   2.756   2.248   3.204
 6781SOL     OW21241   6.616   1.182   4.178
 6781SOL    HW121242   6.561   1.107   4.142
 6781SOL    HW221243   6.557   1.261   4.196
 6782SOL     OW21244   6.595   1.860   3.790
 6782SOL    HW121245   6.612   1.767   3.756
 6782SOL    HW221246   6.677   1.916   3.778
 6783SOL     OW21247   1.129   5.231   5.035
 6783SOL    HW121248   1.091   5.212   5.125
 6783SOL    HW221249   1.122   5.150   4.978
 6784SOL     OW21250   1.643   3.244   1.388
 6784SOL    HW121251   1.731   3.257   1.433
 6784SOL    HW221252   1.585   3.185   1.444
 6785SOL     OW21253   5.418   4.862   4.468
 6785SOL    HW121254   5.447   4.770   4.441
 6785SOL    HW221255   5.462   4.929   4.409
 6786SOL     OW21256   6.622   2.336   0.499
 6786SOL    HW121257   6.651   2.432   0.496
 6786SOL    HW221258   6.699   2.278   0.525
 6787SOL     OW21259   3.483   2.131   6.909
 6787SOL    HW121260   3.492   2.184   6.825
 6787SOL    HW221261   3.544   2.052   6.905
 6788SOL     OW21262   0.271   4.008   4.023
 6788SOL    HW121263   0.194   4.011   3.959
 6788SOL    HW221264   0.353   3.978   3.974
 6789SOL     OW21265   6.672   3.770   4.040
 6789SOL    HW121266   6.572   3.770   4.031
 6789SOL    HW221267   6.713   3.776   3.949
 6790SOL     OW21268   0.923   4.953   6.122
 6790SOL    HW121269   0.826   4.933   6.104
 6790SOL    HW221270   0.974   4.867   6.123
 6791SOL     OW21271   4.152   0.940   3.834
 6791SOL    HW121272   4.159   1.026   3.782
 6791SOL    HW221273   4.241   0.919   3.875
 6792SOL     OW21274   4.212   0.037   5.367
 6792SOL    HW121275   4.196   6.987   5.432
 6792SOL    HW221276   4.130   0.094   5.361
 6793SOL     OW21277   2.379   3.482   0.584
 6793SOL    HW121278   2.422   3.445   0.501
 6793SOL    HW221279   2.354   3.577   0.570
 6794SOL     OW21280   4.624   1.547   5.813
 6794SOL    HW121281   4.658   1.456   5.789
 6794SOL    HW221282   4.537   1.537   5.863
 6795SOL     OW21283   0.847   0.848   1.219
 6795SOL    HW121284   0.849   0.941   1.254
 6795SOL    HW221285   0.923   0.835   1.154
 6796SOL     OW21286   5.929   1.405   2.685
 6796SOL    HW121287   5.963   1.349   2.761
 6796SOL    HW221288   5.955   1.500   2.700
 6797SOL     OW21289   0.221   2.223   1.875
 6797SOL    HW121290   0.307   2.206   1.825
 6797SOL    HW221291   0.243   2.256   1.967
 6798SOL     OW21292   5.337   0.272   1.960
 6798SOL    HW121293   5.308   0.352   1.908
 6798SOL    HW221294   5.257   0.226   1.999
 6799SOL     OW21295   5.254   0.477   3.380
 6799SOL    HW121296   5.182   0.409   3.395
 6799SOL    HW221297   5.299   0.498   3.467
 6800SOL     OW21298   6.929   1.561   1.377
 6800SOL    HW121299   6.937   1.461   1.383
 6800SOL    HW221300   7.020   1.601   1.385
 6801SOL     OW21301   1.165   5.760   5.525
 6801SOL    HW121302   1.189   5.753   5.428
 6801SOL    HW221303   1.089   5.699   5.544
 6802SOL     OW21304   3.276   5.468   1.120
 6802SOL    HW121305   3.376   5.472   1.129
 6802SOL    HW221306   3.244   5.378   1.150
 6803SOL     OW21307   5.127   4.426   6.169
 6803SOL    HW121308   5.120   4.477   6.083
 6803SOL    HW221309   5.111   4.487   6.246
 6804SOL     OW21310   2.500   4.814   3.033
 6804SOL    HW121311   2.418   4.854   2.991
 6804SOL    HW221312   2.519   4.725   2.992
 6805SOL     OW21313   6.816   4.203   5.665
 6805SOL    HW121314   6.848   4.249   5.582
 6805SOL    HW221315   6.718   4.184   5.657
 6806SOL     OW21316   6.710   1.165   3.181
 6806SOL    HW121317   6.732   1.119   3.267
 6806SOL    HW221318   6.723   1.101   3.106
 6807SOL     OW21319   3.727   3.697   1.862
 6807SOL    HW121320   3.777   3.784   1.867
 6807SOL    HW221321   3.787   3.622   1.889
 6808SOL     OW21322   3.734   1.353   4.388
 6808SOL    HW121323   3.791   1.279   4.424
 6808SOL    HW221324   3.776   1.441   4.408
 6809SOL     OW21325   5.502   3.983   2.417
 6809SOL    HW121326   5.494   3.917   2.342
 6809SOL    HW221327   5.449   3.950   2.495
 6810SOL     OW21328   2.720   1.167   4.211
 6810SOL    HW121329   2.673   1.084   4.182
 6810SOL    HW221330   2.718   1.174   4.310
 6811SOL     OW21331   6.232   1.755   2.136
 6811SOL    HW121332   6.254   1.769   2.040
 6811SOL    HW221333   6.170   1.677   2.145
 6812SOL     OW21334   2.922   4.025   5.069
 6812SOL    HW121335   2.865   4.092   5.118
 6812SOL    HW221336   3.008   4.068   5.042
 6813SOL     OW21337   5.858   3.625   2.211
 6813SOL    HW121338   5.764   3.621   2.245
 6813SOL    HW221339   5.902   3.707   2.245
 6814SOL     OW21340   5.062   1.398   6.320
 6814SOL    HW121341   5.157   1.379   6.295
 6814SOL    HW221342   5.011   1.312   6.329
 6815SOL     OW21343   2.307   4.592   6.696
 6815SOL    HW121344   2.248   4.512   6.685
 6815SOL    HW221345   2.347   4.592   6.787
 6816SOL     OW21346   0.610   1.928   3.826
 6816SOL    HW121347   0.674   1.906   3.900
 6816SOL    HW221348   0.592   2.026   3.826
 6817SOL     OW21349   3.423   2.056   2.090
 6817SOL    HW121350   3.416   2.133   2.154
 6817SOL    HW221351   3.518   2.039   2.068
 6818SOL     OW21352   2.106   6.352   5.994
 6818SOL    HW121353   2.127   6.449   5.982
 6818SOL    HW221354   2.029   6.342   6.057
 6819SOL     OW21355   4.467   4.490   2.283
 6819SOL    HW121356   4.426   4.445   2.204
 6819SOL    HW221357   4.559   4.455   2.297
 6820SOL     OW21358   2.925   5.892   1.138
 6820SOL    HW121359   2.829   5.918   1.130
 6820SOL    HW221360   2.983   5.965   1.101
 6821SOL     OW21361   4.285   3.018   5.633
 6821SOL    HW121362   4.205   2.995   5.577
 6821SOL    HW221363   4.351   3.068   5.578
 6822SOL     OW21364   0.020   2.424   6.446
 6822SOL    HW121365   0.032   2.504   6.505
 6822SOL    HW221366   6.967   2.439   6.384
 6823SOL     OW21367   5.834   3.587   6.861
 6823SOL    HW121368   5.895   3.566   6.938
 6823SOL    HW221369   5.802   3.501   6.821
 6824SOL     OW21370   0.892   2.459   6.438
 6824SOL    HW121371   0.864   2.439   6.532
 6824SOL    HW221372   0.870   2.554   6.416
 6825SOL     OW21373   6.045   5.851   1.924
 6825SOL    HW121374   6.134   5.835   1.881
 6825SOL    HW221375   5.987   5.770   1.910
 6826SOL     OW21376   0.436   3.812   3.571
 6826SOL    HW121377   0.366   3.789   3.503
 6826SOL    HW221378   0.527   3.790   3.534
 6827SOL     OW21379   4.669   5.922   5.090
 6827SOL    HW121380   4.735   5.847   5.084
 6827SOL    HW221381   4.631   5.925   5.183
 6828SOL     OW21382   3.410   1.575   2.650
 6828SOL    HW121383   3.458   1.530   2.575
 6828SOL    HW221384   3.476   1.600   2.721
 6829SOL     OW21385   5.127   6.646   4.638
 6829SOL    HW121386   5.140   6.688   4.548
 6829SOL    HW221387   5.074   6.562   4.628
 6830SOL     OW21388   5.147   0.256   3.018
 6830SOL    HW121389   5.204   0.208   3.084
 6830SOL    HW221390   5.205   0.302   2.951
 6831SOL     OW21391   1.384   1.501   6.717
 6831SOL    HW121392   1.293   1.534   6.691
 6831SOL    HW221393   1.422   1.445   6.643
 6832SOL     OW21394   3.171   2.314   0.422
 6832SOL    HW121395   3.072   2.301   0.436
 6832SOL    HW221396   3.217   2.309   0.510
 6833SOL     OW21397   2.892   5.295   6.093
 6833SOL    HW121398   2.932   5.218   6.142
 6833SOL    HW221399   2.949   5.316   6.013
 6834SOL     OW21400   5.445   0.143   0.651
 6834SOL    HW121401   5.501   0.133   0.569
 6834SOL    HW221402   5.502   0.175   0.727
 6835SOL     OW21403   2.515   2.121   4.613
 6835SOL    HW121404   2.430   2.128   4.665
 6835SOL    HW221405   2.515   2.036   4.560
 6836SOL     OW21406   1.683   5.020   6.514
 6836SOL    HW121407   1.760   4.993   6.572
 6836SOL    HW221408   1.663   4.947   6.448
 6837SOL     OW21409   0.693   0.463   2.047
 6837SOL    HW121410   0.634   0.424   1.977
 6837SOL    HW221411   0.763   0.520   2.003
 6838SOL     OW21412   2.764   4.491   5.346
 6838SOL    HW121413   2.779   4.392   5.352
 6838SOL    HW221414   2.817   4.528   5.270
 6839SOL     OW21415   5.734   2.745   3.952
 6839SOL    HW121416   5.710   2.650   3.934
 6839SOL    HW221417   5.654   2.803   3.936
 6840SOL     OW21418   2.732   7.000   4.721
 6840SOL    HW121419   2.741   0.048   4.653
 6840SOL    HW221420   2.811   7.000   4.781
 6841SOL     OW21421   4.125   5.919   1.468
 6841SOL    HW121422   4.066   5.927   1.549
 6841SOL    HW221423   4.199   5.855   1.489
 6842SOL     OW21424   0.419   4.138   6.693
 6842SOL    HW121425   0.349   4.089   6.641
 6842SOL    HW221426   0.452   4.216   6.639
 6843SOL     OW21427   3.661   1.855   2.092
 6843SOL    HW121428   3.757   1.863   2.117
 6843SOL    HW221429   3.642   1.913   2.013
 6844SOL     OW21430   4.708   5.103   4.241
 6844SOL    HW121431   4.774   5.050   4.187
 6844SOL    HW221432   4.673   5.178   4.185
 6845SOL     OW21433   4.494   4.687   2.111
 6845SOL    HW121434   4.486   4.629   2.192
 6845SOL    HW221435   4.543   4.771   2.135
 6846SOL     OW21436   3.640   2.930   2.398
 6846SOL    HW121437   3.607   3.010   2.348
 6846SOL    HW221438   3.666   2.859   2.333
 6847SOL     OW21439   5.522   3.445   2.029
 6847SOL    HW121440   5.559   3.487   1.946
 6847SOL    HW221441   5.427   3.419   2.014
 6848SOL     OW21442   0.766   5.842   3.926
 6848SOL    HW121443   0.808   5.751   3.932
 6848SOL    HW221444   0.832   5.912   3.954
 6849SOL     OW21445   3.745   6.011   3.856
 6849SOL    HW121446   3.842   5.994   3.840
 6849SOL    HW221447   3.717   6.094   3.807
 6850SOL     OW21448   5.444   2.957   2.917
 6850SOL    HW121449   5.380   2.894   2.873
 6850SOL    HW221450   5.533   2.953   2.871
 6851SOL     OW21451   1.659   5.018   5.826
 6851SOL    HW121452   1.621   5.005   5.734
 6851SOL    HW221453   1.715   4.938   5.850
 6852SOL     OW21454   1.256   4.265   1.759
 6852SOL    HW121455   1.283   4.290   1.852
 6852SOL    HW221456   1.222   4.347   1.712
 6853SOL     OW21457   0.611   4.452   5.547
 6853SOL    HW121458   0.579   4.369   5.503
 6853SOL    HW221459   0.705   4.471   5.518
 6854SOL     OW21460   0.150   2.336   6.208
 6854SOL    HW121461   0.094   2.261   6.173
 6854SOL    HW221462   0.124   2.357   6.302
 6855SOL     OW21463   3.163   6.836   2.417
 6855SOL    HW121464   3.175   6.929   2.382
 6855SOL    HW221465   3.077   6.798   2.382
 6856SOL     OW21466   6.242   3.653   4.824
 6856SOL    HW121467   6.270   3.739   4.780
 6856SOL    HW221468   6.233   3.581   4.756
 6857SOL     OW21469   2.517   2.396   6.003
 6857SOL    HW121470   2.485   2.332   6.073
 6857SOL    HW221471   2.465   2.381   5.919
 6858SOL     OW21472   4.030   3.576   4.629
 6858SOL    HW121473   4.012   3.478   4.615
 6858SOL    HW221474   4.049   3.619   4.540
 6859SOL     OW21475   2.927   6.854   0.860
 6859SOL    HW121476   3.005   6.899   0.903
 6859SOL    HW221477   2.854   6.920   0.845
 6860SOL     OW21478   5.777   4.537   1.116
 6860SOL    HW121479   5.815   4.606   1.178
 6860SOL    HW221480   5.792   4.564   1.021
 6861SOL     OW21481   5.595   5.813   6.887
 6861SOL    HW121482   5.533   5.741   6.918
 6861SOL    HW221483   5.689   5.781   6.894
 6862SOL     OW21484   3.396   5.453   4.634
 6862SOL    HW121485   3.317   5.400   4.663
 6862SOL    HW221486   3.373   5.506   4.552
 6863SOL     OW21487   5.447   1.757   3.933
 6863SOL    HW121488   5.523   1.703   3.969
 6863SOL    HW221489   5.465   1.854   3.949
 6864SOL     OW21490   2.771   6.193   3.476
 6864SOL    HW121491   2.868   6.177   3.457
 6864SOL    HW221492   2.752   6.176   3.572
 6865SOL     OW21493   6.902   4.253   4.607
 6865SOL    HW121494   6.832   4.239   4.677
 6865SOL    HW221495   6.860   4.250   4.516
 6866SOL     OW21496   6.564   3.777   1.978
 6866SOL    HW121497   6.520   3.864   1.953
 6866SOL    HW221498   6.494   3.713   2.010
 6867SOL     OW21499   2.188   4.144   2.154
 6867SOL    HW121500   2.099   4.184   2.174
 6867SOL    HW221501   2.229   4.191   2.076
 6868SOL     OW21502   2.165   6.167   4.625
 6868SOL    HW121503   2.146   6.246   4.684
 6868SOL    HW221504   2.116   6.087   4.659
 6869SOL     OW21505   5.184   1.947   5.735
 6869SOL    HW121506   5.227   2.019   5.790
 6869SOL    HW221507   5.114   1.901   5.790
 6870SOL     OW21508   5.561   3.690   3.207
 6870SOL    HW121509   5.557   3.699   3.107
 6870SOL    HW221510   5.566   3.593   3.231
 6871SOL     OW21511   5.869   5.047   1.304
 6871SOL    HW121512   5.929   5.029   1.227
 6871SOL    HW221513   5.895   5.132   1.349
 6872SOL     OW21514   2.175   3.158   0.651
 6872SOL    HW121515   2.143   3.066   0.628
 6872SOL    HW221516   2.107   3.225   0.620
 6873SOL     OW21517   6.013   3.038   5.985
 6873SOL    HW121518   6.000   2.956   6.042
 6873SOL    HW221519   6.015   3.011   5.889
 6874SOL     OW21520   0.633   2.873   4.011
 6874SOL    HW121521   0.665   2.967   3.999
 6874SOL    HW221522   0.587   2.842   3.927
 6875SOL     OW21523   1.631   1.396   2.727
 6875SOL    HW121524   1.625   1.317   2.667
 6875SOL    HW221525   1.637   1.479   2.671
 6876SOL     OW21526   3.659   5.560   0.262
 6876SOL    HW121527   3.738   5.556   0.201
 6876SOL    HW221528   3.595   5.487   0.238
 6877SOL     OW21529   2.315   3.675   0.162
 6877SOL    HW121530   2.215   3.675   0.155
 6877SOL    HW221531   2.341   3.695   0.257
 6878SOL     OW21532   2.227   1.667   4.677
 6878SOL    HW121533   2.280   1.583   4.674
 6878SOL    HW221534   2.147   1.654   4.736
 6879SOL     OW21535   0.393   2.158   0.082
 6879SOL    HW121536   0.376   2.241   0.137
 6879SOL    HW221537   0.310   2.132   0.034
 6880SOL     OW21538   2.091   3.950   5.111
 6880SOL    HW121539   2.093   3.866   5.165
 6880SOL    HW221540   2.184   3.978   5.089
 6881SOL     OW21541   0.457   4.486   1.459
 6881SOL    HW121542   0.510   4.571   1.456
 6881SOL    HW221543   0.507   4.414   1.412
 6882SOL     OW21544   2.096   1.050   5.560
 6882SOL    HW121545   2.103   1.124   5.627
 6882SOL    HW221546   2.150   1.074   5.479
 6883SOL     OW21547   4.155   0.559   1.354
 6883SOL    HW121548   4.111   0.511   1.278
 6883SOL    HW221549   4.234   0.610   1.320
 6884SOL     OW21550   2.265   4.549   4.972
 6884SOL    HW121551   2.363   4.555   4.994
 6884SOL    HW221552   2.247   4.462   4.926
 6885SOL     OW21553   3.141   6.138   4.185
 6885SOL    HW121554   3.227   6.187   4.199
 6885SOL    HW221555   3.138   6.101   4.092
 6886SOL     OW21556   5.414   1.284   2.483
 6886SOL    HW121557   5.326   1.255   2.447
 6886SOL    HW221558   5.453   1.211   2.539
 6887SOL     OW21559   5.721   0.682   5.172
 6887SOL    HW121560   5.740   0.776   5.143
 6887SOL    HW221561   5.804   0.641   5.208
 6888SOL     OW21562   6.364   0.434   4.781
 6888SOL    HW121563   6.375   0.460   4.877
 6888SOL    HW221564   6.350   0.336   4.774
 6889SOL     OW21565   1.234   3.592   6.388
 6889SOL    HW121566   1.203   3.638   6.471
 6889SOL    HW221567   1.243   3.658   6.314
 6890SOL     OW21568   2.273   6.712   1.215
 6890SOL    HW121569   2.229   6.780   1.273
 6890SOL    HW221570   2.358   6.751   1.178
 6891SOL     OW21571   2.073   3.675   4.048
 6891SOL    HW121572   1.976   3.693   4.059
 6891SOL    HW221573   2.126   3.756   4.076
 6892SOL     OW21574   3.819   0.173   4.033
 6892SOL    HW121575   3.825   0.167   3.934
 6892SOL    HW221576   3.768   0.256   4.058
 6893SOL     OW21577   5.320   5.781   3.581
 6893SOL    HW121578   5.242   5.719   3.582
 6893SOL    HW221579   5.353   5.795   3.674
 6894SOL     OW21580   5.927   5.629   0.380
 6894SOL    HW121581   5.836   5.649   0.344
 6894SOL    HW221582   5.950   5.695   0.452
 6895SOL     OW21583   2.668   3.578   0.041
 6895SOL    HW121584   2.575   3.556   0.010
 6895SOL    HW221585   2.669   3.581   0.141
 6896SOL     OW21586   3.835   0.596   3.313
 6896SOL    HW121587   3.932   0.596   3.339
 6896SOL    HW221588   3.820   0.663   3.241
 6897SOL     OW21589   3.199   3.553   0.201
 6897SOL    HW121590   3.173   3.500   0.281
 6897SOL    HW221591   3.116   3.578   0.150
 6898SOL     OW21592   3.835   1.357   1.638
 6898SOL    HW121593   3.882   1.440   1.667
 6898SOL    HW221594   3.900   1.281   1.634
 6899SOL     OW21595   5.113   6.811   6.100
 6899SOL    HW121596   5.135   6.872   6.176
 6899SOL    HW221597   5.014   6.797   6.097
 6900SOL     OW21598   5.714   0.606   6.030
 6900SOL    HW121599   5.805   0.643   6.012
 6900SOL    HW221600   5.647   0.680   6.025
 6901SOL     OW21601   1.604   0.363   6.493
 6901SOL    HW121602   1.627   0.315   6.578
 6901SOL    HW221603   1.543   0.307   6.438
 6902SOL     OW21604   0.983   6.421   0.020
 6902SOL    HW121605   0.948   6.514   0.030
 6902SOL    HW221606   1.075   6.424   7.007
 6903SOL     OW21607   3.853   4.189   0.505
 6903SOL    HW121608   3.767   4.179   0.555
 6903SOL    HW221609   3.838   4.245   0.424
 6904SOL     OW21610   6.061   0.929   4.306
 6904SOL    HW121611   5.968   0.896   4.326
 6904SOL    HW221612   6.083   0.911   4.210
 6905SOL     OW21613   6.290   6.608   1.215
 6905SOL    HW121614   6.387   6.601   1.193
 6905SOL    HW221615   6.265   6.703   1.228
 6906SOL     OW21616   3.725   0.636   3.587
 6906SOL    HW121617   3.775   0.694   3.651
 6906SOL    HW221618   3.768   0.642   3.496
 6907SOL     OW21619   3.668   1.023   1.816
 6907SOL    HW121620   3.763   0.994   1.808
 6907SOL    HW221621   3.608   0.955   1.772
 6908SOL     OW21622   1.505   6.316   5.318
 6908SOL    HW121623   1.434   6.378   5.286
 6908SOL    HW221624   1.463   6.236   5.361
 6909SOL     OW21625   4.796   4.432   0.535
 6909SOL    HW121626   4.704   4.472   0.539
 6909SOL    HW221627   4.797   4.346   0.585
 6910SOL     OW21628   6.323   1.857   1.888
 6910SOL    HW121629   6.308   1.950   1.854
 6910SOL    HW221630   6.417   1.829   1.868
 6911SOL     OW21631   4.442   0.047   3.910
 6911SOL    HW121632   4.455   0.028   4.007
 6911SOL    HW221633   4.531   0.046   3.864
 6912SOL     OW21634   4.968   5.005   0.992
 6912SOL    HW121635   4.989   5.015   0.895
 6912SOL    HW221636   4.928   5.089   1.026
 6913SOL     OW21637   4.976   4.840   4.577
 6913SOL    HW121638   4.972   4.810   4.673
 6913SOL    HW221639   4.887   4.875   4.550
 6914SOL     OW21640   5.870   5.189   6.794
 6914SOL    HW121641   5.946   5.254   6.797
 6914SOL    HW221642   5.877   5.132   6.712
 6915SOL     OW21643   0.603   4.780   2.604
 6915SOL    HW121644   0.533   4.709   2.603
 6915SOL    HW221645   0.565   4.863   2.644
 6916SOL     OW21646   6.524   4.092   6.934
 6916SOL    HW121647   6.548   3.997   6.913
 6916SOL    HW221648   6.432   4.097   6.971
 6917SOL     OW21649   4.300   6.458   5.881
 6917SOL    HW121650   4.241   6.485   5.804
 6917SOL    HW221651   4.386   6.421   5.846
 6918SOL     OW21652   0.287   3.820   4.243
 6918SOL    HW121653   0.201   3.845   4.288
 6918SOL    HW221654   0.317   3.897   4.186
 6919SOL     OW21655   2.158   6.250   2.398
 6919SOL    HW121656   2.149   6.173   2.461
 6919SOL    HW221657   2.223   6.316   2.435
 6920SOL     OW21658   5.340   5.198   4.289
 6920SOL    HW121659   5.301   5.162   4.205
 6920SOL    HW221660   5.268   5.216   4.355
 6921SOL     OW21661   6.368   6.896   3.420
 6921SOL    HW121662   6.441   6.965   3.426
 6921SOL    HW221663   6.390   6.820   3.480
 6922SOL     OW21664   2.221   6.293   0.338
 6922SOL    HW121665   2.293   6.287   0.408
 6922SOL    HW221666   2.258   6.262   0.250
 6923SOL     OW21667   4.303   0.189   3.730
 6923SOL    HW121668   4.353   0.116   3.777
 6923SOL    HW221669   4.305   0.272   3.785
 6924SOL     OW21670   0.791   4.917   0.391
 6924SOL    HW121671   0.749   4.902   0.481
 6924SOL    HW221672   0.719   4.938   0.324
 6925SOL     OW21673   4.128   6.293   3.467
 6925SOL    HW121674   4.089   6.213   3.513
 6925SOL    HW221675   4.057   6.364   3.459
 6926SOL     OW21676   3.925   3.839   3.656
 6926SOL    HW121677   3.902   3.748   3.693
 6926SOL    HW221678   3.960   3.829   3.563
 6927SOL     OW21679   5.185   3.580   6.821
 6927SOL    HW121680   5.233   3.559   6.906
 6927SOL    HW221681   5.102   3.632   6.842
 6928SOL     OW21682   4.722   0.388   6.471
 6928SOL    HW121683   4.762   0.474   6.502
 6928SOL    HW221684   4.623   0.391   6.483
 6929SOL     OW21685   4.392   6.188   6.659
 6929SOL    HW121686   4.335   6.181   6.577
 6929SOL    HW221687   4.426   6.282   6.668
 6930SOL     OW21688   0.789   6.565   1.872
 6930SOL    HW121689   0.765   6.488   1.931
 6930SOL    HW221690   0.730   6.643   1.894
 6931SOL     OW21691   0.887   6.879   1.604
 6931SOL    HW121692   0.835   6.816   1.547
 6931SOL    HW221693   0.859   6.973   1.585
 6932SOL     OW21694   2.556   0.711   6.999
 6932SOL    HW121695   2.615   0.769   6.943
 6932SOL    HW221696   2.460   0.736   6.983
 6933SOL     OW21697   3.689   5.707   5.223
 6933SOL    HW121698   3.700   5.667   5.314
 6933SOL    HW221699   3.619   5.779   5.227
 6934SOL     OW21700   5.224   2.911   6.913
 6934SOL    HW121701   5.155   2.939   6.979
 6934SOL    HW221702   5.205   2.818   6.882
 6935SOL     OW21703   4.106   6.079   3.640
 6935SOL    HW121704   4.019   6.118   3.671
 6935SOL    HW221705   4.169   6.073   3.718
 6936SOL     OW21706   0.107   2.657   1.574
 6936SOL    HW121707   0.172   2.650   1.499
 6936SOL    HW221708   0.131   2.591   1.645
 6937SOL     OW21709   4.155   6.537   5.564
 6937SOL    HW121710   4.202   6.453   5.536
 6937SOL    HW221711   4.210   6.616   5.537
 6938SOL     OW21712   4.822   3.564   5.732
 6938SOL    HW121713   4.798   3.489   5.793
 6938SOL    HW221714   4.861   3.526   5.648
 6939SOL     OW21715   0.225   4.694   2.264
 6939SOL    HW121716   0.286   4.624   2.302
 6939SOL    HW221717   0.264   4.729   2.179
 6940SOL     OW21718   4.950   0.443   5.929
 6940SOL    HW121719   4.877   0.489   5.880
 6940SOL    HW221720   4.948   0.470   6.026
 6941SOL     OW21721   3.183   2.975   2.468
 6941SOL    HW121722   3.117   3.028   2.415
 6941SOL    HW221723   3.235   2.916   2.406
 6942SOL     OW21724   0.092   2.667   0.600
 6942SOL    HW121725   0.165   2.656   0.533
 6942SOL    HW221726   0.129   2.707   0.684
 6943SOL     OW21727   5.375   6.161   6.236
 6943SOL    HW121728   5.473   6.156   6.255
 6943SOL    HW221729   5.324   6.131   6.316
 6944SOL     OW21730   1.127   5.483   5.757
 6944SOL    HW121731   1.054   5.523   5.701
 6944SOL    HW221732   1.207   5.543   5.755
 6945SOL     OW21733   6.288   3.014   6.141
 6945SOL    HW121734   6.261   2.994   6.235
 6945SOL    HW221735   6.300   2.929   6.090
 6946SOL     OW21736   5.996   4.646   2.955
 6946SOL    HW121737   5.943   4.575   3.002
 6946SOL    HW221738   5.947   4.733   2.961
 6947SOL     OW21739   3.674   6.967   3.036
 6947SOL    HW121740   3.576   6.964   3.013
 6947SOL    HW221741   3.728   6.952   2.953
 6948SOL     OW21742   4.860   0.276   0.427
 6948SOL    HW121743   4.874   0.181   0.398
 6948SOL    HW221744   4.905   0.290   0.515
 6949SOL     OW21745   4.833   6.722   3.149
 6949SOL    HW121746   4.931   6.708   3.140
 6949SOL    HW221747   4.792   6.730   3.058
 6950SOL     OW21748   1.937   0.461   3.264
 6950SOL    HW121749   2.037   0.454   3.271
 6950SOL    HW221750   1.908   0.421   3.177
 6951SOL     OW21751   6.447   6.326   5.851
 6951SOL    HW121752   6.435   6.279   5.763
 6951SOL    HW221753   6.414   6.268   5.925
 6952SOL     OW21754   0.136   5.525   3.611
 6952SOL    HW121755   0.202   5.518   3.536
 6952SOL    HW221756   0.043   5.531   3.574
 6953SOL     OW21757   5.128   0.824   6.251
 6953SOL    HW121758   5.139   0.838   6.152
 6953SOL    HW221759   5.206   0.865   6.299
 6954SOL     OW21760   0.316   2.887   4.386
 6954SOL    HW121761   0.407   2.865   4.351
 6954SOL    HW221762   0.251   2.890   4.310
 6955SOL     OW21763   0.308   6.194   1.518
 6955SOL    HW121764   0.370   6.120   1.491
 6955SOL    HW221765   0.342   6.237   1.601
 6956SOL     OW21766   4.808   5.679   1.963
 6956SOL    HW121767   4.892   5.647   2.007
 6956SOL    HW221768   4.735   5.613   1.980
 6957SOL     OW21769   6.608   4.503   1.779
 6957SOL    HW121770   6.591   4.420   1.725
 6957SOL    HW221771   6.704   4.528   1.770
 6958SOL     OW21772   2.296   2.408   6.314
 6958SOL    HW121773   2.332   2.388   6.405
 6958SOL    HW221774   2.294   2.325   6.259
 6959SOL     OW21775   3.094   1.715   4.796
 6959SOL    HW121776   3.059   1.638   4.850
 6959SOL    HW221777   3.075   1.801   4.844
 6960SOL     OW21778   0.176   5.001   0.230
 6960SOL    HW121779   0.237   4.932   0.268
 6960SOL    HW221780   0.191   5.009   0.132
 6961SOL     OW21781   0.777   1.928   3.490
 6961SOL    HW121782   0.790   1.893   3.582
 6961SOL    HW221783   0.808   1.860   3.423
 6962SOL     OW21784   5.304   5.468   2.774
 6962SOL    HW121785   5.361   5.535   2.728
 6962SOL    HW221786   5.217   5.458   2.724
 6963SOL     OW21787   0.328   5.355   1.464
 6963SOL    HW121788   0.294   5.287   1.400
 6963SOL    HW221789   0.395   5.414   1.419
 6964SOL     OW21790   4.856   5.203   5.362
 6964SOL    HW121791   4.888   5.289   5.403
 6964SOL    HW221792   4.756   5.207   5.354
 6965SOL     OW21793   6.548   3.366   6.204
 6965SOL    HW121794   6.497   3.326   6.281
 6965SOL    HW221795   6.498   3.348   6.119
 6966SOL     OW21796   5.248   2.819   2.764
 6966SOL    HW121797   5.209   2.860   2.682
 6966SOL    HW221798   5.202   2.733   2.783
 6967SOL     OW21799   1.248   2.060   6.160
 6967SOL    HW121800   1.232   2.134   6.226
 6967SOL    HW221801   1.341   2.065   6.125
 6968SOL     OW21802   4.544   5.650   1.001
 6968SOL    HW121803   4.619   5.715   1.003
 6968SOL    HW221804   4.563   5.576   1.066
 6969SOL     OW21805   3.458   1.140   1.530
 6969SOL    HW121806   3.524   1.116   1.460
 6969SOL    HW221807   3.502   1.137   1.620
 6970SOL     OW21808   4.075   4.489   0.508
 6970SOL    HW121809   4.043   4.410   0.561
 6970SOL    HW221810   3.997   4.541   0.475
 6971SOL     OW21811   6.176   2.730   1.691
 6971SOL    HW121812   6.217   2.639   1.690
 6971SOL    HW221813   6.180   2.768   1.783
 6972SOL     OW21814   5.684   4.552   3.536
 6972SOL    HW121815   5.619   4.578   3.608
 6972SOL    HW221816   5.766   4.512   3.578
 6973SOL     OW21817   1.771   5.035   4.683
 6973SOL    HW121818   1.795   5.120   4.731
 6973SOL    HW221819   1.672   5.032   4.667
 6974SOL     OW21820   4.061   3.835   3.386
 6974SOL    HW121821   4.130   3.907   3.393
 6974SOL    HW221822   3.971   3.878   3.372
 6975SOL     OW21823   3.575   0.397   5.731
 6975SOL    HW121824   3.488   0.373   5.688
 6975SOL    HW221825   3.580   0.357   5.822
 6976SOL     OW21826   3.220   4.596   6.487
 6976SOL    HW121827   3.226   4.695   6.502
 6976SOL    HW221828   3.125   4.567   6.497
 6977SOL     OW21829   3.929   1.854   2.125
 6977SOL    HW121830   3.976   1.826   2.209
 6977SOL    HW221831   3.984   1.826   2.046
 6978SOL     OW21832   6.705   0.844   2.024
 6978SOL    HW121833   6.680   0.885   1.936
 6978SOL    HW221834   6.749   0.755   2.008
 6979SOL     OW21835   1.326   4.895   2.473
 6979SOL    HW121836   1.356   4.803   2.447
 6979SOL    HW221837   1.315   4.951   2.390
 6980SOL     OW21838   2.411   0.935   3.208
 6980SOL    HW121839   2.501   0.891   3.207
 6980SOL    HW221840   2.416   1.021   3.158
 6981SOL     OW21841   2.726   3.884   0.067
 6981SOL    HW121842   2.699   3.796   0.027
 6981SOL    HW221843   2.648   3.947   0.063
 6982SOL     OW21844   1.548   1.049   4.392
 6982SOL    HW121845   1.499   0.990   4.328
 6982SOL    HW221846   1.489   1.071   4.469
 6983SOL     OW21847   6.886   0.597   4.408
 6983SOL    HW121848   6.975   0.566   4.375
 6983SOL    HW221849   6.815   0.565   4.346
 6984SOL     OW21850   2.062   1.823   5.167
 6984SOL    HW121851   1.996   1.748   5.166
 6984SOL    HW221852   2.041   1.885   5.242
 6985SOL     OW21853   3.920   5.936   2.092
 6985SOL    HW121854   3.952   5.925   2.186
 6985SOL    HW221855   3.826   5.971   2.093
 6986SOL     OW21856   1.932   6.110   5.781
 6986SOL    HW121857   2.005   6.174   5.757
 6986SOL    HW221858   1.899   6.130   5.873
 6987SOL     OW21859   0.303   2.594   6.362
 6987SOL    HW121860   0.258   2.505   6.349
 6987SOL    HW221861   0.399   2.587   6.335
 6988SOL     OW21862   5.121   1.487   4.553
 6988SOL    HW121863   5.087   1.440   4.634
 6988SOL    HW221864   5.209   1.448   4.526
 6989SOL     OW21865   0.801   1.358   3.521
 6989SOL    HW121866   0.886   1.310   3.545
 6989SOL    HW221867   0.806   1.389   3.426
 6990SOL     OW21868   4.696   2.595   0.438
 6990SOL    HW121869   4.628   2.538   0.485
 6990SOL    HW221870   4.718   2.554   0.350
 6991SOL     OW21871   2.528   4.550   5.116
 6991SOL    HW121872   2.627   4.553   5.103
 6991SOL    HW221873   2.506   4.481   5.185
 6992SOL     OW21874   6.242   6.217   4.774
 6992SOL    HW121875   6.269   6.252   4.684
 6992SOL    HW221876   6.316   6.232   4.839
 6993SOL     OW21877   6.459   6.866   3.148
 6993SOL    HW121878   6.443   6.861   3.247
 6993SOL    HW221879   6.524   6.941   3.129
 6994SOL     OW21880   1.254   3.464   5.853
 6994SOL    HW121881   1.276   3.559   5.832
 6994SOL    HW221882   1.312   3.432   5.928
 6995SOL     OW21883   5.717   5.521   4.784
 6995SOL    HW121884   5.631   5.513   4.834
 6995SOL    HW221885   5.734   5.437   4.732
 6996SOL     OW21886   2.604   0.793   5.260
 6996SOL    HW121887   2.602   0.892   5.272
 6996SOL    HW221888   2.573   0.749   5.345
 6997SOL     OW21889   4.666   5.933   4.589
 6997SOL    HW121890   4.760   5.963   4.572
 6997SOL    HW221891   4.621   6.000   4.649
 6998SOL     OW21892   1.751   2.839   1.741
 6998SOL    HW121893   1.818   2.766   1.754
 6998SOL    HW221894   1.787   2.906   1.676
 6999SOL     OW21895   2.187   1.970   6.013
 6999SOL    HW121896   2.286   1.967   6.030
 6999SOL    HW221897   2.169   1.958   5.916
 7000SOL     OW21898   0.875   5.740   2.461
 7000SOL    HW121899   0.862   5.839   2.473
 7000SOL    HW221900   0.834   5.692   2.539
 7001SOL     OW21901   2.493   2.239   5.579
 7001SOL    HW121902   2.445   2.315   5.535
 7001SOL    HW221903   2.451   2.153   5.552
 7002SOL     OW21904   2.633   5.199   3.767
 7002SOL    HW121905   2.627   5.225   3.864
 7002SOL    HW221906   2.545   5.215   3.723
 7003SOL     OW21907   2.884   0.106   6.875
 7003SOL    HW121908   2.913   0.020   6.834
 7003SOL    HW221909   2.912   0.183   6.817
 7004SOL     OW21910   2.063   4.023   1.828
 7004SOL    HW121911   2.059   4.108   1.775
 7004SOL    HW221912   1.975   4.006   1.871
 7005SOL     OW21913   6.366   6.169   6.094
 7005SOL    HW121914   6.443   6.122   6.136
 7005SOL    HW221915   6.305   6.203   6.165
 7006SOL     OW21916   4.752   4.089   4.967
 7006SOL    HW121917   4.747   4.184   4.998
 7006SOL    HW221918   4.745   4.028   5.046
 7007SOL     OW21919   4.753   6.742   2.871
 7007SOL    HW121920   4.816   6.666   2.884
 7007SOL    HW221921   4.675   6.712   2.818
 7008SOL     OW21922   2.209   5.194   4.645
 7008SOL    HW121923   2.133   5.145   4.687
 7008SOL    HW221924   2.174   5.274   4.596
 7009SOL     OW21925   6.309   5.643   2.567
 7009SOL    HW121926   6.406   5.655   2.545
 7009SOL    HW221927   6.296   5.559   2.619
 7010SOL     OW21928   3.275   4.588   6.145
 7010SOL    HW121929   3.259   4.662   6.210
 7010SOL    HW221930   3.261   4.500   6.190
 7011SOL     OW21931   1.756   6.734   5.242
 7011SOL    HW121932   1.661   6.743   5.269
 7011SOL    HW221933   1.809   6.695   5.317
 7012SOL     OW21934   1.195   6.881   2.046
 7012SOL    HW121935   1.258   6.816   2.090
 7012SOL    HW221936   1.248   6.946   1.992
 7013SOL     OW21937   0.973   6.795   1.318
 7013SOL    HW121938   1.071   6.787   1.301
 7013SOL    HW221939   0.940   6.713   1.364
 7014SOL     OW21940   3.886   3.928   1.003
 7014SOL    HW121941   3.849   4.019   1.024
 7014SOL    HW221942   3.891   3.874   1.087
 7015SOL     OW21943   5.403   3.302   2.712
 7015SOL    HW121944   5.485   3.296   2.655
 7015SOL    HW221945   5.422   3.260   2.801
 7016SOL     OW21946   4.670   5.439   1.998
 7016SOL    HW121947   4.637   5.376   1.928
 7016SOL    HW221948   4.607   5.438   2.076
 7017SOL     OW21949   2.563   1.375   3.348
 7017SOL    HW121950   2.614   1.453   3.384
 7017SOL    HW221951   2.546   1.309   3.421
 7018SOL     OW21952   0.000   4.249   5.047
 7018SOL    HW121953   6.925   4.259   5.056
 7018SOL    HW221954   0.029   4.277   4.955
 7019SOL     OW21955   2.051   4.585   6.863
 7019SOL    HW121956   2.067   4.607   6.959
 7019SOL    HW221957   2.065   4.667   6.807
 7020SOL     OW21958   5.858   0.155   0.335
 7020SOL    HW121959   5.898   0.217   0.403
 7020SOL    HW221960   5.874   0.191   0.243
 7021SOL     OW21961   2.733   1.203   4.476
 7021SOL    HW121962   2.813   1.241   4.523
 7021SOL    HW221963   2.672   1.278   4.450
 7022SOL     OW21964   5.253   3.487   0.861
 7022SOL    HW121965   5.279   3.578   0.893
 7022SOL    HW221966   5.240   3.426   0.939
 7023SOL     OW21967   6.408   2.697   2.515
 7023SOL    HW121968   6.488   2.718   2.571
 7023SOL    HW221969   6.325   2.717   2.567
 7024SOL     OW21970   1.765   5.844   6.561
 7024SOL    HW121971   1.782   5.878   6.469
 7024SOL    HW221972   1.792   5.748   6.566
 7025SOL     OW21973   2.877   1.999   6.386
 7025SOL    HW121974   2.861   1.905   6.416
 7025SOL    HW221975   2.816   2.061   6.435
 7026SOL     OW21976   3.119   1.165   2.320
 7026SOL    HW121977   3.104   1.212   2.233
 7026SOL    HW221978   3.076   1.217   2.394
 7027SOL     OW21979   4.053   5.567   3.429
 7027SOL    HW121980   3.956   5.541   3.428
 7027SOL    HW221981   4.060   5.665   3.450
 7028SOL     OW21982   4.592   6.478   3.493
 7028SOL    HW121983   4.670   6.483   3.555
 7028SOL    HW221984   4.590   6.560   3.437
 7029SOL     OW21985   3.344   6.301   6.346
 7029SOL    HW121986   3.431   6.347   6.329
 7029SOL    HW221987   3.335   6.223   6.284
 7030SOL     OW21988   0.291   3.922   5.507
 7030SOL    HW121989   0.280   3.987   5.581
 7030SOL    HW221990   0.317   3.970   5.423
 7031SOL     OW21991   2.331   6.095   3.794
 7031SOL    HW121992   2.394   6.037   3.847
 7031SOL    HW221993   2.291   6.164   3.854
 7032SOL     OW21994   4.709   0.109   3.134
 7032SOL    HW121995   4.643   0.176   3.169
 7032SOL    HW221996   4.670   0.062   3.055
 7033SOL     OW21997   6.883   1.154   4.258
 7033SOL    HW121998   6.789   1.175   4.228
 7033SOL    HW221999   6.925   1.237   4.294
 7034SOL     OW22000   5.104   0.292   2.583
 7034SOL    HW122001   5.035   0.223   2.560
 7034SOL    HW222002   5.060   0.371   2.625
 7035SOL     OW22003   1.030   6.481   2.663
 7035SOL    HW122004   1.110   6.462   2.606
 7035SOL    HW222005   1.029   6.578   2.688
 7036SOL     OW22006   6.584   5.478   1.459
 7036SOL    HW122007   6.557   5.388   1.493
 7036SOL    HW222008   6.587   5.543   1.535
 7037SOL     OW22009   0.528   6.614   5.666
 7037SOL    HW122010   0.525   6.590   5.763
 7037SOL    HW222011   0.565   6.706   5.656
 7038SOL     OW22012   1.146   4.448   3.876
 7038SOL    HW122013   1.175   4.436   3.782
 7038SOL    HW222014   1.076   4.381   3.899
 7039SOL     OW22015   3.706   0.116   7.018
 7039SOL    HW122016   3.781   0.135   0.056
 7039SOL    HW222017   3.676   0.200   6.974
 7040SOL     OW22018   4.689   2.762   6.114
 7040SOL    HW122019   4.625   2.728   6.046
 7040SOL    HW222020   4.642   2.825   6.176
 7041SOL     OW22021   1.377   0.955   3.250
 7041SOL    HW122022   1.445   1.027   3.264
 7041SOL    HW222023   1.316   0.982   3.176
 7042SOL     OW22024   5.081   5.159   6.396
 7042SOL    HW122025   5.072   5.250   6.355
 7042SOL    HW222026   4.990   5.118   6.407
 7043SOL     OW22027   1.588   3.111   3.510
 7043SOL    HW122028   1.620   3.017   3.518
 7043SOL    HW222029   1.563   3.130   3.415
 7044SOL     OW22030   4.611   4.855   2.814
 7044SOL    HW122031   4.633   4.922   2.885
 7044SOL    HW222032   4.527   4.883   2.767
 7045SOL     OW22033   4.854   6.732   1.088
 7045SOL    HW122034   4.801   6.814   1.070
 7045SOL    HW222035   4.879   6.689   1.002
 7046SOL     OW22036   3.511   1.215   4.359
 7046SOL    HW122037   3.561   1.132   4.332
 7046SOL    HW222038   3.576   1.288   4.379
 7047SOL     OW22039   0.499   2.032   3.289
 7047SOL    HW122040   0.402   2.016   3.307
 7047SOL    HW222041   0.538   1.951   3.244
 7048SOL     OW22042   1.380   5.787   0.950
 7048SOL    HW122043   1.445   5.833   0.890
 7048SOL    HW222044   1.357   5.697   0.912
 7049SOL     OW22045   1.951   0.598   0.888
 7049SOL    HW122046   1.989   0.663   0.953
 7049SOL    HW222047   2.018   0.579   0.816
 7050SOL     OW22048   3.852   4.066   4.380
 7050SOL    HW122049   3.939   4.018   4.393
 7050SOL    HW222050   3.835   4.077   4.282
 7051SOL     OW22051   0.190   0.678   1.476
 7051SOL    HW122052   0.252   0.612   1.520
 7051SOL    HW222053   0.135   0.724   1.546
 7052SOL     OW22054   6.535   2.100   4.696
 7052SOL    HW122055   6.560   2.082   4.601
 7052SOL    HW222056   6.560   2.193   4.721
 7053SOL     OW22057   0.069   3.816   6.450
 7053SOL    HW122058   0.155   3.797   6.405
 7053SOL    HW222059   0.020   3.889   6.402
 7054SOL     OW22060   0.398   6.256   1.191
 7054SOL    HW122061   0.492   6.285   1.210
 7054SOL    HW222062   0.334   6.313   1.243
 7055SOL     OW22063   4.390   0.134   5.825
 7055SOL    HW122064   4.334   0.187   5.889
 7055SOL    HW222065   4.359   0.152   5.732
 7056SOL     OW22066   5.503   4.933   3.503
 7056SOL    HW122067   5.548   4.985   3.430
 7056SOL    HW222068   5.565   4.926   3.581
 7057SOL     OW22069   0.449   3.845   4.664
 7057SOL    HW122070   0.514   3.882   4.731
 7057SOL    HW222071   0.495   3.832   4.577
 7058SOL     OW22072   0.260   5.637   4.956
 7058SOL    HW122073   0.269   5.542   4.984
 7058SOL    HW222074   0.345   5.668   4.915
 7059SOL     OW22075   0.370   6.748   2.041
 7059SOL    HW122076   0.350   6.814   2.114
 7059SOL    HW222077   0.286   6.726   1.992
 7060SOL     OW22078   3.274   0.499   1.673
 7060SOL    HW122079   3.270   0.423   1.738
 7060SOL    HW222080   3.222   0.474   1.591
 7061SOL     OW22081   0.231   2.229   3.333
 7061SOL    HW122082   0.209   2.135   3.307
 7061SOL    HW222083   0.154   2.269   3.383
 7062SOL     OW22084   5.767   2.219   5.714
 7062SOL    HW122085   5.796   2.227   5.618
 7062SOL    HW222086   5.717   2.134   5.727
 7063SOL     OW22087   1.636   6.239   0.801
 7063SOL    HW122088   1.726   6.236   0.845
 7063SOL    HW222089   1.645   6.207   0.706
 7064SOL     OW22090   4.328   2.193   1.870
 7064SOL    HW122091   4.284   2.104   1.863
 7064SOL    HW222092   4.321   2.241   1.782
 7065SOL     OW22093   4.876   4.288   1.371
 7065SOL    HW122094   4.850   4.207   1.424
 7065SOL    HW222095   4.972   4.280   1.344
 7066SOL     OW22096   3.624   0.927   0.387
 7066SOL    HW122097   3.530   0.913   0.358
 7066SOL    HW222098   3.655   1.018   0.358
 7067SOL     OW22099   0.963   3.735   5.151
 7067SOL    HW122100   1.014   3.701   5.072
 7067SOL    HW222101   0.872   3.763   5.122
 7068SOL     OW22102   1.363   2.943   3.239
 7068SOL    HW122103   1.400   2.878   3.305
 7068SOL    HW222104   1.265   2.926   3.227
 7069SOL     OW22105   6.116   3.806   5.033
 7069SOL    HW122106   6.182   3.760   4.975
 7069SOL    HW222107   6.126   3.905   5.024
 7070SOL     OW22108   6.430   5.231   5.390
 7070SOL    HW122109   6.385   5.265   5.472
 7070SOL    HW222110   6.367   5.235   5.312
 7071SOL     OW22111   1.006   6.166   5.402
 7071SOL    HW122112   1.099   6.147   5.434
 7071SOL    HW222113   0.957   6.079   5.392
 7072SOL     OW22114   6.890   6.838   5.986
 7072SOL    HW122115   6.863   6.859   5.892
 7072SOL    HW222116   6.846   6.903   6.049
 7073SOL     OW22117   6.624   1.175   4.941
 7073SOL    HW122118   6.609   1.235   5.020
 7073SOL    HW222119   6.551   1.107   4.936
 7074SOL     OW22120   3.141   3.002   1.990
 7074SOL    HW122121   3.138   2.913   1.945
 7074SOL    HW222122   3.207   2.999   2.065
 7075SOL     OW22123   1.789   6.173   4.428
 7075SOL    HW122124   1.745   6.198   4.341
 7075SOL    HW222125   1.815   6.076   4.426
 7076SOL     OW22126   3.424   1.725   6.940
 7076SOL    HW122127   3.462   1.777   7.016
 7076SOL    HW222128   3.430   1.627   6.961
 7077SOL     OW22129   2.259   5.281   5.607
 7077SOL    HW122130   2.203   5.237   5.537
 7077SOL    HW222131   2.299   5.365   5.571
 7078SOL     OW22132   6.006   0.053   2.699
 7078SOL    HW122133   6.035   0.084   2.609
 7078SOL    HW222134   5.940   0.117   2.738
 7079SOL     OW22135   6.640   6.022   5.778
 7079SOL    HW122136   6.631   6.073   5.692
 7079SOL    HW222137   6.576   5.946   5.778
 7080SOL     OW22138   4.047   2.185   3.802
 7080SOL    HW122139   4.042   2.086   3.786
 7080SOL    HW222140   3.958   2.219   3.831
 7081SOL     OW22141   3.538   1.357   5.435
 7081SOL    HW122142   3.591   1.419   5.377
 7081SOL    HW222143   3.576   1.265   5.429
 7082SOL     OW22144   5.505   0.097   0.344
 7082SOL    HW122145   5.568   0.046   0.404
 7082SOL    HW222146   5.554   0.124   0.261
 7083SOL     OW22147   2.834   1.048   6.302
 7083SOL    HW122148   2.868   1.142   6.313
 7083SOL    HW222149   2.744   1.040   6.344
 7084SOL     OW22150   0.065   6.683   5.594
 7084SOL    HW122151   0.157   6.679   5.555
 7084SOL    HW222152   0.069   6.721   5.687
 7085SOL     OW22153   2.012   1.726   2.864
 7085SOL    HW122154   2.034   1.737   2.960
 7085SOL    HW222155   2.083   1.768   2.808
 7086SOL     OW22156   5.624   1.055   6.279
 7086SOL    HW122157   5.681   1.073   6.199
 7086SOL    HW222158   5.680   1.012   6.350
 7087SOL     OW22159   0.779   2.841   4.760
 7087SOL    HW122160   0.842   2.871   4.689
 7087SOL    HW222161   0.778   2.741   4.765
 7088SOL     OW22162   4.586   2.618   3.990
 7088SOL    HW122163   4.521   2.553   3.949
 7088SOL    HW222164   4.609   2.688   3.922
 7089SOL     OW22165   3.260   3.100   6.338
 7089SOL    HW122166   3.282   3.018   6.285
 7089SOL    HW222167   3.166   3.128   6.317
 7090SOL     OW22168   2.093   1.250   5.724
 7090SOL    HW122169   2.028   1.196   5.777
 7090SOL    HW222170   2.077   1.347   5.740
 7091SOL     OW22171   0.192   1.272   6.590
 7091SOL    HW122172   0.157   1.187   6.549
 7091SOL    HW222173   0.115   1.331   6.613
 7092SOL     OW22174   4.262   3.491   0.371
 7092SOL    HW122175   4.173   3.457   0.402
 7092SOL    HW222176   4.279   3.459   0.278
 7093SOL     OW22177   3.046   3.989   4.067
 7093SOL    HW122178   2.995   3.992   3.981
 7093SOL    HW222179   3.142   4.009   4.049
 7094SOL     OW22180   0.639   6.973   5.520
 7094SOL    HW122181   0.633   0.036   5.568
 7094SOL    HW222182   0.547   6.942   5.496
 7095SOL     OW22183   2.500   2.660   0.090
 7095SOL    HW122184   2.554   2.724   0.145
 7095SOL    HW222185   2.429   2.710   0.041
 7096SOL     OW22186   5.473   2.222   3.597
 7096SOL    HW122187   5.471   2.139   3.541
 7096SOL    HW222188   5.450   2.199   3.692
 7097SOL     OW22189   6.852   0.601   1.997
 7097SOL    HW122190   6.909   0.544   2.056
 7097SOL    HW222191   6.868   0.578   1.901
 7098SOL     OW22192   1.753   5.942   4.728
 7098SOL    HW122193   1.745   5.908   4.635
 7098SOL    HW222194   1.776   6.039   4.727
 7099SOL     OW22195   1.485   1.082   5.096
 7099SOL    HW122196   1.545   1.133   5.158
 7099SOL    HW222197   1.396   1.069   5.139
 7100SOL     OW22198   5.041   3.769   0.991
 7100SOL    HW122199   5.049   3.869   1.000
 7100SOL    HW222200   5.089   3.725   1.067
 7101SOL     OW22201   2.972   0.428   4.632
 7101SOL    HW122202   2.935   0.480   4.709
 7101SOL    HW222203   2.937   0.467   4.547
 7102SOL     OW22204   4.560   1.108   0.850
 7102SOL    HW122205   4.622   1.062   0.787
 7102SOL    HW222206   4.481   1.142   0.799
 7103SOL     OW22207   3.874   5.638   6.863
 7103SOL    HW122208   3.887   5.550   6.818
 7103SOL    HW222209   3.856   5.623   6.960
 7104SOL     OW22210   1.498   3.647   3.792
 7104SOL    HW122211   1.477   3.558   3.751
 7104SOL    HW222212   1.545   3.633   3.879
 7105SOL     OW22213   3.698   2.931   4.869
 7105SOL    HW122214   3.745   2.844   4.851
 7105SOL    HW222215   3.686   2.943   4.968
 7106SOL     OW22216   3.643   2.906   3.493
 7106SOL    HW122217   3.544   2.889   3.492
 7106SOL    HW222218   3.671   2.943   3.404
 7107SOL     OW22219   2.567   0.929   0.594
 7107SOL    HW122220   2.533   0.864   0.526
 7107SOL    HW222221   2.570   1.020   0.554
 7108SOL     OW22222   4.270   6.416   1.174
 7108SOL    HW122223   4.278   6.371   1.085
 7108SOL    HW222224   4.221   6.503   1.163
 7109SOL     OW22225   3.469   0.108   6.338
 7109SOL    HW122226   3.403   0.142   6.271
 7109SOL    HW222227   3.479   0.009   6.327
 7110SOL     OW22228   5.504   5.191   3.848
 7110SOL    HW122229   5.430   5.205   3.783
 7110SOL    HW222230   5.578   5.256   3.829
 7111SOL     OW22231   0.981   2.968   4.594
 7111SOL    HW122232   1.051   2.911   4.553
 7111SOL    HW222233   1.023   3.032   4.659
 7112SOL     OW22234   1.899   5.555   4.406
 7112SOL    HW122235   1.802   5.529   4.401
 7112SOL    HW222236   1.926   5.600   4.321
 7113SOL     OW22237   3.495   4.212   4.253
 7113SOL    HW122238   3.451   4.145   4.312
 7113SOL    HW222239   3.551   4.274   4.309
 7114SOL     OW22240   4.092   0.303   1.466
 7114SOL    HW122241   4.126   0.281   1.558
 7114SOL    HW222242   4.089   0.402   1.454
 7115SOL     OW22243   5.095   2.163   1.749
 7115SOL    HW122244   5.053   2.085   1.702
 7115SOL    HW222245   5.109   2.237   1.684
 7116SOL     OW22246   5.772   3.910   3.668
 7116SOL    HW122247   5.717   3.887   3.749
 7116SOL    HW222248   5.716   3.901   3.586
 7117SOL     OW22249   0.064   6.732   4.110
 7117SOL    HW122250   0.003   6.672   4.163
 7117SOL    HW222251   0.159   6.707   4.128
 7118SOL     OW22252   5.424   3.509   0.509
 7118SOL    HW122253   5.456   3.414   0.508
 7118SOL    HW222254   5.324   3.511   0.512
 7119SOL     OW22255   4.883   1.284   3.006
 7119SOL    HW122256   4.868   1.375   3.045
 7119SOL    HW222257   4.916   1.292   2.912
 7120SOL     OW22258   4.162   1.779   2.469
 7120SOL    HW122259   4.192   1.843   2.398
 7120SOL    HW222260   4.152   1.688   2.429
 7121SOL     OW22261   2.060   0.223   3.507
 7121SOL    HW122262   1.964   0.220   3.533
 7121SOL    HW222263   2.071   0.187   3.415
 7122SOL     OW22264   7.016   0.328   0.341
 7122SOL    HW122265   6.923   0.347   0.312
 7122SOL    HW222266   0.044   0.414   0.344
 7123SOL     OW22267   3.631   5.793   0.940
 7123SOL    HW122268   3.633   5.870   0.876
 7123SOL    HW222269   3.548   5.739   0.924
 7124SOL     OW22270   1.365   4.301   0.795
 7124SOL    HW122271   1.339   4.205   0.792
 7124SOL    HW222272   1.431   4.320   0.722
 7125SOL     OW22273   6.421   6.176   1.194
 7125SOL    HW122274   6.502   6.119   1.178
 7125SOL    HW222275   6.405   6.233   1.113
 7126SOL     OW22276   2.458   3.777   0.691
 7126SOL    HW122277   2.527   3.716   0.730
 7126SOL    HW222278   2.491   3.871   0.695
 7127SOL     OW22279   3.109   5.183   4.415
 7127SOL    HW122280   3.052   5.108   4.384
 7127SOL    HW222281   3.173   5.209   4.342
 7128SOL     OW22282   3.251   4.679   0.338
 7128SOL    HW122283   3.277   4.590   0.377
 7128SOL    HW222284   3.179   4.721   0.394
 7129SOL     OW22285   2.771   0.585   0.934
 7129SOL    HW122286   2.854   0.631   0.966
 7129SOL    HW222287   2.723   0.644   0.870
 7130SOL     OW22288   3.119   4.860   4.348
 7130SOL    HW122289   3.104   4.862   4.250
 7130SOL    HW222290   3.039   4.895   4.396
 7131SOL     OW22291   2.494   1.708   0.508
 7131SOL    HW122292   2.434   1.782   0.538
 7131SOL    HW222293   2.589   1.733   0.525
 7132SOL     OW22294   4.135   3.550   2.301
 7132SOL    HW122295   4.140   3.616   2.375
 7132SOL    HW222296   4.172   3.462   2.332
 7133SOL     OW22297   5.231   4.905   3.538
 7133SOL    HW122298   5.327   4.911   3.510
 7133SOL    HW222299   5.172   4.930   3.461
 7134SOL     OW22300   6.233   5.777   3.974
 7134SOL    HW122301   6.257   5.872   3.994
 7134SOL    HW222302   6.141   5.773   3.936
 7135SOL     OW22303   1.273   0.997   4.236
 7135SOL    HW122304   1.277   0.928   4.164
 7135SOL    HW222305   1.240   1.084   4.198
 7136SOL     OW22306   1.556   1.489   0.828
 7136SOL    HW122307   1.535   1.413   0.767
 7136SOL    HW222308   1.654   1.490   0.847
 7137SOL     OW22309   4.120   1.408   4.562
 7137SOL    HW122310   4.089   1.492   4.606
 7137SOL    HW222311   4.052   1.378   4.495
 7138SOL     OW22312   2.776   2.702   1.395
 7138SOL    HW122313   2.848   2.772   1.394
 7138SOL    HW222314   2.703   2.729   1.332
 7139SOL     OW22315   4.922   3.263   2.027
 7139SOL    HW122316   4.855   3.189   2.038
 7139SOL    HW222317   4.896   3.320   1.949
 7140SOL     OW22318   6.020   3.110   5.150
 7140SOL    HW122319   5.998   3.032   5.091
 7140SOL    HW222320   5.975   3.098   5.239
 7141SOL     OW22321   3.164   6.935   0.973
 7141SOL    HW122322   3.212   6.915   1.059
 7141SOL    HW222323   3.225   6.985   0.912
 7142SOL     OW22324   4.338   6.525   3.687
 7142SOL    HW122325   4.337   6.621   3.716
 7142SOL    HW222326   4.358   6.519   3.589
 7143SOL     OW22327   1.771   3.064   6.004
 7143SOL    HW122328   1.683   3.075   5.956
 7143SOL    HW222329   1.810   3.155   6.020
 7144SOL     OW22330   0.899   0.876   3.013
 7144SOL    HW122331   0.902   0.800   3.078
 7144SOL    HW222332   0.827   0.940   3.039
 7145SOL     OW22333   4.056   6.447   6.092
 7145SOL    HW122334   4.133   6.449   6.029
 7145SOL    HW222335   4.026   6.353   6.105
 7146SOL     OW22336   1.961   0.069   0.583
 7146SOL    HW122337   1.921   0.041   0.495
 7146SOL    HW222338   2.052   0.108   0.567
 7147SOL     OW22339   6.153   0.166   3.899
 7147SOL    HW122340   6.193   0.080   3.866
 7147SOL    HW222341   6.195   0.243   3.850
 7148SOL     OW22342   0.888   5.857   1.478
 7148SOL    HW122343   0.864   5.948   1.511
 7148SOL    HW222344   0.878   5.854   1.378
 7149SOL     OW22345   6.615   0.314   3.561
 7149SOL    HW122346   6.694   0.258   3.586
 7149SOL    HW222347   6.576   0.280   3.475
 7150SOL     OW22348   4.886   3.122   1.519
 7150SOL    HW122349   4.794   3.104   1.553
 7150SOL    HW222350   4.935   3.180   1.584
 7151SOL     OW22351   1.623   5.280   0.961
 7151SOL    HW122352   1.604   5.312   0.868
 7151SOL    HW222353   1.693   5.338   1.003
 7152SOL     OW22354   0.319   3.250   5.811
 7152SOL    HW122355   0.372   3.202   5.881
 7152SOL    HW222356   0.224   3.258   5.841
 7153SOL     OW22357   3.732   6.521   4.968
 7153SOL    HW122358   3.731   6.565   5.058
 7153SOL    HW222359   3.662   6.450   4.965
 7154SOL     OW22360   4.354   5.833   4.800
 7154SOL    HW122361   4.394   5.741   4.800
 7154SOL    HW222362   4.267   5.832   4.751
 7155SOL     OW22363   1.686   6.126   1.666
 7155SOL    HW122364   1.598   6.131   1.620
 7155SOL    HW222365   1.735   6.044   1.637
 7156SOL     OW22366   0.226   5.101   4.175
 7156SOL    HW122367   0.282   5.066   4.250
 7156SOL    HW222368   0.240   5.200   4.167
 7157SOL     OW22369   6.315   5.166   0.900
 7157SOL    HW122370   6.252   5.131   0.831
 7157SOL    HW222371   6.409   5.142   0.875
 7158SOL     OW22372   0.088   6.943   3.605
 7158SOL    HW122373   0.178   6.963   3.642
 7158SOL    HW222374   0.087   6.964   3.507
 7159SOL     OW22375   0.286   4.453   1.701
 7159SOL    HW122376   0.335   4.452   1.614
 7159SOL    HW222377   0.332   4.513   1.765
 7160SOL     OW22378   6.589   0.696   2.584
 7160SOL    HW122379   6.568   0.646   2.668
 7160SOL    HW222380   6.609   0.631   2.511
 7161SOL     OW22381   3.272   3.949   3.899
 7161SOL    HW122382   3.285   3.851   3.888
 7161SOL    HW222383   3.241   3.989   3.813
 7162SOL     OW22384   3.088   5.540   5.436
 7162SOL    HW122385   3.068   5.449   5.472
 7162SOL    HW222386   3.154   5.533   5.361
 7163SOL     OW22387   3.678   7.012   4.172
 7163SOL    HW122388   3.593   0.035   4.151
 7163SOL    HW222389   3.753   0.032   4.122
 7164SOL     OW22390   1.658   1.813   2.938
 7164SOL    HW122391   1.662   1.741   3.007
 7164SOL    HW222392   1.594   1.787   2.866
 7165SOL     OW22393   6.161   0.500   0.612
 7165SOL    HW122394   6.162   0.545   0.523
 7165SOL    HW222395   6.253   0.468   0.634
 7166SOL     OW22396   5.223   4.245   1.474
 7166SOL    HW122397   5.200   4.244   1.572
 7166SOL    HW222398   5.322   4.241   1.463
 7167SOL     OW22399   5.099   3.766   4.993
 7167SOL    HW122400   5.172   3.830   4.970
 7167SOL    HW222401   5.060   3.729   4.909
 7168SOL     OW22402   1.338   1.592   4.217
 7168SOL    HW122403   1.424   1.632   4.250
 7168SOL    HW222404   1.268   1.602   4.288
 7169SOL     OW22405   1.705   3.173   5.681
 7169SOL    HW122406   1.696   3.266   5.718
 7169SOL    HW222407   1.802   3.153   5.665
 7170SOL     OW22408   4.255   5.381   3.374
 7170SOL    HW122409   4.213   5.309   3.430
 7170SOL    HW222410   4.195   5.461   3.372
 7171SOL     OW22411   5.764   3.465   6.186
 7171SOL    HW122412   5.745   3.518   6.104
 7171SOL    HW222413   5.749   3.368   6.168
 7172SOL     OW22414   1.417   6.986   6.518
 7172SOL    HW122415   1.499   0.000   6.562
 7172SOL    HW222416   1.442   6.904   6.466
 7173SOL     OW22417   0.068   4.989   5.102
 7173SOL    HW122418   0.011   4.949   5.174
 7173SOL    HW222419   0.028   4.968   5.013
 7174SOL     OW22420   1.157   5.405   6.925
 7174SOL    HW122421   1.096   5.371   6.997
 7174SOL    HW222422   1.252   5.392   6.953
 7175SOL     OW22423   5.267   3.111   1.076
 7175SOL    HW122424   5.225   3.159   1.153
 7175SOL    HW222425   5.343   3.055   1.109
 7176SOL     OW22426   0.589   5.368   2.369
 7176SOL    HW122427   0.680   5.330   2.386
 7176SOL    HW222428   0.596   5.468   2.363
 7177SOL     OW22429   1.643   6.182   4.167
 7177SOL    HW122430   1.597   6.093   4.156
 7177SOL    HW222431   1.663   6.221   4.077
 7178SOL     OW22432   2.175   2.507   5.940
 7178SOL    HW122433   2.205   2.461   5.856
 7178SOL    HW222434   2.219   2.596   5.947
 7179SOL     OW22435   2.216   3.229   5.982
 7179SOL    HW122436   2.180   3.260   6.070
 7179SOL    HW222437   2.211   3.129   5.978
 7180SOL     OW22438   0.931   5.446   6.268
 7180SOL    HW122439   0.837   5.441   6.303
 7180SOL    HW222440   0.933   5.504   6.187
 7181SOL     OW22441   3.737   0.221   0.398
 7181SOL    HW122442   3.802   0.171   0.456
 7181SOL    HW222443   3.649   0.226   0.444
 7182SOL     OW22444   1.718   3.907   6.004
 7182SOL    HW122445   1.650   3.885   5.935
 7182SOL    HW222446   1.809   3.909   5.962
 7183SOL     OW22447   1.613   4.873   2.599
 7183SOL    HW122448   1.545   4.905   2.533
 7183SOL    HW222449   1.653   4.787   2.566
 7184SOL     OW22450   0.389   6.957   3.176
 7184SOL    HW122451   0.317   6.912   3.122
 7184SOL    HW222452   0.362   0.028   3.193
 7185SOL     OW22453   5.218   2.617   6.873
 7185SOL    HW122454   5.235   2.563   6.956
 7185SOL    HW222455   5.144   2.576   6.820
 7186SOL     OW22456   6.963   0.001   5.396
 7186SOL    HW122457   7.002   0.034   5.482
 7186SOL    HW222458   6.950   6.926   5.401
 7187SOL     OW22459   1.800   4.255   1.849
 7187SOL    HW122460   1.770   4.334   1.794
 7187SOL    HW222461   1.725   4.228   1.910
 7188SOL     OW22462   5.793   6.908   1.243
 7188SOL    HW122463   5.766   6.928   1.149
 7188SOL    HW222464   5.722   6.939   1.306
 7189SOL     OW22465   6.680   1.553   6.618
 7189SOL    HW122466   6.629   1.492   6.679
 7189SOL    HW222467   6.731   1.498   6.551
 7190SOL     OW22468   5.243   3.819   3.821
 7190SOL    HW122469   5.228   3.722   3.844
 7190SOL    HW222470   5.188   3.842   3.741
 7191SOL     OW22471   0.875   3.688   2.746
 7191SOL    HW122472   0.966   3.691   2.785
 7191SOL    HW222473   0.807   3.675   2.818
 7192SOL     OW22474   2.421   6.322   5.462
 7192SOL    HW122475   2.410   6.268   5.545
 7192SOL    HW222476   2.415   6.419   5.484
 7193SOL     OW22477   2.981   2.110   4.066
 7193SOL    HW122478   2.956   2.015   4.081
 7193SOL    HW222479   2.988   2.158   4.153
 7194SOL     OW22480   2.259   1.710   1.042
 7194SOL    HW122481   2.191   1.709   1.115
 7194SOL    HW222482   2.230   1.646   0.970
 7195SOL     OW22483   0.269   4.706   0.301
 7195SOL    HW122484   0.201   4.633   0.296
 7195SOL    HW222485   0.346   4.677   0.358
 7196SOL     OW22486   3.091   3.178   2.804
 7196SOL    HW122487   3.135   3.095   2.769
 7196SOL    HW222488   3.040   3.222   2.730
 7197SOL     OW22489   6.441   2.049   6.094
 7197SOL    HW122490   6.452   2.102   6.178
 7197SOL    HW222491   6.349   2.064   6.057
 7198SOL     OW22492   1.178   0.285   6.146
 7198SOL    HW122493   1.253   0.220   6.130
 7198SOL    HW222494   1.114   0.280   6.070
 7199SOL     OW22495   1.059   0.615   2.369
 7199SOL    HW122496   1.003   0.533   2.360
 7199SOL    HW222497   1.138   0.609   2.308
 7200SOL     OW22498   2.806   0.347   0.110
 7200SOL    HW122499   2.725   0.398   0.082
 7200SOL    HW222500   2.789   0.249   0.100
 7201SOL     OW22501   1.995   5.097   3.520
 7201SOL    HW122502   1.925   5.061   3.582
 7201SOL    HW222503   1.960   5.096   3.426
 7202SOL     OW22504   3.919   0.440   6.317
 7202SOL    HW122505   3.837   0.383   6.321
 7202SOL    HW222506   3.973   0.429   6.400
 7203SOL     OW22507   6.087   0.842   0.831
 7203SOL    HW122508   6.169   0.818   0.884
 7203SOL    HW222509   6.005   0.815   0.881
 7204SOL     OW22510   6.092   6.732   4.337
 7204SOL    HW122511   6.148   6.649   4.344
 7204SOL    HW222512   6.107   6.776   4.248
 7205SOL     OW22513   1.285   5.827   2.852
 7205SOL    HW122514   1.337   5.846   2.769
 7205SOL    HW222515   1.345   5.835   2.931
 7206SOL     OW22516   0.375   1.269   1.279
 7206SOL    HW122517   0.427   1.339   1.329
 7206SOL    HW222518   0.435   1.191   1.262
 7207SOL     OW22519   3.917   0.257   1.223
 7207SOL    HW122520   3.838   0.318   1.209
 7207SOL    HW222521   3.989   0.307   1.271
 7208SOL     OW22522   4.021   6.875   4.225
 7208SOL    HW122523   3.948   6.819   4.263
 7208SOL    HW222524   4.105   6.860   4.277
 7209SOL     OW22525   3.183   3.456   3.549
 7209SOL    HW122526   3.169   3.471   3.451
 7209SOL    HW222527   3.096   3.472   3.597
 7210SOL     OW22528   4.818   1.488   3.195
 7210SOL    HW122529   4.808   1.559   3.264
 7210SOL    HW222530   4.777   1.403   3.229
 7211SOL     OW22531   0.785   6.148   3.670
 7211SOL    HW122532   0.786   6.209   3.750
 7211SOL    HW222533   0.768   6.201   3.588
 7212SOL     OW22534   0.656   6.082   4.263
 7212SOL    HW122535   0.557   6.086   4.276
 7212SOL    HW222536   0.694   6.174   4.273
 7213SOL     OW22537   5.256   6.296   5.141
 7213SOL    HW122538   5.251   6.323   5.237
 7213SOL    HW222539   5.341   6.245   5.124
 7214SOL     OW22540   2.435   5.809   4.212
 7214SOL    HW122541   2.362   5.765   4.265
 7214SOL    HW222542   2.524   5.776   4.245
 7215SOL     OW22543   0.644   3.107   4.484
 7215SOL    HW122544   0.728   3.155   4.508
 7215SOL    HW222545   0.566   3.153   4.526
 7216SOL     OW22546   3.069   4.960   6.953
 7216SOL    HW122547   3.007   4.926   6.883
 7216SOL    HW222548   3.143   4.894   6.968
 7217SOL     OW22549   1.471   4.438   1.932
 7217SOL    HW122550   1.383   4.423   1.977
 7217SOL    HW222551   1.464   4.516   1.870
 7218SOL     OW22552   4.685   2.687   5.412
 7218SOL    HW122553   4.593   2.705   5.447
 7218SOL    HW222554   4.746   2.664   5.487
 7219SOL     OW22555   4.428   6.645   3.156
 7219SOL    HW122556   4.350   6.645   3.094
 7219SOL    HW222557   4.507   6.605   3.109
 7220SOL     OW22558   6.509   0.186   3.336
 7220SOL    HW122559   6.437   0.137   3.286
 7220SOL    HW222560   6.597   0.140   3.321
 7221SOL     OW22561   5.487   4.832   5.652
 7221SOL    HW122562   5.438   4.823   5.566
 7221SOL    HW222563   5.423   4.819   5.728
 7222SOL     OW22564   6.554   6.549   0.405
 7222SOL    HW122565   6.535   6.606   0.486
 7222SOL    HW222566   6.638   6.581   0.361
 7223SOL     OW22567   3.034   2.038   0.964
 7223SOL    HW122568   3.067   1.977   0.891
 7223SOL    HW222569   3.098   2.036   1.041
 7224SOL     OW22570   5.586   1.846   4.653
 7224SOL    HW122571   5.550   1.939   4.664
 7224SOL    HW222572   5.534   1.798   4.582
 7225SOL     OW22573   1.887   5.535   0.164
 7225SOL    HW122574   1.832   5.471   0.111
 7225SOL    HW222575   1.830   5.576   0.236
 7226SOL     OW22576   0.323   0.201   0.485
 7226SOL    HW122577   0.396   0.243   0.430
 7226SOL    HW222578   0.282   0.270   0.544
 7227SOL     OW22579   0.587   2.061   0.255
 7227SOL    HW122580   0.532   1.988   0.296
 7227SOL    HW222581   0.536   2.101   0.179
 7228SOL     OW22582   0.357   0.160   1.960
 7228SOL    HW122583   0.353   0.149   2.059
 7228SOL    HW222584   0.276   0.120   1.918
 7229SOL     OW22585   1.141   0.376   4.170
 7229SOL    HW122586   1.162   0.368   4.073
 7229SOL    HW222587   1.101   0.290   4.202
 7230SOL     OW22588   4.258   5.203   4.624
 7230SOL    HW122589   4.296   5.117   4.589
 7230SOL    HW222590   4.158   5.198   4.624
 7231SOL     OW22591   4.961   1.631   6.771
 7231SOL    HW122592   5.011   1.709   6.806
 7231SOL    HW222593   4.880   1.662   6.722
 7232SOL     OW22594   3.696   5.286   3.016
 7232SOL    HW122595   3.666   5.348   3.088
 7232SOL    HW222596   3.656   5.195   3.030
 7233SOL     OW22597   0.510   2.976   5.032
 7233SOL    HW122598   0.536   2.935   5.119
 7233SOL    HW222599   0.589   2.979   4.971
 7234SOL     OW22600   5.670   2.623   2.002
 7234SOL    HW122601   5.672   2.589   2.096
 7234SOL    HW222602   5.642   2.719   2.001
 7235SOL     OW22603   6.026   3.829   4.179
 7235SOL    HW122604   6.052   3.733   4.192
 7235SOL    HW222605   5.927   3.838   4.184
 7236SOL     OW22606   3.592   1.723   2.874
 7236SOL    HW122607   3.506   1.764   2.905
 7236SOL    HW222608   3.643   1.789   2.820
 7237SOL     OW22609   6.866   6.250   5.436
 7237SOL    HW122610   6.881   6.151   5.434
 7237SOL    HW222611   6.953   6.297   5.434
 7238SOL     OW22612   2.436   1.019   2.285
 7238SOL    HW122613   2.508   1.037   2.219
 7238SOL    HW222614   2.460   1.061   2.373
 7239SOL     OW22615   1.814   1.520   3.353
 7239SOL    HW122616   1.750   1.583   3.396
 7239SOL    HW222617   1.794   1.427   3.384
 7240SOL     OW22618   2.873   4.602   0.476
 7240SOL    HW122619   2.947   4.618   0.541
 7240SOL    HW222620   2.890   4.653   0.392
 7241SOL     OW22621   3.735   0.570   5.641
 7241SOL    HW122622   3.676   0.499   5.679
 7241SOL    HW222623   3.830   0.552   5.665
 7242SOL     OW22624   5.620   4.420   0.014
 7242SOL    HW122625   5.705   4.369   7.022
 7242SOL    HW222626   5.550   4.388   6.974
 7243SOL     OW22627   1.172   4.778   6.510
 7243SOL    HW122628   1.193   4.875   6.505
 7243SOL    HW222629   1.097   4.756   6.448
 7244SOL     OW22630   5.200   1.400   0.635
 7244SOL    HW122631   5.242   1.312   0.612
 7244SOL    HW222632   5.123   1.385   0.696
 7245SOL     OW22633   0.230   2.454   5.228
 7245SOL    HW122634   0.229   2.553   5.240
 7245SOL    HW222635   0.210   2.410   5.316
 7246SOL     OW22636   6.227   7.015   4.637
 7246SOL    HW122637   6.159   0.010   4.708
 7246SOL    HW222638   6.263   6.922   4.650
 7247SOL     OW22639   2.663   6.425   1.847
 7247SOL    HW122640   2.648   6.347   1.908
 7247SOL    HW222641   2.695   6.392   1.758
 7248SOL     OW22642   3.909   1.001   4.198
 7248SOL    HW122643   3.920   1.069   4.125
 7248SOL    HW222644   3.930   0.910   4.162
 7249SOL     OW22645   5.498   4.493   1.025
 7249SOL    HW122646   5.511   4.418   0.960
 7249SOL    HW222647   5.586   4.535   1.046
 7250SOL     OW22648   2.179   4.828   6.750
 7250SOL    HW122649   2.205   4.919   6.718
 7250SOL    HW222650   2.235   4.760   6.703
 7251SOL     OW22651   6.606   6.564   5.112
 7251SOL    HW122652   6.611   6.643   5.051
 7251SOL    HW222653   6.696   6.521   5.117
 7252SOL     OW22654   3.331   3.333   4.655
 7252SOL    HW122655   3.232   3.345   4.659
 7252SOL    HW222656   3.376   3.422   4.668
 7253SOL     OW22657   2.595   6.309   0.741
 7253SOL    HW122658   2.507   6.314   0.789
 7253SOL    HW222659   2.632   6.217   0.749
 7254SOL     OW22660   3.590   5.306   4.210
 7254SOL    HW122661   3.539   5.371   4.266
 7254SOL    HW222662   3.570   5.213   4.241
 7255SOL     OW22663   2.906   3.162   1.909
 7255SOL    HW122664   2.967   3.104   1.962
 7255SOL    HW222665   2.866   3.110   1.833
 7256SOL     OW22666   4.387   4.950   4.592
 7256SOL    HW122667   4.426   4.931   4.502
 7256SOL    HW222668   4.384   4.865   4.645
 7257SOL     OW22669   6.106   2.358   3.017
 7257SOL    HW122670   6.184   2.356   2.955
 7257SOL    HW222671   6.032   2.302   2.979
 7258SOL     OW22672   4.027   0.598   4.359
 7258SOL    HW122673   3.988   0.512   4.391
 7258SOL    HW222674   4.077   0.642   4.434
 7259SOL     OW22675   2.506   3.757   6.764
 7259SOL    HW122676   2.457   3.761   6.851
 7259SOL    HW222677   2.511   3.848   6.724
 7260SOL     OW22678   3.552   2.041   2.699
 7260SOL    HW122679   3.465   2.087   2.718
 7260SOL    HW222680   3.548   2.000   2.608
 7261SOL     OW22681   2.385   3.212   1.696
 7261SOL    HW122682   2.448   3.134   1.696
 7261SOL    HW222683   2.433   3.294   1.729
 7262SOL     OW22684   5.564   2.140   4.710
 7262SOL    HW122685   5.641   2.143   4.646
 7262SOL    HW222686   5.502   2.217   4.691
 7263SOL     OW22687   1.270   5.878   1.314
 7263SOL    HW122688   1.347   5.836   1.362
 7263SOL    HW222689   1.205   5.808   1.287
 7264SOL     OW22690   6.915   0.979   6.684
 7264SOL    HW122691   6.953   0.993   6.593
 7264SOL    HW222692   6.962   1.038   6.750
 7265SOL     OW22693   5.496   4.941   6.114
 7265SOL    HW122694   5.461   4.888   6.037
 7265SOL    HW222695   5.564   4.887   6.163
 7266SOL     OW22696   4.930   0.252   1.576
 7266SOL    HW122697   4.839   0.236   1.538
 7266SOL    HW222698   4.923   0.273   1.673
 7267SOL     OW22699   6.996   3.841   4.898
 7267SOL    HW122700   0.050   3.900   4.877
 7267SOL    HW222701   6.917   3.898   4.919
 7268SOL     OW22702   3.978   6.019   1.698
 7268SOL    HW122703   3.920   5.939   1.712
 7268SOL    HW222704   3.933   6.083   1.637
 7269SOL     OW22705   0.787   5.378   1.819
 7269SOL    HW122706   0.846   5.407   1.743
 7269SOL    HW222707   0.818   5.420   1.904
 7270SOL     OW22708   2.200   1.737   3.178
 7270SOL    HW122709   2.223   1.714   3.084
 7270SOL    HW222710   2.101   1.736   3.190
 7271SOL     OW22711   0.244   3.771   2.728
 7271SOL    HW122712   0.206   3.862   2.713
 7271SOL    HW222713   0.181   3.702   2.693
 7272SOL     OW22714   4.778   2.856   2.858
 7272SOL    HW122715   4.808   2.950   2.874
 7272SOL    HW222716   4.826   2.794   2.920
 7273SOL     OW22717   5.607   4.428   1.916
 7273SOL    HW122718   5.546   4.506   1.932
 7273SOL    HW222719   5.563   4.364   1.853
 7274SOL     OW22720   6.907   5.132   5.820
 7274SOL    HW122721   6.958   5.164   5.740
 7274SOL    HW222722   6.962   5.148   5.902
 7275SOL     OW22723   0.162   0.507   6.918
 7275SOL    HW122724   0.141   0.493   6.821
 7275SOL    HW222725   0.152   0.604   6.941
 7276SOL     OW22726   2.057   2.075   4.108
 7276SOL    HW122727   2.001   2.143   4.155
 7276SOL    HW222728   2.142   2.062   4.159
 7277SOL     OW22729   4.799   1.266   5.124
 7277SOL    HW122730   4.864   1.240   5.196
 7277SOL    HW222731   4.715   1.299   5.166
 7278SOL     OW22732   3.913   1.084   3.563
 7278SOL    HW122733   3.890   0.998   3.610
 7278SOL    HW222734   4.005   1.112   3.591
 7279SOL     OW22735   4.276   4.336   0.353
 7279SOL    HW122736   4.265   4.423   0.306
 7279SOL    HW222737   4.208   4.329   0.426
 7280SOL     OW22738   5.301   1.878   5.296
 7280SOL    HW122739   5.385   1.851   5.343
 7280SOL    HW222740   5.242   1.928   5.359
 7281SOL     OW22741   3.628   6.657   1.624
 7281SOL    HW122742   3.681   6.706   1.694
 7281SOL    HW222743   3.616   6.716   1.544
 7282SOL     OW22744   6.560   5.463   2.118
 7282SOL    HW122745   6.573   5.403   2.038
 7282SOL    HW222746   6.646   5.509   2.140
 7283SOL     OW22747   3.498   5.740   2.704
 7283SOL    HW122748   3.510   5.645   2.730
 7283SOL    HW222749   3.435   5.785   2.767
 7284SOL     OW22750   6.603   2.476   3.838
 7284SOL    HW122751   6.539   2.521   3.901
 7284SOL    HW222752   6.680   2.537   3.820
 7285SOL     OW22753   4.948   2.903   1.852
 7285SOL    HW122754   4.905   2.818   1.821
 7285SOL    HW222755   4.885   2.952   1.911
 7286SOL     OW22756   0.503   1.198   0.811
 7286SOL    HW122757   0.541   1.163   0.726
 7286SOL    HW222758   0.444   1.129   0.853
 7287SOL     OW22759   1.073   2.023   3.530
 7287SOL    HW122760   0.975   2.003   3.541
 7287SOL    HW222761   1.086   2.121   3.521
 7288SOL     OW22762   3.414   2.098   2.959
 7288SOL    HW122763   3.329   2.119   2.912
 7288SOL    HW222764   3.450   2.011   2.927
 7289SOL     OW22765   6.004   2.361   1.761
 7289SOL    HW122766   5.984   2.279   1.708
 7289SOL    HW222767   6.064   2.422   1.709
 7290SOL     OW22768   4.054   1.651   4.754
 7290SOL    HW122769   4.143   1.690   4.778
 7290SOL    HW222770   3.996   1.722   4.714
 7291SOL     OW22771   3.788   0.540   6.989
 7291SOL    HW122772   3.878   0.522   0.004
 7291SOL    HW222773   3.756   0.459   6.940
 7292SOL     OW22774   1.758   0.257   3.324
 7292SOL    HW122775   1.838   0.310   3.295
 7292SOL    HW222776   1.729   0.197   3.250
 7293SOL     OW22777   1.253   0.432   5.384
 7293SOL    HW122778   1.215   0.521   5.408
 7293SOL    HW222779   1.280   0.384   5.468
 7294SOL     OW22780   3.273   4.889   1.590
 7294SOL    HW122781   3.189   4.943   1.583
 7294SOL    HW222782   3.275   4.840   1.677
 7295SOL     OW22783   6.450   5.442   2.385
 7295SOL    HW122784   6.456   5.540   2.406
 7295SOL    HW222785   6.515   5.420   2.311
 7296SOL     OW22786   4.002   4.905   2.627
 7296SOL    HW122787   4.043   4.995   2.642
 7296SOL    HW222788   3.964   4.901   2.535
 7297SOL     OW22789   3.059   6.119   1.541
 7297SOL    HW122790   3.043   6.168   1.455
 7297SOL    HW222791   3.085   6.184   1.612
 7298SOL     OW22792   4.992   5.873   6.660
 7298SOL    HW122793   5.005   5.780   6.626
 7298SOL    HW222794   5.079   5.922   6.656
 7299SOL     OW22795   1.402   2.978   0.258
 7299SOL    HW122796   1.475   2.925   0.302
 7299SOL    HW222797   1.334   2.915   0.222
 7300SOL     OW22798   0.703   4.902   1.319
 7300SOL    HW122799   0.637   4.970   1.287
 7300SOL    HW222800   0.661   4.845   1.389
 7301SOL     OW22801   5.609   6.730   5.141
 7301SOL    HW122802   5.618   6.729   5.241
 7301SOL    HW222803   5.578   6.641   5.109
 7302SOL     OW22804   5.146   2.591   5.908
 7302SOL    HW122805   5.103   2.561   5.993
 7302SOL    HW222806   5.076   2.622   5.845
 7303SOL     OW22807   2.343   0.961   0.786
 7303SOL    HW122808   2.384   0.978   0.697
 7303SOL    HW222809   2.362   1.037   0.848
 7304SOL     OW22810   3.005   5.224   2.114
 7304SOL    HW122811   2.944   5.193   2.187
 7304SOL    HW222812   2.971   5.192   2.026
 7305SOL     OW22813   5.780   2.390   0.286
 7305SOL    HW122814   5.832   2.304   0.279
 7305SOL    HW222815   5.792   2.428   0.378
 7306SOL     OW22816   2.566   1.130   1.362
 7306SOL    HW122817   2.585   1.076   1.280
 7306SOL    HW222818   2.586   1.075   1.443
 7307SOL     OW22819   1.976   6.314   1.478
 7307SOL    HW122820   1.926   6.311   1.564
 7307SOL    HW222821   1.981   6.408   1.445
 7308SOL     OW22822   4.903   0.573   1.714
 7308SOL    HW122823   4.839   0.580   1.791
 7308SOL    HW222824   4.899   0.481   1.675
 7309SOL     OW22825   2.138   5.343   2.370
 7309SOL    HW122826   2.104   5.271   2.431
 7309SOL    HW222827   2.224   5.314   2.329
 7310SOL     OW22828   1.572   2.493   0.247
 7310SOL    HW122829   1.641   2.514   0.317
 7310SOL    HW222830   1.527   2.407   0.270
 7311SOL     OW22831   0.627   0.139   0.083
 7311SOL    HW122832   0.581   0.215   0.038
 7311SOL    HW222833   0.584   0.052   0.057
 7312SOL     OW22834   0.234   2.716   5.794
 7312SOL    HW122835   0.238   2.719   5.694
 7312SOL    HW222836   0.139   2.706   5.824
 7313SOL     OW22837   2.456   0.971   1.872
 7313SOL    HW122838   2.525   0.974   1.944
 7313SOL    HW222839   2.383   0.908   1.898
 7314SOL     OW22840   0.008   4.396   7.024
 7314SOL    HW122841   6.990   4.483   0.026
 7314SOL    HW222842   0.003   4.332   0.076
 7315SOL     OW22843   0.534   5.083   2.049
 7315SOL    HW122844   0.536   5.183   2.054
 7315SOL    HW222845   0.616   5.050   2.001
 7316SOL     OW22846   3.096   2.242   6.390
 7316SOL    HW122847   3.035   2.163   6.396
 7316SOL    HW222848   3.191   2.210   6.391
 7317SOL     OW22849   3.398   1.401   1.877
 7317SOL    HW122850   3.471   1.355   1.826
 7317SOL    HW222851   3.309   1.374   1.840
 7318SOL     OW22852   3.637   0.185   1.925
 7318SOL    HW122853   3.615   0.088   1.915
 7318SOL    HW222854   3.553   0.238   1.926
 7319SOL     OW22855   6.510   4.768   0.249
 7319SOL    HW122856   6.586   4.742   0.308
 7319SOL    HW222857   6.436   4.701   0.258
 7320SOL     OW22858   6.956   3.659   1.482
 7320SOL    HW122859   7.010   3.627   1.561
 7320SOL    HW222860   6.950   3.586   1.414
 7321SOL     OW22861   2.283   5.827   6.383
 7321SOL    HW122862   2.194   5.867   6.363
 7321SOL    HW222863   2.329   5.881   6.454
 7322SOL     OW22864   0.074   2.141   2.190
 7322SOL    HW122865   0.031   2.177   2.274
 7322SOL    HW222866   0.153   2.197   2.167
 7323SOL     OW22867   1.284   1.757   1.000
 7323SOL    HW122868   1.221   1.825   1.036
 7323SOL    HW222869   1.378   1.786   1.018
 7324SOL     OW22870   6.043   4.603   3.363
 7324SOL    HW122871   6.123   4.574   3.311
 7324SOL    HW222872   5.960   4.568   3.319
 7325SOL     OW22873   3.954   0.894   6.280
 7325SOL    HW122874   3.950   0.871   6.378
 7325SOL    HW222875   3.888   0.839   6.230
 7326SOL     OW22876   2.424   0.845   6.620
 7326SOL    HW122877   2.397   0.748   6.619
 7326SOL    HW222878   2.374   0.893   6.691
 7327SOL     OW22879   6.170   3.741   3.192
 7327SOL    HW122880   6.120   3.818   3.152
 7327SOL    HW222881   6.262   3.738   3.154
 7328SOL     OW22882   4.241   5.025   5.210
 7328SOL    HW122883   4.290   5.026   5.297
 7328SOL    HW222884   4.274   4.948   5.155
 7329SOL     OW22885   2.560   2.950   0.700
 7329SOL    HW122886   2.514   3.004   0.629
 7329SOL    HW222887   2.641   2.905   0.660
 7330SOL     OW22888   3.517   2.622   1.672
 7330SOL    HW122889   3.609   2.613   1.710
 7330SOL    HW222890   3.497   2.542   1.615
 7331SOL     OW22891   4.109   0.270   1.740
 7331SOL    HW122892   4.147   0.360   1.765
 7331SOL    HW222893   4.011   0.269   1.758
 7332SOL     OW22894   3.198   3.887   6.999
 7332SOL    HW122895   3.282   3.851   0.016
 7332SOL    HW222896   3.220   3.931   6.912
 7333SOL     OW22897   6.499   2.522   1.843
 7333SOL    HW122898   6.541   2.432   1.827
 7333SOL    HW222899   6.486   2.536   1.941
 7334SOL     OW22900   2.977   7.016   5.675
 7334SOL    HW122901   3.057   7.021   5.734
 7334SOL    HW222902   2.895   0.014   5.727
 7335SOL     OW22903   6.867   3.271   2.864
 7335SOL    HW122904   6.828   3.301   2.777
 7335SOL    HW222905   6.802   3.289   2.938
 7336SOL     OW22906   1.794   5.847   1.051
 7336SOL    HW122907   1.743   5.762   1.039
 7336SOL    HW222908   1.736   5.924   1.028
 7337SOL     OW22909   2.517   2.487   2.149
 7337SOL    HW122910   2.491   2.553   2.219
 7337SOL    HW222911   2.564   2.410   2.191
 7338SOL     OW22912   5.781   3.043   1.560
 7338SOL    HW122913   5.767   3.106   1.636
 7338SOL    HW222914   5.789   2.950   1.594
 7339SOL     OW22915   6.738   5.539   5.442
 7339SOL    HW122916   6.762   5.487   5.523
 7339SOL    HW222917   6.775   5.493   5.361
 7340SOL     OW22918   2.580   0.427   6.985
 7340SOL    HW122919   2.565   0.525   6.970
 7340SOL    HW222920   2.550   0.376   6.904
 7341SOL     OW22921   0.168   4.856   4.101
 7341SOL    HW122922   0.258   4.816   4.084
 7341SOL    HW222923   0.176   4.956   4.100
 7342SOL     OW22924   6.601   0.371   0.452
 7342SOL    HW122925   6.619   0.374   0.354
 7342SOL    HW222926   6.622   0.280   0.488
 7343SOL     OW22927   5.625   4.074   2.824
 7343SOL    HW122928   5.548   4.129   2.790
 7343SOL    HW222929   5.617   3.981   2.788
 7344SOL     OW22930   1.923   6.588   6.791
 7344SOL    HW122931   1.913   6.685   6.769
 7344SOL    HW222932   1.833   6.544   6.788
 7345SOL     OW22933   4.465   5.137   5.854
 7345SOL    HW122934   4.505   5.192   5.782
 7345SOL    HW222935   4.369   5.118   5.832
 7346SOL     OW22936   3.628   4.917   1.290
 7346SOL    HW122937   3.531   4.901   1.309
 7346SOL    HW222938   3.645   5.016   1.287
 7347SOL     OW22939   5.982   2.081   2.211
 7347SOL    HW122940   5.925   2.163   2.212
 7347SOL    HW222941   5.938   2.011   2.154
 7348SOL     OW22942   1.444   2.569   4.090
 7348SOL    HW122943   1.383   2.503   4.135
 7348SOL    HW222944   1.418   2.662   4.116
 7349SOL     OW22945   3.581   2.049   0.982
 7349SOL    HW122946   3.527   2.080   0.904
 7349SOL    HW222947   3.520   2.016   1.055
 7350SOL     OW22948   0.231   2.531   3.247
 7350SOL    HW122949   0.325   2.501   3.265
 7350SOL    HW222950   0.185   2.464   3.190
 7351SOL     OW22951   4.245   4.767   6.328
 7351SOL    HW122952   4.336   4.808   6.316
 7351SOL    HW222953   4.226   4.705   6.253
 7352SOL     OW22954   1.543   2.087   2.413
 7352SOL    HW122955   1.583   1.996   2.422
 7352SOL    HW222956   1.589   2.136   2.339
 7353SOL     OW22957   6.245   2.039   4.584
 7353SOL    HW122958   6.262   2.077   4.493
 7353SOL    HW222959   6.311   2.075   4.649
 7354SOL     OW22960   6.566   6.564   6.093
 7354SOL    HW122961   6.531   6.472   6.109
 7354SOL    HW222962   6.523   6.602   6.011
 7355SOL     OW22963   1.092   5.709   1.573
 7355SOL    HW122964   1.015   5.768   1.549
 7355SOL    HW222965   1.124   5.661   1.491
 7356SOL     OW22966   6.154   1.873   6.687
 7356SOL    HW122967   6.108   1.954   6.651
 7356SOL    HW222968   6.107   1.790   6.655
 7357SOL     OW22969   4.758   1.491   7.020
 7357SOL    HW122970   4.687   1.484   6.950
 7357SOL    HW222971   4.848   1.487   6.977
 7358SOL     OW22972   3.667   2.006   3.709
 7358SOL    HW122973   3.600   2.055   3.764
 7358SOL    HW222974   3.667   2.042   3.616
 7359SOL     OW22975   4.118   3.287   2.410
 7359SOL    HW122976   4.080   3.265   2.500
 7359SOL    HW222977   4.079   3.224   2.342
 7360SOL     OW22978   1.202   2.303   5.308
 7360SOL    HW122979   1.234   2.324   5.400
 7360SOL    HW222980   1.276   2.321   5.243
 7361SOL     OW22981   5.383   6.265   1.028
 7361SOL    HW122982   5.366   6.330   0.955
 7361SOL    HW222983   5.299   6.250   1.081
 7362SOL     OW22984   1.650   6.374   4.958
 7362SOL    HW122985   1.741   6.407   4.983
 7362SOL    HW222986   1.628   6.292   5.012
 7363SOL     OW22987   5.488   2.888   6.927
 7363SOL    HW122988   5.390   2.908   6.928
 7363SOL    HW222989   5.502   2.795   6.893
 7364SOL     OW22990   4.513   6.820   0.863
 7364SOL    HW122991   4.444   6.751   0.885
 7364SOL    HW222992   4.516   6.888   0.936
 7365SOL     OW22993   2.655   0.306   2.444
 7365SOL    HW122994   2.705   0.354   2.372
 7365SOL    HW222995   2.646   0.210   2.420
 7366SOL     OW22996   0.523   5.420   6.517
 7366SOL    HW122997   0.447   5.454   6.462
 7366SOL    HW222998   0.498   5.333   6.560
 7367SOL     OW22999   5.178   3.682   1.198
 7367SOL    HW123000   5.211   3.758   1.255
 7367SOL    HW223001   5.177   3.598   1.253
 7368SOL     OW23002   3.183   3.158   4.327
 7368SOL    HW123003   3.098   3.203   4.355
 7368SOL    HW223004   3.242   3.224   4.281
 7369SOL     OW23005   5.208   4.369   1.006
 7369SOL    HW123006   5.134   4.336   0.948
 7369SOL    HW223007   5.286   4.307   1.000
 7370SOL     OW23008   2.249   6.759   0.554
 7370SOL    HW123009   2.317   6.791   0.488
 7370SOL    HW223010   2.296   6.725   0.636
 7371SOL     OW23011   2.894   5.211   4.098
 7371SOL    HW123012   2.893   5.260   4.011
 7371SOL    HW223013   2.886   5.277   4.173
 7372SOL     OW23014   3.770   0.247   5.477
 7372SOL    HW123015   3.822   0.166   5.504
 7372SOL    HW223016   3.691   0.258   5.537
 7373SOL     OW23017   3.904   0.559   4.088
 7373SOL    HW123018   3.962   0.563   4.169
 7373SOL    HW223019   3.930   0.631   4.024
 7374SOL     OW23020   1.997   3.178   5.830
 7374SOL    HW123021   2.080   3.210   5.876
 7374SOL    HW223022   1.917   3.217   5.875
 7375SOL     OW23023   1.259   1.054   4.626
 7375SOL    HW123024   1.217   1.076   4.714
 7375SOL    HW223025   1.326   1.124   4.603
 7376SOL     OW23026   2.719   3.019   6.831
 7376SOL    HW123027   2.673   3.087   6.887
 7376SOL    HW223028   2.758   2.948   6.890
 7377SOL     OW23029   4.722   4.393   1.807
 7377SOL    HW123030   4.654   4.376   1.877
 7377SOL    HW223031   4.677   4.424   1.723
 7378SOL     OW23032   0.526   1.952   5.079
 7378SOL    HW123033   0.525   2.016   5.002
 7378SOL    HW223034   0.526   2.003   5.165
 7379SOL     OW23035   4.034   1.122   2.067
 7379SOL    HW123036   4.064   1.192   2.002
 7379SOL    HW223037   4.101   1.115   2.141
 7380SOL     OW23038   6.740   3.004   5.519
 7380SOL    HW123039   6.741   3.095   5.562
 7380SOL    HW223040   6.834   2.976   5.498
 7381SOL     OW23041   4.892   3.055   2.291
 7381SOL    HW123042   4.844   3.076   2.205
 7381SOL    HW223043   4.900   3.138   2.346
 7382SOL     OW23044   0.167   4.398   4.819
 7382SOL    HW123045   0.191   4.308   4.782
 7382SOL    HW223046   0.247   4.457   4.820
 7383SOL     OW23047   0.333   6.347   2.253
 7383SOL    HW123048   0.350   6.272   2.317
 7383SOL    HW223049   0.240   6.381   2.265
 7384SOL     OW23050   4.944   6.661   2.319
 7384SOL    HW123051   4.966   6.564   2.309
 7384SOL    HW223052   4.993   6.699   2.398
 7385SOL     OW23053   4.677   6.154   1.798
 7385SOL    HW123054   4.724   6.181   1.882
 7385SOL    HW223055   4.738   6.098   1.741
 7386SOL     OW23056   1.139   2.677   5.912
 7386SOL    HW123057   1.067   2.745   5.927
 7386SOL    HW223058   1.111   2.589   5.950
 7387SOL     OW23059   4.331   5.575   4.123
 7387SOL    HW123060   4.388   5.507   4.076
 7387SOL    HW223061   4.387   5.655   4.144
 7388SOL     OW23062   6.852   5.204   3.986
 7388SOL    HW123063   6.900   5.195   4.074
 7388SOL    HW223064   6.900   5.272   3.930
 7389SOL     OW23065   1.319   4.116   6.703
 7389SOL    HW123066   1.270   4.141   6.786
 7389SOL    HW223067   1.395   4.054   6.726
 7390SOL     OW23068   0.283   1.646   6.944
 7390SOL    HW123069   0.192   1.686   6.939
 7390SOL    HW223070   0.350   1.718   6.962
 7391SOL     OW23071   5.942   3.694   6.191
 7391SOL    HW123072   5.966   3.755   6.116
 7391SOL    HW223073   5.922   3.603   6.154
 7392SOL     OW23074   1.805   5.298   5.273
 7392SOL    HW123075   1.836   5.216   5.321
 7392SOL    HW223076   1.885   5.352   5.245
 7393SOL     OW23077   6.044   5.407   2.281
 7393SOL    HW123078   6.060   5.493   2.231
 7393SOL    HW223079   6.131   5.370   2.312
 7394SOL     OW23080   3.858   3.383   6.470
 7394SOL    HW123081   3.802   3.438   6.408
 7394SOL    HW223082   3.858   3.288   6.441
 7395SOL     OW23083   0.631   0.301   6.104
 7395SOL    HW123084   0.688   0.255   6.173
 7395SOL    HW223085   0.689   0.359   6.047
 7396SOL     OW23086   1.335   0.760   5.875
 7396SOL    HW123087   1.318   0.734   5.970
 7396SOL    HW223088   1.279   0.702   5.815
 7397SOL     OW23089   6.303   4.192   4.702
 7397SOL    HW123090   6.214   4.176   4.659
 7397SOL    HW223091   6.352   4.261   4.649
 7398SOL     OW23092   4.567   5.496   3.978
 7398SOL    HW123093   4.651   5.551   3.979
 7398SOL    HW223094   4.514   5.518   3.896
 7399SOL     OW23095   6.352   3.777   5.853
 7399SOL    HW123096   6.314   3.690   5.885
 7399SOL    HW223097   6.282   3.827   5.801
 7400SOL     OW23098   2.992   4.312   0.107
 7400SOL    HW123099   2.949   4.308   0.017
 7400SOL    HW223100   3.069   4.248   0.110
 7401SOL     OW23101   0.097   1.240   3.985
 7401SOL    HW123102   0.111   1.316   4.049
 7401SOL    HW223103   0.044   1.273   3.907
 7402SOL     OW23104   2.166   0.146   3.863
 7402SOL    HW123105   2.082   0.143   3.917
 7402SOL    HW223106   2.237   0.194   3.914
 7403SOL     OW23107   1.848   3.120   3.733
 7403SOL    HW123108   1.794   3.046   3.772
 7403SOL    HW223109   1.859   3.107   3.635
 7404SOL     OW23110   1.563   0.232   1.057
 7404SOL    HW123111   1.610   0.145   1.064
 7404SOL    HW223112   1.610   0.289   0.989
 7405SOL     OW23113   2.106   5.260   5.091
 7405SOL    HW123114   2.087   5.330   5.022
 7405SOL    HW223115   2.205   5.251   5.103
 7406SOL     OW23116   1.662   3.528   2.316
 7406SOL    HW123117   1.721   3.534   2.236
 7406SOL    HW223118   1.689   3.449   2.371
 7407SOL     OW23119   0.364   6.242   5.094
 7407SOL    HW123120   0.307   6.164   5.116
 7407SOL    HW223121   0.410   6.227   5.006
 7408SOL     OW23122   1.663   3.907   5.693
 7408SOL    HW123123   1.580   3.963   5.686
 7408SOL    HW223124   1.743   3.963   5.676
 7409SOL     OW23125   0.937   0.797   5.028
 7409SOL    HW123126   1.034   0.795   5.002
 7409SOL    HW223127   0.882   0.818   4.947
 7410SOL     OW23128   0.566   4.511   1.099
 7410SOL    HW123129   0.485   4.453   1.113
 7410SOL    HW223130   0.648   4.453   1.094
 7411SOL     OW23131   2.725   6.636   4.340
 7411SOL    HW123132   2.631   6.606   4.350
 7411SOL    HW223133   2.785   6.557   4.329
 7412SOL     OW23134   2.446   0.632   0.705
 7412SOL    HW123135   2.478   0.652   0.797
 7412SOL    HW223136   2.429   0.718   0.656
 7413SOL     OW23137   0.338   3.147   4.522
 7413SOL    HW123138   0.350   3.051   4.496
 7413SOL    HW223139   0.251   3.158   4.570
 7414SOL     OW23140   6.349   0.162   2.279
 7414SOL    HW123141   6.344   0.113   2.192
 7414SOL    HW223142   6.343   0.098   2.354
 7415SOL     OW23143   1.840   3.296   3.074
 7415SOL    HW123144   1.792   3.332   3.154
 7415SOL    HW223145   1.912   3.234   3.103
 7416SOL     OW23146   3.590   1.555   4.672
 7416SOL    HW123147   3.681   1.591   4.649
 7416SOL    HW223148   3.521   1.624   4.651
 7417SOL     OW23149   1.818   0.080   5.909
 7417SOL    HW123150   1.771   0.026   5.840
 7417SOL    HW223151   1.853   0.019   5.980
 7418SOL     OW23152   2.573   4.174   1.346
 7418SOL    HW123153   2.493   4.182   1.288
 7418SOL    HW223154   2.582   4.080   1.380
 7419SOL     OW23155   5.725   1.971   4.872
 7419SOL    HW123156   5.730   1.942   4.777
 7419SOL    HW223157   5.698   1.893   4.930
 7420SOL     OW23158   6.456   6.404   1.917
 7420SOL    HW123159   6.372   6.421   1.865
 7420SOL    HW223160   6.449   6.315   1.962
 7421SOL     OW23161   3.473   3.915   1.683
 7421SOL    HW123162   3.526   3.831   1.672
 7421SOL    HW223163   3.534   3.994   1.684
 7422SOL     OW23164   0.308   3.530   1.171
 7422SOL    HW123165   0.404   3.558   1.161
 7422SOL    HW223166   0.292   3.499   1.265
 7423SOL     OW23167   2.142   4.799   6.172
 7423SOL    HW123168   2.171   4.835   6.261
 7423SOL    HW223169   2.042   4.805   6.165
 7424SOL     OW23170   5.850   1.734   4.635
 7424SOL    HW123171   5.754   1.753   4.617
 7424SOL    HW223172   5.898   1.719   4.549
 7425SOL     OW23173   3.605   4.476   6.075
 7425SOL    HW123174   3.508   4.460   6.094
 7425SOL    HW223175   3.648   4.390   6.047
 7426SOL     OW23176   0.159   2.108   6.996
 7426SOL    HW123177   0.102   2.156   6.929
 7426SOL    HW223178   0.109   2.030   0.008
 7427SOL     OW23179   3.260   6.243   4.930
 7427SOL    HW123180   3.237   6.199   4.844
 7427SOL    HW223181   3.219   6.192   5.006
 7428SOL     OW23182   3.817   2.353   5.620
 7428SOL    HW123183   3.759   2.380   5.542
 7428SOL    HW223184   3.844   2.435   5.670
 7429SOL     OW23185   7.019   0.139   2.869
 7429SOL    HW123186   6.981   0.162   2.780
 7429SOL    HW223187   0.011   0.040   2.874
 7430SOL     OW23188   6.534   4.228   5.184
 7430SOL    HW123189   6.487   4.226   5.095
 7430SOL    HW223190   6.486   4.168   5.248
 7431SOL     OW23191   0.626   3.744   1.578
 7431SOL    HW123192   0.596   3.820   1.520
 7431SOL    HW223193   0.646   3.779   1.669
 7432SOL     OW23194   0.513   6.321   3.588
 7432SOL    HW123195   0.447   6.285   3.522
 7432SOL    HW223196   0.480   6.409   3.622
 7433SOL     OW23197   6.814   5.282   0.809
 7433SOL    HW123198   6.805   5.329   0.897
 7433SOL    HW223199   6.726   5.244   0.782
 7434SOL     OW23200   2.836   1.927   6.900
 7434SOL    HW123201   2.892   1.883   6.830
 7434SOL    HW223202   2.785   2.002   6.860
 7435SOL     OW23203   3.453   6.885   6.241
 7435SOL    HW123204   3.518   6.859   6.170
 7435SOL    HW223205   3.365   6.841   6.224
 7436SOL     OW23206   5.777   3.227   0.069
 7436SOL    HW123207   5.831   3.216   0.153
 7436SOL    HW223208   5.714   3.151   0.060
 7437SOL     OW23209   0.053   5.099   6.132
 7437SOL    HW123210   6.978   5.111   6.132
 7437SOL    HW223211   0.077   5.019   6.078
 7438SOL     OW23212   0.855   4.168   2.201
 7438SOL    HW123213   0.909   4.145   2.283
 7438SOL    HW223214   0.832   4.084   2.152
 7439SOL     OW23215   2.219   0.223   4.201
 7439SOL    HW123216   2.263   0.213   4.290
 7439SOL    HW223217   2.194   0.319   4.188
 7440SOL     OW23218   1.484   3.261   4.633
 7440SOL    HW123219   1.415   3.220   4.574
 7440SOL    HW223220   1.445   3.275   4.724
 7441SOL     OW23221   4.852   0.922   3.894
 7441SOL    HW123222   4.858   0.919   3.994
 7441SOL    HW223223   4.944   0.935   3.856
 7442SOL     OW23224   1.123   1.690   6.670
 7442SOL    HW123225   1.158   1.753   6.600
 7442SOL    HW223226   1.043   1.642   6.635
 7443SOL     OW23227   6.825   1.978   0.295
 7443SOL    HW123228   6.729   1.981   0.325
 7443SOL    HW223229   6.867   1.893   0.329
 7444SOL     OW23230   6.756   3.114   6.407
 7444SOL    HW123231   6.683   3.116   6.475
 7444SOL    HW223232   6.733   3.049   6.335
 7445SOL     OW23233   5.215   1.564   1.477
 7445SOL    HW123234   5.139   1.502   1.459
 7445SOL    HW223235   5.287   1.515   1.526
 7446SOL     OW23236   6.288   4.114   0.051
 7446SOL    HW123237   6.260   4.034   7.022
 7446SOL    HW223238   6.333   4.085   0.135
 7447SOL     OW23239   1.938   4.402   0.543
 7447SOL    HW123240   2.032   4.401   0.510
 7447SOL    HW223241   1.905   4.308   0.552
 7448SOL     OW23242   5.430   0.081   5.855
 7448SOL    HW123243   5.378   0.014   5.909
 7448SOL    HW223244   5.517   0.100   5.901
 7449SOL     OW23245   4.717   2.423   2.067
 7449SOL    HW123246   4.634   2.369   2.054
 7449SOL    HW223247   4.745   2.463   1.980
 7450SOL     OW23248   4.785   2.812   3.182
 7450SOL    HW123249   4.802   2.908   3.202
 7450SOL    HW223250   4.747   2.767   3.263
 7451SOL     OW23251   1.516   1.125   4.831
 7451SOL    HW123252   1.607   1.107   4.793
 7451SOL    HW223253   1.516   1.104   4.928
 7452SOL     OW23254   1.695   0.710   5.497
 7452SOL    HW123255   1.775   0.769   5.491
 7452SOL    HW223256   1.618   0.761   5.536
 7453SOL     OW23257   5.832   6.644   4.858
 7453SOL    HW123258   5.860   6.736   4.831
 7453SOL    HW223259   5.856   6.579   4.785
 7454SOL     OW23260   0.833   3.714   1.042
 7454SOL    HW123261   0.776   3.787   1.003
 7454SOL    HW223262   0.929   3.729   1.018
 7455SOL     OW23263   5.447   2.220   0.637
 7455SOL    HW123264   5.355   2.185   0.619
 7455SOL    HW223265   5.515   2.155   0.601
 7456SOL     OW23266   1.730   3.106   4.698
 7456SOL    HW123267   1.683   3.186   4.661
 7456SOL    HW223268   1.683   3.077   4.782
 7457SOL     OW23269   5.499   1.240   5.493
 7457SOL    HW123270   5.481   1.197   5.582
 7457SOL    HW223271   5.594   1.222   5.466
 7458SOL     OW23272   3.026   6.704   0.150
 7458SOL    HW123273   2.953   6.665   0.207
 7458SOL    HW223274   3.041   6.800   0.177
 7459SOL     OW23275   4.809   0.278   5.701
 7459SOL    HW123276   4.848   0.369   5.707
 7459SOL    HW223277   4.880   0.212   5.677
 7460SOL     OW23278   2.345   4.486   1.113
 7460SOL    HW123279   2.273   4.555   1.101
 7460SOL    HW223280   2.332   4.441   1.201
 7461SOL     OW23281   5.631   1.365   6.476
 7461SOL    HW123282   5.562   1.298   6.448
 7461SOL    HW223283   5.709   1.360   6.414
 7462SOL     OW23284   2.135   2.076   1.747
 7462SOL    HW123285   2.067   2.106   1.814
 7462SOL    HW223286   2.165   2.156   1.694
 7463SOL     OW23287   3.302   2.971   1.486
 7463SOL    HW123288   3.341   2.898   1.430
 7463SOL    HW223289   3.296   3.054   1.431
 7464SOL     OW23290   3.664   6.239   0.624
 7464SOL    HW123291   3.682   6.278   0.534
 7464SOL    HW223292   3.694   6.143   0.625
 7465SOL     OW23293   1.914   0.050   1.231
 7465SOL    HW123294   1.919   0.146   1.258
 7465SOL    HW223295   1.835   0.007   1.274
 7466SOL     OW23296   0.338   0.530   6.573
 7466SOL    HW123297   0.391   0.585   6.638
 7466SOL    HW223298   0.400   0.469   6.523
 7467SOL     OW23299   6.786   2.184   1.063
 7467SOL    HW123300   6.749   2.239   1.138
 7467SOL    HW223301   6.879   2.155   1.086
 7468SOL     OW23302   4.771   2.463   2.373
 7468SOL    HW123303   4.741   2.558   2.386
 7468SOL    HW223304   4.748   2.434   2.280
 7469SOL     OW23305   1.143   6.804   6.165
 7469SOL    HW123306   1.194   6.751   6.098
 7469SOL    HW223307   1.207   6.858   6.220
 7470SOL     OW23308   0.334   2.253   2.686
 7470SOL    HW123309   0.336   2.238   2.785
 7470SOL    HW223310   0.314   2.349   2.667
 7471SOL     OW23311   6.325   6.784   4.731
 7471SOL    HW123312   6.385   6.727   4.675
 7471SOL    HW223313   6.307   6.739   4.818
 7472SOL     OW23314   4.289   0.172   4.626
 7472SOL    HW123315   4.332   0.170   4.717
 7472SOL    HW223316   4.190   0.162   4.635
 7473SOL     OW23317   0.604   3.535   4.591
 7473SOL    HW123318   0.681   3.596   4.607
 7473SOL    HW223319   0.557   3.563   4.506
 7474SOL     OW23320   3.243   0.839   3.934
 7474SOL    HW123321   3.158   0.802   3.972
 7474SOL    HW223322   3.314   0.836   4.005
 7475SOL     OW23323   4.913   0.648   2.132
 7475SOL    HW123324   4.973   0.683   2.205
 7475SOL    HW223325   4.933   0.695   2.047
 7476SOL     OW23326   4.738   6.435   4.834
 7476SOL    HW123327   4.776   6.349   4.799
 7476SOL    HW223328   4.740   6.504   4.761
 7477SOL     OW23329   4.271   0.807   4.239
 7477SOL    HW123330   4.310   0.803   4.331
 7477SOL    HW223331   4.315   0.881   4.188
 7478SOL     OW23332   3.046   3.792   6.104
 7478SOL    HW123333   3.128   3.774   6.158
 7478SOL    HW223334   2.966   3.754   6.151
 7479SOL     OW23335   3.925   1.745   0.376
 7479SOL    HW123336   3.925   1.687   0.457
 7479SOL    HW223337   3.909   1.840   0.402
 7480SOL     OW23338   6.028   5.567   1.630
 7480SOL    HW123339   5.982   5.632   1.691
 7480SOL    HW223340   6.114   5.606   1.598
 7481SOL     OW23341   5.379   5.225   0.710
 7481SOL    HW123342   5.445   5.277   0.657
 7481SOL    HW223343   5.421   5.193   0.795
 7482SOL     OW23344   3.888   0.890   1.513
 7482SOL    HW123345   3.938   0.967   1.473
 7482SOL    HW223346   3.849   0.918   1.601
 7483SOL     OW23347   3.475   1.891   4.118
 7483SOL    HW123348   3.530   1.870   4.038
 7483SOL    HW223349   3.456   1.807   4.169
 7484SOL     OW23350   1.247   6.574   1.495
 7484SOL    HW123351   1.308   6.513   1.546
 7484SOL    HW223352   1.199   6.521   1.425
 7485SOL     OW23353   2.933   6.376   5.920
 7485SOL    HW123354   2.862   6.307   5.929
 7485SOL    HW223355   2.993   6.352   5.843
 7486SOL     OW23356   2.964   0.015   4.894
 7486SOL    HW123357   2.981   6.940   4.891
 7486SOL    HW223358   3.004   0.057   4.813
 7487SOL     OW23359   2.415   6.847   2.702
 7487SOL    HW123360   2.480   6.815   2.633
 7487SOL    HW223361   2.454   6.833   2.793
 7488SOL     OW23362   2.698   0.121   5.386
 7488SOL    HW123363   2.794   0.099   5.405
 7488SOL    HW223364   2.648   0.129   5.472
 7489SOL     OW23365   4.555   2.013   4.611
 7489SOL    HW123366   4.459   2.035   4.594
 7489SOL    HW223367   4.613   2.077   4.561
 7490SOL     OW23368   0.037   0.717   0.927
 7490SOL    HW123369   6.962   0.710   0.941
 7490SOL    HW223370   0.081   0.635   0.963
 7491SOL     OW23371   0.497   5.630   6.119
 7491SOL    HW123372   0.437   5.586   6.185
 7491SOL    HW223373   0.575   5.671   6.166
 7492SOL     OW23374   1.876   2.248   5.617
 7492SOL    HW123375   1.847   2.300   5.698
 7492SOL    HW223376   1.826   2.162   5.613
 7493SOL     OW23377   6.263   4.639   5.970
 7493SOL    HW123378   6.267   4.551   6.017
 7493SOL    HW223379   6.173   4.681   5.984
 7494SOL     OW23380   5.362   0.920   2.144
 7494SOL    HW123381   5.458   0.922   2.116
 7494SOL    HW223382   5.331   1.012   2.166
 7495SOL     OW23383   1.817   1.366   1.090
 7495SOL    HW123384   1.845   1.271   1.101
 7495SOL    HW223385   1.859   1.404   1.008
 7496SOL     OW23386   1.522   4.817   6.102
 7496SOL    HW123387   1.539   4.775   6.012
 7496SOL    HW223388   1.436   4.868   6.099
 7497SOL     OW23389   2.735   5.279   2.052
 7497SOL    HW123390   2.648   5.294   2.004
 7497SOL    HW223391   2.805   5.341   2.015
 7498SOL     OW23392   2.965   0.571   4.378
 7498SOL    HW123393   2.973   0.668   4.355
 7498SOL    HW223394   2.885   0.532   4.333
 7499SOL     OW23395   5.845   6.662   3.799
 7499SOL    HW123396   5.877   6.613   3.880
 7499SOL    HW223397   5.799   6.746   3.826
 7500SOL     OW23398   3.989   5.871   2.350
 7500SOL    HW123399   3.922   5.811   2.393
 7500SOL    HW223400   4.081   5.841   2.374
 7501SOL     OW23401   0.655   3.572   3.874
 7501SOL    HW123402   0.575   3.514   3.879
 7501SOL    HW223403   0.730   3.522   3.832
 7502SOL     OW23404   1.779   1.346   5.432
 7502SOL    HW123405   1.692   1.379   5.467
 7502SOL    HW223406   1.814   1.275   5.494
 7503SOL     OW23407   2.663   0.586   6.204
 7503SOL    HW123408   2.725   0.634   6.266
 7503SOL    HW223409   2.666   0.629   6.113
 7504SOL     OW23410   3.954   6.549   3.910
 7504SOL    HW123411   3.969   6.515   3.817
 7504SOL    HW223412   3.956   6.473   3.974
 7505SOL     OW23413   2.649   1.137   5.154
 7505SOL    HW123414   2.676   1.220   5.202
 7505SOL    HW223415   2.700   1.129   5.069
 7506SOL     OW23416   3.728   0.697   2.678
 7506SOL    HW123417   3.716   0.599   2.696
 7506SOL    HW223418   3.679   0.750   2.747
 7507SOL     OW23419   0.453   6.501   6.517
 7507SOL    HW123420   0.512   6.567   6.470
 7507SOL    HW223421   0.510   6.435   6.566
 7508SOL     OW23422   5.722   6.634   2.473
 7508SOL    HW123423   5.775   6.669   2.550
 7508SOL    HW223424   5.637   6.593   2.507
 7509SOL     OW23425   4.952   4.565   0.779
 7509SOL    HW123426   4.973   4.468   0.792
 7509SOL    HW223427   4.914   4.580   0.688
 7510SOL     OW23428   3.095   3.962   4.350
 7510SOL    HW123429   3.067   3.866   4.362
 7510SOL    HW223430   3.100   3.983   4.252
 7511SOL     OW23431   1.470   0.574   2.383
 7511SOL    HW123432   1.470   0.477   2.362
 7511SOL    HW223433   1.537   0.593   2.455
 7512SOL     OW23434   2.612   3.925   1.412
 7512SOL    HW123435   2.696   3.904   1.363
 7512SOL    HW223436   2.538   3.867   1.378
 7513SOL     OW23437   1.762   2.694   6.495
 7513SOL    HW123438   1.702   2.739   6.560
 7513SOL    HW223439   1.815   2.623   6.542
 7514SOL     OW23440   3.140   6.263   1.771
 7514SOL    HW123441   3.079   6.235   1.846
 7514SOL    HW223442   3.233   6.232   1.791
 7515SOL     OW23443   0.940   0.421   2.723
 7515SOL    HW123444   0.870   0.491   2.710
 7515SOL    HW223445   0.915   0.363   2.801
 7516SOL     OW23446   6.672   6.386   4.352
 7516SOL    HW123447   6.735   6.324   4.397
 7516SOL    HW223448   6.694   6.481   4.378
 7517SOL     OW23449   6.794   3.878   1.567
 7517SOL    HW123450   6.825   3.884   1.662
 7517SOL    HW223451   6.849   3.810   1.519
 7518SOL     OW23452   3.808   5.850   3.496
 7518SOL    HW123453   3.726   5.795   3.511
 7518SOL    HW223454   3.884   5.813   3.550
 7519SOL     OW23455   1.107   6.848   4.175
 7519SOL    HW123456   1.153   6.921   4.224
 7519SOL    HW223457   1.140   6.759   4.208
 7520SOL     OW23458   1.625   0.660   2.569
 7520SOL    HW123459   1.592   0.717   2.645
 7520SOL    HW223460   1.704   0.705   2.526
 7521SOL     OW23461   4.552   4.454   5.444
 7521SOL    HW123462   4.652   4.453   5.447
 7521SOL    HW223463   4.517   4.375   5.494
 7522SOL     OW23464   2.431   1.125   6.878
 7522SOL    HW123465   2.412   1.182   6.798
 7522SOL    HW223466   2.493   1.173   6.939
 7523SOL     OW23467   6.251   0.211   5.420
 7523SOL    HW123468   6.219   0.192   5.513
 7523SOL    HW223469   6.338   0.260   5.423
 7524SOL     OW23470   0.055   1.952   6.021
 7524SOL    HW123471   0.066   1.879   6.088
 7524SOL    HW223472   0.025   2.035   6.067
 7525SOL     OW23473   2.135   6.823   0.145
 7525SOL    HW123474   2.071   6.749   0.128
 7525SOL    HW223475   2.096   6.909   0.113
 7526SOL     OW23476   2.995   3.196   3.984
 7526SOL    HW123477   2.982   3.275   4.045
 7526SOL    HW223478   3.021   3.116   4.038
 7527SOL     OW23479   5.035   4.192   2.135
 7527SOL    HW123480   5.014   4.244   2.052
 7527SOL    HW223481   5.106   4.124   2.114
 7528SOL     OW23482   4.141   2.706   0.344
 7528SOL    HW123483   4.101   2.774   0.282
 7528SOL    HW223484   4.070   2.644   0.375
 7529SOL     OW23485   4.936   1.158   3.648
 7529SOL    HW123486   4.947   1.069   3.604
 7529SOL    HW223487   4.842   1.190   3.635
 7530SOL     OW23488   6.962   3.584   2.408
 7530SOL    HW123489   0.026   3.537   2.415
 7530SOL    HW223490   6.888   3.516   2.407
 7531SOL     OW23491   4.173   1.927   4.069
 7531SOL    HW123492   4.074   1.912   4.060
 7531SOL    HW223493   4.191   2.025   4.075
 7532SOL     OW23494   5.285   5.306   1.826
 7532SOL    HW123495   5.258   5.324   1.731
 7532SOL    HW223496   5.249   5.378   1.885
 7533SOL     OW23497   1.943   1.626   3.122
 7533SOL    HW123498   1.900   1.617   3.032
 7533SOL    HW223499   1.872   1.639   3.192
 7534SOL     OW23500   4.047   6.201   5.100
 7534SOL    HW123501   3.974   6.137   5.123
 7534SOL    HW223502   4.134   6.152   5.093
 7535SOL     OW23503   2.223   1.797   5.494
 7535SOL    HW123504   2.198   1.718   5.549
 7535SOL    HW223505   2.149   1.817   5.429
 7536SOL     OW23506   4.857   5.011   5.172
 7536SOL    HW123507   4.862   5.089   5.234
 7536SOL    HW223508   4.903   4.933   5.214
 7537SOL     OW23509   1.845   4.408   4.680
 7537SOL    HW123510   1.853   4.453   4.769
 7537SOL    HW223511   1.817   4.476   4.611
 7538SOL     OW23512   3.325   3.396   2.562
 7538SOL    HW123513   3.399   3.332   2.583
 7538SOL    HW223514   3.240   3.346   2.548
 7539SOL     OW23515   2.402   2.666   5.063
 7539SOL    HW123516   2.411   2.765   5.063
 7539SOL    HW223517   2.315   2.640   5.021
 7540SOL     OW23518   3.261   0.681   6.785
 7540SOL    HW123519   3.356   0.711   6.783
 7540SOL    HW223520   3.250   0.609   6.853
 7541SOL     OW23521   6.520   3.262   5.506
 7541SOL    HW123522   6.571   3.318   5.441
 7541SOL    HW223523   6.510   3.169   5.469
 7542SOL     OW23524   1.161   6.891   5.786
 7542SOL    HW123525   1.089   6.864   5.722
 7542SOL    HW223526   1.121   6.939   5.863
 7543SOL     OW23527   4.100   2.312   0.496
 7543SOL    HW123528   4.023   2.373   0.516
 7543SOL    HW223529   4.173   2.364   0.453
 7544SOL     OW23530   0.120   2.564   2.842
 7544SOL    HW123531   0.127   2.505   2.922
 7544SOL    HW223532   0.070   2.647   2.866
 7545SOL     OW23533   4.504   6.676   2.785
 7545SOL    HW123534   4.517   6.602   2.719
 7545SOL    HW223535   4.441   6.744   2.746
 7546SOL     OW23536   4.660   0.915   6.847
 7546SOL    HW123537   4.656   1.009   6.880
 7546SOL    HW223538   4.574   0.868   6.867
 7547SOL     OW23539   4.068   0.277   0.506
 7547SOL    HW123540   4.078   0.220   0.424
 7547SOL    HW223541   3.979   0.324   0.503
 7548SOL     OW23542   1.870   1.526   0.841
 7548SOL    HW123543   1.941   1.589   0.872
 7548SOL    HW223544   1.860   1.534   0.741
 7549SOL     OW23545   5.766   1.679   2.261
 7549SOL    HW123546   5.684   1.701   2.314
 7549SOL    HW223547   5.744   1.609   2.193
 7550SOL     OW23548   2.030   5.957   2.407
 7550SOL    HW123549   2.098   5.884   2.414
 7550SOL    HW223550   1.979   5.963   2.493
 7551SOL     OW23551   4.505   3.602   0.126
 7551SOL    HW123552   4.527   3.692   0.088
 7551SOL    HW223553   4.577   3.575   0.190
 7552SOL     OW23554   3.004   5.933   3.908
 7552SOL    HW123555   3.065   6.009   3.884
 7552SOL    HW223556   3.057   5.848   3.914
 7553SOL     OW23557   3.980   4.657   5.716
 7553SOL    HW123558   3.881   4.644   5.710
 7553SOL    HW223559   4.000   4.748   5.751
 7554SOL     OW23560   4.520   2.425   0.548
 7554SOL    HW123561   4.493   2.406   0.642
 7554SOL    HW223562   4.440   2.452   0.494
 7555SOL     OW23563   0.802   5.654   5.323
 7555SOL    HW123564   0.727   5.697   5.372
 7555SOL    HW223565   0.765   5.600   5.247
 7556SOL     OW23566   0.864   3.219   5.426
 7556SOL    HW123567   0.896   3.176   5.342
 7556SOL    HW223568   0.873   3.318   5.418
 7557SOL     OW23569   5.324   3.974   6.226
 7557SOL    HW123570   5.410   3.963   6.177
 7557SOL    HW223571   5.257   3.908   6.190
 7558SOL     OW23572   2.316   2.350   4.058
 7558SOL    HW123573   2.366   2.436   4.049
 7558SOL    HW223574   2.218   2.365   4.041
 7559SOL     OW23575   6.250   5.383   1.070
 7559SOL    HW123576   6.157   5.413   1.045
 7559SOL    HW223577   6.274   5.302   1.017
 7560SOL     OW23578   4.820   6.859   0.114
 7560SOL    HW123579   4.841   6.852   0.017
 7560SOL    HW223580   4.830   6.769   0.157
 7561SOL     OW23581   0.724   3.914   0.681
 7561SOL    HW123582   0.713   3.925   0.582
 7561SOL    HW223583   0.795   3.976   0.714
 7562SOL     OW23584   6.115   5.905   4.535
 7562SOL    HW123585   6.111   5.926   4.437
 7562SOL    HW223586   6.057   5.970   4.585
 7563SOL     OW23587   2.871   0.396   1.600
 7563SOL    HW123588   2.945   0.451   1.561
 7563SOL    HW223589   2.885   0.299   1.576
 7564SOL     OW23590   5.237   0.705   2.884
 7564SOL    HW123591   5.262   0.610   2.904
 7564SOL    HW223592   5.190   0.709   2.796
 7565SOL     OW23593   4.574   4.706   6.537
 7565SOL    HW123594   4.639   4.655   6.481
 7565SOL    HW223595   4.481   4.674   6.516
 7566SOL     OW23596   0.823   4.945   3.815
 7566SOL    HW123597   0.897   5.007   3.842
 7566SOL    HW223598   0.863   4.858   3.786
 7567SOL     OW23599   2.249   3.766   5.901
 7567SOL    HW123600   2.156   3.751   5.868
 7567SOL    HW223601   2.297   3.829   5.839
 7568SOL     OW23602   5.616   5.521   4.268
 7568SOL    HW123603   5.578   5.464   4.341
 7568SOL    HW223604   5.586   5.486   4.179
 7569SOL     OW23605   4.122   6.243   6.475
 7569SOL    HW123606   4.127   6.343   6.479
 7569SOL    HW223607   4.179   6.210   6.400
 7570SOL     OW23608   5.396   4.384   5.016
 7570SOL    HW123609   5.301   4.362   5.038
 7570SOL    HW223610   5.414   4.481   5.037
 7571SOL     OW23611   5.196   3.928   2.208
 7571SOL    HW123612   5.116   3.869   2.209
 7571SOL    HW223613   5.279   3.873   2.218
 7572SOL     OW23614   4.885   0.414   4.151
 7572SOL    HW123615   4.956   0.389   4.085
 7572SOL    HW223616   4.885   0.348   4.226
 7573SOL     OW23617   6.406   6.064   4.372
 7573SOL    HW123618   6.330   6.004   4.398
 7573SOL    HW223619   6.416   6.137   4.441
 7574SOL     OW23620   5.708   1.586   3.963
 7574SOL    HW123621   5.792   1.604   4.015
 7574SOL    HW223622   5.707   1.644   3.882
 7575SOL     OW23623   4.359   0.875   5.943
 7575SOL    HW123624   4.274   0.891   5.893
 7575SOL    HW223625   4.338   0.856   6.039
 7576SOL     OW23626   5.617   5.162   0.213
 7576SOL    HW123627   5.667   5.133   0.294
 7576SOL    HW223628   5.674   5.147   0.132
 7577SOL     OW23629   6.434   0.169   4.736
 7577SOL    HW123630   6.486   0.224   4.671
 7577SOL    HW223631   6.357   0.125   4.688
 7578SOL     OW23632   1.873   6.563   3.881
 7578SOL    HW123633   1.839   6.646   3.925
 7578SOL    HW223634   1.891   6.581   3.784
 7579SOL     OW23635   4.333   2.381   2.287
 7579SOL    HW123636   4.258   2.336   2.336
 7579SOL    HW223637   4.312   2.478   2.276
 7580SOL     OW23638   1.078   3.822   3.259
 7580SOL    HW123639   0.986   3.787   3.277
 7580SOL    HW223640   1.144   3.771   3.313
 7581SOL     OW23641   4.633   1.868   0.476
 7581SOL    HW123642   4.626   1.963   0.444
 7581SOL    HW223643   4.663   1.868   0.572
 7582SOL     OW23644   3.724   1.767   0.640
 7582SOL    HW123645   3.652   1.714   0.596
 7582SOL    HW223646   3.808   1.713   0.645
 7583SOL     OW23647   6.093   3.791   1.865
 7583SOL    HW123648   6.109   3.848   1.946
 7583SOL    HW223649   6.179   3.779   1.815
 7584SOL     OW23650   2.569   6.598   0.937
 7584SOL    HW123651   2.509   6.523   0.966
 7584SOL    HW223652   2.664   6.568   0.940
 7585SOL     OW23653   1.049   4.174   5.942
 7585SOL    HW123654   1.091   4.106   5.882
 7585SOL    HW223655   0.950   4.168   5.935
 7586SOL     OW23656   2.402   0.435   2.483
 7586SOL    HW123657   2.392   0.413   2.386
 7586SOL    HW223658   2.482   0.387   2.520
 7587SOL     OW23659   2.244   1.773   6.963
 7587SOL    HW123660   2.313   1.705   6.937
 7587SOL    HW223661   2.220   1.828   6.883
 7588SOL     OW23662   0.588   4.628   2.115
 7588SOL    HW123663   0.542   4.589   2.195
 7588SOL    HW223664   0.676   4.668   2.144
 7589SOL     OW23665   5.999   5.797   0.579
 7589SOL    HW123666   6.088   5.777   0.620
 7589SOL    HW223667   5.994   5.894   0.554
 7590SOL     OW23668   2.617   1.385   5.559
 7590SOL    HW123669   2.674   1.328   5.618
 7590SOL    HW223670   2.553   1.437   5.615
 7591SOL     OW23671   0.365   5.274   0.175
 7591SOL    HW123672   0.385   5.234   0.086
 7591SOL    HW223673   0.266   5.288   0.185
 7592SOL     OW23674   0.114   4.935   6.957
 7592SOL    HW123675   0.151   4.998   6.889
 7592SOL    HW223676   0.179   4.861   6.973
 7593SOL     OW23677   5.914   2.686   6.961
 7593SOL    HW123678   5.931   2.784   6.973
 7593SOL    HW223679   5.901   2.665   6.865
 7594SOL     OW23680   0.892   4.950   2.632
 7594SOL    HW123681   0.837   4.923   2.553
 7594SOL    HW223682   0.877   4.885   2.706
 7595SOL     OW23683   0.079   2.870   6.550
 7595SOL    HW123684   0.162   2.816   6.535
 7595SOL    HW223685   0.066   2.933   6.473
 7596SOL     OW23686   5.207   5.098   2.663
 7596SOL    HW123687   5.233   5.167   2.595
 7596SOL    HW223688   5.114   5.117   2.695
 7597SOL     OW23689   3.283   5.963   1.762
 7597SOL    HW123690   3.370   6.010   1.755
 7597SOL    HW223691   3.254   5.933   1.671
 7598SOL     OW23692   6.186   0.749   3.019
 7598SOL    HW123693   6.105   0.728   2.963
 7598SOL    HW223694   6.257   0.681   3.000
 7599SOL     OW23695   5.363   1.179   3.474
 7599SOL    HW123696   5.290   1.241   3.442
 7599SOL    HW223697   5.335   1.085   3.459
 7600SOL     OW23698   1.141   1.065   2.252
 7600SOL    HW123699   1.192   1.139   2.209
 7600SOL    HW223700   1.179   0.977   2.223
 7601SOL     OW23701   1.698   5.500   3.698
 7601SOL    HW123702   1.690   5.569   3.625
 7601SOL    HW223703   1.789   5.459   3.695
 7602SOL     OW23704   2.155   4.233   4.600
 7602SOL    HW123705   2.068   4.280   4.593
 7602SOL    HW223706   2.187   4.208   4.508
 7603SOL     OW23707   1.403   6.478   6.485
 7603SOL    HW123708   1.429   6.407   6.551
 7603SOL    HW223709   1.391   6.438   6.395
 7604SOL     OW23710   3.206   6.132   3.905
 7604SOL    HW123711   3.155   6.217   3.894
 7604SOL    HW223712   3.303   6.152   3.920
 7605SOL     OW23713   1.445   5.787   0.083
 7605SOL    HW123714   1.381   5.862   0.101
 7605SOL    HW223715   1.531   5.824   0.049
 7606SOL     OW23716   0.097   2.963   2.113
 7606SOL    HW123717   0.158   3.005   2.181
 7606SOL    HW223718   0.061   2.878   2.150
 7607SOL     OW23719   4.215   0.421   6.861
 7607SOL    HW123720   4.235   0.324   6.871
 7607SOL    HW223721   4.250   0.453   6.773
 7608SOL     OW23722   3.589   4.124   3.760
 7608SOL    HW123723   3.687   4.137   3.778
 7608SOL    HW223724   3.546   4.079   3.838
 7609SOL     OW23725   6.939   3.433   3.429
 7609SOL    HW123726   6.983   3.380   3.501
 7609SOL    HW223727   6.966   3.529   3.438
 7610SOL     OW23728   6.396   0.642   0.915
 7610SOL    HW123729   6.382   0.667   0.820
 7610SOL    HW223730   6.374   0.720   0.974
 7611SOL     OW23731   0.944   1.986   0.378
 7611SOL    HW123732   0.887   1.907   0.352
 7611SOL    HW223733   0.971   2.036   0.296
 7612SOL     OW23734   3.787   1.922   4.158
 7612SOL    HW123735   3.788   1.917   4.058
 7612SOL    HW223736   3.865   1.976   4.189
 7613SOL     OW23737   4.673   2.115   1.662
 7613SOL    HW123738   4.581   2.085   1.638
 7613SOL    HW223739   4.673   2.215   1.672
 7614SOL     OW23740   4.019   2.462   1.687
 7614SOL    HW123741   4.094   2.518   1.723
 7614SOL    HW223742   3.999   2.388   1.751
 7615SOL     OW23743   5.223   4.814   6.699
 7615SOL    HW123744   5.157   4.746   6.731
 7615SOL    HW223745   5.257   4.788   6.609
 7616SOL     OW23746   1.028   4.293   4.382
 7616SOL    HW123747   0.995   4.341   4.463
 7616SOL    HW223748   1.066   4.204   4.409
 7617SOL     OW23749   2.918   5.584   3.880
 7617SOL    HW123750   2.896   5.487   3.868
 7617SOL    HW223751   2.874   5.618   3.963
 7618SOL     OW23752   1.129   2.367   6.325
 7618SOL    HW123753   1.173   2.418   6.399
 7618SOL    HW223754   1.031   2.389   6.324
 7619SOL     OW23755   5.624   3.234   5.526
 7619SOL    HW123756   5.556   3.305   5.509
 7619SOL    HW223757   5.658   3.241   5.620
 7620SOL     OW23758   3.819   6.781   0.946
 7620SOL    HW123759   3.854   6.706   0.890
 7620SOL    HW223760   3.886   6.803   1.017
 7621SOL     OW23761   0.918   1.067   0.397
 7621SOL    HW123762   0.957   1.061   0.488
 7621SOL    HW223763   0.851   0.994   0.384
 7622SOL     OW23764   5.609   2.894   1.910
 7622SOL    HW123765   5.549   2.972   1.929
 7622SOL    HW223766   5.705   2.924   1.912
 7623SOL     OW23767   4.831   5.052   6.414
 7623SOL    HW123768   4.762   5.063   6.485
 7623SOL    HW223769   4.862   4.957   6.411
 7624SOL     OW23770   0.376   2.206   4.158
 7624SOL    HW123771   0.358   2.179   4.253
 7624SOL    HW223772   0.458   2.159   4.125
 7625SOL     OW23773   5.157   0.858   0.610
 7625SOL    HW123774   5.117   0.923   0.545
 7625SOL    HW223775   5.231   0.903   0.660
 7626SOL     OW23776   0.417   6.690   5.188
 7626SOL    HW123777   0.404   6.789   5.194
 7626SOL    HW223778   0.500   6.670   5.136
 7627SOL     OW23779   6.162   3.234   0.425
 7627SOL    HW123780   6.180   3.214   0.521
 7627SOL    HW223781   6.069   3.271   0.415
 7628SOL     OW23782   3.161   0.980   1.224
 7628SOL    HW123783   3.158   0.984   1.323
 7628SOL    HW223784   3.174   1.072   1.187
 7629SOL     OW23785   6.070   6.528   2.473
 7629SOL    HW123786   6.163   6.541   2.509
 7629SOL    HW223787   6.007   6.590   2.520
 7630SOL     OW23788   5.810   6.497   2.249
 7630SOL    HW123789   5.897   6.537   2.222
 7630SOL    HW223790   5.775   6.545   2.330
 7631SOL     OW23791   1.210   1.997   5.634
 7631SOL    HW123792   1.218   1.900   5.655
 7631SOL    HW223793   1.117   2.017   5.603
 7632SOL     OW23794   3.818   2.187   0.999
 7632SOL    HW123795   3.749   2.127   0.959
 7632SOL    HW223796   3.891   2.132   1.039
 7633SOL     OW23797   5.496   2.642   0.201
 7633SOL    HW123798   5.569   2.596   0.150
 7633SOL    HW223799   5.499   2.614   0.297
 7634SOL     OW23800   0.651   1.452   2.357
 7634SOL    HW123801   0.743   1.481   2.331
 7634SOL    HW223802   0.608   1.524   2.412
 7635SOL     OW23803   2.381   5.269   5.193
 7635SOL    HW123804   2.443   5.257   5.115
 7635SOL    HW223805   2.369   5.181   5.239
 7636SOL     OW23806   1.122   1.456   3.999
 7636SOL    HW123807   1.103   1.458   3.901
 7636SOL    HW223808   1.129   1.550   4.033
 7637SOL     OW23809   2.120   6.540   3.169
 7637SOL    HW123810   2.096   6.585   3.083
 7637SOL    HW223811   2.044   6.483   3.200
 7638SOL     OW23812   5.524   5.050   1.717
 7638SOL    HW123813   5.615   5.034   1.755
 7638SOL    HW223814   5.463   5.082   1.789
 7639SOL     OW23815   1.432   2.139   6.637
 7639SOL    HW123816   1.530   2.121   6.648
 7639SOL    HW223817   1.393   2.070   6.575
 7640SOL     OW23818   2.525   1.954   6.953
 7640SOL    HW123819   2.608   1.969   7.006
 7640SOL    HW223820   2.484   2.042   6.929
 7641SOL     OW23821   0.919   4.573   1.789
 7641SOL    HW123822   0.955   4.485   1.820
 7641SOL    HW223823   0.881   4.563   1.697
 7642SOL     OW23824   2.389   1.923   3.060
 7642SOL    HW123825   2.489   1.920   3.063
 7642SOL    HW223826   2.352   1.879   3.141
 7643SOL     OW23827   5.032   2.391   3.478
 7643SOL    HW123828   4.958   2.403   3.544
 7643SOL    HW223829   5.012   2.446   3.396
 7644SOL     OW23830   6.545   2.478   2.483
 7644SOL    HW123831   6.634   2.497   2.526
 7644SOL    HW223832   6.487   2.558   2.490
 7645SOL     OW23833   5.201   5.135   6.010
 7645SOL    HW123834   5.110   5.174   6.028
 7645SOL    HW223835   5.271   5.198   6.045
 7646SOL     OW23836   1.960   2.153   2.296
 7646SOL    HW123837   2.019   2.122   2.371
 7646SOL    HW223838   1.929   2.074   2.244
 7647SOL     OW23839   0.945   3.337   1.247
 7647SOL    HW123840   0.888   3.293   1.178
 7647SOL    HW223841   0.923   3.435   1.250
 7648SOL     OW23842   4.231   2.325   3.645
 7648SOL    HW123843   4.169   2.280   3.711
 7648SOL    HW223844   4.207   2.297   3.552
 7649SOL     OW23845   0.680   0.604   2.384
 7649SOL    HW123846   0.717   0.527   2.330
 7649SOL    HW223847   0.665   0.682   2.323
 7650SOL     OW23848   6.181   3.261   1.923
 7650SOL    HW123849   6.117   3.221   1.858
 7650SOL    HW223850   6.172   3.216   2.012
 7651SOL     OW23851   2.071   0.015   6.384
 7651SOL    HW123852   1.988   0.070   6.387
 7651SOL    HW223853   2.129   0.045   6.308
 7652SOL     OW23854   0.042   3.542   4.321
 7652SOL    HW123855   0.128   3.492   4.322
 7652SOL    HW223856   0.038   3.603   4.400
 7653SOL     OW23857   1.929   1.089   1.104
 7653SOL    HW123858   1.864   1.056   1.173
 7653SOL    HW223859   1.892   1.074   1.013
 7654SOL     OW23860   4.983   2.718   3.032
 7654SOL    HW123861   4.900   2.726   3.087
 7654SOL    HW223862   5.038   2.801   3.041
 7655SOL     OW23863   3.743   0.229   3.774
 7655SOL    HW123864   3.656   0.278   3.770
 7655SOL    HW223865   3.802   0.261   3.700
 7656SOL     OW23866   1.186   6.100   5.878
 7656SOL    HW123867   1.192   6.060   5.969
 7656SOL    HW223868   1.113   6.055   5.826
 7657SOL     OW23869   2.979   2.146   3.054
 7657SOL    HW123870   2.983   2.188   2.964
 7657SOL    HW223871   3.007   2.050   3.048
 7658SOL     OW23872   4.400   6.892   5.786
 7658SOL    HW123873   4.414   6.991   5.788
 7658SOL    HW223874   4.470   6.846   5.841
 7659SOL     OW23875   5.592   6.580   6.897
 7659SOL    HW123876   5.500   6.617   6.905
 7659SOL    HW223877   5.645   6.635   6.833
 7660SOL     OW23878   6.027   5.641   4.500
 7660SOL    HW123879   6.049   5.733   4.532
 7660SOL    HW223880   5.958   5.600   4.560
 7661SOL     OW23881   5.837   1.915   4.023
 7661SOL    HW123882   5.874   1.994   4.072
 7661SOL    HW223883   5.772   1.947   3.954
 7662SOL     OW23884   1.447   2.517   2.379
 7662SOL    HW123885   1.525   2.500   2.440
 7662SOL    HW223886   1.408   2.607   2.399
 7663SOL     OW23887   6.595   6.049   6.358
 7663SOL    HW123888   6.579   6.113   6.433
 7663SOL    HW223889   6.637   6.098   6.282
 7664SOL     OW23890   2.958   6.693   2.736
 7664SOL    HW123891   3.045   6.740   2.749
 7664SOL    HW223892   2.967   6.623   2.665
 7665SOL     OW23893   3.504   0.217   3.278
 7665SOL    HW123894   3.577   0.269   3.322
 7665SOL    HW223895   3.417   0.265   3.291
 7666SOL     OW23896   6.882   6.880   1.472
 7666SOL    HW123897   6.886   6.909   1.568
 7666SOL    HW223898   6.974   6.875   1.435
 7667SOL     OW23899   5.446   5.885   0.580
 7667SOL    HW123900   5.349   5.864   0.588
 7667SOL    HW223901   5.458   5.983   0.565
 7668SOL     OW23902   2.871   4.054   1.298
 7668SOL    HW123903   2.832   4.004   1.220
 7668SOL    HW223904   2.868   4.152   1.279
 7669SOL     OW23905   5.339   1.576   4.930
 7669SOL    HW123906   5.296   1.630   4.858
 7669SOL    HW223907   5.409   1.631   4.976
 7670SOL     OW23908   1.488   5.925   6.536
 7670SOL    HW123909   1.419   5.877   6.591
 7670SOL    HW223910   1.579   5.892   6.562
 7671SOL     OW23911   4.288   1.140   4.439
 7671SOL    HW123912   4.310   1.227   4.395
 7671SOL    HW223913   4.373   1.095   4.467
 7672SOL     OW23914   5.703   6.728   3.548
 7672SOL    HW123915   5.721   6.690   3.457
 7672SOL    HW223916   5.765   6.686   3.615
 7673SOL     OW23917   2.290   4.884   0.541
 7673SOL    HW123918   2.289   4.877   0.441
 7673SOL    HW223919   2.360   4.823   0.578
 7674SOL     OW23920   6.689   2.149   4.184
 7674SOL    HW123921   6.596   2.178   4.159
 7674SOL    HW223922   6.711   2.064   4.136
 7675SOL     OW23923   5.083   0.766   2.313
 7675SOL    HW123924   5.163   0.706   2.319
 7675SOL    HW223925   5.104   0.855   2.351
 7676SOL     OW23926   0.553   1.810   0.399
 7676SOL    HW123927   0.488   1.766   0.460
 7676SOL    HW223928   0.637   1.831   0.449
 7677SOL     OW23929   1.674   3.165   1.902
 7677SOL    HW123930   1.589   3.194   1.859
 7677SOL    HW223931   1.692   3.069   1.878
 7678SOL     OW23932   1.334   1.218   6.278
 7678SOL    HW123933   1.370   1.130   6.308
 7678SOL    HW223934   1.409   1.277   6.250
 7679SOL     OW23935   1.391   6.094   4.830
 7679SOL    HW123936   1.439   6.179   4.807
 7679SOL    HW223937   1.343   6.105   4.917
 7680SOL     OW23938   2.034   3.078   0.005
 7680SOL    HW123939   2.095   3.094   0.083
 7680SOL    HW223940   2.066   3.000   6.976
 7681SOL     OW23941   3.318   0.441   0.372
 7681SOL    HW123942   3.380   0.520   0.365
 7681SOL    HW223943   3.360   0.362   0.327
 7682SOL     OW23944   2.307   0.064   1.535
 7682SOL    HW123945   2.266   0.026   1.452
 7682SOL    HW223946   2.375   0.133   1.510
 7683SOL     OW23947   6.698   2.243   3.586
 7683SOL    HW123948   6.661   2.334   3.601
 7683SOL    HW223949   6.759   2.244   3.507
 7684SOL     OW23950   5.743   2.240   6.876
 7684SOL    HW123951   5.711   2.156   6.832
 7684SOL    HW223952   5.710   2.242   6.971
 7685SOL     OW23953   3.690   2.628   6.936
 7685SOL    HW123954   3.731   2.719   6.929
 7685SOL    HW223955   3.699   2.580   6.849
 7686SOL     OW23956   4.453   0.227   3.146
 7686SOL    HW123957   4.427   0.293   3.076
 7686SOL    HW223958   4.401   0.142   3.134
 7687SOL     OW23959   5.407   5.653   5.643
 7687SOL    HW123960   5.375   5.721   5.710
 7687SOL    HW223961   5.505   5.665   5.627
 7688SOL     OW23962   6.965   0.136   6.558
 7688SOL    HW123963   6.934   0.198   6.630
 7688SOL    HW223964   7.021   0.186   6.492
 7689SOL     OW23965   5.000   5.887   3.786
 7689SOL    HW123966   5.070   5.927   3.845
 7689SOL    HW223967   4.911   5.926   3.810
 7690SOL     OW23968   5.778   5.451   2.326
 7690SOL    HW123969   5.868   5.412   2.307
 7690SOL    HW223970   5.711   5.413   2.262
 7691SOL     OW23971   4.645   2.717   4.241
 7691SOL    HW123972   4.594   2.672   4.168
 7691SOL    HW223973   4.694   2.795   4.203
 7692SOL     OW23974   0.613   6.932   1.355
 7692SOL    HW123975   0.564   6.991   1.419
 7692SOL    HW223976   0.648   6.851   1.402
 7693SOL     OW23977   4.277   0.946   0.096
 7693SOL    HW123978   4.313   0.958   0.189
 7693SOL    HW223979   4.200   0.884   0.097
 7694SOL     OW23980   1.075   4.692   4.064
 7694SOL    HW123981   1.106   4.707   4.158
 7694SOL    HW223982   1.104   4.601   4.034
 7695SOL     OW23983   3.912   0.433   0.924
 7695SOL    HW123984   3.918   0.334   0.908
 7695SOL    HW223985   3.983   0.479   0.871
 7696SOL     OW23986   6.628   2.064   4.447
 7696SOL    HW123987   6.674   2.109   4.371
 7696SOL    HW223988   6.675   1.979   4.470
 7697SOL     OW23989   2.522   1.212   3.101
 7697SOL    HW123990   2.596   1.151   3.072
 7697SOL    HW223991   2.557   1.277   3.168
 7698SOL     OW23992   0.293   2.835   4.655
 7698SOL    HW123993   0.281   2.831   4.556
 7698SOL    HW223994   0.385   2.868   4.676
 7699SOL     OW23995   2.723   5.684   6.870
 7699SOL    HW123996   2.797   5.741   6.834
 7699SOL    HW223997   2.645   5.742   6.894
 7700SOL     OW23998   5.087   6.844   5.322
 7700SOL    HW123999   5.110   6.935   5.357
 7700SOL    HW224000   5.171   6.791   5.307
 7701SOL     OW24001   5.992   1.395   6.915
 7701SOL    HW124002   5.976   1.358   6.823
 7701SOL    HW224003   6.085   1.371   6.944
 7702SOL     OW24004   3.868   6.093   5.911
 7702SOL    HW124005   3.895   5.998   5.899
 7702SOL    HW224006   3.929   6.138   5.976
 7703SOL     OW24007   6.524   1.523   4.934
 7703SOL    HW124008   6.444   1.564   4.889
 7703SOL    HW224009   6.570   1.461   4.870
 7704SOL     OW24010   4.202   5.042   5.751
 7704SOL    HW124011   4.250   4.979   5.690
 7704SOL    HW224012   4.106   5.014   5.760
 7705SOL     OW24013   3.277   4.847   5.482
 7705SOL    HW124014   3.214   4.809   5.415
 7705SOL    HW224015   3.230   4.856   5.570
 7706SOL     OW24016   5.517   1.122   5.730
 7706SOL    HW124017   5.591   1.164   5.783
 7706SOL    HW224018   5.544   1.029   5.704
 7707SOL     OW24019   0.178   5.753   6.615
 7707SOL    HW124020   0.129   5.839   6.604
 7707SOL    HW224021   0.263   5.755   6.562
 7708SOL     OW24022   5.319   5.931   4.729
 7708SOL    HW124023   5.282   6.020   4.756
 7708SOL    HW224024   5.245   5.872   4.698
 7709SOL     OW24025   5.671   3.271   2.334
 7709SOL    HW124026   5.761   3.231   2.316
 7709SOL    HW224027   5.612   3.257   2.254
 7710SOL     OW24028   1.937   0.650   1.352
 7710SOL    HW124029   1.891   0.733   1.321
 7710SOL    HW224030   1.890   0.614   1.433
 7711SOL     OW24031   6.461   6.339   4.964
 7711SOL    HW124032   6.473   6.243   4.991
 7711SOL    HW224033   6.476   6.398   5.043
 7712SOL     OW24034   6.766   5.152   1.182
 7712SOL    HW124035   6.857   5.114   1.200
 7712SOL    HW224036   6.774   5.231   1.121
 7713SOL     OW24037   2.178   3.771   0.791
 7713SOL    HW124038   2.269   3.750   0.756
 7713SOL    HW224039   2.186   3.817   0.880
 7714SOL     OW24040   6.650   5.042   4.691
 7714SOL    HW124041   6.705   5.036   4.775
 7714SOL    HW224042   6.660   5.133   4.651
 7715SOL     OW24043   5.003   1.187   1.392
 7715SOL    HW124044   5.099   1.185   1.420
 7715SOL    HW224045   4.981   1.103   1.343
 7716SOL     OW24046   5.076   3.169   3.234
 7716SOL    HW124047   5.069   3.260   3.195
 7716SOL    HW224048   5.125   3.173   3.322
 7717SOL     OW24049   2.808   1.394   4.938
 7717SOL    HW124050   2.765   1.437   5.017
 7717SOL    HW224051   2.760   1.421   4.855
 7718SOL     OW24052   1.648   2.069   3.641
 7718SOL    HW124053   1.664   2.149   3.583
 7718SOL    HW224054   1.732   2.015   3.646
 7719SOL     OW24055   0.067   3.339   3.903
 7719SOL    HW124056   0.100   3.266   3.962
 7719SOL    HW224057   6.995   3.355   3.921
 7720SOL     OW24058   0.041   6.603   0.767
 7720SOL    HW124059   0.027   6.579   0.863
 7720SOL    HW224060   0.139   6.613   0.749
 7721SOL     OW24061   2.254   4.218   2.732
 7721SOL    HW124062   2.198   4.152   2.682
 7721SOL    HW224063   2.195   4.276   2.788
 7722SOL     OW24064   0.174   5.242   2.230
 7722SOL    HW124065   0.194   5.151   2.265
 7722SOL    HW224066   0.194   5.245   2.132
 7723SOL     OW24067   6.831   4.131   0.807
 7723SOL    HW124068   6.861   4.039   0.782
 7723SOL    HW224069   6.837   4.191   0.727
 7724SOL     OW24070   2.303   4.755   2.094
 7724SOL    HW124071   2.254   4.825   2.146
 7724SOL    HW224072   2.286   4.767   1.996
 7725SOL     OW24073   5.034   2.528   3.233
 7725SOL    HW124074   5.001   2.623   3.238
 7725SOL    HW224075   5.036   2.499   3.137
 7726SOL     OW24076   0.177   4.574   4.031
 7726SOL    HW124077   0.115   4.565   3.953
 7726SOL    HW224078   0.160   4.660   4.078
 7727SOL     OW24079   5.669   1.980   3.599
 7727SOL    HW124080   5.710   2.070   3.584
 7727SOL    HW224081   5.682   1.924   3.517
 7728SOL     OW24082   1.511   3.782   3.023
 7728SOL    HW124083   1.504   3.880   3.002
 7728SOL    HW224084   1.522   3.730   2.939
 7729SOL     OW24085   6.067   2.574   1.460
 7729SOL    HW124086   5.984   2.630   1.462
 7729SOL    HW224087   6.126   2.600   1.536
 7730SOL     OW24088   5.871   6.074   2.050
 7730SOL    HW124089   5.914   5.996   2.007
 7730SOL    HW224090   5.772   6.060   2.056
 7731SOL     OW24091   5.783   1.123   1.085
 7731SOL    HW124092   5.719   1.187   1.042
 7731SOL    HW224093   5.858   1.174   1.127
 7732SOL     OW24094   4.505   6.067   0.663
 7732SOL    HW124095   4.499   5.968   0.680
 7732SOL    HW224096   4.439   6.115   0.721
 7733SOL     OW24097   4.466   6.437   1.446
 7733SOL    HW124098   4.513   6.387   1.373
 7733SOL    HW224099   4.528   6.507   1.483
 7734SOL     OW24100   1.582   3.627   3.276
 7734SOL    HW124101   1.555   3.680   3.196
 7734SOL    HW224102   1.540   3.667   3.358
 7735SOL     OW24103   4.413   4.449   6.862
 7735SOL    HW124104   4.438   4.385   6.790
 7735SOL    HW224105   4.429   4.407   6.951
 7736SOL     OW24106   5.434   4.539   0.627
 7736SOL    HW124107   5.434   4.442   0.649
 7736SOL    HW224108   5.459   4.592   0.709
 7737SOL     OW24109   4.712   1.309   0.640
 7737SOL    HW124110   4.623   1.353   0.628
 7737SOL    HW224111   4.705   1.212   0.615
 7738SOL     OW24112   2.129   6.033   0.352
 7738SOL    HW124113   2.198   5.997   0.290
 7738SOL    HW224114   2.158   6.122   0.387
 7739SOL     OW24115   0.088   1.925   1.188
 7739SOL    HW124116   0.109   1.840   1.140
 7739SOL    HW224117   0.058   1.905   1.281
 7740SOL     OW24118   0.281   0.198   2.898
 7740SOL    HW124119   0.192   0.155   2.914
 7740SOL    HW224120   0.303   0.260   2.973
 7741SOL     OW24121   1.535   5.865   4.874
 7741SOL    HW124122   1.606   5.885   4.806
 7741SOL    HW224123   1.474   5.944   4.882
 7742SOL     OW24124   6.274   1.823   3.699
 7742SOL    HW124125   6.284   1.741   3.641
 7742SOL    HW224126   6.186   1.819   3.747
 7743SOL     OW24127   4.711   3.059   6.035
 7743SOL    HW124128   4.667   3.024   6.118
 7743SOL    HW224129   4.810   3.061   6.047
 7744SOL     OW24130   0.169   6.277   4.116
 7744SOL    HW124131   0.082   6.301   4.072
 7744SOL    HW224132   0.245   6.311   4.060
 7745SOL     OW24133   3.899   2.263   5.924
 7745SOL    HW124134   3.873   2.179   5.875
 7745SOL    HW224135   3.956   2.319   5.864
 7746SOL     OW24136   2.350   0.046   0.063
 7746SOL    HW124137   2.388   0.081   0.149
 7746SOL    HW224138   2.269   7.015   0.084
 7747SOL     OW24139   4.955   6.477   0.634
 7747SOL    HW124140   4.857   6.473   0.615
 7747SOL    HW224141   4.992   6.384   0.638
 7748SOL     OW24142   3.262   3.976   5.359
 7748SOL    HW124143   3.228   3.913   5.289
 7748SOL    HW224144   3.349   3.943   5.394
 7749SOL     OW24145   4.327   3.135   5.872
 7749SOL    HW124146   4.299   3.063   5.808
 7749SOL    HW224147   4.424   3.154   5.860
 7750SOL     OW24148   0.656   6.310   1.176
 7750SOL    HW124149   0.746   6.322   1.132
 7750SOL    HW224150   0.669   6.300   1.274
 7751SOL     OW24151   1.473   1.719   2.354
 7751SOL    HW124152   1.541   1.784   2.388
 7751SOL    HW224153   1.385   1.766   2.340
 7752SOL     OW24154   4.641   0.653   4.671
 7752SOL    HW124155   4.707   0.581   4.648
 7752SOL    HW224156   4.673   0.741   4.635
 7753SOL     OW24157   2.047   1.433   4.479
 7753SOL    HW124158   2.070   1.517   4.429
 7753SOL    HW224159   2.118   1.364   4.463
 7754SOL     OW24160   3.685   6.427   1.742
 7754SOL    HW124161   3.676   6.353   1.675
 7754SOL    HW224162   3.662   6.514   1.698
 7755SOL     OW24163   1.395   4.139   6.274
 7755SOL    HW124164   1.415   4.070   6.204
 7755SOL    HW224165   1.475   4.197   6.287
 7756SOL     OW24166   2.425   6.068   1.227
 7756SOL    HW124167   2.393   5.997   1.164
 7756SOL    HW224168   2.371   6.066   1.310
 7757SOL     OW24169   7.007   4.728   1.466
 7757SOL    HW124170   0.068   4.680   1.447
 7757SOL    HW224171   0.003   4.816   1.509
 7758SOL     OW24172   1.835   0.970   6.296
 7758SOL    HW124173   1.737   0.954   6.287
 7758SOL    HW224174   1.882   0.885   6.317
 7759SOL     OW24175   2.362   2.359   5.762
 7759SOL    HW124176   2.425   2.298   5.714
 7759SOL    HW224177   2.268   2.325   5.750
 7760SOL     OW24178   4.426   1.793   2.101
 7760SOL    HW124179   4.487   1.799   2.180
 7760SOL    HW224180   4.465   1.847   2.026
 7761SOL     OW24181   5.525   5.352   4.092
 7761SOL    HW124182   5.507   5.314   4.001
 7761SOL    HW224183   5.442   5.347   4.147
 7762SOL     OW24184   0.273   0.294   4.105
 7762SOL    HW124185   0.235   0.269   4.194
 7762SOL    HW224186   0.345   0.363   4.117
 7763SOL     OW24187   2.299   0.574   4.950
 7763SOL    HW124188   2.356   0.491   4.956
 7763SOL    HW224189   2.205   0.552   4.973
 7764SOL     OW24190   3.260   3.785   5.159
 7764SOL    HW124191   3.271   3.772   5.060
 7764SOL    HW224192   3.182   3.732   5.192
 7765SOL     OW24193   6.945   3.335   4.420
 7765SOL    HW124194   6.999   3.415   4.394
 7765SOL    HW224195   6.887   3.308   4.343
 7766SOL     OW24196   0.667   4.332   0.285
 7766SOL    HW124197   0.586   4.312   0.340
 7766SOL    HW224198   0.687   4.430   0.290
 7767SOL     OW24199   3.786   0.799   2.130
 7767SOL    HW124200   3.845   0.775   2.054
 7767SOL    HW224201   3.781   0.899   2.139
 7768SOL     OW24202   4.440   4.691   2.954
 7768SOL    HW124203   4.359   4.690   2.895
 7768SOL    HW224204   4.513   4.742   2.908
 7769SOL     OW24205   3.845   2.234   5.160
 7769SOL    HW124206   3.746   2.239   5.150
 7769SOL    HW224207   3.868   2.169   5.233
 7770SOL     OW24208   1.105   2.920   4.884
 7770SOL    HW124209   1.115   3.018   4.900
 7770SOL    HW224210   1.165   2.892   4.809
 7771SOL     OW24211   3.291   2.817   6.255
 7771SOL    HW124212   3.230   2.737   6.253
 7771SOL    HW224213   3.351   2.811   6.335
 7772SOL     OW24214   5.428   0.936   1.222
 7772SOL    HW124215   5.493   0.864   1.199
 7772SOL    HW224216   5.362   0.902   1.289
 7773SOL     OW24217   3.375   5.969   0.020
 7773SOL    HW124218   3.385   6.068   0.007
 7773SOL    HW224219   3.436   5.921   6.981
 7774SOL     OW24220   5.006   2.274   3.056
 7774SOL    HW124221   5.097   2.282   3.098
 7774SOL    HW224222   5.016   2.252   2.959
 7775SOL     OW24223   3.728   0.755   6.830
 7775SOL    HW124224   3.769   0.696   6.900
 7775SOL    HW224225   3.786   0.835   6.815
 7776SOL     OW24226   0.986   6.668   5.399
 7776SOL    HW124227   0.941   6.579   5.386
 7776SOL    HW224228   0.921   6.741   5.380
 7777SOL     OW24229   5.751   4.975   4.048
 7777SOL    HW124230   5.832   4.976   3.990
 7777SOL    HW224231   5.728   4.880   4.072
 7778SOL     OW24232   6.411   4.064   2.909
 7778SOL    HW124233   6.390   4.147   2.856
 7778SOL    HW224234   6.366   4.070   2.998
 7779SOL     OW24235   3.177   6.106   2.396
 7779SOL    HW124236   3.112   6.087   2.470
 7779SOL    HW224237   3.191   6.022   2.343
 7780SOL     OW24238   6.830   5.422   5.708
 7780SOL    HW124239   6.741   5.460   5.734
 7780SOL    HW224240   6.816   5.342   5.649
 7781SOL     OW24241   2.048   2.610   0.504
 7781SOL    HW124242   2.048   2.515   0.474
 7781SOL    HW224243   2.090   2.667   0.433
 7782SOL     OW24244   6.560   4.498   3.426
 7782SOL    HW124245   6.494   4.442   3.376
 7782SOL    HW224246   6.556   4.592   3.393
 7783SOL     OW24247   1.103   6.976   5.396
 7783SOL    HW124248   1.146   0.040   5.381
 7783SOL    HW224249   1.018   6.971   5.343
 7784SOL     OW24250   2.655   2.271   2.295
 7784SOL    HW124251   2.710   2.301   2.373
 7784SOL    HW224252   2.687   2.182   2.264
 7785SOL     OW24253   1.873   6.250   2.378
 7785SOL    HW124254   1.970   6.245   2.402
 7785SOL    HW224255   1.818   6.238   2.461
 7786SOL     OW24256   4.389   0.926   6.524
 7786SOL    HW124257   4.385   0.855   6.454
 7786SOL    HW224258   4.484   0.942   6.551
 7787SOL     OW24259   2.753   3.426   0.988
 7787SOL    HW124260   2.824   3.430   1.059
 7787SOL    HW224261   2.737   3.331   0.962
 7788SOL     OW24262   1.641   4.726   1.695
 7788SOL    HW124263   1.551   4.722   1.737
 7788SOL    HW224264   1.634   4.762   1.602
 7789SOL     OW24265   3.676   0.294   6.823
 7789SOL    HW124266   3.735   0.269   6.747
 7789SOL    HW224267   3.582   0.306   6.791
 7790SOL     OW24268   5.896   5.239   2.621
 7790SOL    HW124269   5.934   5.187   2.697
 7790SOL    HW224270   5.833   5.182   2.569
 7791SOL     OW24271   2.177   5.640   1.776
 7791SOL    HW124272   2.183   5.599   1.685
 7791SOL    HW224273   2.199   5.571   1.845
 7792SOL     OW24274   0.642   1.386   2.793
 7792SOL    HW124275   0.634   1.344   2.703
 7792SOL    HW224276   0.732   1.428   2.803
 7793SOL     OW24277   4.134   1.705   0.221
 7793SOL    HW124278   4.190   1.641   0.275
 7793SOL    HW224279   4.050   1.725   0.271
 7794SOL     OW24280   0.991   5.575   2.698
 7794SOL    HW124281   0.911   5.632   2.718
 7794SOL    HW224282   1.030   5.603   2.610
 7795SOL     OW24283   3.231   5.625   5.909
 7795SOL    HW124284   3.235   5.623   5.809
 7795SOL    HW224285   3.315   5.665   5.945
 7796SOL     OW24286   3.619   3.097   5.726
 7796SOL    HW124287   3.520   3.093   5.736
 7796SOL    HW224288   3.661   3.019   5.772
 7797SOL     OW24289   0.684   5.241   3.365
 7797SOL    HW124290   0.592   5.203   3.375
 7797SOL    HW224291   0.743   5.175   3.318
 7798SOL     OW24292   0.533   1.776   1.879
 7798SOL    HW124293   0.596   1.848   1.911
 7798SOL    HW224294   0.546   1.694   1.935
 7799SOL     OW24295   2.724   6.396   2.737
 7799SOL    HW124296   2.660   6.319   2.731
 7799SOL    HW224297   2.812   6.363   2.773
 7800SOL     OW24298   0.970   5.670   0.819
 7800SOL    HW124299   1.037   5.744   0.808
 7800SOL    HW224300   1.011   5.596   0.872
 7801SOL     OW24301   1.507   2.635   2.710
 7801SOL    HW124302   1.572   2.607   2.640
 7801SOL    HW224303   1.434   2.689   2.669
 7802SOL     OW24304   6.552   4.170   5.993
 7802SOL    HW124305   6.554   4.265   6.026
 7802SOL    HW224306   6.625   4.157   5.926
 7803SOL     OW24307   5.086   2.499   5.548
 7803SOL    HW124308   5.124   2.446   5.624
 7803SOL    HW224309   5.109   2.455   5.462
 7804SOL     OW24310   2.259   2.140   4.684
 7804SOL    HW124311   2.180   2.088   4.718
 7804SOL    HW224312   2.279   2.214   4.748
 7805SOL     OW24313   5.310   2.635   1.600
 7805SOL    HW124314   5.314   2.734   1.612
 7805SOL    HW224315   5.348   2.590   1.681
 7806SOL     OW24316   6.414   2.436   5.269
 7806SOL    HW124317   6.456   2.348   5.291
 7806SOL    HW224318   6.356   2.426   5.188
 7807SOL     OW24319   2.403   4.799   6.140
 7807SOL    HW124320   2.441   4.707   6.151
 7807SOL    HW224321   2.304   4.796   6.149
 7808SOL     OW24322   4.959   4.203   2.977
 7808SOL    HW124323   5.051   4.179   3.008
 7808SOL    HW224324   4.959   4.211   2.877
 7809SOL     OW24325   5.166   4.860   3.785
 7809SOL    HW124326   5.171   4.873   3.686
 7809SOL    HW224327   5.081   4.901   3.819
 7810SOL     OW24328   4.341   6.256   4.847
 7810SOL    HW124329   4.419   6.194   4.844
 7810SOL    HW224330   4.304   6.269   4.755
 7811SOL     OW24331   1.168   5.575   2.478
 7811SOL    HW124332   1.232   5.531   2.414
 7811SOL    HW224333   1.212   5.657   2.517
 7812SOL     OW24334   2.702   2.609   5.918
 7812SOL    HW124335   2.781   2.563   5.879
 7812SOL    HW224336   2.628   2.542   5.933
 7813SOL     OW24337   5.574   2.729   1.277
 7813SOL    HW124338   5.579   2.712   1.179
 7813SOL    HW224339   5.540   2.647   1.324
 7814SOL     OW24340   6.533   3.121   2.258
 7814SOL    HW124341   6.632   3.110   2.269
 7814SOL    HW224342   6.508   3.103   2.163
 7815SOL     OW24343   5.979   2.825   5.746
 7815SOL    HW124344   5.917   2.803   5.822
 7815SOL    HW224345   5.970   2.755   5.675
 7816SOL     OW24346   0.422   1.771   5.837
 7816SOL    HW124347   0.463   1.691   5.881
 7816SOL    HW224348   0.493   1.840   5.820
 7817SOL     OW24349   3.130   3.581   5.870
 7817SOL    HW124350   3.052   3.585   5.806
 7817SOL    HW224351   3.160   3.675   5.890
 7818SOL     OW24352   5.111   1.370   2.126
 7818SOL    HW124353   5.088   1.453   2.179
 7818SOL    HW224354   5.030   1.312   2.120
 7819SOL     OW24355   0.702   3.653   4.149
 7819SOL    HW124356   0.695   3.632   4.052
 7819SOL    HW224357   0.712   3.752   4.162
 7820SOL     OW24358   1.522   0.892   5.579
 7820SOL    HW124359   1.488   0.912   5.671
 7820SOL    HW224360   1.482   0.957   5.514
 7821SOL     OW24361   6.265   5.479   0.131
 7821SOL    HW124362   6.352   5.522   0.104
 7821SOL    HW224363   6.190   5.519   0.077
 7822SOL     OW24364   1.107   1.162   4.805
 7822SOL    HW124365   1.068   1.210   4.883
 7822SOL    HW224366   1.037   1.148   4.736
 7823SOL     OW24367   1.180   4.147   6.453
 7823SOL    HW124368   1.223   4.171   6.540
 7823SOL    HW224369   1.250   4.134   6.384
 7824SOL     OW24370   5.355   1.997   2.603
 7824SOL    HW124371   5.416   2.010   2.524
 7824SOL    HW224372   5.265   1.967   2.571
 7825SOL     OW24373   2.363   2.965   1.076
 7825SOL    HW124374   2.373   3.065   1.073
 7825SOL    HW224375   2.367   2.929   0.983
 7826SOL     OW24376   5.695   1.014   0.498
 7826SOL    HW124377   5.632   1.080   0.540
 7826SOL    HW224378   5.780   1.011   0.551
 7827SOL     OW24379   4.848   5.055   1.875
 7827SOL    HW124380   4.752   5.072   1.896
 7827SOL    HW224381   4.873   4.964   1.910
 7828SOL     OW24382   1.125   6.264   0.677
 7828SOL    HW124383   1.109   6.362   0.670
 7828SOL    HW224384   1.212   6.247   0.724
 7829SOL     OW24385   2.808   2.923   1.722
 7829SOL    HW124386   2.833   2.980   1.644
 7829SOL    HW224387   2.849   2.833   1.712
 7830SOL     OW24388   6.142   3.377   6.676
 7830SOL    HW124389   6.124   3.281   6.654
 7830SOL    HW224390   6.056   3.427   6.677
 7831SOL     OW24391   1.358   3.592   0.596
 7831SOL    HW124392   1.376   3.495   0.611
 7831SOL    HW224393   1.260   3.607   0.588
 7832SOL     OW24394   2.654   1.816   5.204
 7832SOL    HW124395   2.608   1.730   5.184
 7832SOL    HW224396   2.587   1.890   5.205
 7833SOL     OW24397   0.580   6.742   0.471
 7833SOL    HW124398   0.508   6.720   0.537
 7833SOL    HW224399   0.579   6.840   0.451
 7834SOL     OW24400   0.331   0.632   2.203
 7834SOL    HW124401   0.292   0.718   2.170
 7834SOL    HW224402   0.431   0.641   2.206
 7835SOL     OW24403   2.287   2.867   4.819
 7835SOL    HW124404   2.275   2.951   4.766
 7835SOL    HW224405   2.334   2.889   4.905
 7836SOL     OW24406   3.163   6.961   6.468
 7836SOL    HW124407   3.224   6.909   6.408
 7836SOL    HW224408   3.218   7.021   6.527
 7837SOL     OW24409   5.857   6.366   2.728
 7837SOL    HW124410   5.951   6.349   2.758
 7837SOL    HW224411   5.826   6.289   2.672
 7838SOL     OW24412   4.407   6.982   4.481
 7838SOL    HW124413   4.375   0.037   4.533
 7838SOL    HW224414   4.328   6.927   4.452
 7839SOL     OW24415   5.737   4.219   4.519
 7839SOL    HW124416   5.676   4.184   4.448
 7839SOL    HW224417   5.762   4.314   4.499
 7840SOL     OW24418   4.769   2.904   4.114
 7840SOL    HW124419   4.760   2.907   4.014
 7840SOL    HW224420   4.831   2.976   4.144
 7841SOL     OW24421   6.502   2.101   7.013
 7841SOL    HW124422   6.431   2.107   0.058
 7841SOL    HW224423   6.563   2.180   7.020
 7842SOL     OW24424   2.036   1.354   3.194
 7842SOL    HW124425   1.981   1.436   3.209
 7842SOL    HW224426   2.133   1.377   3.203
 7843SOL     OW24427   5.685   4.025   0.950
 7843SOL    HW124428   5.620   3.973   0.895
 7843SOL    HW224429   5.764   4.050   0.893
 7844SOL     OW24430   4.302   0.618   3.183
 7844SOL    HW124431   4.341   0.710   3.185
 7844SOL    HW224432   4.374   0.551   3.167
 7845SOL     OW24433   6.826   0.875   4.281
 7845SOL    HW124434   6.831   0.975   4.284
 7845SOL    HW224435   6.885   0.836   4.351
 7846SOL     OW24436   2.143   0.767   1.799
 7846SOL    HW124437   2.148   0.720   1.887
 7846SOL    HW224438   2.065   0.831   1.800
 7847SOL     OW24439   0.321   0.727   0.488
 7847SOL    HW124440   0.244   0.688   0.540
 7847SOL    HW224441   0.305   0.824   0.474
 7848SOL     OW24442   4.077   3.999   1.473
 7848SOL    HW124443   3.978   3.988   1.461
 7848SOL    HW224444   4.099   3.998   1.571
 7849SOL     OW24445   4.850   3.194   4.426
 7849SOL    HW124446   4.778   3.145   4.474
 7849SOL    HW224447   4.831   3.292   4.427
 7850SOL     OW24448   6.901   1.125   4.922
 7850SOL    HW124449   6.813   1.172   4.921
 7850SOL    HW224450   6.898   1.046   4.860
 7851SOL     OW24451   5.977   6.970   0.524
 7851SOL    HW124452   6.029   6.987   0.608
 7851SOL    HW224453   5.978   0.028   0.467
 7852SOL     OW24454   3.292   6.445   6.886
 7852SOL    HW124455   3.262   6.432   6.791
 7852SOL    HW224456   3.212   6.457   6.945
 7853SOL     OW24457   2.978   1.561   0.393
 7853SOL    HW124458   3.000   1.568   0.296
 7853SOL    HW224459   3.050   1.510   0.440
 7854SOL     OW24460   3.401   3.938   2.748
 7854SOL    HW124461   3.441   3.864   2.693
 7854SOL    HW224462   3.357   4.005   2.687
 7855SOL     OW24463   4.206   5.041   6.227
 7855SOL    HW124464   4.277   5.098   6.186
 7855SOL    HW224465   4.197   4.957   6.174
 7856SOL     OW24466   5.775   4.074   5.072
 7856SOL    HW124467   5.804   4.008   5.003
 7856SOL    HW224468   5.817   4.163   5.052
 7857SOL     OW24469   5.972   2.289   5.880
 7857SOL    HW124470   5.900   2.259   5.817
 7857SOL    HW224471   5.956   2.384   5.907
 7858SOL     OW24472   6.384   4.100   3.592
 7858SOL    HW124473   6.402   4.091   3.494
 7858SOL    HW224474   6.305   4.044   3.617
 7859SOL     OW24475   0.802   4.692   6.258
 7859SOL    HW124476   0.713   4.735   6.270
 7859SOL    HW224477   0.801   4.637   6.174
 7860SOL     OW24478   4.044   0.035   1.889
 7860SOL    HW124479   4.008   0.125   1.912
 7860SOL    HW224480   4.129   0.019   1.939
 7861SOL     OW24481   4.347   5.179   1.337
 7861SOL    HW124482   4.428   5.228   1.367
 7861SOL    HW224483   4.336   5.096   1.392
 7862SOL     OW24484   3.039   4.302   1.688
 7862SOL    HW124485   2.972   4.241   1.647
 7862SOL    HW224486   2.993   4.378   1.734
 7863SOL     OW24487   6.513   5.897   2.738
 7863SOL    HW124488   6.508   5.917   2.836
 7863SOL    HW224489   6.431   5.933   2.694
 7864SOL     OW24490   0.543   6.326   5.678
 7864SOL    HW124491   0.490   6.255   5.632
 7864SOL    HW224492   0.534   6.412   5.628
 7865SOL     OW24493   3.643   6.351   3.098
 7865SOL    HW124494   3.678   6.365   3.005
 7865SOL    HW224495   3.610   6.438   3.134
 7866SOL     OW24496   2.645   1.951   3.167
 7866SOL    HW124497   2.649   1.945   3.266
 7866SOL    HW224498   2.676   2.041   3.137
 7867SOL     OW24499   6.416   6.155   2.021
 7867SOL    HW124500   6.427   6.128   2.117
 7867SOL    HW224501   6.486   6.110   1.966
 7868SOL     OW24502   5.516   6.040   1.027
 7868SOL    HW124503   5.455   6.118   1.025
 7868SOL    HW224504   5.585   6.048   0.955
 7869SOL     OW24505   6.725   3.405   1.206
 7869SOL    HW124506   6.673   3.333   1.252
 7869SOL    HW224507   6.821   3.400   1.234
 7870SOL     OW24508   6.862   5.420   3.804
 7870SOL    HW124509   6.814   5.479   3.870
 7870SOL    HW224510   6.894   5.476   3.727
 7871SOL     OW24511   6.014   3.018   3.129
 7871SOL    HW124512   6.086   3.065   3.180
 7871SOL    HW224513   5.995   2.930   3.171
 7872SOL     OW24514   0.456   3.831   3.287
 7872SOL    HW124515   0.483   3.743   3.248
 7872SOL    HW224516   0.455   3.901   3.215
 7873SOL     OW24517   6.839   0.025   6.181
 7873SOL    HW124518   6.791   0.084   6.246
 7873SOL    HW224519   6.935   0.017   6.208
 7874SOL     OW24520   6.387   1.411   0.190
 7874SOL    HW124521   6.323   1.449   0.257
 7874SOL    HW224522   6.481   1.430   0.219
 7875SOL     OW24523   5.210   4.006   6.691
 7875SOL    HW124524   5.145   4.050   6.754
 7875SOL    HW224525   5.303   4.037   6.712
 7876SOL     OW24526   6.363   0.583   4.383
 7876SOL    HW124527   6.389   0.679   4.383
 7876SOL    HW224528   6.353   0.551   4.289
 7877SOL     OW24529   6.848   2.350   3.319
 7877SOL    HW124530   6.921   2.412   3.349
 7877SOL    HW224531   6.783   2.402   3.262
 7878SOL     OW24532   4.366   4.635   2.510
 7878SOL    HW124533   4.383   4.590   2.422
 7878SOL    HW224534   4.308   4.576   2.566
 7879SOL     OW24535   5.081   6.101   3.567
 7879SOL    HW124536   5.075   6.017   3.621
 7879SOL    HW224537   5.077   6.079   3.470
 7880SOL     OW24538   0.585   6.318   6.870
 7880SOL    HW124539   0.577   6.273   6.959
 7880SOL    HW224540   0.640   6.401   6.879
 7881SOL     OW24541   6.805   3.943   5.165
 7881SOL    HW124542   6.826   4.005   5.241
 7881SOL    HW224543   6.764   3.859   5.200
 7882SOL     OW24544   0.976   2.854   2.477
 7882SOL    HW124545   0.952   2.865   2.573
 7882SOL    HW224546   0.895   2.865   2.420
 7883SOL     OW24547   2.940   1.240   2.904
 7883SOL    HW124548   2.877   1.318   2.907
 7883SOL    HW224549   2.971   1.226   2.810
 7884SOL     OW24550   1.577   4.689   3.817
 7884SOL    HW124551   1.515   4.623   3.776
 7884SOL    HW224552   1.575   4.679   3.917
 7885SOL     OW24553   5.994   5.628   2.856
 7885SOL    HW124554   6.091   5.650   2.859
 7885SOL    HW224555   5.967   5.607   2.762
 7886SOL     OW24556   4.988   3.296   1.702
 7886SOL    HW124557   5.038   3.382   1.694
 7886SOL    HW224558   4.909   3.308   1.762
 7887SOL     OW24559   3.610   3.523   6.246
 7887SOL    HW124560   3.707   3.538   6.228
 7887SOL    HW224561   3.556   3.557   6.170
 7888SOL     OW24562   5.918   1.678   4.128
 7888SOL    HW124563   5.922   1.769   4.086
 7888SOL    HW224564   5.894   1.688   4.225
 7889SOL     OW24565   6.216   5.313   0.542
 7889SOL    HW124566   6.233   5.280   0.449
 7889SOL    HW224567   6.263   5.400   0.556
 7890SOL     OW24568   1.314   2.904   4.698
 7890SOL    HW124569   1.306   2.990   4.647
 7890SOL    HW224570   1.357   2.835   4.640
 7891SOL     OW24571   0.652   2.561   4.085
 7891SOL    HW124572   0.627   2.524   3.995
 7891SOL    HW224573   0.664   2.660   4.078
 7892SOL     OW24574   1.736   2.795   4.748
 7892SOL    HW124575   1.678   2.864   4.792
 7892SOL    HW224576   1.797   2.755   4.817
 7893SOL     OW24577   6.575   0.310   2.290
 7893SOL    HW124578   6.609   0.360   2.210
 7893SOL    HW224579   6.490   0.262   2.265
 7894SOL     OW24580   2.207   1.638   6.411
 7894SOL    HW124581   2.119   1.597   6.390
 7894SOL    HW224582   2.267   1.569   6.452
 7895SOL     OW24583   3.630   5.759   3.698
 7895SOL    HW124584   3.629   5.664   3.727
 7895SOL    HW224585   3.664   5.817   3.773
 7896SOL     OW24586   4.276   2.551   1.767
 7896SOL    HW124587   4.296   2.575   1.672
 7896SOL    HW224588   4.357   2.512   1.810
 7897SOL     OW24589   3.765   4.229   6.026
 7897SOL    HW124590   3.831   4.262   5.958
 7897SOL    HW224591   3.810   4.163   6.086
 7898SOL     OW24592   4.978   6.857   4.483
 7898SOL    HW124593   4.918   6.897   4.553
 7898SOL    HW224594   4.928   6.788   4.431
 7899SOL     OW24595   5.214   5.204   1.449
 7899SOL    HW124596   5.169   5.116   1.465
 7899SOL    HW224597   5.161   5.277   1.492
 7900SOL     OW24598   0.708   4.306   0.656
 7900SOL    HW124599   0.664   4.313   0.745
 7900SOL    HW224600   0.639   4.311   0.584
 7901SOL     OW24601   5.357   0.978   6.284
 7901SOL    HW124602   5.375   0.894   6.232
 7901SOL    HW224603   5.439   1.035   6.284
 7902SOL     OW24604   6.826   6.273   2.905
 7902SOL    HW124605   6.910   6.228   2.935
 7902SOL    HW224606   6.789   6.226   2.825
 7903SOL     OW24607   3.011   1.639   4.150
 7903SOL    HW124608   3.063   1.724   4.147
 7903SOL    HW224609   2.946   1.636   4.074
 7904SOL     OW24610   5.978   0.778   2.262
 7904SOL    HW124611   6.003   0.828   2.345
 7904SOL    HW224612   6.036   0.698   2.252
 7905SOL     OW24613   5.723   1.039   0.817
 7905SOL    HW124614   5.690   1.131   0.839
 7905SOL    HW224615   5.823   1.038   0.821
 7906SOL     OW24616   1.673   4.849   1.158
 7906SOL    HW124617   1.701   4.901   1.239
 7906SOL    HW224618   1.716   4.888   1.076
 7907SOL     OW24619   6.027   0.613   2.820
 7907SOL    HW124620   5.940   0.649   2.785
 7907SOL    HW224621   6.092   0.603   2.745
 7908SOL     OW24622   0.425   1.239   6.725
 7908SOL    HW124623   0.343   1.269   6.677
 7908SOL    HW224624   0.443   1.302   6.801
 7909SOL     OW24625   5.408   4.667   2.833
 7909SOL    HW124626   5.466   4.603   2.782
 7909SOL    HW224627   5.420   4.652   2.931
 7910SOL     OW24628   1.783   3.401   0.781
 7910SOL    HW124629   1.867   3.454   0.780
 7910SOL    HW224630   1.803   3.305   0.799
 7911SOL     OW24631   0.919   4.078   1.228
 7911SOL    HW124632   0.849   4.007   1.232
 7911SOL    HW224633   0.978   4.072   1.309
 7912SOL     OW24634   4.981   5.492   0.045
 7912SOL    HW124635   4.977   5.415   7.007
 7912SOL    HW224636   5.059   5.481   0.107
 7913SOL     OW24637   0.919   4.074   0.752
 7913SOL    HW124638   0.920   4.154   0.692
 7913SOL    HW224639   0.977   4.003   0.713
 7914SOL     OW24640   6.830   5.204   5.527
 7914SOL    HW124641   6.861   5.114   5.558
 7914SOL    HW224642   6.740   5.195   5.484
 7915SOL     OW24643   3.640   0.313   3.011
 7915SOL    HW124644   3.606   0.317   3.105
 7915SOL    HW224645   3.637   0.219   2.978
 7916SOL     OW24646   0.776   6.739   4.696
 7916SOL    HW124647   0.825   6.688   4.766
 7916SOL    HW224648   0.811   6.833   4.693
 7917SOL     OW24649   3.926   2.301   6.695
 7917SOL    HW124650   3.876   2.386   6.710
 7917SOL    HW224651   3.916   2.242   6.775
 7918SOL     OW24652   1.762   1.324   5.088
 7918SOL    HW124653   1.727   1.233   5.109
 7918SOL    HW224654   1.851   1.337   5.134
 7919SOL     OW24655   1.244   4.772   3.366
 7919SOL    HW124656   1.292   4.778   3.454
 7919SOL    HW224657   1.145   4.779   3.383
 7920SOL     OW24658   5.191   0.868   1.355
 7920SOL    HW124659   5.192   0.839   1.451
 7920SOL    HW224660   5.096   0.885   1.326
 7921SOL     OW24661   4.905   1.932   1.651
 7921SOL    HW124662   4.844   1.986   1.593
 7921SOL    HW224663   4.852   1.861   1.698
 7922SOL     OW24664   1.057   6.587   6.647
 7922SOL    HW124665   1.027   6.501   6.688
 7922SOL    HW224666   0.986   6.656   6.660
 7923SOL     OW24667   3.992   2.271   6.166
 7923SOL    HW124668   3.931   2.305   6.237
 7923SOL    HW224669   3.948   2.281   6.077
 7924SOL     OW24670   5.978   6.734   1.342
 7924SOL    HW124671   5.914   6.797   1.299
 7924SOL    HW224672   5.993   6.761   1.437
 7925SOL     OW24673   2.836   6.228   0.359
 7925SOL    HW124674   2.861   6.273   0.445
 7925SOL    HW224675   2.828   6.130   0.374
 7926SOL     OW24676   5.963   0.590   6.532
 7926SOL    HW124677   5.968   0.540   6.446
 7926SOL    HW224678   5.953   0.688   6.512
 7927SOL     OW24679   5.122   0.031   1.989
 7927SOL    HW124680   5.184   6.980   2.009
 7927SOL    HW224681   5.043   0.027   2.050
 7928SOL     OW24682   0.059   0.649   3.326
 7928SOL    HW124683   6.997   0.652   3.378
 7928SOL    HW224684   0.086   0.742   3.300
 7929SOL     OW24685   4.650   3.552   6.704
 7929SOL    HW124686   4.607   3.603   6.630
 7929SOL    HW224687   4.743   3.585   6.718
 7930SOL     OW24688   3.888   5.546   5.767
 7930SOL    HW124689   3.883   5.512   5.861
 7930SOL    HW224690   3.978   5.524   5.729
 7931SOL     OW24691   2.900   2.264   0.371
 7931SOL    HW124692   2.895   2.230   0.277
 7931SOL    HW224693   2.849   2.349   0.378
 7932SOL     OW24694   0.105   5.576   0.712
 7932SOL    HW124695   0.150   5.500   0.667
 7932SOL    HW224696   0.134   5.662   0.668
 7933SOL     OW24697   6.378   1.072   5.507
 7933SOL    HW124698   6.432   1.070   5.423
 7933SOL    HW224699   6.288   1.031   5.489
 7934SOL     OW24700   1.867   4.532   0.805
 7934SOL    HW124701   1.834   4.455   0.859
 7934SOL    HW224702   1.875   4.505   0.709
 7935SOL     OW24703   5.449   3.853   2.664
 7935SOL    HW124704   5.543   3.825   2.683
 7935SOL    HW224705   5.394   3.847   2.747
 7936SOL     OW24706   3.456   6.260   3.961
 7936SOL    HW124707   3.545   6.305   3.954
 7936SOL    HW224708   3.387   6.327   3.989
 7937SOL     OW24709   2.243   6.384   5.251
 7937SOL    HW124710   2.148   6.385   5.284
 7937SOL    HW224711   2.302   6.344   5.321
 7938SOL     OW24712   5.312   0.476   4.850
 7938SOL    HW124713   5.307   0.399   4.787
 7938SOL    HW224714   5.390   0.465   4.911
 7939SOL     OW24715   0.976   1.572   5.388
 7939SOL    HW124716   1.019   1.654   5.425
 7939SOL    HW224717   0.988   1.496   5.451
 7940SOL     OW24718   4.312   1.937   2.617
 7940SOL    HW124719   4.251   1.868   2.580
 7940SOL    HW224720   4.339   2.000   2.545
 7941SOL     OW24721   4.213   6.451   3.097
 7941SOL    HW124722   4.222   6.399   3.012
 7941SOL    HW224723   4.243   6.394   3.174
 7942SOL     OW24724   1.057   2.713   1.772
 7942SOL    HW124725   1.104   2.625   1.761
 7942SOL    HW224726   1.119   2.787   1.748
 7943SOL     OW24727   2.065   4.707   5.781
 7943SOL    HW124728   2.070   4.706   5.681
 7943SOL    HW224729   2.156   4.724   5.818
 7944SOL     OW24730   1.052   2.975   1.075
 7944SOL    HW124731   1.115   3.011   1.144
 7944SOL    HW224732   1.093   2.894   1.033
 7945SOL     OW24733   6.390   5.381   3.090
 7945SOL    HW124734   6.307   5.435   3.075
 7945SOL    HW224735   6.469   5.433   3.057
 7946SOL     OW24736   3.700   7.012   5.668
 7946SOL    HW124737   3.779   0.039   5.700
 7946SOL    HW224738   3.726   6.957   5.588
 7947SOL     OW24739   2.029   2.789   5.183
 7947SOL    HW124740   1.992   2.818   5.271
 7947SOL    HW224741   2.081   2.704   5.194
 7948SOL     OW24742   1.372   4.632   2.409
 7948SOL    HW124743   1.371   4.541   2.368
 7948SOL    HW224744   1.395   4.624   2.506
 7949SOL     OW24745   4.846   4.504   5.973
 7949SOL    HW124746   4.903   4.579   5.938
 7949SOL    HW224747   4.776   4.481   5.906
 7950SOL     OW24748   5.189   5.627   5.438
 7950SOL    HW124749   5.158   5.661   5.349
 7950SOL    HW224750   5.283   5.656   5.454
 7951SOL     OW24751   2.992   5.636   2.268
 7951SOL    HW124752   3.036   5.710   2.217
 7951SOL    HW224753   3.047   5.553   2.260
 7952SOL     OW24754   6.107   3.915   6.930
 7952SOL    HW124755   6.152   3.826   6.941
 7952SOL    HW224756   6.014   3.910   6.965
 7953SOL     OW24757   4.189   1.372   0.879
 7953SOL    HW124758   4.162   1.464   0.852
 7953SOL    HW224759   4.171   1.359   0.976
 7954SOL     OW24760   4.035   3.551   6.658
 7954SOL    HW124761   4.092   3.474   6.687
 7954SOL    HW224762   3.974   3.521   6.584
 7955SOL     OW24763   1.869   1.774   6.479
 7955SOL    HW124764   1.938   1.843   6.457
 7955SOL    HW224765   1.797   1.816   6.534
 7956SOL     OW24766   6.115   1.574   1.665
 7956SOL    HW124767   6.181   1.648   1.653
 7956SOL    HW224768   6.053   1.597   1.741
 7957SOL     OW24769   4.306   0.578   5.511
 7957SOL    HW124770   4.221   0.563   5.561
 7957SOL    HW224771   4.291   0.646   5.439
 7958SOL     OW24772   5.890   3.408   6.421
 7958SOL    HW124773   5.830   3.342   6.465
 7958SOL    HW224774   5.843   3.449   6.343
 7959SOL     OW24775   5.377   0.751   6.128
 7959SOL    HW124776   5.369   0.774   6.031
 7959SOL    HW224777   5.327   0.666   6.146
 7960SOL     OW24778   0.057   0.835   6.245
 7960SOL    HW124779   0.113   0.899   6.299
 7960SOL    HW224780   6.999   0.811   6.296
 7961SOL     OW24781   6.872   6.469   0.415
 7961SOL    HW124782   6.917   6.552   0.382
 7961SOL    HW224783   6.891   6.394   0.351
 7962SOL     OW24784   6.729   0.141   6.424
 7962SOL    HW124785   6.815   0.098   6.450
 7962SOL    HW224786   6.659   0.120   6.493
 7963SOL     OW24787   6.395   3.987   4.414
 7963SOL    HW124788   6.310   3.947   4.380
 7963SOL    HW224789   6.472   3.955   4.359
 7964SOL     OW24790   6.836   3.102   1.733
 7964SOL    HW124791   6.830   3.056   1.821
 7964SOL    HW224792   6.907   3.059   1.678
 7965SOL     OW24793   4.776   2.420   0.223
 7965SOL    HW124794   4.831   2.426   0.139
 7965SOL    HW224795   4.692   2.371   0.204
 7966SOL     OW24796   3.940   4.053   5.534
 7966SOL    HW124797   4.014   4.089   5.590
 7966SOL    HW224798   3.879   4.128   5.509
 7967SOL     OW24799   1.604   5.058   2.279
 7967SOL    HW124800   1.667   5.068   2.356
 7967SOL    HW224801   1.576   4.962   2.271
 7968SOL     OW24802   6.298   1.757   4.618
 7968SOL    HW124803   6.223   1.824   4.617
 7968SOL    HW224804   6.357   1.772   4.538
 7969SOL     OW24805   4.721   5.888   0.063
 7969SOL    HW124806   4.789   5.914   7.019
 7969SOL    HW224807   4.741   5.796   0.096
 7970SOL     OW24808   6.199   3.121   2.773
 7970SOL    HW124809   6.114   3.115   2.719
 7970SOL    HW224810   6.277   3.102   2.713
 7971SOL     OW24811   2.914   1.732   0.996
 7971SOL    HW124812   2.954   1.789   0.924
 7971SOL    HW224813   2.884   1.789   1.072
 7972SOL     OW24814   4.267   3.271   1.869
 7972SOL    HW124815   4.205   3.309   1.937
 7972SOL    HW224816   4.341   3.222   1.915
 7973SOL     OW24817   6.272   3.759   3.721
 7973SOL    HW124818   6.192   3.704   3.746
 7973SOL    HW224819   6.264   3.787   3.626
 7974SOL     OW24820   6.428   1.659   5.153
 7974SOL    HW124821   6.329   1.645   5.162
 7974SOL    HW224822   6.467   1.583   5.100
 7975SOL     OW24823   4.360   1.460   0.088
 7975SOL    HW124824   4.358   1.361   0.071
 7975SOL    HW224825   4.296   1.505   0.026
 7976SOL     OW24826   1.384   0.197   6.370
 7976SOL    HW124827   1.410   0.109   6.410
 7976SOL    HW224828   1.357   0.183   6.275
 7977SOL     OW24829   5.466   5.999   2.516
 7977SOL    HW124830   5.456   6.040   2.606
 7977SOL    HW224831   5.530   5.921   2.520
 7978SOL     OW24832   0.461   4.174   0.806
 7978SOL    HW124833   0.407   4.247   0.762
 7978SOL    HW224834   0.399   4.109   0.850
 7979SOL     OW24835   2.090   3.720   4.657
 7979SOL    HW124836   2.031   3.725   4.576
 7979SOL    HW224837   2.116   3.812   4.684
 7980SOL     OW24838   3.708   4.575   5.671
 7980SOL    HW124839   3.652   4.617   5.599
 7980SOL    HW224840   3.667   4.593   5.760
 7981SOL     OW24841   2.121   5.341   3.607
 7981SOL    HW124842   2.175   5.284   3.669
 7981SOL    HW224843   2.069   5.283   3.545
 7982SOL     OW24844   0.971   1.544   6.143
 7982SOL    HW124845   0.874   1.547   6.168
 7982SOL    HW224846   0.981   1.496   6.055
 7983SOL     OW24847   5.263   1.142   1.434
 7983SOL    HW124848   5.338   1.155   1.497
 7983SOL    HW224849   5.250   1.044   1.416
 7984SOL     OW24850   0.708   2.041   1.960
 7984SOL    HW124851   0.689   2.137   1.937
 7984SOL    HW224852   0.717   2.032   2.059
 7985SOL     OW24853   2.012   2.314   5.178
 7985SOL    HW124854   2.037   2.289   5.271
 7985SOL    HW224855   2.059   2.255   5.113
 7986SOL     OW24856   3.654   1.815   4.388
 7986SOL    HW124857   3.566   1.768   4.380
 7986SOL    HW224858   3.698   1.818   4.298
 7987SOL     OW24859   1.492   3.735   0.782
 7987SOL    HW124860   1.514   3.675   0.859
 7987SOL    HW224861   1.434   3.686   0.716
 7988SOL     OW24862   6.883   0.989   1.677
 7988SOL    HW124863   6.854   0.981   1.582
 7988SOL    HW224864   6.834   1.064   1.721
 7989SOL     OW24865   1.854   4.129   0.541
 7989SOL    HW124866   1.843   4.058   0.471
 7989SOL    HW224867   1.916   4.095   0.612
 7990SOL     OW24868   2.596   6.569   4.621
 7990SOL    HW124869   2.496   6.567   4.621
 7990SOL    HW224870   2.630   6.514   4.545
 7991SOL     OW24871   5.353   1.748   4.515
 7991SOL    HW124872   5.350   1.827   4.454
 7991SOL    HW224873   5.273   1.750   4.575
 7992SOL     OW24874   2.674   0.457   0.645
 7992SOL    HW124875   2.595   0.517   0.657
 7992SOL    HW224876   2.705   0.425   0.735
 7993SOL     OW24877   7.006   0.240   2.044
 7993SOL    HW124878   6.977   0.202   1.957
 7993SOL    HW224879   7.020   0.166   2.110
 7994SOL     OW24880   4.910   0.921   3.511
 7994SOL    HW124881   4.954   0.925   3.421
 7994SOL    HW224882   4.966   0.866   3.573
 7995SOL     OW24883   6.365   4.396   2.724
 7995SOL    HW124884   6.289   4.456   2.699
 7995SOL    HW224885   6.414   4.368   2.641
 7996SOL     OW24886   3.968   0.287   3.576
 7996SOL    HW124887   4.000   0.192   3.577
 7996SOL    HW224888   4.046   0.348   3.586
 7997SOL     OW24889   0.862   2.089   0.112
 7997SOL    HW124890   0.841   2.135   0.025
 7997SOL    HW224891   0.777   2.075   0.163
 7998SOL     OW24892   3.097   0.335   0.076
 7998SOL    HW124893   3.124   0.242   0.049
 7998SOL    HW224894   3.006   0.355   0.038
 7999SOL     OW24895   1.193   2.178   5.908
 7999SOL    HW124896   1.181   2.118   5.987
 7999SOL    HW224897   1.285   2.166   5.870
 8000SOL     OW24898   6.181   6.599   6.329
 8000SOL    HW124899   6.146   6.506   6.333
 8000SOL    HW224900   6.269   6.604   6.377
 8001SOL     OW24901   4.854   0.111   0.931
 8001SOL    HW124902   4.792   0.071   0.863
 8001SOL    HW224903   4.918   0.172   0.885
 8002SOL     OW24904   0.617   0.949   5.482
 8002SOL    HW124905   0.556   1.028   5.494
 8002SOL    HW224906   0.586   0.874   5.539
 8003SOL     OW24907   1.994   6.712   2.199
 8003SOL    HW124908   1.904   6.754   2.204
 8003SOL    HW224909   2.018   6.696   2.103
 8004SOL     OW24910   1.774   2.719   3.454
 8004SOL    HW124911   1.836   2.797   3.447
 8004SOL    HW224912   1.820   2.638   3.417
 8005SOL     OW24913   2.633   0.374   4.106
 8005SOL    HW124914   2.730   0.355   4.094
 8005SOL    HW224915   2.580   0.330   4.033
 8006SOL     OW24916   3.505   5.362   4.946
 8006SOL    HW124917   3.449   5.438   4.911
 8006SOL    HW224918   3.592   5.360   4.898
 8007SOL     OW24919   5.964   1.621   6.540
 8007SOL    HW124920   6.009   1.584   6.459
 8007SOL    HW224921   5.871   1.650   6.516
 8008SOL     OW24922   3.802   6.618   0.101
 8008SOL    HW124923   3.721   6.604   0.159
 8008SOL    HW224924   3.785   6.695   0.039
 8009SOL     OW24925   4.893   1.654   1.080
 8009SOL    HW124926   4.794   1.650   1.071
 8009SOL    HW224927   4.918   1.720   1.151
 8010SOL     OW24928   2.745   2.354   5.599
 8010SOL    HW124929   2.750   2.445   5.557
 8010SOL    HW224930   2.651   2.334   5.625
 8011SOL     OW24931   3.644   2.002   1.846
 8011SOL    HW124932   3.663   2.078   1.909
 8011SOL    HW224933   3.594   2.037   1.766
 8012SOL     OW24934   0.795   3.138   5.859
 8012SOL    HW124935   0.869   3.199   5.831
 8012SOL    HW224936   0.824   3.084   5.938
 8013SOL     OW24937   0.933   2.620   3.214
 8013SOL    HW124938   0.897   2.527   3.228
 8013SOL    HW224939   0.979   2.624   3.126
 8014SOL     OW24940   1.790   0.217   3.644
 8014SOL    HW124941   1.717   0.213   3.576
 8014SOL    HW224942   1.766   0.283   3.716
 8015SOL     OW24943   1.564   0.468   6.123
 8015SOL    HW124944   1.542   0.545   6.064
 8015SOL    HW224945   1.605   0.501   6.208
 8016SOL     OW24946   3.305   1.548   4.972
 8016SOL    HW124947   3.323   1.496   5.056
 8016SOL    HW224948   3.210   1.535   4.944
 8017SOL     OW24949   6.787   6.805   0.267
 8017SOL    HW124950   6.873   6.754   0.273
 8017SOL    HW224951   6.795   6.891   0.318
 8018SOL     OW24952   3.760   1.986   6.625
 8018SOL    HW124953   3.832   2.055   6.615
 8018SOL    HW224954   3.699   1.990   6.547
 8019SOL     OW24955   2.949   3.485   0.647
 8019SOL    HW124956   2.976   3.578   0.673
 8019SOL    HW224957   3.010   3.419   0.691
 8020SOL     OW24958   5.875   0.043   5.516
 8020SOL    HW124959   5.859   0.074   5.422
 8020SOL    HW224960   5.792   0.053   5.569
 8021SOL     OW24961   2.308   2.081   2.146
 8021SOL    HW124962   2.233   2.144   2.128
 8021SOL    HW224963   2.386   2.105   2.088
 8022SOL     OW24964   6.166   0.835   1.298
 8022SOL    HW124965   6.182   0.908   1.365
 8022SOL    HW224966   6.191   0.747   1.339
 8023SOL     OW24967   5.717   5.577   3.248
 8023SOL    HW124968   5.736   5.675   3.254
 8023SOL    HW224969   5.761   5.540   3.166
 8024SOL     OW24970   1.780   5.878   6.292
 8024SOL    HW124971   1.785   5.907   6.197
 8024SOL    HW224972   1.729   5.792   6.298
 8025SOL     OW24973   1.829   4.530   1.739
 8025SOL    HW124974   1.754   4.580   1.696
 8025SOL    HW224975   1.840   4.561   1.833
 8026SOL     OW24976   0.431   4.494   0.825
 8026SOL    HW124977   0.333   4.478   0.815
 8026SOL    HW224978   0.459   4.477   0.919
 8027SOL     OW24979   4.041   6.656   5.281
 8027SOL    HW124980   4.048   6.706   5.367
 8027SOL    HW224981   3.958   6.601   5.280
 8028SOL     OW24982   3.090   6.082   4.754
 8028SOL    HW124983   3.014   6.089   4.819
 8028SOL    HW224984   3.058   6.103   4.662
 8029SOL     OW24985   4.879   2.182   1.957
 8029SOL    HW124986   4.825   2.239   1.896
 8029SOL    HW224987   4.976   2.190   1.933
 8030SOL     OW24988   6.023   4.945   1.089
 8030SOL    HW124989   5.979   4.995   1.014
 8030SOL    HW224990   6.120   4.970   1.093
 8031SOL     OW24991   5.591   0.358   3.620
 8031SOL    HW124992   5.639   0.408   3.692
 8031SOL    HW224993   5.653   0.342   3.543
 8032SOL     OW24994   5.330   3.350   1.789
 8032SOL    HW124995   5.272   3.431   1.797
 8032SOL    HW224996   5.324   3.296   1.873
 8033SOL     OW24997   4.013   3.392   0.449
 8033SOL    HW124998   3.975   3.475   0.488
 8033SOL    HW224999   3.952   3.357   0.377
 8034SOL     OW25000   5.611   0.580   5.392
 8034SOL    HW125001   5.620   0.510   5.321
 8034SOL    HW225002   5.629   0.670   5.352
 8035SOL     OW25003   4.269   0.770   2.371
 8035SOL    HW125004   4.200   0.731   2.431
 8035SOL    HW225005   4.238   0.765   2.276
 8036SOL     OW25006   6.573   2.825   3.852
 8036SOL    HW125007   6.581   2.897   3.920
 8036SOL    HW225008   6.659   2.775   3.846
 8037SOL     OW25009   1.341   2.698   0.152
 8037SOL    HW125010   1.253   2.659   0.126
 8037SOL    HW225011   1.414   2.653   0.100
 8038SOL     OW25012   5.554   6.373   1.828
 8038SOL    HW125013   5.584   6.278   1.818
 8038SOL    HW225014   5.620   6.424   1.882
 8039SOL     OW25015   0.492   2.597   5.425
 8039SOL    HW125016   0.523   2.630   5.336
 8039SOL    HW225017   0.571   2.576   5.482
 8040SOL     OW25018   2.005   5.845   5.989
 8040SOL    HW125019   2.018   5.784   5.910
 8040SOL    HW225020   2.069   5.819   6.062
 8041SOL     OW25021   3.320   1.491   3.065
 8041SOL    HW125022   3.259   1.535   2.999
 8041SOL    HW225023   3.286   1.505   3.157
 8042SOL     OW25024   4.520   4.243   5.994
 8042SOL    HW125025   4.615   4.265   5.973
 8042SOL    HW225026   4.467   4.328   6.001
 8043SOL     OW25027   4.575   4.934   1.354
 8043SOL    HW125028   4.659   4.911   1.306
 8043SOL    HW225029   4.525   4.850   1.375
 8044SOL     OW25030   3.902   3.742   1.205
 8044SOL    HW125031   3.838   3.753   1.281
 8044SOL    HW225032   3.888   3.653   1.162
 8045SOL     OW25033   6.952   1.342   2.832
 8045SOL    HW125034   6.951   1.245   2.810
 8045SOL    HW225035   0.018   1.380   2.811
 8046SOL     OW25036   0.227   4.957   1.858
 8046SOL    HW125037   0.288   4.902   1.915
 8046SOL    HW225038   0.230   5.052   1.889
 8047SOL     OW25039   3.885   6.760   6.121
 8047SOL    HW125040   3.788   6.758   6.097
 8047SOL    HW225041   3.906   6.682   6.180
 8048SOL     OW25042   3.623   2.928   0.449
 8048SOL    HW125043   3.680   2.871   0.508
 8048SOL    HW225044   3.545   2.963   0.501
 8049SOL     OW25045   1.092   6.681   0.336
 8049SOL    HW125046   1.042   6.680   0.424
 8049SOL    HW225047   1.094   6.588   0.299
 8050SOL     OW25048   1.849   4.320   4.319
 8050SOL    HW125049   1.790   4.333   4.398
 8050SOL    HW225050   1.918   4.250   4.340
 8051SOL     OW25051   4.977   5.931   4.209
 8051SOL    HW125052   5.073   5.954   4.220
 8051SOL    HW225053   4.941   5.898   4.296
 8052SOL     OW25054   2.628   1.259   2.231
 8052SOL    HW125055   2.671   1.321   2.166
 8052SOL    HW225056   2.567   1.311   2.291
 8053SOL     OW25057   2.875   3.166   5.432
 8053SOL    HW125058   2.885   3.132   5.525
 8053SOL    HW225059   2.811   3.109   5.381
 8054SOL     OW25060   5.925   4.278   5.005
 8054SOL    HW125061   5.881   4.324   5.081
 8054SOL    HW225062   5.964   4.346   4.942
 8055SOL     OW25063   0.239   0.497   5.243
 8055SOL    HW125064   0.233   0.550   5.158
 8055SOL    HW225065   0.282   0.409   5.225
 8056SOL     OW25066   2.640   6.798   3.697
 8056SOL    HW125067   2.595   6.736   3.632
 8056SOL    HW225068   2.739   6.787   3.691
 8057SOL     OW25069   2.478   2.177   1.955
 8057SOL    HW125070   2.482   2.276   1.943
 8057SOL    HW225071   2.441   2.134   1.873
 8058SOL     OW25072   3.121   6.585   3.046
 8058SOL    HW125073   3.206   6.542   3.076
 8058SOL    HW225074   3.113   6.675   3.090
 8059SOL     OW25075   3.454   1.685   5.541
 8059SOL    HW125076   3.421   1.636   5.461
 8059SOL    HW225077   3.480   1.619   5.612
 8060SOL     OW25078   6.915   0.525   6.030
 8060SOL    HW125079   6.872   0.615   6.040
 8060SOL    HW225080   6.849   0.453   6.050
 8061SOL     OW25081   0.150   0.859   2.161
 8061SOL    HW125082   0.061   0.817   2.179
 8061SOL    HW225083   0.183   0.903   2.245
 8062SOL     OW25084   3.999   5.490   4.744
 8062SOL    HW125085   4.019   5.394   4.763
 8062SOL    HW225086   4.068   5.527   4.682
 8063SOL     OW25087   3.353   0.615   2.947
 8063SOL    HW125088   3.315   0.567   3.025
 8063SOL    HW225089   3.439   0.571   2.920
 8064SOL     OW25090   6.491   3.082   0.614
 8064SOL    HW125091   6.451   3.103   0.525
 8064SOL    HW225092   6.504   3.167   0.666
 8065SOL     OW25093   3.771   0.004   4.573
 8065SOL    HW125094   3.849   0.060   4.599
 8065SOL    HW225095   3.705   0.002   4.648
 8066SOL     OW25096   6.649   1.345   4.728
 8066SOL    HW125097   6.634   1.253   4.764
 8066SOL    HW225098   6.746   1.359   4.712
 8067SOL     OW25099   5.186   3.118   3.510
 8067SOL    HW125100   5.235   3.205   3.503
 8067SOL    HW225101   5.121   3.123   3.586
 8068SOL     OW25102   0.554   5.109   1.228
 8068SOL    HW125103   0.491   5.053   1.174
 8068SOL    HW225104   0.542   5.205   1.204
 8069SOL     OW25105   3.134   5.416   2.249
 8069SOL    HW125106   3.104   5.372   2.334
 8069SOL    HW225107   3.103   5.363   2.171
 8070SOL     OW25108   4.129   4.132   0.915
 8070SOL    HW125109   4.109   4.197   0.988
 8070SOL    HW225110   4.124   4.039   0.950
 8071SOL     OW25111   4.115   6.838   5.075
 8071SOL    HW125112   4.082   6.799   5.161
 8071SOL    HW225113   4.188   6.903   5.093
 8072SOL     OW25114   2.980   2.655   0.165
 8072SOL    HW125115   3.062   2.609   0.196
 8072SOL    HW225116   2.914   2.660   0.240
 8073SOL     OW25117   3.331   0.210   6.098
 8073SOL    HW125118   3.282   0.279   6.151
 8073SOL    HW225119   3.265   0.146   6.058
 8074SOL     OW25120   1.769   1.036   0.883
 8074SOL    HW125121   1.699   1.089   0.930
 8074SOL    HW225122   1.830   1.099   0.833
 8075SOL     OW25123   0.870   6.677   0.016
 8075SOL    HW125124   0.917   6.764   0.001
 8075SOL    HW225125   0.809   6.685   0.094
 8076SOL     OW25126   0.237   0.045   6.561
 8076SOL    HW125127   0.264   0.098   6.481
 8076SOL    HW225128   0.198   0.105   6.630
 8077SOL     OW25129   4.024   6.177   1.937
 8077SOL    HW125130   4.059   6.214   1.852
 8077SOL    HW225131   3.930   6.209   1.952
 8078SOL     OW25132   0.703   1.393   0.703
 8078SOL    HW125133   0.629   1.338   0.744
 8078SOL    HW225134   0.755   1.437   0.776
 8079SOL     OW25135   0.196   1.561   4.410
 8079SOL    HW125136   0.103   1.545   4.443
 8079SOL    HW225137   0.256   1.489   4.444
 8080SOL     OW25138   1.343   2.760   2.104
 8080SOL    HW125139   1.276   2.696   2.141
 8080SOL    HW225140   1.325   2.852   2.139
 8081SOL     OW25141   6.277   4.382   5.608
 8081SOL    HW125142   6.336   4.398   5.688
 8081SOL    HW225143   6.247   4.469   5.571
 8082SOL     OW25144   2.900   0.545   1.929
 8082SOL    HW125145   2.931   0.451   1.917
 8082SOL    HW225146   2.887   0.587   1.839
 8083SOL     OW25147   5.767   3.074   3.697
 8083SOL    HW125148   5.843   3.063   3.633
 8083SOL    HW225149   5.680   3.069   3.647
 8084SOL     OW25150   2.374   0.602   5.591
 8084SOL    HW125151   2.336   0.521   5.547
 8084SOL    HW225152   2.442   0.575   5.659
 8085SOL     OW25153   6.449   6.441   2.934
 8085SOL    HW125154   6.500   6.502   2.874
 8085SOL    HW225155   6.508   6.367   2.966
 8086SOL     OW25156   6.733   1.019   1.441
 8086SOL    HW125157   6.742   0.920   1.445
 8086SOL    HW225158   6.649   1.044   1.394
 8087SOL     OW25159   1.396   0.974   6.376
 8087SOL    HW125160   1.476   0.929   6.336
 8087SOL    HW225161   1.313   0.939   6.333
 8088SOL     OW25162   6.012   6.902   6.906
 8088SOL    HW125163   5.917   6.919   6.877
 8088SOL    HW225164   6.014   6.822   6.965
 8089SOL     OW25165   5.821   2.644   6.453
 8089SOL    HW125166   5.770   2.722   6.416
 8089SOL    HW225167   5.872   2.673   6.534
 8090SOL     OW25168   3.788   1.533   6.131
 8090SOL    HW125169   3.784   1.443   6.089
 8090SOL    HW225170   3.804   1.602   6.060
 8091SOL     OW25171   1.167   4.491   4.262
 8091SOL    HW125172   1.235   4.458   4.197
 8091SOL    HW225173   1.145   4.418   4.327
 8092SOL     OW25174   4.847   2.071   5.134
 8092SOL    HW125175   4.786   1.992   5.132
 8092SOL    HW225176   4.942   2.040   5.141
 8093SOL     OW25177   3.379   5.786   2.966
 8093SOL    HW125178   3.461   5.776   3.023
 8093SOL    HW225179   3.301   5.809   3.023
 8094SOL     OW25180   0.608   3.920   5.349
 8094SOL    HW125181   0.613   3.872   5.436
 8094SOL    HW225182   0.556   4.005   5.360
 8095SOL     OW25183   1.075   4.969   4.931
 8095SOL    HW125184   1.167   4.935   4.909
 8095SOL    HW225185   1.016   4.892   4.955
 8096SOL     OW25186   1.271   0.230   2.386
 8096SOL    HW125187   1.320   0.143   2.376
 8096SOL    HW225188   1.181   0.223   2.342
 8097SOL     OW25189   3.946   0.394   4.684
 8097SOL    HW125190   4.018   0.463   4.682
 8097SOL    HW225191   3.869   0.427   4.740
 8098SOL     OW25192   1.612   6.410   3.878
 8098SOL    HW125193   1.621   6.319   3.838
 8098SOL    HW225194   1.699   6.459   3.870
 8099SOL     OW25195   4.418   5.985   4.425
 8099SOL    HW125196   4.443   6.042   4.346
 8099SOL    HW225197   4.498   5.974   4.485
 8100SOL     OW25198   6.581   1.288   6.684
 8100SOL    HW125199   6.485   1.262   6.680
 8100SOL    HW225200   6.623   1.276   6.594
 8101SOL     OW25201   2.251   4.825   0.881
 8101SOL    HW125202   2.155   4.799   0.872
 8101SOL    HW225203   2.289   4.783   0.964
 8102SOL     OW25204   0.862   3.460   4.266
 8102SOL    HW125205   0.810   3.382   4.233
 8102SOL    HW225206   0.818   3.545   4.234
 8103SOL     OW25207   3.208   0.542   2.132
 8103SOL    HW125208   3.158   0.460   2.161
 8103SOL    HW225209   3.245   0.589   2.211
 8104SOL     OW25210   1.930   6.970   5.424
 8104SOL    HW125211   1.960   6.917   5.504
 8104SOL    HW225212   1.833   6.990   5.433
 8105SOL     OW25213   0.271   2.494   2.626
 8105SOL    HW125214   0.217   2.505   2.710
 8105SOL    HW225215   0.213   2.457   2.554
 8106SOL     OW25216   2.651   6.441   3.365
 8106SOL    HW125217   2.714   6.387   3.421
 8106SOL    HW225218   2.653   6.406   3.271
 8107SOL     OW25219   0.938   5.883   4.288
 8107SOL    HW125220   0.857   5.855   4.340
 8107SOL    HW225221   0.912   5.956   4.224
 8108SOL     OW25222   6.645   1.425   6.909
 8108SOL    HW125223   6.611   1.362   6.839
 8108SOL    HW225224   6.571   1.487   6.937
 8109SOL     OW25225   7.014   4.383   6.032
 8109SOL    HW125226   0.074   4.350   6.074
 8109SOL    HW225227   6.941   4.385   6.100
 8110SOL     OW25228   4.069   4.557   1.604
 8110SOL    HW125229   4.162   4.525   1.623
 8110SOL    HW225230   4.038   4.519   1.517
 8111SOL     OW25231   5.402   1.025   4.045
 8111SOL    HW125232   5.340   0.975   4.106
 8111SOL    HW225233   5.360   1.035   3.955
 8112SOL     OW25234   1.337   3.650   4.337
 8112SOL    HW125235   1.330   3.656   4.238
 8112SOL    HW225236   1.248   3.627   4.376
 8113SOL     OW25237   6.111   3.570   0.955
 8113SOL    HW125238   6.134   3.533   0.865
 8113SOL    HW225239   6.099   3.496   1.020
 8114SOL     OW25240   1.051   3.478   2.057
 8114SOL    HW125241   1.045   3.488   2.156
 8114SOL    HW225242   0.987   3.407   2.027
 8115SOL     OW25243   3.066   6.277   5.715
 8115SOL    HW125244   3.078   6.327   5.630
 8115SOL    HW225245   3.081   6.180   5.700
 8116SOL     OW25246   4.255   5.097   0.315
 8116SOL    HW125247   4.291   5.184   0.283
 8116SOL    HW225248   4.204   5.052   0.241
 8117SOL     OW25249   2.114   0.096   2.883
 8117SOL    HW125250   2.049   0.021   2.874
 8117SOL    HW225251   2.180   0.075   2.955
 8118SOL     OW25252   6.355   3.928   6.611
 8118SOL    HW125253   6.374   3.845   6.664
 8118SOL    HW225254   6.440   3.975   6.592
 8119SOL     OW25255   4.978   6.438   6.323
 8119SOL    HW125256   4.951   6.512   6.383
 8119SOL    HW225257   5.041   6.472   6.253
 8120SOL     OW25258   2.847   4.798   0.263
 8120SOL    HW125259   2.748   4.805   0.255
 8120SOL    HW225260   2.884   4.886   0.292
 8121SOL     OW25261   0.862   4.687   2.180
 8121SOL    HW125262   0.899   4.735   2.100
 8121SOL    HW225263   0.911   4.601   2.193
 8122SOL     OW25264   0.807   4.644   3.163
 8122SOL    HW125265   0.898   4.664   3.126
 8122SOL    HW225266   0.811   4.645   3.263
 8123SOL     OW25267   6.994   1.106   0.093
 8123SOL    HW125268   7.009   1.151   0.181
 8123SOL    HW225269   6.941   1.023   0.106
 8124SOL     OW25270   5.465   6.227   3.507
 8124SOL    HW125271   5.534   6.280   3.458
 8124SOL    HW225272   5.471   6.131   3.481
 8125SOL     OW25273   0.865   1.108   2.563
 8125SOL    HW125274   0.865   1.166   2.482
 8125SOL    HW225275   0.880   1.013   2.536
 8126SOL     OW25276   4.880   4.944   3.812
 8126SOL    HW125277   4.833   4.870   3.766
 8126SOL    HW225278   4.919   5.007   3.744
 8127SOL     OW25279   2.689   2.969   6.311
 8127SOL    HW125280   2.762   2.996   6.373
 8127SOL    HW225281   2.607   3.023   6.329
 8128SOL     OW25282   2.997   2.086   1.872
 8128SOL    HW125283   2.959   2.149   1.940
 8128SOL    HW225284   3.088   2.058   1.900
 8129SOL     OW25285   2.090   2.165   6.863
 8129SOL    HW125286   2.165   2.197   6.920
 8129SOL    HW225287   2.102   2.067   6.843
 8130SOL     OW25288   1.494   6.365   6.958
 8130SOL    HW125289   1.529   6.276   6.930
 8130SOL    HW225290   1.528   6.387   0.026
 8131SOL     OW25291   2.419   1.983   1.531
 8131SOL    HW125292   2.502   2.009   1.481
 8131SOL    HW225293   2.351   2.055   1.521
 8132SOL     OW25294   6.013   6.351   4.839
 8132SOL    HW125295   6.098   6.304   4.815
 8132SOL    HW225296   6.018   6.446   4.809
 8133SOL     OW25297   3.914   5.648   2.101
 8133SOL    HW125298   3.920   5.742   2.068
 8133SOL    HW225299   3.839   5.641   2.167
 8134SOL     OW25300   6.866   1.086   6.379
 8134SOL    HW125301   6.965   1.083   6.368
 8134SOL    HW225302   6.823   1.017   6.320
 8135SOL     OW25303   1.568   0.809   1.339
 8135SOL    HW125304   1.552   0.710   1.334
 8135SOL    HW225305   1.525   0.845   1.422
 8136SOL     OW25306   5.448   5.505   2.500
 8136SOL    HW125307   5.525   5.477   2.558
 8136SOL    HW225308   5.443   5.604   2.496
 8137SOL     OW25309   2.953   0.910   4.918
 8137SOL    HW125310   2.958   0.852   5.000
 8137SOL    HW225311   3.026   0.885   4.855
 8138SOL     OW25312   5.480   1.152   1.637
 8138SOL    HW125313   5.550   1.081   1.640
 8138SOL    HW225314   5.413   1.135   1.710
 8139SOL     OW25315   0.631   1.061   2.289
 8139SOL    HW125316   0.721   1.091   2.321
 8139SOL    HW225317   0.560   1.106   2.343
 8140SOL     OW25318   4.954   1.145   4.624
 8140SOL    HW125319   4.933   1.151   4.721
 8140SOL    HW225320   4.898   1.212   4.574
 8141SOL     OW25321   4.325   5.538   5.890
 8141SOL    HW125322   4.275   5.452   5.890
 8141SOL    HW225323   4.423   5.520   5.897
 8142SOL     OW25324   6.303   5.113   0.026
 8142SOL    HW125325   6.328   5.147   0.117
 8142SOL    HW225326   6.284   5.015   0.031
 8143SOL     OW25327   6.169   4.714   7.020
 8143SOL    HW125328   6.255   4.663   7.015
 8143SOL    HW225329   6.116   4.698   6.936
 8144SOL     OW25330   5.409   7.021   7.002
 8144SOL    HW125331   5.489   6.970   0.007
 8144SOL    HW225332   5.327   6.985   0.022
 8145SOL     OW25333   5.725   5.783   2.693
 8145SOL    HW125334   5.759   5.811   2.782
 8145SOL    HW225335   5.778   5.828   2.621
 8146SOL     OW25336   3.647   1.516   5.750
 8146SOL    HW125337   3.736   1.471   5.760
 8146SOL    HW225338   3.583   1.453   5.707
 8147SOL     OW25339   5.604   2.250   3.238
 8147SOL    HW125340   5.507   2.237   3.260
 8147SOL    HW225341   5.637   2.174   3.184
 8148SOL     OW25342   5.726   3.788   2.759
 8148SOL    HW125343   5.819   3.752   2.753
 8148SOL    HW225344   5.682   3.755   2.842
 8149SOL     OW25345   2.673   5.881   2.619
 8149SOL    HW125346   2.583   5.875   2.576
 8149SOL    HW225347   2.715   5.790   2.622
 8150SOL     OW25348   6.895   4.846   0.244
 8150SOL    HW125349   6.842   4.928   0.264
 8150SOL    HW225350   6.961   4.866   0.171
 8151SOL     OW25351   0.537   2.244   3.120
 8151SOL    HW125352   0.531   2.177   3.193
 8151SOL    HW225353   0.526   2.336   3.157
 8152SOL     OW25354   1.245   1.798   3.152
 8152SOL    HW125355   1.322   1.856   3.128
 8152SOL    HW225356   1.266   1.747   3.236
 8153SOL     OW25357   3.170   0.002   2.711
 8153SOL    HW125358   3.145   0.055   2.630
 8153SOL    HW225359   3.156   6.929   2.693
 8154SOL     OW25360   2.468   6.036   4.388
 8154SOL    HW125361   2.480   5.943   4.353
 8154SOL    HW225362   2.517   6.046   4.474
 8155SOL     OW25363   2.820   3.340   2.112
 8155SOL    HW125364   2.796   3.404   2.038
 8155SOL    HW225365   2.806   3.246   2.080
 8156SOL     OW25366   5.734   0.511   5.637
 8156SOL    HW125367   5.686   0.534   5.552
 8156SOL    HW225368   5.829   0.489   5.616
 8157SOL     OW25369   5.667   5.865   6.344
 8157SOL    HW125370   5.627   5.879   6.434
 8157SOL    HW225371   5.670   5.951   6.294
 8158SOL     OW25372   1.547   5.868   0.767
 8158SOL    HW125373   1.502   5.925   0.699
 8158SOL    HW225374   1.622   5.817   0.724
 8159SOL     OW25375   2.357   5.733   2.266
 8159SOL    HW125376   2.281   5.732   2.201
 8159SOL    HW225377   2.442   5.706   2.220
 8160SOL     OW25378   4.673   1.566   0.974
 8160SOL    HW125379   4.629   1.481   1.003
 8160SOL    HW225380   4.644   1.589   0.881
 8161SOL     OW25381   5.003   1.033   0.984
 8161SOL    HW125382   5.099   1.028   0.957
 8161SOL    HW225383   4.972   1.128   0.979
 8162SOL     OW25384   6.329   6.626   0.072
 8162SOL    HW125385   6.380   6.571   0.006
 8162SOL    HW225386   6.302   6.569   0.149
 8163SOL     OW25387   2.687   4.155   5.272
 8163SOL    HW125388   2.754   4.157   5.346
 8163SOL    HW225389   2.632   4.072   5.279
 8164SOL     OW25390   5.956   3.188   1.308
 8164SOL    HW125391   5.971   3.097   1.347
 8164SOL    HW225392   5.869   3.224   1.340
 8165SOL     OW25393   1.960   4.515   1.499
 8165SOL    HW125394   1.881   4.545   1.445
 8165SOL    HW225395   1.943   4.534   1.595
 8166SOL     OW25396   2.145   1.201   1.836
 8166SOL    HW125397   2.234   1.241   1.817
 8166SOL    HW225398   2.078   1.274   1.852
 8167SOL     OW25399   5.587   2.527   3.847
 8167SOL    HW125400   5.606   2.582   3.766
 8167SOL    HW225401   5.642   2.443   3.843
 8168SOL     OW25402   3.721   1.658   2.637
 8168SOL    HW125403   3.801   1.656   2.697
 8168SOL    HW225404   3.729   1.586   2.568
 8169SOL     OW25405   4.149   3.616   0.991
 8169SOL    HW125406   4.191   3.574   0.911
 8169SOL    HW225407   4.052   3.594   0.993
 8170SOL     OW25408   1.385   5.806   3.530
 8170SOL    HW125409   1.377   5.851   3.619
 8170SOL    HW225410   1.474   5.827   3.490
 8171SOL     OW25411   0.499   2.334   6.883
 8171SOL    HW125412   0.418   2.392   6.869
 8171SOL    HW225413   0.482   2.269   6.956
 8172SOL     OW25414   0.178   0.523   1.007
 8172SOL    HW125415   0.275   0.502   1.024
 8172SOL    HW225416   0.121   0.452   1.047
 8173SOL     OW25417   3.377   2.577   6.850
 8173SOL    HW125418   3.296   2.562   6.794
 8173SOL    HW225419   3.420   2.664   6.824
 8174SOL     OW25420   5.481   1.885   0.944
 8174SOL    HW125421   5.392   1.883   0.899
 8174SOL    HW225422   5.528   1.798   0.928
 8175SOL     OW25423   6.590   2.551   6.761
 8175SOL    HW125424   6.497   2.517   6.742
 8175SOL    HW225425   6.604   2.556   6.860
 8176SOL     OW25426   3.002   5.923   2.119
 8176SOL    HW125427   2.913   5.897   2.156
 8176SOL    HW225428   3.067   5.936   2.193
 8177SOL     OW25429   1.674   6.147   3.845
 8177SOL    HW125430   1.619   6.091   3.907
 8177SOL    HW225431   1.770   6.124   3.856
 8178SOL     OW25432   2.323   0.012   6.201
 8178SOL    HW125433   2.371   7.010   6.284
 8178SOL    HW225434   2.350   0.105   6.175
 8179SOL     OW25435   3.101   3.197   6.765
 8179SOL    HW125436   3.108   3.105   6.725
 8179SOL    HW225437   3.192   3.230   6.789
 8180SOL     OW25438   6.620   0.256   4.071
 8180SOL    HW125439   6.624   0.247   4.171
 8180SOL    HW225440   6.525   0.249   4.040
 8181SOL     OW25441   2.518   2.437   3.058
 8181SOL    HW125442   2.454   2.362   3.039
 8181SOL    HW225443   2.611   2.401   3.062
 8182SOL     OW25444   3.164   2.050   5.762
 8182SOL    HW125445   3.231   2.010   5.699
 8182SOL    HW225446   3.085   2.083   5.710
 8183SOL     OW25447   1.131   3.303   5.255
 8183SOL    HW125448   1.220   3.258   5.249
 8183SOL    HW225449   1.063   3.249   5.204
 8184SOL     OW25450   6.529   0.918   5.663
 8184SOL    HW125451   6.443   0.960   5.635
 8184SOL    HW225452   6.602   0.947   5.601
 8185SOL     OW25453   3.010   0.791   0.697
 8185SOL    HW125454   3.081   0.722   0.712
 8185SOL    HW225455   2.937   0.752   0.640
 8186SOL     OW25456   3.341   5.887   5.634
 8186SOL    HW125457   3.385   5.974   5.610
 8186SOL    HW225458   3.411   5.817   5.648
 8187SOL     OW25459   1.224   1.461   5.634
 8187SOL    HW125460   1.141   1.405   5.637
 8187SOL    HW225461   1.298   1.409   5.591
 8188SOL     OW25462   5.146   1.539   2.500
 8188SOL    HW125463   5.114   1.627   2.534
 8188SOL    HW225464   5.069   1.488   2.462
 8189SOL     OW25465   5.389   4.383   2.511
 8189SOL    HW125466   5.297   4.370   2.473
 8189SOL    HW225467   5.456   4.334   2.455
 8190SOL     OW25468   5.451   4.190   4.104
 8190SOL    HW125469   5.375   4.231   4.053
 8190SOL    HW225470   5.533   4.188   4.046
 8191SOL     OW25471   0.846   5.584   3.971
 8191SOL    HW125472   0.771   5.541   3.921
 8191SOL    HW225473   0.913   5.514   3.998
 8192SOL     OW25474   2.915   5.462   1.246
 8192SOL    HW125475   2.913   5.558   1.274
 8192SOL    HW225476   2.821   5.432   1.226
 8193SOL     OW25477   5.604   6.329   5.193
 8193SOL    HW125478   5.663   6.403   5.160
 8193SOL    HW225479   5.596   6.260   5.121
 8194SOL     OW25480   6.169   1.831   6.975
 8194SOL    HW125481   6.158   1.865   6.881
 8194SOL    HW225482   6.119   1.745   6.985
 8195SOL     OW25483   7.007   0.183   0.564
 8195SOL    HW125484   0.046   0.238   0.618
 8195SOL    HW225485   6.996   0.223   0.473
 8196SOL     OW25486   3.493   6.194   5.801
 8196SOL    HW125487   3.428   6.153   5.865
 8196SOL    HW225488   3.551   6.122   5.763
 8197SOL     OW25489   6.848   0.860   5.968
 8197SOL    HW125490   6.804   0.913   6.040
 8197SOL    HW225491   6.780   0.804   5.921
 8198SOL     OW25492   2.550   6.841   2.940
 8198SOL    HW125493   2.617   6.908   2.973
 8198SOL    HW225494   2.598   6.761   2.903
 8199SOL     OW25495   0.656   3.955   0.414
 8199SOL    HW125496   0.591   3.884   0.387
 8199SOL    HW225497   0.718   3.975   0.339
 8200SOL     OW25498   4.571   3.987   1.679
 8200SOL    HW125499   4.540   4.075   1.715
 8200SOL    HW225500   4.492   3.932   1.653
 8201SOL     OW25501   5.323   0.720   4.532
 8201SOL    HW125502   5.395   0.757   4.473
 8201SOL    HW225503   5.350   0.629   4.563
 8202SOL     OW25504   1.732   5.129   3.883
 8202SOL    HW125505   1.710   5.214   3.931
 8202SOL    HW225506   1.813   5.087   3.924
 8203SOL     OW25507   4.806   3.751   1.359
 8203SOL    HW125508   4.904   3.764   1.373
 8203SOL    HW225509   4.790   3.662   1.316
 8204SOL     OW25510   3.317   6.935   2.129
 8204SOL    HW125511   3.298   6.837   2.123
 8204SOL    HW225512   3.395   6.950   2.190
 8205SOL     OW25513   5.546   5.369   2.132
 8205SOL    HW125514   5.447   5.362   2.121
 8205SOL    HW225515   5.590   5.288   2.094
 8206SOL     OW25516   3.914   2.090   5.665
 8206SOL    HW125517   3.883   2.185   5.652
 8206SOL    HW225518   3.854   2.029   5.614
 8207SOL     OW25519   3.065   4.829   5.702
 8207SOL    HW125520   3.015   4.776   5.634
 8207SOL    HW225521   3.092   4.769   5.778
 8208SOL     OW25522   1.842   5.409   1.887
 8208SOL    HW125523   1.834   5.310   1.895
 8208SOL    HW225524   1.897   5.445   1.963
 8209SOL     OW25525   1.707   1.106   5.265
 8209SOL    HW125526   1.761   1.042   5.320
 8209SOL    HW225527   1.725   1.200   5.295
 8210SOL     OW25528   1.789   1.022   0.531
 8210SOL    HW125529   1.843   0.968   0.467
 8210SOL    HW225530   1.708   0.970   0.559
 8211SOL     OW25531   3.225   3.607   3.962
 8211SOL    HW125532   3.157   3.567   3.900
 8211SOL    HW225533   3.303   3.640   3.909
 8212SOL     OW25534   2.127   6.931   1.383
 8212SOL    HW125535   2.075   6.995   1.327
 8212SOL    HW225536   2.074   6.907   1.464
 8213SOL     OW25537   4.333   4.557   1.947
 8213SOL    HW125538   4.398   4.629   1.974
 8213SOL    HW225539   4.381   4.469   1.946
 8214SOL     OW25540   3.036   5.711   4.230
 8214SOL    HW125541   3.120   5.724   4.177
 8214SOL    HW225542   2.960   5.757   4.184
 8215SOL     OW25543   3.722   6.357   6.957
 8215SOL    HW125544   3.716   6.446   7.003
 8215SOL    HW225545   3.638   6.341   6.905
 8216SOL     OW25546   4.646   6.390   2.647
 8216SOL    HW125547   4.742   6.382   2.621
 8216SOL    HW225548   4.591   6.326   2.594
 8217SOL     OW25549   2.551   4.499   3.040
 8217SOL    HW125550   2.620   4.426   3.042
 8217SOL    HW225551   2.538   4.530   2.946
 8218SOL     OW25552   1.486   0.268   4.600
 8218SOL    HW125553   1.459   0.361   4.624
 8218SOL    HW225554   1.481   0.256   4.500
 8219SOL     OW25555   3.573   3.672   1.633
 8219SOL    HW125556   3.605   3.657   1.726
 8219SOL    HW225557   3.483   3.629   1.621
 8220SOL     OW25558   3.420   4.078   4.845
 8220SOL    HW125559   3.393   3.989   4.808
 8220SOL    HW225560   3.471   4.129   4.775
 8221SOL     OW25561   6.020   3.251   3.384
 8221SOL    HW125562   6.005   3.160   3.423
 8221SOL    HW225563   5.936   3.304   3.390
 8222SOL     OW25564   5.863   2.574   1.814
 8222SOL    HW125565   5.788   2.560   1.878
 8222SOL    HW225566   5.906   2.486   1.793
 8223SOL     OW25567   6.989   5.657   5.684
 8223SOL    HW125568   6.948   5.572   5.716
 8223SOL    HW225569   6.998   5.655   5.584
 8224SOL     OW25570   4.618   2.157   0.450
 8224SOL    HW125571   4.623   2.241   0.504
 8224SOL    HW225572   4.690   2.157   0.381
 8225SOL     OW25573   4.401   1.287   6.783
 8225SOL    HW125574   4.460   1.367   6.774
 8225SOL    HW225575   4.411   1.248   6.875
 8226SOL     OW25576   3.298   0.816   0.051
 8226SOL    HW125577   3.361   0.791   7.002
 8226SOL    HW225578   3.226   0.747   0.058
 8227SOL     OW25579   6.017   1.658   2.735
 8227SOL    HW125580   5.966   1.744   2.736
 8227SOL    HW225581   6.109   1.673   2.771
 8228SOL     OW25582   0.911   0.896   5.408
 8228SOL    HW125583   0.920   0.955   5.329
 8228SOL    HW225584   0.820   0.905   5.448
 8229SOL     OW25585   4.051   4.782   1.368
 8229SOL    HW125586   3.952   4.775   1.383
 8229SOL    HW225587   4.084   4.697   1.328
 8230SOL     OW25588   4.342   0.575   6.109
 8230SOL    HW125589   4.251   0.577   6.068
 8230SOL    HW225590   4.340   0.619   6.198
 8231SOL     OW25591   3.195   1.027   1.765
 8231SOL    HW125592   3.233   1.067   1.849
 8231SOL    HW225593   3.241   0.940   1.747
 8232SOL     OW25594   4.204   0.449   2.317
 8232SOL    HW125595   4.136   0.478   2.385
 8232SOL    HW225596   4.249   0.366   2.349
 8233SOL     OW25597   0.608   0.794   5.254
 8233SOL    HW125598   0.612   0.852   5.335
 8233SOL    HW225599   0.659   0.710   5.271
 8234SOL     OW25600   2.517   3.028   0.013
 8234SOL    HW125601   2.518   2.953   0.080
 8234SOL    HW225602   2.526   3.115   0.060
 8235SOL     OW25603   6.867   5.377   0.092
 8235SOL    HW125604   6.819   5.454   0.134
 8235SOL    HW225605   6.960   5.373   0.128
 8236SOL     OW25606   1.052   6.576   5.996
 8236SOL    HW125607   1.011   6.666   6.010
 8236SOL    HW225608   1.147   6.587   5.966
 8237SOL     OW25609   4.737   5.178   6.186
 8237SOL    HW125610   4.753   5.144   6.279
 8237SOL    HW225611   4.729   5.278   6.188
 8238SOL     OW25612   2.407   4.767   1.105
 8238SOL    HW125613   2.494   4.816   1.102
 8238SOL    HW225614   2.421   4.676   1.143
 8239SOL     OW25615   0.664   1.694   5.580
 8239SOL    HW125616   0.707   1.779   5.609
 8239SOL    HW225617   0.617   1.708   5.493
 8240SOL     OW25618   3.754   3.637   4.623
 8240SOL    HW125619   3.739   3.701   4.548
 8240SOL    HW225620   3.852   3.619   4.633
 8241SOL     OW25621   1.220   3.650   6.704
 8241SOL    HW125622   1.249   3.730   6.651
 8241SOL    HW225623   1.129   3.667   6.742
 8242SOL     OW25624   1.170   4.039   4.463
 8242SOL    HW125625   1.140   3.994   4.547
 8242SOL    HW225626   1.166   3.973   4.387
 8243SOL     OW25627   0.868   4.783   4.948
 8243SOL    HW125628   0.862   4.688   4.918
 8243SOL    HW225629   0.794   4.835   4.906
 8244SOL     OW25630   1.643   0.340   3.877
 8244SOL    HW125631   1.548   0.367   3.893
 8244SOL    HW225632   1.703   0.412   3.910
 8245SOL     OW25633   5.098   1.091   3.974
 8245SOL    HW125634   5.150   1.176   3.968
 8245SOL    HW225635   5.124   1.042   4.058
 8246SOL     OW25636   0.991   4.425   6.635
 8246SOL    HW125637   0.956   4.389   6.722
 8246SOL    HW225638   0.919   4.420   6.566
 8247SOL     OW25639   3.105   5.147   3.614
 8247SOL    HW125640   3.135   5.172   3.706
 8247SOL    HW225641   3.018   5.097   3.620
 8248SOL     OW25642   0.544   5.471   3.060
 8248SOL    HW125643   0.576   5.478   3.155
 8248SOL    HW225644   0.572   5.384   3.021
 8249SOL     OW25645   2.195   2.218   6.115
 8249SOL    HW125646   2.152   2.277   6.047
 8249SOL    HW225647   2.171   2.122   6.095
 8250SOL     OW25648   1.615   1.854   6.587
 8250SOL    HW125649   1.616   1.826   6.683
 8250SOL    HW225650   1.622   1.954   6.581
 8251SOL     OW25651   6.719   2.550   4.923
 8251SOL    HW125652   6.644   2.496   4.962
 8251SOL    HW225653   6.806   2.507   4.948
 8252SOL     OW25654   1.918   2.652   6.728
 8252SOL    HW125655   1.960   2.586   6.790
 8252SOL    HW225656   1.868   2.720   6.781
 8253SOL     OW25657   3.679   5.892   0.176
 8253SOL    HW125658   3.680   5.914   0.079
 8253SOL    HW225659   3.619   5.813   0.192
 8254SOL     OW25660   5.611   5.406   0.619
 8254SOL    HW125661   5.620   5.506   0.612
 8254SOL    HW225662   5.687   5.363   0.570
 8255SOL     OW25663   0.226   0.099   5.507
 8255SOL    HW125664   0.196   0.193   5.493
 8255SOL    HW225665   0.196   0.067   5.597
 8256SOL     OW25666   1.911   5.999   2.677
 8256SOL    HW125667   1.922   5.903   2.704
 8256SOL    HW225668   1.820   6.030   2.703
 8257SOL     OW25669   4.863   3.966   3.940
 8257SOL    HW125670   4.805   4.015   4.005
 8257SOL    HW225671   4.959   3.983   3.961
 8258SOL     OW25672   6.400   3.547   2.012
 8258SOL    HW125673   6.446   3.537   1.923
 8258SOL    HW225674   6.356   3.461   2.037
 8259SOL     OW25675   4.734   2.157   4.042
 8259SOL    HW125676   4.795   2.085   4.075
 8259SOL    HW225677   4.748   2.240   4.096
 8260SOL     OW25678   2.931   0.100   0.658
 8260SOL    HW125679   2.854   0.036   0.653
 8260SOL    HW225680   2.924   0.153   0.742
 8261SOL     OW25681   5.027   0.336   3.425
 8261SOL    HW125682   4.948   0.344   3.364
 8261SOL    HW225683   5.023   0.249   3.473
 8262SOL     OW25684   0.156   3.872   1.485
 8262SOL    HW125685   0.153   3.794   1.547
 8262SOL    HW225686   0.155   3.839   1.390
 8263SOL     OW25687   6.603   2.341   0.170
 8263SOL    HW125688   6.675   2.283   0.131
 8263SOL    HW225689   6.643   2.423   0.210
 8264SOL     OW25690   1.958   6.567   2.856
 8264SOL    HW125691   1.928   6.505   2.783
 8264SOL    HW225692   2.032   6.624   2.823
 8265SOL     OW25693   5.110   0.631   0.762
 8265SOL    HW125694   5.114   0.727   0.733
 8265SOL    HW225695   5.143   0.623   0.855
 8266SOL     OW25696   2.394   6.963   3.748
 8266SOL    HW125697   2.474   6.903   3.739
 8266SOL    HW225698   2.386   6.995   3.842
 8267SOL     OW25699   1.218   3.930   3.045
 8267SOL    HW125700   1.256   4.016   3.079
 8267SOL    HW225701   1.159   3.890   3.115
 8268SOL     OW25702   3.168   4.192   6.614
 8268SOL    HW125703   3.223   4.252   6.556
 8268SOL    HW225704   3.210   4.184   6.705
 8269SOL     OW25705   4.300   2.349   3.066
 8269SOL    HW125706   4.346   2.420   3.119
 8269SOL    HW225707   4.368   2.302   3.009
 8270SOL     OW25708   4.020   7.012   6.104
 8270SOL    HW125709   4.055   7.006   6.010
 8270SOL    HW225710   3.980   6.925   6.130
 8271SOL     OW25711   4.921   6.073   4.528
 8271SOL    HW125712   4.945   6.107   4.619
 8271SOL    HW225713   4.909   6.149   4.465
 8272SOL     OW25714   0.606   6.762   1.910
 8272SOL    HW125715   0.627   6.855   1.882
 8272SOL    HW225716   0.522   6.761   1.964
 8273SOL     OW25717   3.065   6.473   0.013
 8273SOL    HW125718   2.998   6.446   6.968
 8273SOL    HW225719   3.031   6.551   0.064
 8274SOL     OW25720   4.574   5.958   6.594
 8274SOL    HW125721   4.535   5.891   6.530
 8274SOL    HW225722   4.503   6.023   6.621
 8275SOL     OW25723   6.134   0.891   4.623
 8275SOL    HW125724   6.206   0.949   4.583
 8275SOL    HW225725   6.160   0.795   4.615
 8276SOL     OW25726   6.512   3.042   6.545
 8276SOL    HW125727   6.435   3.070   6.603
 8276SOL    HW225728   6.516   2.943   6.541
 8277SOL     OW25729   0.859   5.726   5.809
 8277SOL    HW125730   0.770   5.763   5.784
 8277SOL    HW225731   0.921   5.800   5.833
 8278SOL     OW25732   3.560   1.488   6.988
 8278SOL    HW125733   3.622   1.546   6.936
 8278SOL    HW225734   3.552   1.398   6.944
 8279SOL     OW25735   4.265   6.067   6.243
 8279SOL    HW125736   4.355   6.099   6.272
 8279SOL    HW225737   4.263   6.059   6.143
 8280SOL     OW25738   4.988   2.671   0.539
 8280SOL    HW125739   5.003   2.615   0.621
 8280SOL    HW225740   4.896   2.655   0.504
 8281SOL     OW25741   1.915   4.767   0.200
 8281SOL    HW125742   1.994   4.721   0.159
 8281SOL    HW225743   1.863   4.701   0.255
 8282SOL     OW25744   3.024   2.642   1.118
 8282SOL    HW125745   3.055   2.730   1.156
 8282SOL    HW225746   2.935   2.654   1.074
 8283SOL     OW25747   0.269   4.772   3.447
 8283SOL    HW125748   0.191   4.833   3.433
 8283SOL    HW225749   0.314   4.754   3.359
 8284SOL     OW25750   2.070   1.800   1.662
 8284SOL    HW125751   2.080   1.748   1.747
 8284SOL    HW225752   2.082   1.897   1.681
 8285SOL     OW25753   3.276   4.380   5.807
 8285SOL    HW125754   3.243   4.473   5.825
 8285SOL    HW225755   3.276   4.363   5.709
 8286SOL     OW25756   5.368   1.344   4.504
 8286SOL    HW125757   5.358   1.245   4.518
 8286SOL    HW225758   5.447   1.377   4.555
 8287SOL     OW25759   1.436   0.543   3.597
 8287SOL    HW125760   1.423   0.622   3.537
 8287SOL    HW225761   1.513   0.560   3.658
 8288SOL     OW25762   1.367   1.361   2.526
 8288SOL    HW125763   1.418   1.279   2.549
 8288SOL    HW225764   1.392   1.393   2.434
 8289SOL     OW25765   6.651   1.892   5.554
 8289SOL    HW125766   6.693   1.802   5.547
 8289SOL    HW225767   6.689   1.940   5.633
 8290SOL     OW25768   3.767   2.547   1.752
 8290SOL    HW125769   3.725   2.465   1.792
 8290SOL    HW225770   3.861   2.526   1.725
 8291SOL     OW25771   5.823   6.469   6.106
 8291SOL    HW125772   5.803   6.372   6.101
 8291SOL    HW225773   5.781   6.508   6.188
 8292SOL     OW25774   1.439   3.996   4.814
 8292SOL    HW125775   1.423   3.924   4.881
 8292SOL    HW225776   1.356   4.008   4.758
 8293SOL     OW25777   2.569   5.331   2.762
 8293SOL    HW125778   2.528   5.421   2.777
 8293SOL    HW225779   2.635   5.311   2.834
 8294SOL     OW25780   6.707   3.575   6.281
 8294SOL    HW125781   6.728   3.559   6.377
 8294SOL    HW225782   6.648   3.502   6.247
 8295SOL     OW25783   4.658   4.289   2.523
 8295SOL    HW125784   4.685   4.268   2.429
 8295SOL    HW225785   4.611   4.211   2.564
 8296SOL     OW25786   3.588   6.612   1.012
 8296SOL    HW125787   3.567   6.619   0.915
 8296SOL    HW225788   3.687   6.602   1.023
 8297SOL     OW25789   6.613   4.606   3.122
 8297SOL    HW125790   6.659   4.541   3.061
 8297SOL    HW225791   6.529   4.638   3.078
 8298SOL     OW25792   6.953   0.297   6.826
 8298SOL    HW125793   0.006   0.303   6.763
 8298SOL    HW225794   6.913   0.387   6.839
 8299SOL     OW25795   0.634   3.948   1.246
 8299SOL    HW125796   0.599   3.991   1.329
 8299SOL    HW225797   0.615   4.008   1.167
 8300SOL     OW25798   6.140   4.987   3.117
 8300SOL    HW125799   6.232   5.012   3.088
 8300SOL    HW225800   6.145   4.937   3.203
 8301SOL     OW25801   4.325   6.448   0.870
 8301SOL    HW125802   4.306   6.545   0.884
 8301SOL    HW225803   4.255   6.408   0.811
 8302SOL     OW25804   3.430   6.543   4.566
 8302SOL    HW125805   3.493   6.472   4.534
 8302SOL    HW225806   3.447   6.628   4.516
 8303SOL     OW25807   6.533   0.041   2.771
 8303SOL    HW125808   6.603   7.004   2.808
 8303SOL    HW225809   6.444   7.019   2.774
 8304SOL     OW25810   6.386   3.855   3.998
 8304SOL    HW125811   6.347   3.837   3.908
 8304SOL    HW225812   6.333   3.927   4.043
 8305SOL     OW25813   4.889   5.723   4.407
 8305SOL    HW125814   4.790   5.712   4.413
 8305SOL    HW225815   4.927   5.652   4.348
 8306SOL     OW25816   6.143   1.169   2.602
 8306SOL    HW125817   6.084   1.108   2.654
 8306SOL    HW225818   6.087   1.239   2.556
 8307SOL     OW25819   1.908   4.724   2.214
 8307SOL    HW125820   1.949   4.787   2.280
 8307SOL    HW225821   1.928   4.629   2.241
 8308SOL     OW25822   1.181   5.055   0.074
 8308SOL    HW125823   1.210   4.960   0.059
 8308SOL    HW225824   1.259   5.116   0.058
 8309SOL     OW25825   6.558   4.075   4.151
 8309SOL    HW125826   6.573   3.978   4.134
 8309SOL    HW225827   6.460   4.094   4.153
 8310SOL     OW25828   0.791   6.739   0.288
 8310SOL    HW125829   0.854   6.815   0.302
 8310SOL    HW225830   0.714   6.747   0.351
 8311SOL     OW25831   5.401   6.983   4.374
 8311SOL    HW125832   5.310   6.976   4.333
 8311SOL    HW225833   5.470   6.958   4.306
 8312SOL     OW25834   5.275   0.692   0.096
 8312SOL    HW125835   5.322   0.766   0.145
 8312SOL    HW225836   5.322   0.606   0.114
 8313SOL     OW25837   4.644   1.347   4.670
 8313SOL    HW125838   4.550   1.380   4.663
 8313SOL    HW225839   4.706   1.413   4.626
 8314SOL     OW25840   4.853   6.205   5.795
 8314SOL    HW125841   4.890   6.256   5.872
 8314SOL    HW225842   4.771   6.252   5.761
 8315SOL     OW25843   3.682   3.021   4.219
 8315SOL    HW125844   3.742   3.043   4.296
 8315SOL    HW225845   3.731   3.035   4.133
 8316SOL     OW25846   1.136   2.845   6.973
 8316SOL    HW125847   1.110   2.764   0.001
 8316SOL    HW225848   1.060   2.871   6.913
 8317SOL     OW25849   1.597   1.858   3.853
 8317SOL    HW125850   1.617   1.930   3.787
 8317SOL    HW225851   1.597   1.769   3.807
 8318SOL     OW25852   3.787   6.924   6.403
 8318SOL    HW125853   3.826   6.920   6.311
 8318SOL    HW225854   3.846   6.874   6.467
 8319SOL     OW25855   2.337   0.421   6.305
 8319SOL    HW125856   2.317   0.499   6.247
 8319SOL    HW225857   2.393   0.355   6.255
 8320SOL     OW25858   3.063   3.548   4.626
 8320SOL    HW125859   3.013   3.598   4.696
 8320SOL    HW225860   3.114   3.613   4.569
 8321SOL     OW25861   0.009   6.711   0.341
 8321SOL    HW125862   0.056   6.789   0.382
 8321SOL    HW225863   0.076   6.648   0.301
 8322SOL     OW25864   6.832   0.822   0.112
 8322SOL    HW125865   6.735   0.845   0.106
 8322SOL    HW225866   6.874   0.827   0.022
 8323SOL     OW25867   4.331   4.429   1.127
 8323SOL    HW125868   4.404   4.360   1.123
 8323SOL    HW225869   4.306   4.456   1.034
 8324SOL     OW25870   6.012   6.372   6.374
 8324SOL    HW125871   6.014   6.364   6.474
 8324SOL    HW225872   5.926   6.414   6.346
 8325SOL     OW25873   1.370   5.400   5.488
 8325SOL    HW125874   1.382   5.465   5.563
 8325SOL    HW225875   1.450   5.403   5.428
 8326SOL     OW25876   1.632   3.495   1.654
 8326SOL    HW125877   1.667   3.487   1.748
 8326SOL    HW225878   1.689   3.440   1.593
 8327SOL     OW25879   1.184   0.201   4.668
 8327SOL    HW125880   1.265   0.259   4.661
 8327SOL    HW225881   1.103   0.254   4.642
 8328SOL     OW25882   1.364   0.084   6.110
 8328SOL    HW125883   1.446   0.125   6.070
 8328SOL    HW225884   1.379   7.011   6.126
 8329SOL     OW25885   1.314   2.896   5.558
 8329SOL    HW125886   1.412   2.917   5.560
 8329SOL    HW225887   1.263   2.980   5.576
 8330SOL     OW25888   3.510   0.520   6.412
 8330SOL    HW125889   3.527   0.531   6.510
 8330SOL    HW225890   3.490   0.609   6.371
 8331SOL     OW25891   1.984   2.156   0.122
 8331SOL    HW125892   1.889   2.139   0.100
 8331SOL    HW225893   1.995   2.251   0.154
 8332SOL     OW25894   5.562   4.705   2.240
 8332SOL    HW125895   5.625   4.635   2.205
 8332SOL    HW225896   5.532   4.679   2.332
 8333SOL     OW25897   3.403   4.757   1.356
 8333SOL    HW125898   3.330   4.778   1.292
 8333SOL    HW225899   3.384   4.801   1.444
 8334SOL     OW25900   3.346   2.156   6.366
 8334SOL    HW125901   3.371   2.131   6.273
 8334SOL    HW225902   3.342   2.074   6.423
 8335SOL     OW25903   5.225   3.220   6.183
 8335SOL    HW125904   5.178   3.307   6.173
 8335SOL    HW225905   5.307   3.219   6.125
 8336SOL     OW25906   1.063   3.464   3.016
 8336SOL    HW125907   1.039   3.440   2.922
 8336SOL    HW225908   1.083   3.561   3.022
 8337SOL     OW25909   0.301   0.817   4.436
 8337SOL    HW125910   0.356   0.892   4.474
 8337SOL    HW225911   0.204   0.836   4.451
 8338SOL     OW25912   3.678   5.156   2.713
 8338SOL    HW125913   3.638   5.067   2.738
 8338SOL    HW225914   3.628   5.194   2.635
 8339SOL     OW25915   6.557   0.663   0.555
 8339SOL    HW125916   6.581   0.580   0.506
 8339SOL    HW225917   6.477   0.646   0.613
 8340SOL     OW25918   5.458   2.487   0.461
 8340SOL    HW125919   5.504   2.399   0.472
 8340SOL    HW225920   5.483   2.547   0.538
 8341SOL     OW25921   3.606   0.617   6.642
 8341SOL    HW125922   3.582   0.705   6.600
 8341SOL    HW225923   3.664   0.632   6.722
 8342SOL     OW25924   4.537   6.930   0.089
 8342SOL    HW125925   4.474   6.946   0.165
 8342SOL    HW225926   4.625   6.899   0.125
 8343SOL     OW25927   6.824   3.801   3.776
 8343SOL    HW125928   6.731   3.799   3.740
 8343SOL    HW225929   6.862   3.893   3.767
 8344SOL     OW25930   0.931   5.569   4.902
 8344SOL    HW125931   0.966   5.497   4.842
 8344SOL    HW225932   1.007   5.621   4.941
 8345SOL     OW25933   4.478   0.768   2.125
 8345SOL    HW125934   4.521   0.858   2.119
 8345SOL    HW225935   4.381   0.776   2.103
 8346SOL     OW25936   4.679   3.089   5.561
 8346SOL    HW125937   4.592   3.113   5.520
 8346SOL    HW225938   4.665   3.056   5.654
 8347SOL     OW25939   2.401   0.269   6.050
 8347SOL    HW125940   2.339   0.313   5.985
 8347SOL    HW225941   2.494   0.270   6.013
 8348SOL     OW25942   3.898   6.644   1.975
 8348SOL    HW125943   3.968   6.616   1.909
 8348SOL    HW225944   3.832   6.704   1.931
 8349SOL     OW25945   1.283   6.513   2.043
 8349SOL    HW125946   1.304   6.460   2.126
 8349SOL    HW225947   1.277   6.451   1.965
 8350SOL     OW25948   2.552   0.100   6.523
 8350SOL    HW125949   2.454   0.116   6.507
 8350SOL    HW225950   2.605   0.172   6.479
 8351SOL     OW25951   0.399   4.441   3.939
 8351SOL    HW125952   0.306   4.474   3.952
 8351SOL    HW225953   0.451   4.452   4.023
 8352SOL     OW25954   2.838   5.413   1.668
 8352SOL    HW125955   2.924   5.442   1.710
 8352SOL    HW225956   2.849   5.321   1.631
 8353SOL     OW25957   1.174   3.696   2.309
 8353SOL    HW125958   1.127   3.735   2.230
 8353SOL    HW225959   1.273   3.703   2.296
 8354SOL     OW25960   3.369   0.077   3.669
 8354SOL    HW125961   3.312   0.035   3.741
 8354SOL    HW225962   3.413   0.159   3.706
 8355SOL     OW25963   2.356   6.156   5.692
 8355SOL    HW125964   2.394   6.068   5.717
 8355SOL    HW225965   2.257   6.148   5.682
 8356SOL     OW25966   1.466   5.738   1.437
 8356SOL    HW125967   1.540   5.730   1.503
 8356SOL    HW225968   1.445   5.647   1.399
 8357SOL     OW25969   4.180   5.762   5.823
 8357SOL    HW125970   4.213   5.668   5.825
 8357SOL    HW225971   4.215   5.808   5.741
 8358SOL     OW25972   1.207   2.567   5.108
 8358SOL    HW125973   1.277   2.497   5.121
 8358SOL    HW225974   1.163   2.554   5.019
 8359SOL     OW25975   3.321   1.853   5.125
 8359SOL    HW125976   3.338   1.835   5.028
 8359SOL    HW225977   3.408   1.870   5.171
 8360SOL     OW25978   5.275   6.641   0.163
 8360SOL    HW125979   5.369   6.659   0.194
 8360SOL    HW225980   5.265   6.543   0.144
 8361SOL     OW25981   3.085   6.994   0.198
 8361SOL    HW125982   3.146   7.022   0.272
 8361SOL    HW225983   3.093   0.035   0.122
 8362SOL     OW25984   6.466   3.539   0.822
 8362SOL    HW125985   6.523   3.615   0.854
 8362SOL    HW225986   6.412   3.504   0.899
 8363SOL     OW25987   3.184   2.068   6.759
 8363SOL    HW125988   3.258   2.053   6.825
 8363SOL    HW225989   3.125   1.987   6.756
 8364SOL     OW25990   0.960   2.917   4.163
 8364SOL    HW125991   0.905   2.886   4.086
 8364SOL    HW225992   0.920   2.882   4.249
 8365SOL     OW25993   2.357   2.410   2.696
 8365SOL    HW125994   2.273   2.365   2.726
 8365SOL    HW225995   2.336   2.472   2.620
 8366SOL     OW25996   4.899   5.829   0.714
 8366SOL    HW125997   4.817   5.842   0.769
 8366SOL    HW225998   4.901   5.894   0.639
 8367SOL     OW25999   4.598   5.191   4.866
 8367SOL    HW126000   4.669   5.242   4.915
 8367SOL    HW226001   4.556   5.250   4.797
 8368SOL     OW26002   1.281   5.984   0.136
 8368SOL    HW126003   1.215   5.928   0.186
 8368SOL    HW226004   1.242   6.074   0.118
 8369SOL     OW26005   1.303   1.511   0.238
 8369SOL    HW126006   1.288   1.602   0.277
 8369SOL    HW226007   1.324   1.520   0.141
 8370SOL     OW26008   3.139   2.154   0.164
 8370SOL    HW126009   3.230   2.124   0.134
 8370SOL    HW226010   3.149   2.223   0.236
 8371SOL     OW26011   1.631   4.219   5.842
 8371SOL    HW126012   1.657   4.272   5.923
 8371SOL    HW226013   1.713   4.191   5.792
 8372SOL     OW26014   1.758   6.021   2.261
 8372SOL    HW126015   1.787   6.105   2.306
 8372SOL    HW226016   1.833   5.986   2.205
 8373SOL     OW26017   0.046   0.925   4.460
 8373SOL    HW126018   0.046   0.927   4.560
 8373SOL    HW226019   0.079   1.013   4.425
 8374SOL     OW26020   1.476   0.632   4.690
 8374SOL    HW126021   1.459   0.654   4.594
 8374SOL    HW226022   1.466   0.715   4.746
 8375SOL     OW26023   4.275   1.356   5.327
 8375SOL    HW126024   4.290   1.449   5.293
 8375SOL    HW226025   4.244   1.360   5.422
 8376SOL     OW26026   1.845   0.849   3.112
 8376SOL    HW126027   1.929   0.805   3.081
 8376SOL    HW226028   1.816   0.917   3.044
 8377SOL     OW26029   5.282   5.644   6.806
 8377SOL    HW126030   5.337   5.662   6.725
 8377SOL    HW226031   5.339   5.602   6.877
 8378SOL     OW26032   5.944   5.518   3.488
 8378SOL    HW126033   5.858   5.470   3.467
 8378SOL    HW226034   5.925   5.613   3.511
 8379SOL     OW26035   5.623   1.292   2.309
 8379SOL    HW126036   5.544   1.306   2.369
 8379SOL    HW226037   5.654   1.380   2.274
 8380SOL     OW26038   6.589   5.437   7.004
 8380SOL    HW126039   6.657   5.510   7.009
 8380SOL    HW226040   6.507   5.464   0.030
 8381SOL     OW26041   0.188   1.898   2.890
 8381SOL    HW126042   0.260   1.834   2.915
 8381SOL    HW226043   0.183   1.905   2.790
 8382SOL     OW26044   2.707   0.088   0.078
 8382SOL    HW126045   2.637   0.018   0.088
 8382SOL    HW226046   2.755   0.075   7.016
 8383SOL     OW26047   3.108   6.715   4.564
 8383SOL    HW126048   3.023   6.746   4.521
 8383SOL    HW226049   3.114   6.616   4.558
 8384SOL     OW26050   0.035   2.215   0.825
 8384SOL    HW126051   6.979   2.156   0.816
 8384SOL    HW226052   0.057   2.255   0.736
 8385SOL     OW26053   4.577   3.526   0.651
 8385SOL    HW126054   4.636   3.526   0.570
 8385SOL    HW226055   4.612   3.460   0.718
 8386SOL     OW26056   1.978   5.860   1.775
 8386SOL    HW126057   2.028   5.777   1.798
 8386SOL    HW226058   2.021   5.938   1.820
 8387SOL     OW26059   2.444   1.611   1.350
 8387SOL    HW126060   2.371   1.652   1.406
 8387SOL    HW226061   2.468   1.674   1.277
 8388SOL     OW26062   3.255   6.592   0.303
 8388SOL    HW126063   3.236   6.514   0.363
 8388SOL    HW226064   3.189   6.593   0.228
 8389SOL     OW26065   1.051   2.656   4.872
 8389SOL    HW126066   0.969   2.650   4.929
 8389SOL    HW226067   1.078   2.752   4.863
 8390SOL     OW26068   2.017   0.619   5.971
 8390SOL    HW126069   1.927   0.583   5.946
 8390SOL    HW226070   2.063   0.653   5.889
 8391SOL     OW26071   5.259   5.540   1.956
 8391SOL    HW126072   5.175   5.577   1.995
 8391SOL    HW226073   5.332   5.609   1.962
 8392SOL     OW26074   5.598   5.756   5.327
 8392SOL    HW126075   5.640   5.748   5.237
 8392SOL    HW226076   5.634   5.837   5.374
 8393SOL     OW26077   6.596   6.241   3.072
 8393SOL    HW126078   6.684   6.265   3.031
 8393SOL    HW226079   6.609   6.227   3.171
 8394SOL     OW26080   0.647   1.838   3.131
 8394SOL    HW126081   0.716   1.807   3.196
 8394SOL    HW226082   0.691   1.863   3.044
 8395SOL     OW26083   0.206   6.444   4.706
 8395SOL    HW126084   0.169   6.357   4.672
 8395SOL    HW226085   0.304   6.448   4.688
 8396SOL     OW26086   4.756   4.410   2.839
 8396SOL    HW126087   4.726   4.484   2.778
 8396SOL    HW226088   4.821   4.352   2.791
 8397SOL     OW26089   2.044   6.461   2.579
 8397SOL    HW126090   2.039   6.373   2.627
 8397SOL    HW226091   2.139   6.479   2.554
 8398SOL     OW26092   4.202   1.585   6.927
 8398SOL    HW126093   4.115   1.538   6.914
 8398SOL    HW226094   4.186   1.678   6.960
 8399SOL     OW26095   6.102   6.060   0.151
 8399SOL    HW126096   6.057   6.024   0.069
 8399SOL    HW226097   6.070   6.154   0.167
 8400SOL     OW26098   0.318   0.338   3.129
 8400SOL    HW126099   0.400   0.292   3.164
 8400SOL    HW226100   0.299   0.419   3.183
 8401SOL     OW26101   3.585   3.888   6.415
 8401SOL    HW126102   3.632   3.881   6.327
 8401SOL    HW226103   3.635   3.951   6.475
 8402SOL     OW26104   3.753   1.668   6.556
 8402SOL    HW126105   3.704   1.754   6.540
 8402SOL    HW226106   3.848   1.678   6.524
 8403SOL     OW26107   1.234   1.236   4.102
 8403SOL    HW126108   1.315   1.262   4.154
 8403SOL    HW226109   1.190   1.318   4.065
 8404SOL     OW26110   4.799   6.499   5.579
 8404SOL    HW126111   4.761   6.590   5.595
 8404SOL    HW226112   4.878   6.506   5.518
 8405SOL     OW26113   0.555   2.713   6.617
 8405SOL    HW126114   0.574   2.760   6.531
 8405SOL    HW226115   0.557   2.614   6.602
 8406SOL     OW26116   4.456   1.828   0.963
 8406SOL    HW126117   4.456   1.756   0.894
 8406SOL    HW226118   4.532   1.891   0.945
 8407SOL     OW26119   5.639   4.482   3.956
 8407SOL    HW126120   5.733   4.489   3.923
 8407SOL    HW226121   5.635   4.412   4.028
 8408SOL     OW26122   5.417   0.791   3.815
 8408SOL    HW126123   5.398   0.772   3.911
 8408SOL    HW226124   5.388   0.884   3.792
 8409SOL     OW26125   1.205   1.726   3.988
 8409SOL    HW126126   1.141   1.792   4.027
 8409SOL    HW226127   1.270   1.697   4.058
 8410SOL     OW26128   5.443   6.809   1.918
 8410SOL    HW126129   5.417   6.730   1.862
 8410SOL    HW226130   5.373   6.824   1.988
 8411SOL     OW26131   1.456   4.913   4.263
 8411SOL    HW126132   1.469   5.008   4.234
 8411SOL    HW226133   1.450   4.909   4.363
 8412SOL     OW26134   4.611   2.435   1.496
 8412SOL    HW126135   4.516   2.461   1.479
 8412SOL    HW226136   4.629   2.436   1.594
 8413SOL     OW26137   3.927   4.966   0.322
 8413SOL    HW126138   3.854   5.005   0.379
 8413SOL    HW226139   4.015   5.000   0.353
 8414SOL     OW26140   3.710   6.400   2.732
 8414SOL    HW126141   3.627   6.420   2.679
 8414SOL    HW226142   3.735   6.304   2.719
 8415SOL     OW26143   0.184   4.440   3.638
 8415SOL    HW126144   0.249   4.465   3.566
 8415SOL    HW226145   0.218   4.359   3.687
 8416SOL     OW26146   5.136   4.073   2.429
 8416SOL    HW126147   5.153   4.030   2.340
 8416SOL    HW226148   5.142   4.172   2.420
 8417SOL     OW26149   2.505   6.371   5.852
 8417SOL    HW126150   2.589   6.318   5.844
 8417SOL    HW226151   2.429   6.319   5.813
 8418SOL     OW26152   6.017   6.044   2.673
 8418SOL    HW126153   6.060   6.102   2.604
 8418SOL    HW226154   5.921   6.032   2.651
 8419SOL     OW26155   4.921   0.126   2.477
 8419SOL    HW126156   4.915   0.139   2.378
 8419SOL    HW226157   4.828   0.114   2.513
 8420SOL     OW26158   4.118   0.666   6.889
 8420SOL    HW126159   4.100   0.694   6.984
 8420SOL    HW226160   4.158   0.574   6.889
 8421SOL     OW26161   1.848   0.224   2.094
 8421SOL    HW126162   1.814   0.274   2.014
 8421SOL    HW226163   1.941   0.254   2.114
 8422SOL     OW26164   5.419   6.177   6.988
 8422SOL    HW126165   5.501   6.187   0.020
 8422SOL    HW226166   5.425   6.238   6.909
 8423SOL     OW26167   3.713   4.825   6.971
 8423SOL    HW126168   3.709   4.726   6.980
 8423SOL    HW226169   3.702   4.851   6.875
 8424SOL     OW26170   3.562   1.831   2.495
 8424SOL    HW126171   3.604   1.786   2.572
 8424SOL    HW226172   3.511   1.764   2.440
 8425SOL     OW26173   7.016   5.259   1.617
 8425SOL    HW126174   6.926   5.276   1.576
 8425SOL    HW226175   0.059   5.319   1.575
 8426SOL     OW26176   3.615   3.223   3.561
 8426SOL    HW126177   3.674   3.142   3.560
 8426SOL    HW226178   3.524   3.198   3.595
 8427SOL     OW26179   1.570   4.040   6.803
 8427SOL    HW126180   1.651   4.052   6.745
 8427SOL    HW226181   1.593   4.062   6.898
 8428SOL     OW26182   0.169   4.321   2.107
 8428SOL    HW126183   0.132   4.382   2.036
 8428SOL    HW226184   0.095   4.283   2.161
 8429SOL     OW26185   2.651   4.943   3.981
 8429SOL    HW126186   2.602   4.906   3.902
 8429SOL    HW226187   2.614   5.033   4.004
 8430SOL     OW26188   4.768   4.894   2.548
 8430SOL    HW126189   4.851   4.843   2.525
 8430SOL    HW226190   4.702   4.831   2.591
 8431SOL     OW26191   3.399   5.182   1.262
 8431SOL    HW126192   3.300   5.190   1.245
 8431SOL    HW226193   3.413   5.156   1.358
 8432SOL     OW26194   4.451   5.359   6.366
 8432SOL    HW126195   4.443   5.267   6.328
 8432SOL    HW226196   4.463   5.353   6.465
 8433SOL     OW26197   1.290   2.466   6.550
 8433SOL    HW126198   1.376   2.418   6.535
 8433SOL    HW226199   1.254   2.444   6.641
 8434SOL     OW26200   4.046   6.833   5.526
 8434SOL    HW126201   4.141   6.800   5.531
 8434SOL    HW226202   3.992   6.789   5.598
 8435SOL     OW26203   4.290   2.036   1.404
 8435SOL    HW126204   4.289   1.967   1.332
 8435SOL    HW226205   4.243   2.118   1.372
 8436SOL     OW26206   3.886   4.936   2.385
 8436SOL    HW126207   3.955   4.889   2.330
 8436SOL    HW226208   3.795   4.915   2.350
 8437SOL     OW26209   0.514   1.001   1.250
 8437SOL    HW126210   0.527   0.993   1.349
 8437SOL    HW226211   0.460   0.923   1.217
 8438SOL     OW26212   2.955   4.771   2.394
 8438SOL    HW126213   2.886   4.772   2.323
 8438SOL    HW226214   2.946   4.687   2.448
 8439SOL     OW26215   6.535   5.747   1.962
 8439SOL    HW126216   6.515   5.777   2.055
 8439SOL    HW226217   6.558   5.650   1.963
 8440SOL     OW26218   0.261   1.242   1.978
 8440SOL    HW126219   0.209   1.211   1.899
 8440SOL    HW226220   0.356   1.214   1.968
 8441SOL     OW26221   5.541   5.939   6.643
 8441SOL    HW126222   5.442   5.940   6.636
 8441SOL    HW226223   5.568   5.895   6.729
 8442SOL     OW26224   2.771   4.082   6.813
 8442SOL    HW126225   2.841   4.011   6.814
 8442SOL    HW226226   2.765   4.124   6.904
 8443SOL     OW26227   0.873   0.567   3.577
 8443SOL    HW126228   0.787   0.546   3.531
 8443SOL    HW226229   0.860   0.646   3.636
 8444SOL     OW26230   3.703   6.367   3.880
 8444SOL    HW126231   3.793   6.327   3.861
 8444SOL    HW226232   3.703   6.406   3.972
 8445SOL     OW26233   3.317   5.341   2.980
 8445SOL    HW126234   3.335   5.325   2.883
 8445SOL    HW226235   3.382   5.408   3.016
 8446SOL     OW26236   5.225   5.976   3.113
 8446SOL    HW126237   5.238   6.068   3.075
 8446SOL    HW226238   5.173   5.981   3.198
 8447SOL     OW26239   5.133   2.405   1.596
 8447SOL    HW126240   5.175   2.493   1.617
 8447SOL    HW226241   5.075   2.415   1.515
 8448SOL     OW26242   0.420   3.887   6.037
 8448SOL    HW126243   0.467   3.852   6.118
 8448SOL    HW226244   0.404   3.812   5.973
 8449SOL     OW26245   0.336   3.327   4.950
 8449SOL    HW126246   0.400   3.276   4.893
 8449SOL    HW226247   0.380   3.349   5.038
 8450SOL     OW26248   1.831   6.503   3.083
 8450SOL    HW126249   1.878   6.520   2.996
 8450SOL    HW226250   1.754   6.566   3.093
 8451SOL     OW26251   3.465   2.787   0.755
 8451SOL    HW126252   3.443   2.804   0.851
 8451SOL    HW226253   3.517   2.702   0.747
 8452SOL     OW26254   6.661   0.095   1.544
 8452SOL    HW126255   6.685   0.139   1.457
 8452SOL    HW226256   6.611   0.160   1.602
 8453SOL     OW26257   6.569   5.032   6.394
 8453SOL    HW126258   6.583   5.084   6.310
 8453SOL    HW226259   6.481   5.057   6.434
 8454SOL     OW26260   1.750   6.846   2.506
 8454SOL    HW126261   1.806   6.924   2.533
 8454SOL    HW226262   1.807   6.763   2.505
 8455SOL     OW26263   4.815   1.531   1.714
 8455SOL    HW126264   4.718   1.554   1.705
 8455SOL    HW226265   4.867   1.573   1.640
 8456SOL     OW26266   5.679   5.349   3.714
 8456SOL    HW126267   5.764   5.299   3.732
 8456SOL    HW226268   5.665   5.356   3.615
 8457SOL     OW26269   6.572   0.077   5.342
 8457SOL    HW126270   6.596   7.004   5.336
 8457SOL    HW226271   6.520   0.103   5.261
 8458SOL     OW26272   1.841   1.356   0.351
 8458SOL    HW126273   1.795   1.351   0.262
 8458SOL    HW226274   1.773   1.345   0.424
 8459SOL     OW26275   3.854   6.358   2.438
 8459SOL    HW126276   3.830   6.413   2.357
 8459SOL    HW226277   3.780   6.294   2.458
 8460SOL     OW26278   4.715   2.654   6.752
 8460SOL    HW126279   4.651   2.657   6.676
 8460SOL    HW226280   4.671   2.613   6.832
 8461SOL     OW26281   0.342   3.505   1.794
 8461SOL    HW126282   0.388   3.573   1.851
 8461SOL    HW226283   0.403   3.475   1.721
 8462SOL     OW26284   3.816   3.348   0.253
 8462SOL    HW126285   3.819   3.317   0.158
 8462SOL    HW226286   3.804   3.269   0.313
 8463SOL     OW26287   6.337   2.137   0.194
 8463SOL    HW126288   6.371   2.224   0.230
 8463SOL    HW226289   6.290   2.087   0.266
 8464SOL     OW26290   0.162   3.361   6.194
 8464SOL    HW126291   0.149   3.320   6.104
 8464SOL    HW226292   0.083   3.341   6.252
 8465SOL     OW26293   2.875   2.507   0.808
 8465SOL    HW126294   2.910   2.431   0.863
 8465SOL    HW226295   2.952   2.558   0.770
 8466SOL     OW26296   5.426   0.698   5.568
 8466SOL    HW126297   5.492   0.652   5.509
 8466SOL    HW226298   5.429   0.658   5.660
 8467SOL     OW26299   3.703   0.690   0.513
 8467SOL    HW126300   3.658   0.771   0.476
 8467SOL    HW226301   3.749   0.714   0.599
 8468SOL     OW26302   6.143   3.362   6.343
 8468SOL    HW126303   6.051   3.383   6.375
 8468SOL    HW226304   6.207   3.428   6.381
 8469SOL     OW26305   3.847   3.101   6.379
 8469SOL    HW126306   3.922   3.040   6.355
 8469SOL    HW226307   3.764   3.075   6.329
 8470SOL     OW26308   0.942   4.897   0.864
 8470SOL    HW126309   1.039   4.891   0.891
 8470SOL    HW226310   0.922   4.990   0.834
 8471SOL     OW26311   3.422   0.832   4.841
 8471SOL    HW126312   3.429   0.931   4.828
 8471SOL    HW226313   3.449   0.786   4.756
 8472SOL     OW26314   6.050   1.934   5.905
 8472SOL    HW126315   5.990   1.910   5.828
 8472SOL    HW226316   6.133   1.879   5.900
 8473SOL     OW26317   4.437   4.297   0.065
 8473SOL    HW126318   4.485   4.319   0.150
 8473SOL    HW226319   4.444   4.199   0.048
 8474SOL     OW26320   2.943   3.783   3.149
 8474SOL    HW126321   2.929   3.791   3.247
 8474SOL    HW226322   2.892   3.705   3.113
 8475SOL     OW26323   0.537   3.468   1.579
 8475SOL    HW126324   0.597   3.548   1.589
 8475SOL    HW226325   0.563   3.418   1.496
 8476SOL     OW26326   6.380   0.365   1.455
 8476SOL    HW126327   6.310   0.296   1.472
 8476SOL    HW226328   6.448   0.328   1.391
 8477SOL     OW26329   5.506   5.499   1.600
 8477SOL    HW126330   5.478   5.556   1.522
 8477SOL    HW226331   5.525   5.407   1.568
 8478SOL     OW26332   1.161   0.862   5.544
 8478SOL    HW126333   1.066   0.869   5.513
 8478SOL    HW226334   1.186   0.766   5.556
 8479SOL     OW26335   1.973   2.123   0.964
 8479SOL    HW126336   2.041   2.177   1.013
 8479SOL    HW226337   1.966   2.156   0.870
 8480SOL     OW26338   5.013   2.942   0.087
 8480SOL    HW126339   4.983   2.852   0.058
 8480SOL    HW226340   4.946   2.982   0.149
 8481SOL     OW26341   3.673   2.113   4.443
 8481SOL    HW126342   3.665   2.115   4.543
 8481SOL    HW226343   3.715   2.027   4.415
 8482SOL     OW26344   3.977   1.268   0.183
 8482SOL    HW126345   3.932   1.349   0.220
 8482SOL    HW226346   3.939   1.247   0.093
 8483SOL     OW26347   3.488   6.117   3.679
 8483SOL    HW126348   3.556   6.093   3.610
 8483SOL    HW226349   3.476   6.216   3.681
 8484SOL     OW26350   6.117   6.153   5.478
 8484SOL    HW126351   6.066   6.236   5.455
 8484SOL    HW226352   6.160   6.165   5.568
 8485SOL     OW26353   3.701   2.425   0.231
 8485SOL    HW126354   3.698   2.454   0.327
 8485SOL    HW226355   3.617   2.453   0.185
 8486SOL     OW26356   2.152   1.149   2.240
 8486SOL    HW126357   2.242   1.105   2.250
 8486SOL    HW226358   2.164   1.248   2.243
 8487SOL     OW26359   5.392   1.480   6.266
 8487SOL    HW126360   5.429   1.481   6.359
 8487SOL    HW226361   5.368   1.386   6.241
 8488SOL     OW26362   6.125   5.457   3.047
 8488SOL    HW126363   6.064   5.377   3.055
 8488SOL    HW226364   6.089   5.519   2.978
 8489SOL     OW26365   5.857   0.558   1.479
 8489SOL    HW126366   5.866   0.621   1.556
 8489SOL    HW226367   5.760   0.552   1.452
 8490SOL     OW26368   3.030   0.138   6.140
 8490SOL    HW126369   3.007   0.041   6.147
 8490SOL    HW226370   3.023   0.180   6.230
 8491SOL     OW26371   2.315   6.093   2.628
 8491SOL    HW126372   2.340   6.000   2.601
 8491SOL    HW226373   2.292   6.094   2.726
 8492SOL     OW26374   6.102   4.402   3.837
 8492SOL    HW126375   6.152   4.433   3.918
 8492SOL    HW226376   6.127   4.308   3.816
 8493SOL     OW26377   2.559   1.322   0.236
 8493SOL    HW126378   2.584   1.391   0.304
 8493SOL    HW226379   2.560   1.231   0.279
 8494SOL     OW26380   5.212   4.796   1.990
 8494SOL    HW126381   5.187   4.884   1.950
 8494SOL    HW226382   5.190   4.795   2.087
 8495SOL     OW26383   6.956   5.890   0.784
 8495SOL    HW126384   6.884   5.826   0.812
 8495SOL    HW226385   6.953   5.971   0.843
 8496SOL     OW26386   5.336   1.217   2.187
 8496SOL    HW126387   5.256   1.271   2.161
 8496SOL    HW226388   5.419   1.272   2.178
 8497SOL     OW26389   0.484   0.394   3.635
 8497SOL    HW126390   0.545   0.396   3.556
 8497SOL    HW226391   0.449   0.301   3.647
 8498SOL     OW26392   5.397   0.174   3.859
 8498SOL    HW126393   5.394   0.195   3.761
 8498SOL    HW226394   5.313   0.126   3.885
 8499SOL     OW26395   1.136   5.485   0.620
 8499SOL    HW126396   1.212   5.519   0.564
 8499SOL    HW226397   1.160   5.494   0.717
 8500SOL     OW26398   2.023   0.218   5.786
 8500SOL    HW126399   1.946   0.187   5.842
 8500SOL    HW226400   1.990   0.250   5.698
 8501SOL     OW26401   0.198   2.101   0.394
 8501SOL    HW126402   0.263   2.103   0.470
 8501SOL    HW226403   0.225   2.169   0.325
 8502SOL     OW26404   0.494   2.577   0.190
 8502SOL    HW126405   0.584   2.619   0.197
 8502SOL    HW226406   0.431   2.641   0.145
 8503SOL     OW26407   6.769   5.695   4.739
 8503SOL    HW126408   6.704   5.695   4.815
 8503SOL    HW226409   6.778   5.602   4.702
 8504SOL     OW26410   1.719   5.321   2.427
 8504SOL    HW126411   1.729   5.227   2.460
 8504SOL    HW226412   1.634   5.360   2.461
 8505SOL     OW26413   5.402   3.548   2.480
 8505SOL    HW126414   5.366   3.627   2.531
 8505SOL    HW226415   5.374   3.555   2.384
 8506SOL     OW26416   1.735   1.169   6.577
 8506SOL    HW126417   1.741   1.167   6.478
 8506SOL    HW226418   1.822   1.200   6.616
 8507SOL     OW26419   4.356   0.153   4.879
 8507SOL    HW126420   4.396   0.244   4.889
 8507SOL    HW226421   4.409   0.086   4.931
 8508SOL     OW26422   4.088   1.870   5.994
 8508SOL    HW126423   4.133   1.958   5.981
 8508SOL    HW226424   3.990   1.884   6.009
 8509SOL     OW26425   5.702   0.120   3.448
 8509SOL    HW126426   5.736   0.179   3.375
 8509SOL    HW226427   5.780   0.085   3.502
 8510SOL     OW26428   5.334   2.818   3.913
 8510SOL    HW126429   5.349   2.891   3.980
 8510SOL    HW226430   5.250   2.769   3.935
 8511SOL     OW26431   6.124   3.463   2.591
 8511SOL    HW126432   6.088   3.437   2.501
 8511SOL    HW226433   6.049   3.473   2.656
 8512SOL     OW26434   2.084   0.162   3.212
 8512SOL    HW126435   2.049   0.209   3.130
 8512SOL    HW226436   2.081   0.063   3.197
 8513SOL     OW26437   6.319   6.274   0.079
 8513SOL    HW126438   6.331   6.331   0.160
 8513SOL    HW226439   6.306   6.179   0.106
 8514SOL     OW26440   3.260   6.262   3.272
 8514SOL    HW126441   3.235   6.232   3.180
 8514SOL    HW226442   3.302   6.185   3.322
 8515SOL     OW26443   5.568   2.689   1.010
 8515SOL    HW126444   5.528   2.757   0.948
 8515SOL    HW226445   5.651   2.651   0.970
 8516SOL     OW26446   6.738   2.099   2.574
 8516SOL    HW126447   6.834   2.096   2.602
 8516SOL    HW226448   6.727   2.053   2.486
 8517SOL     OW26449   0.901   2.380   0.270
 8517SOL    HW126450   0.845   2.303   0.242
 8517SOL    HW226451   0.995   2.367   0.236
 8518SOL     OW26452   3.945   5.263   0.322
 8518SOL    HW126453   3.997   5.326   0.380
 8518SOL    HW226454   3.874   5.219   0.377
 8519SOL     OW26455   1.968   5.884   2.131
 8519SOL    HW126456   2.007   5.862   2.220
 8519SOL    HW226457   1.975   5.805   2.071
 8520SOL     OW26458   3.770   1.312   0.472
 8520SOL    HW126459   3.820   1.305   0.559
 8520SOL    HW226460   3.826   1.361   0.405
 8521SOL     OW26461   0.716   6.285   6.037
 8521SOL    HW126462   0.645   6.297   6.106
 8521SOL    HW226463   0.806   6.286   6.081
 8522SOL     OW26464   1.201   6.378   3.063
 8522SOL    HW126465   1.253   6.464   3.067
 8522SOL    HW226466   1.124   6.389   3.001
 8523SOL     OW26467   2.468   6.983   5.884
 8523SOL    HW126468   2.370   7.001   5.879
 8523SOL    HW226469   2.505   7.024   5.967
 8524SOL     OW26470   1.402   3.218   5.209
 8524SOL    HW126471   1.483   3.198   5.264
 8524SOL    HW226472   1.422   3.201   5.113
 8525SOL     OW26473   5.741   3.469   3.126
 8525SOL    HW126474   5.823   3.515   3.093
 8525SOL    HW226475   5.747   3.455   3.225
 8526SOL     OW26476   2.336   2.804   1.802
 8526SOL    HW126477   2.271   2.852   1.861
 8526SOL    HW226478   2.349   2.711   1.837
 8527SOL     OW26479   4.688   0.594   4.099
 8527SOL    HW126480   4.749   0.530   4.146
 8527SOL    HW226481   4.736   0.633   4.020
 8528SOL     OW26482   4.873   3.025   6.385
 8528SOL    HW126483   4.876   2.965   6.465
 8528SOL    HW226484   4.878   3.121   6.415
 8529SOL     OW26485   1.546   5.166   0.272
 8529SOL    HW126486   1.625   5.106   0.267
 8529SOL    HW226487   1.562   5.237   0.340
 8530SOL     OW26488   1.244   4.560   5.427
 8530SOL    HW126489   1.266   4.587   5.334
 8530SOL    HW226490   1.145   4.565   5.441
 8531SOL     OW26491   5.257   4.188   3.050
 8531SOL    HW126492   5.263   4.089   3.037
 8531SOL    HW226493   5.284   4.234   2.965
 8532SOL     OW26494   3.893   4.937   5.074
 8532SOL    HW126495   3.901   4.908   4.978
 8532SOL    HW226496   3.929   4.866   5.134
 8533SOL     OW26497   2.863   0.841   4.377
 8533SOL    HW126498   2.845   0.879   4.468
 8533SOL    HW226499   2.930   0.898   4.330
 8534SOL     OW26500   1.130   3.726   2.881
 8534SOL    HW126501   1.179   3.738   2.795
 8534SOL    HW226502   1.147   3.804   2.941
 8535SOL     OW26503   0.789   2.038   4.946
 8535SOL    HW126504   0.769   2.098   4.868
 8535SOL    HW226505   0.777   2.089   5.031
 8536SOL     OW26506   0.058   1.701   5.280
 8536SOL    HW126507   0.130   1.771   5.276
 8536SOL    HW226508   0.039   1.667   5.188
 8537SOL     OW26509   5.577   0.782   0.872
 8537SOL    HW126510   5.535   0.714   0.812
 8537SOL    HW226511   5.622   0.852   0.816
 8538SOL     OW26512   0.076   0.686   4.752
 8538SOL    HW126513   0.141   0.613   4.729
 8538SOL    HW226514   7.015   0.672   4.703
 8539SOL     OW26515   0.151   2.408   1.699
 8539SOL    HW126516   0.161   2.376   1.793
 8539SOL    HW226517   0.184   2.337   1.636
 8540SOL     OW26518   3.138   0.928   0.479
 8540SOL    HW126519   3.081   0.890   0.552
 8540SOL    HW226520   3.201   0.995   0.517
 8541SOL     OW26521   3.040   1.503   4.967
 8541SOL    HW126522   3.027   1.560   5.048
 8541SOL    HW226523   2.954   1.455   4.946
 8542SOL     OW26524   2.443   4.386   6.937
 8542SOL    HW126525   2.396   4.302   6.908
 8542SOL    HW226526   2.535   4.363   6.968
 8543SOL     OW26527   2.445   2.440   5.270
 8543SOL    HW126528   2.424   2.455   5.173
 8543SOL    HW226529   2.513   2.508   5.300
 8544SOL     OW26530   4.843   3.878   5.132
 8544SOL    HW126531   4.770   3.856   5.196
 8544SOL    HW226532   4.846   3.810   5.059
 8545SOL     OW26533   3.351   6.934   5.052
 8545SOL    HW126534   3.307   6.855   5.009
 8545SOL    HW226535   3.339   6.928   5.152
 8546SOL     OW26536   5.723   0.643   1.938
 8546SOL    HW126537   5.709   0.721   1.878
 8546SOL    HW226538   5.657   0.645   2.013
 8547SOL     OW26539   6.733   6.761   5.773
 8547SOL    HW126540   6.711   6.748   5.677
 8547SOL    HW226541   6.748   6.672   5.816
 8548SOL     OW26542   0.679   3.001   6.497
 8548SOL    HW126543   0.681   3.096   6.530
 8548SOL    HW226544   0.757   2.951   6.534
 8549SOL     OW26545   1.885   0.914   3.640
 8549SOL    HW126546   1.964   0.870   3.683
 8549SOL    HW226547   1.893   0.906   3.540
 8550SOL     OW26548   0.913   4.211   0.300
 8550SOL    HW126549   0.937   4.224   0.396
 8550SOL    HW226550   0.829   4.260   0.279
 8551SOL     OW26551   1.847   2.282   6.379
 8551SOL    HW126552   1.924   2.342   6.401
 8551SOL    HW226553   1.761   2.326   6.408
 8552SOL     OW26554   2.723   1.427   2.548
 8552SOL    HW126555   2.650   1.490   2.575
 8552SOL    HW226556   2.792   1.423   2.621
 8553SOL     OW26557   4.477   3.140   0.893
 8553SOL    HW126558   4.405   3.196   0.934
 8553SOL    HW226559   4.545   3.199   0.850
 8554SOL     OW26560   0.652   6.999   1.089
 8554SOL    HW126561   0.720   6.941   1.043
 8554SOL    HW226562   0.670   7.001   1.187
 8555SOL     OW26563   4.421   1.527   3.825
 8555SOL    HW126564   4.380   1.613   3.855
 8555SOL    HW226565   4.489   1.497   3.893
 8556SOL     OW26566   2.009   6.161   6.825
 8556SOL    HW126567   1.946   6.221   6.874
 8556SOL    HW226568   2.044   6.091   6.887
 8557SOL     OW26569   6.897   0.782   6.863
 8557SOL    HW126570   6.903   0.823   6.772
 8557SOL    HW226571   6.858   0.691   6.856
 8558SOL     OW26572   2.772   4.698   3.188
 8558SOL    HW126573   2.722   4.766   3.135
 8558SOL    HW226574   2.869   4.701   3.164
 8559SOL     OW26575   1.045   5.161   2.324
 8559SOL    HW126576   1.015   5.188   2.416
 8559SOL    HW226577   1.138   5.124   2.329
 8560SOL     OW26578   2.459   5.020   1.404
 8560SOL    HW126579   2.408   5.106   1.406
 8560SOL    HW226580   2.427   4.964   1.328
 8561SOL     OW26581   2.999   0.373   2.853
 8561SOL    HW126582   2.980   0.314   2.774
 8561SOL    HW226583   3.036   0.318   2.927
 8562SOL     OW26584   3.954   1.426   6.872
 8562SOL    HW126585   3.919   1.379   6.952
 8562SOL    HW226586   3.886   1.492   6.840
 8563SOL     OW26587   1.528   5.635   3.167
 8563SOL    HW126588   1.614   5.648   3.216
 8563SOL    HW226589   1.483   5.724   3.153
 8564SOL     OW26590   3.761   6.673   6.782
 8564SOL    HW126591   3.674   6.706   6.746
 8564SOL    HW226592   3.816   6.635   6.707
 8565SOL     OW26593   3.539   5.744   0.605
 8565SOL    HW126594   3.482   5.678   0.654
 8565SOL    HW226595   3.616   5.695   0.563
 8566SOL     OW26596   2.900   1.121   3.359
 8566SOL    HW126597   2.905   1.137   3.457
 8566SOL    HW226598   2.914   1.024   3.340
 8567SOL     OW26599   2.012   1.810   1.214
 8567SOL    HW126600   2.012   1.907   1.237
 8567SOL    HW226601   2.007   1.755   1.298
 8568SOL     OW26602   6.759   1.390   0.320
 8568SOL    HW126603   6.827   1.447   0.273
 8568SOL    HW226604   6.693   1.449   0.366
 8569SOL     OW26605   5.262   2.429   6.309
 8569SOL    HW126606   5.201   2.460   6.237
 8569SOL    HW226607   5.343   2.488   6.312
 8570SOL     OW26608   0.962   2.181   5.251
 8570SOL    HW126609   1.048   2.228   5.268
 8570SOL    HW226610   0.943   2.118   5.327
 8571SOL     OW26611   1.803   0.961   4.424
 8571SOL    HW126612   1.850   1.046   4.447
 8571SOL    HW226613   1.709   0.980   4.399
 8572SOL     OW26614   3.272   3.843   5.795
 8572SOL    HW126615   3.291   3.770   5.730
 8572SOL    HW226616   3.206   3.907   5.755
 8573SOL     OW26617   3.205   6.120   1.267
 8573SOL    HW126618   3.226   6.027   1.297
 8573SOL    HW226619   3.162   6.117   1.176
 8574SOL     OW26620   0.109   6.236   6.014
 8574SOL    HW126621   0.055   6.318   5.999
 8574SOL    HW226622   0.086   6.167   5.946
 8575SOL     OW26623   3.217   6.747   2.659
 8575SOL    HW126624   3.243   6.651   2.652
 8575SOL    HW226625   3.202   6.785   2.568
 8576SOL     OW26626   0.689   3.922   4.440
 8576SOL    HW126627   0.632   4.003   4.458
 8576SOL    HW226628   0.755   3.911   4.515
 8577SOL     OW26629   1.544   1.391   6.244
 8577SOL    HW126630   1.546   1.489   6.267
 8577SOL    HW226631   1.633   1.350   6.266
 8578SOL     OW26632   6.097   6.448   5.266
 8578SOL    HW126633   6.094   6.400   5.178
 8578SOL    HW226634   6.010   6.495   5.281
 8579SOL     OW26635   2.833   6.221   2.286
 8579SOL    HW126636   2.876   6.273   2.212
 8579SOL    HW226637   2.769   6.280   2.335
 8580SOL     OW26638   1.275   6.040   0.987
 8580SOL    HW126639   1.326   5.954   0.992
 8580SOL    HW226640   1.212   6.046   1.064
 8581SOL     OW26641   3.443   5.111   1.554
 8581SOL    HW126642   3.532   5.141   1.587
 8581SOL    HW226643   3.417   5.026   1.600
 8582SOL     OW26644   4.200   4.862   5.554
 8582SOL    HW126645   4.261   4.790   5.522
 8582SOL    HW226646   4.108   4.827   5.563
 8583SOL     OW26647   4.223   0.644   2.704
 8583SOL    HW126648   4.160   0.705   2.658
 8583SOL    HW226649   4.189   0.623   2.796
 8584SOL     OW26650   6.346   1.326   4.465
 8584SOL    HW126651   6.276   1.280   4.411
 8584SOL    HW226652   6.424   1.350   4.407
 8585SOL     OW26653   5.910   2.309   1.381
 8585SOL    HW126654   5.934   2.405   1.397
 8585SOL    HW226655   5.976   2.250   1.427
 8586SOL     OW26656   5.593   6.314   1.189
 8586SOL    HW126657   5.515   6.286   1.134
 8586SOL    HW226658   5.669   6.251   1.175
 8587SOL     OW26659   0.991   1.433   5.894
 8587SOL    HW126660   1.090   1.441   5.898
 8587SOL    HW226661   0.964   1.385   5.811
 8588SOL     OW26662   3.048   1.673   6.338
 8588SOL    HW126663   3.000   1.626   6.264
 8588SOL    HW226664   3.133   1.624   6.359
 8589SOL     OW26665   0.062   3.598   5.699
 8589SOL    HW126666   0.121   3.537   5.646
 8589SOL    HW226667   0.013   3.544   5.768
 8590SOL     OW26668   6.742   1.773   2.534
 8590SOL    HW126669   6.766   1.770   2.631
 8590SOL    HW226670   6.710   1.683   2.505
 8591SOL     OW26671   6.759   5.079   0.100
 8591SOL    HW126672   6.765   5.176   0.078
 8591SOL    HW226673   6.718   5.068   0.191
 8592SOL     OW26674   0.525   2.759   6.918
 8592SOL    HW126675   0.426   2.742   6.914
 8592SOL    HW226676   0.560   2.772   6.825
 8593SOL     OW26677   3.273   0.471   6.211
 8593SOL    HW126678   3.273   0.565   6.177
 8593SOL    HW226679   3.367   0.437   6.216
 8594SOL     OW26680   5.918   2.833   6.135
 8594SOL    HW126681   5.992   2.795   6.190
 8594SOL    HW226682   5.836   2.843   6.192
 8595SOL     OW26683   5.348   7.008   2.797
 8595SOL    HW126684   5.328   0.082   2.804
 8595SOL    HW226685   5.263   6.958   2.781
 8596SOL     OW26686   1.271   3.373   3.912
 8596SOL    HW126687   1.341   3.414   3.854
 8596SOL    HW226688   1.313   3.305   3.972
 8597SOL     OW26689   6.494   3.531   1.118
 8597SOL    HW126690   6.429   3.474   1.168
 8597SOL    HW226691   6.586   3.516   1.153
 8598SOL     OW26692   5.644   0.955   4.878
 8598SOL    HW126693   5.663   1.023   4.807
 8598SOL    HW226694   5.668   0.864   4.845
 8599SOL     OW26695   1.634   3.326   3.689
 8599SOL    HW126696   1.641   3.246   3.629
 8599SOL    HW226697   1.725   3.358   3.713
 8600SOL     OW26698   4.441   3.689   1.104
 8600SOL    HW126699   4.516   3.753   1.088
 8600SOL    HW226700   4.415   3.645   1.018
 8601SOL     OW26701   0.777   0.644   4.079
 8601SOL    HW126702   0.730   0.612   3.997
 8601SOL    HW226703   0.746   0.736   4.102
 8602SOL     OW26704   2.700   0.029   3.802
 8602SOL    HW126705   2.679   6.976   3.743
 8602SOL    HW226706   2.722   7.021   3.894
 8603SOL     OW26707   6.608   0.925   0.420
 8603SOL    HW126708   6.640   0.948   0.328
 8603SOL    HW226709   6.601   0.826   0.429
 8604SOL     OW26710   0.758   3.909   6.190
 8604SOL    HW126711   0.845   3.942   6.226
 8604SOL    HW226712   0.773   3.866   6.101
 8605SOL     OW26713   0.507   4.624   4.554
 8605SOL    HW126714   0.528   4.532   4.585
 8605SOL    HW226715   0.407   4.635   4.548
 8606SOL     OW26716   2.386   2.097   6.417
 8606SOL    HW126717   2.326   2.020   6.440
 8606SOL    HW226718   2.374   2.170   6.484
 8607SOL     OW26719   2.328   4.846   1.615
 8607SOL    HW126720   2.399   4.895   1.564
 8607SOL    HW226721   2.363   4.758   1.644
 8608SOL     OW26722   2.551   4.607   2.778
 8608SOL    HW126723   2.585   4.677   2.714
 8608SOL    HW226724   2.512   4.531   2.726
 8609SOL     OW26725   4.933   1.423   3.855
 8609SOL    HW126726   5.010   1.409   3.793
 8609SOL    HW226727   4.899   1.334   3.887
 8610SOL     OW26728   6.902   6.540   3.274
 8610SOL    HW126729   6.991   6.512   3.237
 8610SOL    HW226730   6.853   6.458   3.306
 8611SOL     OW26731   3.714   0.903   3.907
 8611SOL    HW126732   3.651   0.967   3.951
 8611SOL    HW226733   3.703   0.812   3.946
 8612SOL     OW26734   3.623   2.870   2.867
 8612SOL    HW126735   3.677   2.864   2.951
 8612SOL    HW226736   3.533   2.907   2.887
 8613SOL     OW26737   3.268   2.303   1.527
 8613SOL    HW126738   3.190   2.341   1.478
 8613SOL    HW226739   3.246   2.210   1.557
 8614SOL     OW26740   1.483   2.413   2.104
 8614SOL    HW126741   1.462   2.473   2.181
 8614SOL    HW226742   1.547   2.343   2.133
 8615SOL     OW26743   5.034   2.257   3.973
 8615SOL    HW126744   5.081   2.202   4.042
 8615SOL    HW226745   4.935   2.244   3.981
 8616SOL     OW26746   4.268   5.082   2.490
 8616SOL    HW126747   4.182   5.107   2.447
 8616SOL    HW226748   4.314   5.013   2.433
 8617SOL     OW26749   5.236   6.821   3.956
 8617SOL    HW126750   5.152   6.796   3.907
 8617SOL    HW226751   5.261   6.747   4.019
 8618SOL     OW26752   6.572   3.684   1.610
 8618SOL    HW126753   6.647   3.743   1.580
 8618SOL    HW226754   6.596   3.642   1.698
 8619SOL     OW26755   5.229   5.057   2.211
 8619SOL    HW126756   5.213   4.962   2.239
 8619SOL    HW226757   5.150   5.113   2.235
 8620SOL     OW26758   2.349   0.813   4.757
 8620SOL    HW126759   2.317   0.746   4.824
 8620SOL    HW226760   2.294   0.896   4.765
 8621SOL     OW26761   4.778   2.764   2.076
 8621SOL    HW126762   4.791   2.728   1.984
 8621SOL    HW226763   4.787   2.864   2.074
 8622SOL     OW26764   6.487   5.255   2.679
 8622SOL    HW126765   6.545   5.336   2.680
 8622SOL    HW226766   6.544   5.174   2.665
 8623SOL     OW26767   6.924   3.572   4.825
 8623SOL    HW126768   6.979   3.656   4.817
 8623SOL    HW226769   6.960   3.517   4.901
 8624SOL     OW26770   3.253   3.667   5.573
 8624SOL    HW126771   3.282   3.637   5.482
 8624SOL    HW226772   3.157   3.642   5.587
 8625SOL     OW26773   3.509   1.862   5.315
 8625SOL    HW126774   3.486   1.848   5.412
 8625SOL    HW226775   3.601   1.901   5.309
 8626SOL     OW26776   4.662   3.100   0.646
 8626SOL    HW126777   4.655   3.025   0.580
 8626SOL    HW226778   4.703   3.066   0.731
 8627SOL     OW26779   1.618   1.579   2.545
 8627SOL    HW126780   1.548   1.618   2.485
 8627SOL    HW226781   1.677   1.653   2.579
 8628SOL     OW26782   0.527   6.650   0.062
 8628SOL    HW126783   0.543   6.569   0.119
 8628SOL    HW226784   0.455   6.630   7.020
 8629SOL     OW26785   0.847   6.996   4.633
 8629SOL    HW126786   0.943   7.001   4.605
 8629SOL    HW226787   0.789   6.982   4.553
 8630SOL     OW26788   5.247   3.442   3.535
 8630SOL    HW126789   5.321   3.505   3.512
 8630SOL    HW226790   5.164   3.468   3.486
 8631SOL     OW26791   2.716   5.611   0.261
 8631SOL    HW126792   2.651   5.542   0.227
 8631SOL    HW226793   2.720   5.607   0.360
 8632SOL     OW26794   4.126   4.498   5.343
 8632SOL    HW126795   4.039   4.458   5.314
 8632SOL    HW226796   4.200   4.464   5.284
 8633SOL     OW26797   5.298   4.036   5.768
 8633SOL    HW126798   5.339   4.050   5.678
 8633SOL    HW226799   5.328   4.108   5.831
 8634SOL     OW26800   5.750   4.981   0.794
 8634SOL    HW126801   5.732   5.076   0.770
 8634SOL    HW226802   5.697   4.957   0.875
 8635SOL     OW26803   5.964   3.128   6.711
 8635SOL    HW126804   6.053   3.091   6.736
 8635SOL    HW226805   5.950   3.118   6.613
 8636SOL     OW26806   4.229   5.858   0.692
 8636SOL    HW126807   4.194   5.951   0.687
 8636SOL    HW226808   4.329   5.860   0.700
 8637SOL     OW26809   1.542   1.707   6.845
 8637SOL    HW126810   1.504   1.719   6.937
 8637SOL    HW226811   1.486   1.640   6.795
 8638SOL     OW26812   3.927   2.921   5.236
 8638SOL    HW126813   3.842   2.913   5.184
 8638SOL    HW226814   3.944   3.017   5.259
 8639SOL     OW26815   5.169   3.229   0.118
 8639SOL    HW126816   5.139   3.134   0.120
 8639SOL    HW226817   5.090   3.288   0.099
 8640SOL     OW26818   3.320   3.133   1.060
 8640SOL    HW126819   3.403   3.128   1.115
 8640SOL    HW226820   3.326   3.211   0.998
 8641SOL     OW26821   4.025   5.234   3.026
 8641SOL    HW126822   3.939   5.190   3.054
 8641SOL    HW226823   4.102   5.180   3.060
 8642SOL     OW26824   1.407   6.901   3.622
 8642SOL    HW126825   1.440   6.810   3.645
 8642SOL    HW226826   1.316   6.895   3.582
 8643SOL     OW26827   2.845   0.033   0.320
 8643SOL    HW126828   2.798   0.071   0.240
 8643SOL    HW226829   2.938   0.008   0.296
 8644SOL     OW26830   6.348   2.125   6.755
 8644SOL    HW126831   6.253   2.129   6.784
 8644SOL    HW226832   6.408   2.128   6.835
 8645SOL     OW26833   5.741   4.212   1.654
 8645SOL    HW126834   5.645   4.214   1.680
 8645SOL    HW226835   5.783   4.127   1.686
 8646SOL     OW26836   0.370   2.461   5.768
 8646SOL    HW126837   0.369   2.496   5.862
 8646SOL    HW226838   0.376   2.537   5.704
 8647SOL     OW26839   2.575   5.456   1.584
 8647SOL    HW126840   2.673   5.472   1.596
 8647SOL    HW226841   2.561   5.364   1.550
 8648SOL     OW26842   5.755   6.559   1.172
 8648SOL    HW126843   5.722   6.635   1.229
 8648SOL    HW226844   5.753   6.474   1.225
 8649SOL     OW26845   4.321   6.724   0.009
 8649SOL    HW126846   4.338   6.626   0.019
 8649SOL    HW226847   4.405   6.770   7.005
 8650SOL     OW26848   2.236   0.452   4.565
 8650SOL    HW126849   2.312   0.411   4.616
 8650SOL    HW226850   2.155   0.394   4.572
 8651SOL     OW26851   2.724   1.363   0.874
 8651SOL    HW126852   2.654   1.417   0.922
 8651SOL    HW226853   2.734   1.274   0.919
 8652SOL     OW26854   0.884   4.848   4.348
 8652SOL    HW126855   0.873   4.812   4.255
 8652SOL    HW226856   0.851   4.942   4.352
 8653SOL     OW26857   0.117   1.800   6.245
 8653SOL    HW126858   0.186   1.729   6.261
 8653SOL    HW226859   0.100   1.849   6.331
 8654SOL     OW26860   0.955   4.797   1.947
 8654SOL    HW126861   0.954   4.714   1.891
 8654SOL    HW226862   1.049   4.826   1.962
 8655SOL     OW26863   6.727   1.574   5.643
 8655SOL    HW126864   6.796   1.615   5.583
 8655SOL    HW226865   6.762   1.488   5.679
 8656SOL     OW26866   5.870   6.934   2.014
 8656SOL    HW126867   5.927   6.895   1.941
 8656SOL    HW226868   5.775   6.908   2.000
 8657SOL     OW26869   5.880   0.440   1.993
 8657SOL    HW126870   5.827   0.358   1.972
 8657SOL    HW226871   5.823   0.521   1.980
 8658SOL     OW26872   6.292   5.209   1.728
 8658SOL    HW126873   6.299   5.121   1.775
 8658SOL    HW226874   6.204   5.215   1.681
 8659SOL     OW26875   4.698   2.368   2.780
 8659SOL    HW126876   4.609   2.336   2.748
 8659SOL    HW226877   4.686   2.454   2.831
 8660SOL     OW26878   0.662   2.634   1.228
 8660SOL    HW126879   0.698   2.644   1.321
 8660SOL    HW226880   0.621   2.544   1.218
 8661SOL     OW26881   6.278   3.251   3.283
 8661SOL    HW126882   6.296   3.160   3.320
 8661SOL    HW226883   6.181   3.272   3.292
 8662SOL     OW26884   3.344   5.645   2.481
 8662SOL    HW126885   3.385   5.590   2.409
 8662SOL    HW226886   3.408   5.653   2.558
 8663SOL     OW26887   3.206   5.734   3.501
 8663SOL    HW126888   3.185   5.823   3.540
 8663SOL    HW226889   3.305   5.721   3.499
 8664SOL     OW26890   2.015   5.830   2.890
 8664SOL    HW126891   2.069   5.906   2.926
 8664SOL    HW226892   1.967   5.785   2.965
 8665SOL     OW26893   5.852   4.905   5.631
 8665SOL    HW126894   5.892   4.815   5.651
 8665SOL    HW226895   5.828   4.950   5.717
 8666SOL     OW26896   5.161   0.382   3.758
 8666SOL    HW126897   5.222   0.335   3.694
 8666SOL    HW226898   5.123   0.464   3.715
 8667SOL     OW26899   4.871   1.374   4.429
 8667SOL    HW126900   4.967   1.397   4.414
 8667SOL    HW226901   4.817   1.458   4.432
 8668SOL     OW26902   5.759   2.995   4.721
 8668SOL    HW126903   5.806   2.910   4.745
 8668SOL    HW226904   5.681   3.008   4.783
 8669SOL     OW26905   6.861   6.635   6.147
 8669SOL    HW126906   6.879   6.720   6.096
 8669SOL    HW226907   6.765   6.611   6.139
 8670SOL     OW26908   5.761   5.025   5.876
 8670SOL    HW126909   5.715   4.937   5.879
 8670SOL    HW226910   5.775   5.059   5.969
 8671SOL     OW26911   0.350   2.403   2.347
 8671SOL    HW126912   0.410   2.470   2.390
 8671SOL    HW226913   0.256   2.419   2.378
 8672SOL     OW26914   7.004   0.244   3.439
 8672SOL    HW126915   6.973   0.318   3.378
 8672SOL    HW226916   6.998   0.157   3.391
 8673SOL     OW26917   0.244   1.486   0.233
 8673SOL    HW126918   0.292   1.557   0.181
 8673SOL    HW226919   0.145   1.498   0.221
 8674SOL     OW26920   0.440   4.273   3.123
 8674SOL    HW126921   0.416   4.176   3.120
 8674SOL    HW226922   0.535   4.283   3.152
 8675SOL     OW26923   3.431   1.623   6.080
 8675SOL    HW126924   3.490   1.638   6.160
 8675SOL    HW226925   3.425   1.708   6.028
 8676SOL     OW26926   5.496   1.375   1.259
 8676SOL    HW126927   5.454   1.439   1.195
 8676SOL    HW226928   5.588   1.351   1.228
 8677SOL     OW26929   1.730   6.555   6.118
 8677SOL    HW126930   1.781   6.475   6.147
 8677SOL    HW226931   1.636   6.528   6.094
 8678SOL     OW26932   1.268   6.899   0.530
 8678SOL    HW126933   1.335   6.940   0.469
 8678SOL    HW226934   1.216   6.830   0.480
 8679SOL     OW26935   2.064   1.109   3.959
 8679SOL    HW126936   2.086   1.043   4.031
 8679SOL    HW226937   2.102   1.198   3.983
 8680SOL     OW26938   6.491   2.671   5.795
 8680SOL    HW126939   6.488   2.648   5.892
 8680SOL    HW226940   6.428   2.747   5.777
 8681SOL     OW26941   5.166   6.082   0.811
 8681SOL    HW126942   5.114   6.081   0.897
 8681SOL    HW226943   5.207   5.992   0.796
 8682SOL     OW26944   0.014   0.391   1.178
 8682SOL    HW126945   0.010   0.486   1.207
 8682SOL    HW226946   0.037   0.333   1.256
 8683SOL     OW26947   1.895   3.582   5.050
 8683SOL    HW126948   1.990   3.607   5.031
 8683SOL    HW226949   1.877   3.492   5.010
 8684SOL     OW26950   0.821   3.845   4.660
 8684SOL    HW126951   0.859   3.763   4.702
 8684SOL    HW226952   0.757   3.888   4.724
 8685SOL     OW26953   5.396   2.524   5.787
 8685SOL    HW126954   5.325   2.552   5.852
 8685SOL    HW226955   5.464   2.469   5.835
 8686SOL     OW26956   6.324   6.591   2.584
 8686SOL    HW126957   6.367   6.515   2.633
 8686SOL    HW226958   6.394   6.654   2.551
 8687SOL     OW26959   6.203   3.386   3.544
 8687SOL    HW126960   6.132   3.340   3.491
 8687SOL    HW226961   6.285   3.329   3.548
 8688SOL     OW26962   1.592   3.658   6.225
 8688SOL    HW126963   1.596   3.748   6.269
 8688SOL    HW226964   1.540   3.595   6.282
 8689SOL     OW26965   4.416   3.260   0.428
 8689SOL    HW126966   4.501   3.291   0.469
 8689SOL    HW226967   4.351   3.336   0.424
 8690SOL     OW26968   0.982   1.968   3.092
 8690SOL    HW126969   0.974   2.065   3.118
 8690SOL    HW226970   1.013   1.962   2.998
 8691SOL     OW26971   3.263   1.989   4.739
 8691SOL    HW126972   3.312   2.031   4.815
 8691SOL    HW226973   3.168   2.021   4.739
 8692SOL     OW26974   4.278   1.965   5.408
 8692SOL    HW126975   4.271   2.061   5.379
 8692SOL    HW226976   4.369   1.930   5.386
 8693SOL     OW26977   6.632   0.899   6.650
 8693SOL    HW126978   6.626   0.818   6.592
 8693SOL    HW226979   6.727   0.915   6.675
 8694SOL     OW26980   6.495   3.150   4.261
 8694SOL    HW126981   6.450   3.221   4.207
 8694SOL    HW226982   6.564   3.192   4.321
 8695SOL     OW26983   4.278   3.434   6.340
 8695SOL    HW126984   4.203   3.496   6.320
 8695SOL    HW226985   4.245   3.339   6.341
 8696SOL     OW26986   2.810   5.640   5.608
 8696SOL    HW126987   2.896   5.641   5.556
 8696SOL    HW226988   2.796   5.549   5.647
 8697SOL     OW26989   1.757   4.270   6.128
 8697SOL    HW126990   1.792   4.340   6.065
 8697SOL    HW226991   1.834   4.221   6.169
 8698SOL     OW26992   4.769   5.855   6.141
 8698SOL    HW126993   4.777   5.944   6.186
 8698SOL    HW226994   4.677   5.845   6.102
 8699SOL     OW26995   2.544   2.616   6.488
 8699SOL    HW126996   2.488   2.624   6.406
 8699SOL    HW226997   2.562   2.707   6.525
 8700SOL     OW26998   1.047   0.552   5.148
 8700SOL    HW126999   0.982   0.611   5.099
 8700SOL    HW227000   1.043   0.460   5.111
 8701SOL     OW27001   1.157   1.649   6.928
 8701SOL    HW127002   1.112   1.560   6.915
 8701SOL    HW227003   1.147   1.703   6.844
 8702SOL     OW27004   5.137   4.571   1.620
 8702SOL    HW127005   5.163   4.668   1.627
 8702SOL    HW227006   5.090   4.555   1.533
 8703SOL     OW27007   2.893   4.626   0.058
 8703SOL    HW127008   2.869   4.679   0.140
 8703SOL    HW227009   2.911   4.531   0.084
 8704SOL     OW27010   0.337   2.399   4.399
 8704SOL    HW127011   0.364   2.351   4.483
 8704SOL    HW227012   0.237   2.402   4.393
 8705SOL     OW27013   4.407   2.714   0.002
 8705SOL    HW127014   4.393   2.722   0.101
 8705SOL    HW227015   4.482   2.651   7.008
 8706SOL     OW27016   5.652   2.994   0.065
 8706SOL    HW127017   5.577   2.946   0.021
 8706SOL    HW227018   5.676   2.948   0.151
 8707SOL     OW27019   1.488   1.695   4.572
 8707SOL    HW127020   1.406   1.750   4.560
 8707SOL    HW227021   1.539   1.728   4.651
 8708SOL     OW27022   5.033   1.674   3.288
 8708SOL    HW127023   5.039   1.759   3.235
 8708SOL    HW227024   5.058   1.692   3.384
 8709SOL     OW27025   6.612   0.339   6.765
 8709SOL    HW127026   6.576   0.401   6.696
 8709SOL    HW227027   6.623   0.248   6.726
 8710SOL     OW27028   2.289   1.421   3.273
 8710SOL    HW127029   2.318   1.516   3.264
 8710SOL    HW227030   2.365   1.366   3.307
 8711SOL     OW27031   0.944   1.426   2.144
 8711SOL    HW127032   0.936   1.470   2.234
 8711SOL    HW227033   0.975   1.494   2.077
 8712SOL     OW27034   2.143   2.554   5.134
 8712SOL    HW127035   2.132   2.557   5.035
 8712SOL    HW227036   2.098   2.472   5.170
 8713SOL     OW27037   1.007   4.372   1.957
 8713SOL    HW127038   1.083   4.374   2.022
 8713SOL    HW227039   0.925   4.338   2.003
 8714SOL     OW27040   0.145   6.347   7.022
 8714SOL    HW127041   0.206   6.272   6.996
 8714SOL    HW227042   0.062   6.344   6.967
 8715SOL     OW27043   2.744   1.963   0.125
 8715SOL    HW127044   2.720   1.875   0.167
 8715SOL    HW227045   2.786   1.946   0.035
 8716SOL     OW27046   0.189   6.393   1.353
 8716SOL    HW127047   0.098   6.411   1.389
 8716SOL    HW227048   0.233   6.321   1.407
 8717SOL     OW27049   2.317   3.793   6.951
 8717SOL    HW127050   2.313   3.892   6.965
 8717SOL    HW227051   2.307   3.746   0.015
 8718SOL     OW27052   1.692   3.508   6.591
 8718SOL    HW127053   1.622   3.496   6.520
 8718SOL    HW227054   1.666   3.582   6.652
 8719SOL     OW27055   3.587   1.203   6.213
 8719SOL    HW127056   3.503   1.257   6.211
 8719SOL    HW227057   3.567   1.110   6.245
 8720SOL     OW27058   6.112   4.666   5.063
 8720SOL    HW127059   6.033   4.725   5.075
 8720SOL    HW227060   6.187   4.699   5.120
 8721SOL     OW27061   0.283   6.258   6.752
 8721SOL    HW127062   0.273   6.202   6.834
 8721SOL    HW227063   0.361   6.320   6.763
 8722SOL     OW27064   3.651   0.377   1.144
 8722SOL    HW127065   3.593   0.385   1.224
 8722SOL    HW227066   3.601   0.332   1.070
 8723SOL     OW27067   5.347   0.134   2.507
 8723SOL    HW127068   5.386   0.160   2.595
 8723SOL    HW227069   5.292   0.210   2.471
 8724SOL     OW27070   4.236   0.292   4.252
 8724SOL    HW127071   4.154   0.241   4.226
 8724SOL    HW227072   4.227   0.387   4.223
 8725SOL     OW27073   0.462   6.446   4.645
 8725SOL    HW127074   0.460   6.544   4.625
 8725SOL    HW227075   0.532   6.402   4.588
 8726SOL     OW27076   0.233   0.999   0.494
 8726SOL    HW127077   0.237   0.997   0.593
 8726SOL    HW227078   0.228   1.094   0.463
 8727SOL     OW27079   5.730   6.111   6.529
 8727SOL    HW127080   5.649   6.071   6.573
 8727SOL    HW227081   5.812   6.080   6.576
 8728SOL     OW27082   5.476   0.815   3.471
 8728SOL    HW127083   5.436   0.791   3.382
 8728SOL    HW227084   5.423   0.771   3.544
 8729SOL     OW27085   3.913   4.977   5.763
 8729SOL    HW127086   3.869   5.064   5.742
 8729SOL    HW227087   3.876   4.940   5.848
 8730SOL     OW27088   5.720   4.368   3.345
 8730SOL    HW127089   5.704   4.413   3.433
 8730SOL    HW227090   5.640   4.379   3.286
 8731SOL     OW27091   0.224   1.930   3.336
 8731SOL    HW127092   0.191   1.850   3.286
 8731SOL    HW227093   0.200   1.921   3.433
 8732SOL     OW27094   5.447   5.097   0.949
 8732SOL    HW127095   5.429   4.999   0.949
 8732SOL    HW227096   5.417   5.137   1.036
 8733SOL     OW27097   1.021   5.189   0.730
 8733SOL    HW127098   0.936   5.240   0.714
 8733SOL    HW227099   1.038   5.127   0.654
 8734SOL     OW27100   6.744   3.780   2.180
 8734SOL    HW127101   6.665   3.767   2.120
 8734SOL    HW227102   6.827   3.787   2.124
 8735SOL     OW27103   2.130   3.845   5.497
 8735SOL    HW127104   2.109   3.805   5.586
 8735SOL    HW227105   2.100   3.941   5.495
 8736SOL     OW27106   0.462   5.495   1.881
 8736SOL    HW127107   0.426   5.433   1.811
 8736SOL    HW227108   0.484   5.443   1.963
 8737SOL     OW27109   1.483   5.428   6.600
 8737SOL    HW127110   1.510   5.360   6.533
 8737SOL    HW227111   1.383   5.430   6.607
 8738SOL     OW27112   1.034   3.717   3.729
 8738SOL    HW127113   1.051   3.684   3.636
 8738SOL    HW227114   0.995   3.644   3.784
 8739SOL     OW27115   5.167   3.684   5.344
 8739SOL    HW127116   5.183   3.595   5.387
 8739SOL    HW227117   5.236   3.700   5.274
 8740SOL     OW27118   3.695   1.672   3.163
 8740SOL    HW127119   3.655   1.758   3.195
 8740SOL    HW227120   3.654   1.647   3.075
 8741SOL     OW27121   1.566   0.111   2.520
 8741SOL    HW127122   1.536   0.031   2.469
 8741SOL    HW227123   1.656   0.140   2.488
 8742SOL     OW27124   3.591   0.806   2.899
 8742SOL    HW127125   3.575   0.896   2.859
 8742SOL    HW227126   3.521   0.788   2.968
 8743SOL     OW27127   1.402   0.960   1.533
 8743SOL    HW127128   1.374   1.035   1.473
 8743SOL    HW227129   1.323   0.901   1.552
 8744SOL     OW27130   4.083   3.076   6.726
 8744SOL    HW127131   4.050   2.983   6.710
 8744SOL    HW227132   4.156   3.096   6.661
 8745SOL     OW27133   6.743   1.767   6.788
 8745SOL    HW127134   6.732   1.687   6.729
 8745SOL    HW227135   6.655   1.815   6.795
 8746SOL     OW27136   5.131   5.377   4.107
 8746SOL    HW127137   5.115   5.337   4.016
 8746SOL    HW227138   5.182   5.462   4.097
 8747SOL     OW27139   6.375   1.072   2.485
 8747SOL    HW127140   6.385   0.974   2.468
 8747SOL    HW227141   6.282   1.090   2.519
 8748SOL     OW27142   0.675   1.763   4.432
 8748SOL    HW127143   0.633   1.731   4.517
 8748SOL    HW227144   0.670   1.690   4.364
 8749SOL     OW27145   2.528   1.147   5.846
 8749SOL    HW127146   2.468   1.201   5.787
 8749SOL    HW227147   2.474   1.077   5.892
 8750SOL     OW27148   4.370   2.636   6.050
 8750SOL    HW127149   4.313   2.554   6.044
 8750SOL    HW227150   4.312   2.716   6.064
 8751SOL     OW27151   0.115   6.890   1.363
 8751SOL    HW127152   0.167   6.821   1.312
 8751SOL    HW227153   0.106   6.973   1.308
 8752SOL     OW27154   4.826   3.005   0.288
 8752SOL    HW127155   4.845   3.089   0.338
 8752SOL    HW227156   4.761   2.949   0.340
 8753SOL     OW27157   1.677   3.193   0.335
 8753SOL    HW127158   1.692   3.209   0.238
 8753SOL    HW227159   1.764   3.191   0.383
 8754SOL     OW27160   2.570   4.498   6.443
 8754SOL    HW127161   2.485   4.516   6.394
 8754SOL    HW227162   2.618   4.421   6.401
 8755SOL     OW27163   0.671   1.654   1.641
 8755SOL    HW127164   0.709   1.568   1.673
 8755SOL    HW227165   0.604   1.687   1.708
 8756SOL     OW27166   2.324   2.647   3.904
 8756SOL    HW127167   2.313   2.745   3.919
 8756SOL    HW227168   2.408   2.615   3.950
 8757SOL     OW27169   5.242   6.052   5.021
 8757SOL    HW127170   5.278   5.990   5.091
 8757SOL    HW227171   5.179   6.117   5.064
 8758SOL     OW27172   3.381   6.880   3.422
 8758SOL    HW127173   3.368   6.979   3.434
 8758SOL    HW227174   3.476   6.857   3.445
 8759SOL     OW27175   6.503   0.864   6.905
 8759SOL    HW127176   6.571   0.870   6.832
 8759SOL    HW227177   6.463   0.772   6.906
 8760SOL     OW27178   2.164   1.724   3.619
 8760SOL    HW127179   2.112   1.794   3.570
 8760SOL    HW227180   2.136   1.633   3.590
 8761SOL     OW27181   5.246   1.444   1.895
 8761SOL    HW127182   5.278   1.533   1.862
 8761SOL    HW227183   5.183   1.458   1.972
 8762SOL     OW27184   1.805   5.389   4.121
 8762SOL    HW127185   1.714   5.393   4.079
 8762SOL    HW227186   1.874   5.416   4.053
 8763SOL     OW27187   6.961   0.974   5.247
 8763SOL    HW127188   6.979   0.881   5.278
 8763SOL    HW227189   6.865   0.983   5.221
 8764SOL     OW27190   4.165   5.297   5.823
 8764SOL    HW127191   4.162   5.361   5.746
 8764SOL    HW227192   4.177   5.204   5.788
 8765SOL     OW27193   5.110   0.454   5.184
 8765SOL    HW127194   5.171   0.480   5.259
 8765SOL    HW227195   5.163   0.408   5.112
 8766SOL     OW27196   5.041   3.938   6.164
 8766SOL    HW127197   5.043   3.949   6.065
 8766SOL    HW227198   5.077   4.021   6.207
 8767SOL     OW27199   3.280   0.395   3.600
 8767SOL    HW127200   3.315   0.351   3.682
 8767SOL    HW227201   3.223   0.473   3.626
 8768SOL     OW27202   6.779   2.548   0.220
 8768SOL    HW127203   6.754   2.630   0.272
 8768SOL    HW227204   6.876   2.528   0.233
 8769SOL     OW27205   6.442   1.032   1.912
 8769SOL    HW127206   6.521   1.043   1.853
 8769SOL    HW227207   6.420   1.119   1.955
 8770SOL     OW27208   5.602   3.560   2.282
 8770SOL    HW127209   5.609   3.503   2.364
 8770SOL    HW227210   5.578   3.502   2.203
 8771SOL     OW27211   0.673   3.645   6.530
 8771SOL    HW127212   0.692   3.579   6.457
 8771SOL    HW227213   0.732   3.725   6.517
 8772SOL     OW27214   5.577   0.471   4.998
 8772SOL    HW127215   5.633   0.536   5.048
 8772SOL    HW227216   5.626   0.441   4.916
 8773SOL     OW27217   6.771   1.877   4.053
 8773SOL    HW127218   6.778   1.925   3.965
 8773SOL    HW227219   6.703   1.804   4.045
 8774SOL     OW27220   1.282   6.716   6.756
 8774SOL    HW127221   1.302   6.753   6.666
 8774SOL    HW227222   1.198   6.662   6.753
 8775SOL     OW27223   5.145   2.163   4.209
 8775SOL    HW127224   5.103   2.097   4.273
 8775SOL    HW227225   5.244   2.153   4.211
 8776SOL     OW27226   4.781   2.684   0.927
 8776SOL    HW127227   4.867   2.714   0.968
 8776SOL    HW227228   4.733   2.763   0.888
 8777SOL     OW27229   1.183   3.254   3.162
 8777SOL    HW127230   1.245   3.206   3.100
 8777SOL    HW227231   1.145   3.335   3.117
 8778SOL     OW27232   4.380   4.421   5.755
 8778SOL    HW127233   4.408   4.347   5.693
 8778SOL    HW227234   4.295   4.462   5.720
 8779SOL     OW27235   3.198   5.118   2.699
 8779SOL    HW127236   3.182   5.064   2.617
 8779SOL    HW227237   3.111   5.149   2.736
 8780SOL     OW27238   0.288   5.959   2.118
 8780SOL    HW127239   0.363   5.912   2.070
 8780SOL    HW227240   0.246   6.025   2.057
 8781SOL     OW27241   4.194   0.145   2.348
 8781SOL    HW127242   4.094   0.142   2.351
 8781SOL    HW227243   4.231   0.131   2.440
 8782SOL     OW27244   5.241   0.841   1.664
 8782SOL    HW127245   5.263   0.802   1.753
 8782SOL    HW227246   5.163   0.903   1.672
 8783SOL     OW27247   4.893   3.477   4.430
 8783SOL    HW127248   4.923   3.446   4.520
 8783SOL    HW227249   4.866   3.573   4.435
 8784SOL     OW27250   6.192   6.701   0.722
 8784SOL    HW127251   6.210   6.638   0.646
 8784SOL    HW227252   6.251   6.678   0.799
 8785SOL     OW27253   0.046   5.966   6.530
 8785SOL    HW127254   0.099   5.990   6.449
 8785SOL    HW227255   0.030   6.048   6.585
 8786SOL     OW27256   4.135   2.215   2.358
 8786SOL    HW127257   4.093   2.218   2.268
 8786SOL    HW227258   4.068   2.186   2.426
 8787SOL     OW27259   3.636   0.391   1.461
 8787SOL    HW127260   3.611   0.411   1.556
 8787SOL    HW227261   3.717   0.444   1.436
 8788SOL     OW27262   0.337   0.308   4.864
 8788SOL    HW127263   0.243   0.318   4.831
 8788SOL    HW227264   0.378   0.398   4.877
 8789SOL     OW27265   0.133   4.003   5.163
 8789SOL    HW127266   0.130   4.042   5.071
 8789SOL    HW227267   0.039   3.983   5.193
 8790SOL     OW27268   6.015   2.609   0.196
 8790SOL    HW127269   6.000   2.615   0.097
 8790SOL    HW227270   6.045   2.516   0.219
 8791SOL     OW27271   4.394   6.309   5.183
 8791SOL    HW127272   4.346   6.381   5.233
 8791SOL    HW227273   4.457   6.261   5.244
 8792SOL     OW27274   4.286   4.930   1.495
 8792SOL    HW127275   4.344   4.849   1.489
 8792SOL    HW227276   4.207   4.919   1.435
 8793SOL     OW27277   0.964   5.337   4.035
 8793SOL    HW127278   0.901   5.303   4.104
 8793SOL    HW227279   1.056   5.301   4.052
 8794SOL     OW27280   6.929   0.814   2.266
 8794SOL    HW127281   6.861   0.755   2.221
 8794SOL    HW227282   6.893   0.845   2.354
 8795SOL     OW27283   1.539   5.195   5.109
 8795SOL    HW127284   1.615   5.236   5.160
 8795SOL    HW227285   1.462   5.177   5.171
 8796SOL     OW27286   6.693   3.316   3.415
 8796SOL    HW127287   6.650   3.335   3.327
 8796SOL    HW227288   6.778   3.369   3.423
 8797SOL     OW27289   6.724   0.017   3.108
 8797SOL    HW127290   6.755   0.111   3.121
 8797SOL    HW227291   6.753   7.008   3.018
 8798SOL     OW27292   4.524   6.745   4.990
 8798SOL    HW127293   4.432   6.761   4.955
 8798SOL    HW227294   4.540   6.647   4.997
 8799SOL     OW27295   2.401   5.394   2.169
 8799SOL    HW127296   2.400   5.302   2.131
 8799SOL    HW227297   2.488   5.409   2.217
 8800SOL     OW27298   6.728   5.802   5.543
 8800SOL    HW127299   6.780   5.804   5.629
 8800SOL    HW227300   6.736   5.711   5.502
 8801SOL     OW27301   6.168   2.160   4.948
 8801SOL    HW127302   6.147   2.102   5.027
 8801SOL    HW227303   6.226   2.110   4.884
 8802SOL     OW27304   1.363   5.759   5.878
 8802SOL    HW127305   1.291   5.748   5.947
 8802SOL    HW227306   1.390   5.855   5.874
 8803SOL     OW27307   5.992   0.629   6.958
 8803SOL    HW127308   6.018   0.723   6.982
 8803SOL    HW227309   5.893   0.619   6.967
 8804SOL     OW27310   2.074   5.833   1.061
 8804SOL    HW127311   1.978   5.829   1.031
 8804SOL    HW227312   2.099   5.927   1.082
 8805SOL     OW27313   4.758   5.770   2.749
 8805SOL    HW127314   4.699   5.850   2.739
 8805SOL    HW227315   4.722   5.710   2.820
 8806SOL     OW27316   2.550   6.014   0.294
 8806SOL    HW127317   2.545   6.012   0.394
 8806SOL    HW227318   2.620   6.079   0.265
 8807SOL     OW27319   4.706   2.472   0.746
 8807SOL    HW127320   4.662   2.472   0.656
 8807SOL    HW227321   4.705   2.564   0.784
 8808SOL     OW27322   2.065   2.351   0.412
 8808SOL    HW127323   2.118   2.272   0.440
 8808SOL    HW227324   1.968   2.327   0.407
 8809SOL     OW27325   2.240   3.966   3.681
 8809SOL    HW127326   2.184   3.887   3.705
 8809SOL    HW227327   2.223   4.041   3.746
 8810SOL     OW27328   6.975   1.535   6.001
 8810SOL    HW127329   0.044   1.501   6.018
 8810SOL    HW227330   6.914   1.457   5.987
 8811SOL     OW27331   4.353   0.117   2.590
 8811SOL    HW127332   4.309   0.104   2.679
 8811SOL    HW227333   4.435   0.060   2.585
 8812SOL     OW27334   3.338   1.051   6.350
 8812SOL    HW127335   3.410   0.984   6.336
 8812SOL    HW227336   3.250   1.004   6.365
 8813SOL     OW27337   2.197   4.363   3.005
 8813SOL    HW127338   2.151   4.369   3.094
 8813SOL    HW227339   2.253   4.445   2.992
 8814SOL     OW27340   6.131   6.962   0.212
 8814SOL    HW127341   6.179   6.904   0.146
 8814SOL    HW227342   6.160   0.033   0.200
 8815SOL     OW27343   5.348   0.987   0.786
 8815SOL    HW127344   5.352   1.051   0.862
 8815SOL    HW227345   5.412   0.912   0.801
 8816SOL     OW27346   0.546   6.559   5.934
 8816SOL    HW127347   0.619   6.585   5.997
 8816SOL    HW227348   0.547   6.460   5.920
 8817SOL     OW27349   1.295   3.296   4.843
 8817SOL    HW127350   1.381   3.299   4.894
 8817SOL    HW227351   1.286   3.379   4.789
 8818SOL     OW27352   2.230   6.812   4.012
 8818SOL    HW127353   2.144   6.864   4.006
 8818SOL    HW227354   2.306   6.876   4.027
 8819SOL     OW27355   5.646   4.193   6.004
 8819SOL    HW127356   5.564   4.241   6.035
 8819SOL    HW227357   5.722   4.258   5.999
 8820SOL     OW27358   3.441   1.356   4.825
 8820SOL    HW127359   3.385   1.407   4.891
 8820SOL    HW227360   3.478   1.420   4.757
 8821SOL     OW27361   1.697   4.984   0.925
 8821SOL    HW127362   1.712   4.977   0.826
 8821SOL    HW227363   1.676   5.078   0.949
 8822SOL     OW27364   6.588   6.729   4.128
 8822SOL    HW127365   6.537   6.649   4.161
 8822SOL    HW227366   6.639   6.704   4.046
 8823SOL     OW27367   2.989   1.453   3.437
 8823SOL    HW127368   2.977   1.402   3.351
 8823SOL    HW227369   3.082   1.491   3.440
 8824SOL     OW27370   1.573   0.322   0.711
 8824SOL    HW127371   1.550   0.405   0.763
 8824SOL    HW227372   1.489   0.270   0.693
 8825SOL     OW27373   0.177   0.365   0.638
 8825SOL    HW127374   0.153   0.462   0.648
 8825SOL    HW227375   0.213   0.331   0.725
 8826SOL     OW27376   0.990   3.529   0.766
 8826SOL    HW127377   1.009   3.433   0.787
 8826SOL    HW227378   1.033   3.587   0.835
 8827SOL     OW27379   3.976   0.492   2.483
 8827SOL    HW127380   3.932   0.454   2.401
 8827SOL    HW227381   3.931   0.578   2.508
 8828SOL     OW27382   4.169   3.659   6.008
 8828SOL    HW127383   4.171   3.559   6.004
 8828SOL    HW227384   4.193   3.696   5.919
 8829SOL     OW27385   0.157   1.680   2.274
 8829SOL    HW127386   0.112   1.677   2.363
 8829SOL    HW227387   0.168   1.775   2.245
 8830SOL     OW27388   2.780   1.829   2.930
 8830SOL    HW127389   2.879   1.833   2.943
 8830SOL    HW227390   2.734   1.860   3.013
 8831SOL     OW27391   0.238   2.029   2.586
 8831SOL    HW127392   0.289   1.997   2.506
 8831SOL    HW227393   0.271   2.119   2.613
 8832SOL     OW27394   6.400   7.017   3.756
 8832SOL    HW127395   6.468   6.954   3.719
 8832SOL    HW227396   6.397   7.009   3.856
 8833SOL     OW27397   3.888   2.416   1.160
 8833SOL    HW127398   3.869   2.387   1.254
 8833SOL    HW227399   3.880   2.337   1.099
 8834SOL     OW27400   5.809   3.895   5.694
 8834SOL    HW127401   5.714   3.867   5.678
 8834SOL    HW227402   5.871   3.825   5.658
 8835SOL     OW27403   5.863   0.741   5.687
 8835SOL    HW127404   5.816   0.654   5.669
 8835SOL    HW227405   5.800   0.817   5.672
 8836SOL     OW27406   5.367   2.667   6.645
 8836SOL    HW127407   5.343   2.764   6.642
 8836SOL    HW227408   5.305   2.619   6.708
 8837SOL     OW27409   6.536   6.672   1.951
 8837SOL    HW127410   6.450   6.709   1.915
 8837SOL    HW227411   6.543   6.575   1.930
 8838SOL     OW27412   0.503   4.192   2.732
 8838SOL    HW127413   0.545   4.134   2.802
 8838SOL    HW227414   0.575   4.236   2.678
 8839SOL     OW27415   5.465   5.711   2.712
 8839SOL    HW127416   5.452   5.714   2.811
 8839SOL    HW227417   5.561   5.729   2.691
 8840SOL     OW27418   0.479   0.926   1.545
 8840SOL    HW127419   0.480   0.834   1.582
 8840SOL    HW227420   0.385   0.957   1.534
 8841SOL     OW27421   3.936   0.958   1.857
 8841SOL    HW127422   3.987   0.872   1.852
 8841SOL    HW227423   3.975   1.016   1.929
 8842SOL     OW27424   3.617   3.793   3.978
 8842SOL    HW127425   3.588   3.888   3.984
 8842SOL    HW227426   3.605   3.748   4.067
 8843SOL     OW27427   2.017   3.720   5.765
 8843SOL    HW127428   2.023   3.639   5.824
 8843SOL    HW227429   1.934   3.714   5.709
 8844SOL     OW27430   5.814   2.128   5.450
 8844SOL    HW127431   5.894   2.067   5.459
 8844SOL    HW227432   5.826   2.186   5.369
 8845SOL     OW27433   2.029   5.387   1.444
 8845SOL    HW127434   2.113   5.424   1.485
 8845SOL    HW227435   2.042   5.379   1.345
 8846SOL     OW27436   5.084   4.146   3.776
 8846SOL    HW127437   5.057   4.237   3.745
 8846SOL    HW227438   5.148   4.105   3.711
 8847SOL     OW27439   2.152   2.295   2.848
 8847SOL    HW127440   2.219   2.250   2.908
 8847SOL    HW227441   2.069   2.240   2.844
 8848SOL     OW27442   2.921   1.885   1.219
 8848SOL    HW127443   2.968   1.927   1.296
 8848SOL    HW227444   2.854   1.819   1.252
 8849SOL     OW27445   3.485   5.884   4.551
 8849SOL    HW127446   3.436   5.890   4.464
 8849SOL    HW227447   3.425   5.845   4.621
 8850SOL     OW27448   2.704   1.710   0.694
 8850SOL    HW127449   2.799   1.743   0.687
 8850SOL    HW227450   2.684   1.686   0.789
 8851SOL     OW27451   1.722   4.413   3.048
 8851SOL    HW127452   1.785   4.486   3.075
 8851SOL    HW227453   1.663   4.446   2.974
 8852SOL     OW27454   5.307   2.832   6.024
 8852SOL    HW127455   5.251   2.762   5.979
 8852SOL    HW227456   5.339   2.898   5.956
 8853SOL     OW27457   4.062   1.615   5.051
 8853SOL    HW127458   4.060   1.628   4.952
 8853SOL    HW227459   3.972   1.585   5.082
 8854SOL     OW27460   1.162   1.164   6.086
 8854SOL    HW127461   1.174   1.234   6.017
 8854SOL    HW227462   1.196   1.197   6.174
 8855SOL     OW27463   6.253   5.819   6.782
 8855SOL    HW127464   6.352   5.819   6.776
 8855SOL    HW227465   6.214   5.796   6.692
 8856SOL     OW27466   6.440   0.773   5.023
 8856SOL    HW127467   6.379   0.850   5.000
 8856SOL    HW227468   6.422   0.697   4.960
 8857SOL     OW27469   6.885   1.774   3.316
 8857SOL    HW127470   6.836   1.706   3.262
 8857SOL    HW227471   6.982   1.772   3.292
 8858SOL     OW27472   0.757   4.056   5.663
 8858SOL    HW127473   0.694   4.129   5.640
 8858SOL    HW227474   0.722   3.969   5.629
 8859SOL     OW27475   1.152   6.561   5.232
 8859SOL    HW127476   1.092   6.617   5.289
 8859SOL    HW227477   1.197   6.618   5.164
 8860SOL     OW27478   1.334   2.960   2.738
 8860SOL    HW127479   1.357   3.005   2.652
 8860SOL    HW227480   1.418   2.941   2.790
 8861SOL     OW27481   3.417   2.864   6.723
 8861SOL    HW127482   3.473   2.932   6.770
 8861SOL    HW227483   3.330   2.905   6.696
 8862SOL     OW27484   6.054   1.894   4.736
 8862SOL    HW127485   6.086   1.954   4.663
 8862SOL    HW227486   5.979   1.838   4.703
 8863SOL     OW27487   2.068   5.890   4.729
 8863SOL    HW127488   2.104   5.860   4.818
 8863SOL    HW227489   1.968   5.896   4.735
 8864SOL     OW27490   2.129   3.441   6.665
 8864SOL    HW127491   2.046   3.481   6.625
 8864SOL    HW227492   2.196   3.514   6.681
 8865SOL     OW27493   2.637   1.572   5.052
 8865SOL    HW127494   2.542   1.542   5.043
 8865SOL    HW227495   2.665   1.620   4.969
 8866SOL     OW27496   3.814   6.521   3.408
 8866SOL    HW127497   3.728   6.572   3.403
 8866SOL    HW227498   3.890   6.585   3.418
 8867SOL     OW27499   5.919   2.225   2.648
 8867SOL    HW127500   5.873   2.190   2.567
 8867SOL    HW227501   6.018   2.213   2.638
 8868SOL     OW27502   4.792   3.701   0.431
 8868SOL    HW127503   4.804   3.781   0.373
 8868SOL    HW227504   4.878   3.679   0.477
 8869SOL     OW27505   4.859   3.905   3.523
 8869SOL    HW127506   4.889   4.000   3.529
 8869SOL    HW227507   4.822   3.876   3.612
 8870SOL     OW27508   3.471   1.139   1.067
 8870SOL    HW127509   3.416   1.182   1.139
 8870SOL    HW227510   3.421   1.061   1.029
 8871SOL     OW27511   1.357   1.333   3.681
 8871SOL    HW127512   1.313   1.246   3.704
 8871SOL    HW227513   1.379   1.382   3.765
 8872SOL     OW27514   2.068   4.668   3.717
 8872SOL    HW127515   2.081   4.656   3.815
 8872SOL    HW227516   2.004   4.599   3.683
 8873SOL     OW27517   0.450   6.040   3.084
 8873SOL    HW127518   0.550   6.037   3.074
 8873SOL    HW227519   0.416   5.948   3.105
 8874SOL     OW27520   1.957   6.825   1.171
 8874SOL    HW127521   1.941   6.921   1.192
 8874SOL    HW227522   2.054   6.812   1.150
 8875SOL     OW27523   1.439   2.680   4.581
 8875SOL    HW127524   1.418   2.594   4.535
 8875SOL    HW227525   1.529   2.712   4.551
 8876SOL     OW27526   6.949   1.292   4.678
 8876SOL    HW127527   6.973   1.254   4.767
 8876SOL    HW227528   6.987   1.235   4.605
 8877SOL     OW27529   3.205   0.524   4.050
 8877SOL    HW127530   3.189   0.442   3.995
 8877SOL    HW227531   3.124   0.583   4.046
 8878SOL     OW27532   0.041   4.589   0.577
 8878SOL    HW127533   0.117   4.535   0.612
 8878SOL    HW227534   7.022   4.539   0.501
 8879SOL     OW27535   5.073   5.799   0.358
 8879SOL    HW127536   5.086   5.711   0.313
 8879SOL    HW227537   5.095   5.873   0.294
 8880SOL     OW27538   6.961   5.422   4.577
 8880SOL    HW127539   0.010   5.437   4.643
 8880SOL    HW227540   6.883   5.379   4.621
 8881SOL     OW27541   6.519   0.945   2.815
 8881SOL    HW127542   6.599   0.975   2.762
 8881SOL    HW227543   6.445   0.924   2.752
 8882SOL     OW27544   5.430   1.100   0.021
 8882SOL    HW127545   5.510   1.157   0.039
 8882SOL    HW227546   5.362   1.153   6.994
 8883SOL     OW27547   0.328   0.998   6.251
 8883SOL    HW127548   0.307   0.954   6.163
 8883SOL    HW227549   0.334   1.097   6.238
 8884SOL     OW27550   5.753   6.505   6.364
 8884SOL    HW127551   5.723   6.599   6.378
 8884SOL    HW227552   5.750   6.455   6.451
 8885SOL     OW27553   6.183   3.848   1.465
 8885SOL    HW127554   6.179   3.913   1.390
 8885SOL    HW227555   6.222   3.893   1.546
 8886SOL     OW27556   2.832   6.548   5.635
 8886SOL    HW127557   2.744   6.592   5.651
 8886SOL    HW227558   2.900   6.587   5.697
 8887SOL     OW27559   2.758   1.134   1.023
 8887SOL    HW127560   2.836   1.073   1.038
 8887SOL    HW227561   2.673   1.083   1.031
 8888SOL     OW27562   0.980   2.060   1.187
 8888SOL    HW127563   0.995   2.069   1.089
 8888SOL    HW227564   1.006   1.968   1.217
 8889SOL     OW27565   5.035   6.788   4.878
 8889SOL    HW127566   5.085   6.745   4.953
 8889SOL    HW227567   5.071   6.755   4.791
 8890SOL     OW27568   6.521   5.579   4.305
 8890SOL    HW127569   6.472   5.638   4.369
 8890SOL    HW227570   6.510   5.483   4.331
 8891SOL     OW27571   5.789   3.309   6.823
 8891SOL    HW127572   5.775   3.291   6.921
 8891SOL    HW227573   5.846   3.236   6.785
 8892SOL     OW27574   2.331   0.018   3.033
 8892SOL    HW127575   2.405   7.023   2.968
 8892SOL    HW227576   2.322   6.964   3.096
 8893SOL     OW27577   0.142   1.257   1.603
 8893SOL    HW127578   0.070   1.293   1.544
 8893SOL    HW227579   0.157   1.161   1.581
 8894SOL     OW27580   4.013   2.779   6.030
 8894SOL    HW127581   4.004   2.786   5.930
 8894SOL    HW227582   3.940   2.721   6.065
 8895SOL     OW27583   0.238   6.944   1.573
 8895SOL    HW127584   0.257   6.854   1.613
 8895SOL    HW227585   0.183   6.933   1.489
 8896SOL     OW27586   1.788   3.664   5.280
 8896SOL    HW127587   1.705   3.617   5.248
 8896SOL    HW227588   1.858   3.659   5.209
 8897SOL     OW27589   1.431   1.394   2.267
 8897SOL    HW127590   1.359   1.457   2.238
 8897SOL    HW227591   1.489   1.371   2.189
 8898SOL     OW27592   6.224   3.443   4.640
 8898SOL    HW127593   6.253   3.355   4.680
 8898SOL    HW227594   6.238   3.441   4.541
 8899SOL     OW27595   1.806   4.111   6.724
 8899SOL    HW127596   1.852   4.073   6.805
 8899SOL    HW227597   1.834   4.206   6.712
 8900SOL     OW27598   4.992   2.896   3.380
 8900SOL    HW127599   5.065   2.929   3.440
 8900SOL    HW227600   5.027   2.888   3.287
 8901SOL     OW27601   1.535   0.825   2.768
 8901SOL    HW127602   1.578   0.909   2.800
 8901SOL    HW227603   1.520   0.763   2.846
 8902SOL     OW27604   2.223   5.561   6.427
 8902SOL    HW127605   2.219   5.661   6.431
 8902SOL    HW227606   2.280   5.534   6.349
 8903SOL     OW27607   2.511   1.447   3.833
 8903SOL    HW127608   2.489   1.543   3.813
 8903SOL    HW227609   2.509   1.394   3.748
 8904SOL     OW27610   6.877   5.612   3.600
 8904SOL    HW127611   6.898   5.681   3.670
 8904SOL    HW227612   6.783   5.624   3.568
 8905SOL     OW27613   2.409   3.284   5.310
 8905SOL    HW127614   2.479   3.342   5.352
 8905SOL    HW227615   2.452   3.201   5.274
 8906SOL     OW27616   6.650   6.335   6.293
 8906SOL    HW127617   6.688   6.313   6.383
 8906SOL    HW227618   6.725   6.351   6.228
 8907SOL     OW27619   3.272   2.578   5.381
 8907SOL    HW127620   3.265   2.504   5.315
 8907SOL    HW227621   3.265   2.541   5.474
 8908SOL     OW27622   1.582   2.025   0.650
 8908SOL    HW127623   1.524   1.946   0.669
 8908SOL    HW227624   1.676   1.995   0.637
 8909SOL     OW27625   3.218   0.188   5.764
 8909SOL    HW127626   3.257   0.208   5.674
 8909SOL    HW227627   3.191   0.273   5.809
 8910SOL     OW27628   3.096   3.137   5.954
 8910SOL    HW127629   3.030   3.090   5.896
 8910SOL    HW227630   3.183   3.087   5.953
 8911SOL     OW27631   2.961   2.218   4.351
 8911SOL    HW127632   3.050   2.262   4.344
 8911SOL    HW227633   2.961   2.155   4.429
 8912SOL     OW27634   4.441   1.643   6.313
 8912SOL    HW127635   4.348   1.653   6.278
 8912SOL    HW227636   4.503   1.627   6.236
 8913SOL     OW27637   5.190   4.190   1.765
 8913SOL    HW127638   5.108   4.245   1.777
 8913SOL    HW227639   5.205   4.134   1.847
 8914SOL     OW27640   4.389   1.326   4.931
 8914SOL    HW127641   4.292   1.312   4.953
 8914SOL    HW227642   4.445   1.271   4.991
 8915SOL     OW27643   2.146   3.091   3.740
 8915SOL    HW127644   2.055   3.070   3.703
 8915SOL    HW227645   2.138   3.159   3.813
 8916SOL     OW27646   0.110   4.303   2.469
 8916SOL    HW127647   0.040   4.260   2.412
 8916SOL    HW227648   0.084   4.298   2.565
 8917SOL     OW27649   6.049   5.498   6.753
 8917SOL    HW127650   6.124   5.564   6.759
 8917SOL    HW227651   5.967   5.544   6.719
 8918SOL     OW27652   5.815   6.218   6.939
 8918SOL    HW127653   5.840   6.302   6.890
 8918SOL    HW227654   5.836   6.139   6.882
 8919SOL     OW27655   3.715   3.811   0.822
 8919SOL    HW127656   3.781   3.859   0.879
 8919SOL    HW227657   3.743   3.716   0.811
 8920SOL     OW27658   6.370   5.656   6.238
 8920SOL    HW127659   6.419   5.710   6.307
 8920SOL    HW227660   6.405   5.563   6.238
 8921SOL     OW27661   1.110   0.765   3.706
 8921SOL    HW127662   1.061   0.816   3.777
 8921SOL    HW227663   1.092   0.807   3.617
 8922SOL     OW27664   2.646   4.891   1.051
 8922SOL    HW127665   2.714   4.856   0.987
 8922SOL    HW227666   2.671   4.866   1.145
 8923SOL     OW27667   1.793   3.785   0.060
 8923SOL    HW127668   1.814   3.701   0.008
 8923SOL    HW227669   1.720   3.765   0.125
 8924SOL     OW27670   2.605   5.133   5.775
 8924SOL    HW127671   2.601   5.232   5.762
 8924SOL    HW227672   2.681   5.096   5.721
 8925SOL     OW27673   0.468   6.909   2.278
 8925SOL    HW127674   0.519   6.980   2.328
 8925SOL    HW227675   0.479   6.821   2.324
 8926SOL     OW27676   5.499   2.473   2.254
 8926SOL    HW127677   5.462   2.398   2.199
 8926SOL    HW227678   5.464   2.560   2.221
 8927SOL     OW27679   2.448   2.596   4.779
 8927SOL    HW127680   2.375   2.644   4.730
 8927SOL    HW227681   2.448   2.623   4.875
 8928SOL     OW27682   0.457   0.772   5.625
 8928SOL    HW127683   0.395   0.829   5.677
 8928SOL    HW227684   0.408   0.728   5.550
 8929SOL     OW27685   0.266   3.675   3.982
 8929SOL    HW127686   0.172   3.672   3.947
 8929SOL    HW227687   0.266   3.718   4.072
 8930SOL     OW27688   1.343   5.153   5.295
 8930SOL    HW127689   1.317   5.240   5.337
 8930SOL    HW227690   1.298   5.078   5.343
 8931SOL     OW27691   4.851   2.207   1.482
 8931SOL    HW127692   4.821   2.299   1.457
 8931SOL    HW227693   4.790   2.171   1.554
 8932SOL     OW27694   5.667   6.750   6.420
 8932SOL    HW127695   5.597   6.798   6.473
 8932SOL    HW227696   5.677   6.793   6.331
 8933SOL     OW27697   1.189   1.037   5.177
 8933SOL    HW127698   1.119   1.105   5.198
 8933SOL    HW227699   1.145   0.956   5.138
 8934SOL     OW27700   3.470   5.344   3.282
 8934SOL    HW127701   3.411   5.417   3.247
 8934SOL    HW227702   3.430   5.255   3.260
 8935SOL     OW27703   4.912   3.278   2.482
 8935SOL    HW127704   5.011   3.261   2.482
 8935SOL    HW227705   4.887   3.323   2.568
 8936SOL     OW27706   0.209   4.089   0.954
 8936SOL    HW127707   0.165   4.007   0.917
 8936SOL    HW227708   0.158   4.170   0.925
 8937SOL     OW27709   0.411   0.136   3.930
 8937SOL    HW127710   0.359   0.192   3.995
 8937SOL    HW227711   0.402   0.040   3.955
 8938SOL     OW27712   5.996   0.740   0.540
 8938SOL    HW127713   6.008   0.672   0.613
 8938SOL    HW227714   6.078   0.742   0.482
 8939SOL     OW27715   0.001   2.733   4.884
 8939SOL    HW127716   6.936   2.697   4.911
 8939SOL    HW227717   0.018   2.819   4.931
 8940SOL     OW27718   6.635   3.509   0.610
 8940SOL    HW127719   6.665   3.597   0.574
 8940SOL    HW227720   6.584   3.523   0.695
 8941SOL     OW27721   5.016   2.614   2.074
 8941SOL    HW127722   5.073   2.692   2.047
 8941SOL    HW227723   4.942   2.646   2.133
 8942SOL     OW27724   6.924   5.160   3.540
 8942SOL    HW127725   6.911   5.206   3.628
 8942SOL    HW227726   6.913   5.061   3.552
 8943SOL     OW27727   4.278   3.378   0.044
 8943SOL    HW127728   4.254   3.282   0.032
 8943SOL    HW227729   4.376   3.390   0.033
 8944SOL     OW27730   4.462   5.487   4.416
 8944SOL    HW127731   4.473   5.582   4.389
 8944SOL    HW227732   4.497   5.427   4.345
 8945SOL     OW27733   5.832   3.747   4.990
 8945SOL    HW127734   5.830   3.719   4.894
 8945SOL    HW227735   5.926   3.767   5.016
 8946SOL     OW27736   4.838   0.912   4.155
 8946SOL    HW127737   4.755   0.877   4.199
 8946SOL    HW227738   4.883   0.977   4.217
 8947SOL     OW27739   1.059   4.725   6.760
 8947SOL    HW127740   1.023   4.632   6.763
 8947SOL    HW227741   1.095   4.745   6.669
 8948SOL     OW27742   6.143   6.915   4.076
 8948SOL    HW127743   6.145   6.873   3.986
 8948SOL    HW227744   6.056   6.964   4.088
 8949SOL     OW27745   3.692   6.330   0.343
 8949SOL    HW127746   3.676   6.232   0.329
 8949SOL    HW227747   3.628   6.383   0.286
 8950SOL     OW27748   4.639   4.473   1.519
 8950SOL    HW127749   4.721   4.416   1.508
 8950SOL    HW227750   4.558   4.416   1.510
 8951SOL     OW27751   2.304   1.191   4.157
 8951SOL    HW127752   2.279   1.275   4.109
 8951SOL    HW227753   2.301   1.207   4.255
 8952SOL     OW27754   2.195   4.788   3.479
 8952SOL    HW127755   2.221   4.885   3.474
 8952SOL    HW227756   2.137   4.775   3.560
 8953SOL     OW27757   2.678   5.427   2.296
 8953SOL    HW127758   2.726   5.372   2.228
 8953SOL    HW227759   2.684   5.382   2.385
 8954SOL     OW27760   1.389   5.880   4.593
 8954SOL    HW127761   1.303   5.829   4.589
 8954SOL    HW227762   1.392   5.933   4.678
 8955SOL     OW27763   5.720   3.102   3.237
 8955SOL    HW127764   5.772   3.154   3.169
 8955SOL    HW227765   5.762   3.012   3.250
 8956SOL     OW27766   0.827   6.787   5.906
 8956SOL    HW127767   0.845   6.754   5.814
 8956SOL    HW227768   0.805   6.884   5.903
 8957SOL     OW27769   1.502   5.466   2.497
 8957SOL    HW127770   1.489   5.492   2.592
 8957SOL    HW227771   1.425   5.409   2.467
 8958SOL     OW27772   1.696   3.476   5.724
 8958SOL    HW127773   1.775   3.524   5.685
 8958SOL    HW227774   1.613   3.502   5.674
 8959SOL     OW27775   0.728   3.499   1.876
 8959SOL    HW127776   0.695   3.538   1.962
 8959SOL    HW227777   0.780   3.416   1.894
 8960SOL     OW27778   6.258   3.646   4.158
 8960SOL    HW127779   6.310   3.716   4.109
 8960SOL    HW227780   6.318   3.568   4.178
 8961SOL     OW27781   2.984   6.388   4.710
 8961SOL    HW127782   2.919   6.319   4.680
 8961SOL    HW227783   3.010   6.371   4.805
 8962SOL     OW27784   1.098   5.631   1.304
 8962SOL    HW127785   1.164   5.572   1.258
 8962SOL    HW227786   1.010   5.585   1.310
 8963SOL     OW27787   3.552   6.137   4.589
 8963SOL    HW127788   3.481   6.193   4.546
 8963SOL    HW227789   3.518   6.043   4.599
 8964SOL     OW27790   6.487   3.625   3.357
 8964SOL    HW127791   6.485   3.592   3.451
 8964SOL    HW227792   6.492   3.547   3.294
 8965SOL     OW27793   4.319   4.937   0.546
 8965SOL    HW127794   4.269   4.981   0.621
 8965SOL    HW227795   4.308   4.991   0.463
 8966SOL     OW27796   5.030   5.414   6.295
 8966SOL    HW127797   5.060   5.413   6.200
 8966SOL    HW227798   4.939   5.455   6.301
 8967SOL     OW27799   3.180   0.836   2.910
 8967SOL    HW127800   3.210   0.926   2.941
 8967SOL    HW227801   3.238   0.765   2.951
 8968SOL     OW27802   3.229   5.117   1.850
 8968SOL    HW127803   3.223   5.020   1.872
 8968SOL    HW227804   3.137   5.157   1.852
 8969SOL     OW27805   6.726   0.563   3.309
 8969SOL    HW127806   6.630   0.583   3.327
 8969SOL    HW227807   6.778   0.648   3.307
 8970SOL     OW27808   0.939   1.440   6.476
 8970SOL    HW127809   0.898   1.467   6.563
 8970SOL    HW227810   0.889   1.483   6.401
 8971SOL     OW27811   4.423   5.524   0.792
 8971SOL    HW127812   4.329   5.491   0.798
 8971SOL    HW227813   4.454   5.552   0.883
 8972SOL     OW27814   5.832   5.105   0.365
 8972SOL    HW127815   5.872   5.036   0.425
 8972SOL    HW227816   5.849   5.196   0.402
 8973SOL     OW27817   1.107   2.271   1.952
 8973SOL    HW127818   1.036   2.337   1.973
 8973SOL    HW227819   1.189   2.318   1.919
 8974SOL     OW27820   2.248   4.083   4.371
 8974SOL    HW127821   2.262   4.149   4.298
 8974SOL    HW227822   2.242   3.991   4.332
 8975SOL     OW27823   0.548   0.334   6.493
 8975SOL    HW127824   0.621   0.325   6.425
 8975SOL    HW227825   0.584   0.311   6.583
 8976SOL     OW27826   6.569   0.530   1.732
 8976SOL    HW127827   6.545   0.580   1.649
 8976SOL    HW227828   6.668   0.523   1.740
 8977SOL     OW27829   0.052   5.104   6.394
 8977SOL    HW127830   7.001   5.055   6.437
 8977SOL    HW227831   0.040   5.105   6.295
 8978SOL     OW27832   6.040   5.832   5.821
 8978SOL    HW127833   6.103   5.907   5.844
 8978SOL    HW227834   6.047   5.760   5.890
 8979SOL     OW27835   0.230   5.940   6.290
 8979SOL    HW127836   0.263   6.031   6.267
 8979SOL    HW227837   0.300   5.890   6.340
 8980SOL     OW27838   4.147   1.321   5.023
 8980SOL    HW127839   4.174   1.361   5.110
 8980SOL    HW227840   4.068   1.370   4.986
 8981SOL     OW27841   4.509   2.306   6.563
 8981SOL    HW127842   4.458   2.275   6.483
 8981SOL    HW227843   4.604   2.325   6.537
 8982SOL     OW27844   6.515   1.217   1.580
 8982SOL    HW127845   6.511   1.117   1.581
 8982SOL    HW227846   6.531   1.251   1.672
 8983SOL     OW27847   1.168   5.409   3.027
 8983SOL    HW127848   1.212   5.450   2.947
 8983SOL    HW227849   1.238   5.379   3.092
 8984SOL     OW27850   5.943   0.549   4.559
 8984SOL    HW127851   5.938   0.572   4.461
 8984SOL    HW227852   6.030   0.582   4.596
 8985SOL     OW27853   4.987   1.948   0.720
 8985SOL    HW127854   5.027   1.969   0.630
 8985SOL    HW227855   5.012   2.020   0.785
 8986SOL     OW27856   6.098   4.457   1.861
 8986SOL    HW127857   6.075   4.554   1.875
 8986SOL    HW227858   6.049   4.422   1.782
 8987SOL     OW27859   2.535   6.774   1.210
 8987SOL    HW127860   2.532   6.734   1.301
 8987SOL    HW227861   2.568   6.706   1.145
 8988SOL     OW27862   2.312   5.247   1.351
 8988SOL    HW127863   2.225   5.218   1.311
 8988SOL    HW227864   2.371   5.283   1.279
 8989SOL     OW27865   5.236   2.403   2.583
 8989SOL    HW127866   5.214   2.339   2.510
 8989SOL    HW227867   5.165   2.474   2.589
 8990SOL     OW27868   3.551   6.597   1.274
 8990SOL    HW127869   3.557   6.623   1.178
 8990SOL    HW227870   3.481   6.527   1.285
 8991SOL     OW27871   2.194   2.122   0.455
 8991SOL    HW127872   2.165   2.032   0.424
 8991SOL    HW227873   2.274   2.113   0.515
 8992SOL     OW27874   0.715   3.304   0.130
 8992SOL    HW127875   0.785   3.280   0.063
 8992SOL    HW227876   0.635   3.245   0.118
 8993SOL     OW27877   5.391   2.457   3.472
 8993SOL    HW127878   5.391   2.416   3.564
 8993SOL    HW227879   5.379   2.385   3.404
 8994SOL     OW27880   1.545   5.442   4.053
 8994SOL    HW127881   1.524   5.475   3.961
 8994SOL    HW227882   1.502   5.502   4.120
 8995SOL     OW27883   1.880   3.437   5.492
 8995SOL    HW127884   1.831   3.524   5.502
 8995SOL    HW227885   1.902   3.422   5.396
 8996SOL     OW27886   0.499   3.928   2.279
 8996SOL    HW127887   0.471   3.994   2.350
 8996SOL    HW227888   0.443   3.942   2.197
 8997SOL     OW27889   4.679   1.168   5.454
 8997SOL    HW127890   4.624   1.089   5.480
 8997SOL    HW227891   4.776   1.145   5.460
 8998SOL     OW27892   1.567   2.966   5.598
 8998SOL    HW127893   1.646   2.904   5.603
 8998SOL    HW227894   1.595   3.058   5.625
 8999SOL     OW27895   5.152   1.580   5.832
 8999SOL    HW127896   5.090   1.603   5.907
 8999SOL    HW227897   5.247   1.586   5.865
 9000SOL     OW27898   3.602   3.884   0.568
 9000SOL    HW127899   3.622   3.837   0.654
 9000SOL    HW227900   3.637   3.978   0.573
 9001SOL     OW27901   2.530   4.870   3.742
 9001SOL    HW127902   2.448   4.868   3.800
 9001SOL    HW227903   2.514   4.931   3.665
 9002SOL     OW27904   6.031   4.676   5.698
 9002SOL    HW127905   6.019   4.580   5.722
 9002SOL    HW227906   6.102   4.685   5.629
 9003SOL     OW27907   6.345   3.057   0.066
 9003SOL    HW127908   6.321   2.968   0.104
 9003SOL    HW227909   6.348   3.125   0.140
 9004SOL     OW27910   5.132   6.482   1.243
 9004SOL    HW127911   5.079   6.470   1.327
 9004SOL    HW227912   5.136   6.394   1.194
 9005SOL     OW27913   4.494   2.223   3.441
 9005SOL    HW127914   4.480   2.141   3.386
 9005SOL    HW227915   4.409   2.275   3.446
 9006SOL     OW27916   2.033   5.082   0.758
 9006SOL    HW127917   2.124   5.115   0.732
 9006SOL    HW227918   2.042   5.002   0.818
 9007SOL     OW27919   3.305   5.599   4.407
 9007SOL    HW127920   3.332   5.592   4.312
 9007SOL    HW227921   3.246   5.680   4.419
 9008SOL     OW27922   0.095   4.298   1.575
 9008SOL    HW127923   0.141   4.373   1.622
 9008SOL    HW227924   0.027   4.336   1.512
 9009SOL     OW27925   2.593   6.428   0.238
 9009SOL    HW127926   2.527   6.391   0.304
 9009SOL    HW227927   2.674   6.370   0.236
 9010SOL     OW27928   0.662   6.678   4.996
 9010SOL    HW127929   0.683   6.583   4.972
 9010SOL    HW227930   0.619   6.723   4.919
 9011SOL     OW27931   4.067   1.815   0.964
 9011SOL    HW127932   4.104   1.824   1.056
 9011SOL    HW227933   3.968   1.808   0.967
 9012SOL     OW27934   0.998   4.882   1.349
 9012SOL    HW127935   1.014   4.977   1.376
 9012SOL    HW227936   0.900   4.865   1.342
 9013SOL     OW27937   6.413   6.039   3.922
 9013SOL    HW127938   6.463   6.109   3.871
 9013SOL    HW227939   6.476   5.967   3.951
 9014SOL     OW27940   1.242   0.919   0.742
 9014SOL    HW127941   1.219   1.007   0.701
 9014SOL    HW227942   1.339   0.900   0.727
 9015SOL     OW27943   0.224   1.250   5.755
 9015SOL    HW127944   0.273   1.323   5.800
 9015SOL    HW227945   0.245   1.163   5.799
 9016SOL     OW27946   6.786   6.158   6.007
 9016SOL    HW127947   6.862   6.186   5.948
 9016SOL    HW227948   6.735   6.084   5.963
 9017SOL     OW27949   5.748   2.320   3.764
 9017SOL    HW127950   5.834   2.351   3.804
 9017SOL    HW227951   5.767   2.260   3.686
 9018SOL     OW27952   3.090   1.694   5.164
 9018SOL    HW127953   3.098   1.669   5.261
 9018SOL    HW227954   3.176   1.735   5.133
 9019SOL     OW27955   3.124   5.962   0.471
 9019SOL    HW127956   3.111   6.003   0.380
 9019SOL    HW227957   3.200   6.008   0.518
 9020SOL     OW27958   1.755   4.371   2.653
 9020SOL    HW127959   1.851   4.393   2.672
 9020SOL    HW227960   1.697   4.402   2.728
 9021SOL     OW27961   0.015   6.040   4.443
 9021SOL    HW127962   6.999   5.965   4.496
 9021SOL    HW227963   0.027   6.010   4.348
 9022SOL     OW27964   2.839   0.371   0.411
 9022SOL    HW127965   2.760   0.345   0.357
 9022SOL    HW227966   2.911   0.406   0.350
 9023SOL     OW27967   3.412   3.562   3.614
 9023SOL    HW127968   3.323   3.524   3.588
 9023SOL    HW227969   3.484   3.495   3.594
 9024SOL     OW27970   1.880   6.316   6.162
 9024SOL    HW127971   1.854   6.233   6.113
 9024SOL    HW227972   1.875   6.300   6.260
 9025SOL     OW27973   6.242   4.936   1.863
 9025SOL    HW127974   6.221   4.906   1.770
 9025SOL    HW227975   6.305   4.871   1.905
 9026SOL     OW27976   3.412   2.946   4.197
 9026SOL    HW127977   3.389   2.937   4.294
 9026SOL    HW227978   3.504   2.984   4.187
 9027SOL     OW27979   2.369   2.208   3.058
 9027SOL    HW127980   2.352   2.250   3.147
 9027SOL    HW227981   2.374   2.109   3.068
 9028SOL     OW27982   2.458   3.984   6.022
 9028SOL    HW127983   2.400   3.913   5.982
 9028SOL    HW227984   2.530   3.941   6.076
 9029SOL     OW27985   4.882   5.496   3.800
 9029SOL    HW127986   4.873   5.511   3.898
 9029SOL    HW227987   4.930   5.573   3.758
 9030SOL     OW27988   2.210   0.869   2.358
 9030SOL    HW127989   2.215   0.945   2.423
 9030SOL    HW227990   2.279   0.882   2.287
 9031SOL     OW27991   2.731   6.204   5.810
 9031SOL    HW127992   2.771   6.221   5.720
 9031SOL    HW227993   2.779   6.128   5.854
 9032SOL     OW27994   2.627   2.418   1.904
 9032SOL    HW127995   2.724   2.442   1.909
 9032SOL    HW227996   2.577   2.465   1.976
 9033SOL     OW27997   1.835   3.333   3.978
 9033SOL    HW127998   1.850   3.309   3.882
 9033SOL    HW227999   1.923   3.356   4.020
 9034SOL     OW28000   2.520   6.710   5.296
 9034SOL    HW128001   2.529   6.809   5.284
 9034SOL    HW228002   2.453   6.691   5.368
 9035SOL     OW28003   0.066   0.328   4.814
 9035SOL    HW128004   6.997   0.314   4.849
 9035SOL    HW228005   0.068   0.307   4.716
 9036SOL     OW28006   1.525   2.365   5.679
 9036SOL    HW128007   1.555   2.318   5.597
 9036SOL    HW228008   1.553   2.461   5.675
 9037SOL     OW28009   2.177   4.153   6.564
 9037SOL    HW128010   2.256   4.171   6.505
 9037SOL    HW228011   2.156   4.235   6.617
 9038SOL     OW28012   5.220   0.147   5.208
 9038SOL    HW128013   5.154   0.197   5.264
 9038SOL    HW228014   5.180   0.127   5.119
 9039SOL     OW28015   2.062   4.899   5.240
 9039SOL    HW128016   2.071   4.977   5.302
 9039SOL    HW228017   1.993   4.920   5.170
 9040SOL     OW28018   2.553   1.664   2.585
 9040SOL    HW128019   2.588   1.693   2.495
 9040SOL    HW228020   2.501   1.739   2.626
 9041SOL     OW28021   1.206   2.333   1.334
 9041SOL    HW128022   1.134   2.279   1.378
 9041SOL    HW228023   1.183   2.347   1.238
 9042SOL     OW28024   3.165   5.306   3.406
 9042SOL    HW128025   3.149   5.242   3.481
 9042SOL    HW228026   3.111   5.279   3.327
 9043SOL     OW28027   1.350   2.439   6.101
 9043SOL    HW128028   1.261   2.417   6.142
 9043SOL    HW228029   1.383   2.361   6.048
 9044SOL     OW28030   5.952   0.083   0.949
 9044SOL    HW128031   6.003   0.018   0.893
 9044SOL    HW228032   5.918   0.157   0.891
 9045SOL     OW28033   3.071   0.251   3.104
 9045SOL    HW128034   2.999   0.262   3.173
 9045SOL    HW228035   3.159   0.241   3.148
 9046SOL     OW28036   3.312   4.224   5.252
 9046SOL    HW128037   3.309   4.131   5.290
 9046SOL    HW228038   3.403   4.241   5.213
 9047SOL     OW28039   1.345   4.340   4.108
 9047SOL    HW128040   1.380   4.247   4.118
 9047SOL    HW228041   1.278   4.343   4.033
 9048SOL     OW28042   1.908   3.928   4.824
 9048SOL    HW128043   1.953   4.013   4.849
 9048SOL    HW228044   1.978   3.857   4.809
 9049SOL     OW28045   5.012   6.196   6.153
 9049SOL    HW128046   4.927   6.176   6.201
 9049SOL    HW228047   5.049   6.283   6.186
 9050SOL     OW28048   0.443   5.147   6.982
 9050SOL    HW128049   0.393   5.093   6.915
 9050SOL    HW228050   0.539   5.120   6.981
 9051SOL     OW28051   4.882   6.311   0.147
 9051SOL    HW128052   4.879   6.339   0.051
 9051SOL    HW228053   4.953   6.363   0.194
 9052SOL     OW28054   2.768   4.797   4.558
 9052SOL    HW128055   2.756   4.777   4.655
 9052SOL    HW228056   2.719   4.729   4.504
 9053SOL     OW28057   2.270   2.917   3.926
 9053SOL    HW128058   2.241   2.976   3.850
 9053SOL    HW228059   2.303   2.974   4.001
 9054SOL     OW28060   1.459   0.791   1.789
 9054SOL    HW128061   1.556   0.816   1.785
 9054SOL    HW228062   1.424   0.809   1.881
 9055SOL     OW28063   0.949   2.599   4.342
 9055SOL    HW128064   0.925   2.545   4.261
 9055SOL    HW228065   0.915   2.553   4.424
 9056SOL     OW28066   5.029   6.946   2.617
 9056SOL    HW128067   5.030   6.990   2.707
 9056SOL    HW228068   5.030   7.015   2.545
 9057SOL     OW28069   6.016   5.506   0.016
 9057SOL    HW128070   6.016   5.427   0.077
 9057SOL    HW228071   5.993   5.476   6.948
 9058SOL     OW28072   1.997   2.820   4.889
 9058SOL    HW128073   1.995   2.806   4.988
 9058SOL    HW228074   2.092   2.824   4.858
 9059SOL     OW28075   6.482   1.257   3.558
 9059SOL    HW128076   6.512   1.343   3.516
 9059SOL    HW228077   6.474   1.269   3.657
 9060SOL     OW28078   6.820   3.748   2.609
 9060SOL    HW128079   6.861   3.712   2.525
 9060SOL    HW228080   6.727   3.779   2.590
 9061SOL     OW28081   4.804   6.036   3.138
 9061SOL    HW128082   4.795   6.057   3.040
 9061SOL    HW228083   4.731   6.083   3.188
 9062SOL     OW28084   1.321   4.271   2.883
 9062SOL    HW128085   1.318   4.282   2.784
 9062SOL    HW228086   1.340   4.359   2.927
 9063SOL     OW28087   3.159   1.435   2.726
 9063SOL    HW128088   3.124   1.352   2.684
 9063SOL    HW228089   3.229   1.475   2.667
 9064SOL     OW28090   0.193   4.088   3.594
 9064SOL    HW128091   0.253   4.154   3.639
 9064SOL    HW228092   0.248   4.011   3.561
 9065SOL     OW28093   2.715   6.292   4.976
 9065SOL    HW128094   2.766   6.370   4.941
 9065SOL    HW228095   2.764   6.252   5.054
 9066SOL     OW28096   6.460   6.246   6.521
 9066SOL    HW128097   6.441   6.238   6.423
 9066SOL    HW228098   6.426   6.334   6.554
 9067SOL     OW28099   6.677   6.895   4.341
 9067SOL    HW128100   6.692   6.993   4.353
 9067SOL    HW228101   6.656   6.876   4.245
 9068SOL     OW28102   5.455   0.205   5.451
 9068SOL    HW128103   5.391   0.143   5.406
 9068SOL    HW228104   5.413   0.244   5.533
 9069SOL     OW28105   4.384   2.367   2.655
 9069SOL    HW128106   4.290   2.333   2.661
 9069SOL    HW228107   4.385   2.456   2.608
 9070SOL     OW28108   1.407   1.925   6.422
 9070SOL    HW128109   1.461   2.004   6.392
 9070SOL    HW228110   1.466   1.861   6.471
 9071SOL     OW28111   4.397   1.513   5.931
 9071SOL    HW128112   4.300   1.500   5.910
 9071SOL    HW228113   4.433   1.429   5.972
 9072SOL     OW28114   5.622   0.017   1.406
 9072SOL    HW128115   5.598   0.113   1.415
 9072SOL    HW228116   5.616   6.996   1.495
 9073SOL     OW28117   4.210   0.164   0.233
 9073SOL    HW128118   4.271   0.118   0.298
 9073SOL    HW228119   4.164   0.096   0.177
 9074SOL     OW28120   1.406   0.357   1.262
 9074SOL    HW128121   1.439   0.322   1.174
 9074SOL    HW228122   1.320   0.406   1.248
 9075SOL     OW28123   6.371   0.775   2.363
 9075SOL    HW128124   6.367   0.680   2.395
 9075SOL    HW228125   6.391   0.776   2.265
 9076SOL     OW28126   5.066   0.910   2.993
 9076SOL    HW128127   5.068   0.916   3.092
 9076SOL    HW228128   5.119   0.831   2.963
 9077SOL     OW28129   5.145   1.151   5.940
 9077SOL    HW128130   5.187   1.217   5.877
 9077SOL    HW228131   5.053   1.182   5.964
 9078SOL     OW28132   4.815   5.093   6.775
 9078SOL    HW128133   4.751   5.016   6.776
 9078SOL    HW228134   4.897   5.067   6.724
 9079SOL     OW28135   1.563   0.640   5.277
 9079SOL    HW128136   1.600   0.680   5.360
 9079SOL    HW228137   1.549   0.542   5.291
 9080SOL     OW28138   6.407   3.836   0.549
 9080SOL    HW128139   6.382   3.876   0.637
 9080SOL    HW228140   6.338   3.770   0.521
 9081SOL     OW28141   3.635   1.888   1.331
 9081SOL    HW128142   3.701   1.960   1.311
 9081SOL    HW228143   3.672   1.800   1.301
 9082SOL     OW28144   2.762   6.928   5.854
 9082SOL    HW128145   2.828   6.921   5.928
 9082SOL    HW228146   2.669   6.931   5.893
 9083SOL     OW28147   5.011   4.643   5.802
 9083SOL    HW128148   5.072   4.571   5.833
 9083SOL    HW228149   5.062   4.708   5.746
 9084SOL     OW28150   0.586   3.036   5.724
 9084SOL    HW128151   0.579   2.944   5.761
 9084SOL    HW228152   0.647   3.091   5.781
 9085SOL     OW28153   3.405   5.018   0.275
 9085SOL    HW128154   3.477   5.088   0.271
 9085SOL    HW228155   3.315   5.062   0.277
 9086SOL     OW28156   6.486   4.521   1.011
 9086SOL    HW128157   6.420   4.455   1.046
 9086SOL    HW228158   6.537   4.560   1.088
 9087SOL     OW28159   5.881   2.998   2.892
 9087SOL    HW128160   5.881   2.898   2.882
 9087SOL    HW228161   5.934   3.023   2.973
 9088SOL     OW28162   6.326   0.497   2.126
 9088SOL    HW128163   6.412   0.547   2.111
 9088SOL    HW228164   6.332   0.406   2.085
 9089SOL     OW28165   4.299   5.260   3.896
 9089SOL    HW128166   4.222   5.198   3.881
 9089SOL    HW228167   4.330   5.252   3.991
 9090SOL     OW28168   5.366   6.241   4.235
 9090SOL    HW128169   5.465   6.254   4.245
 9090SOL    HW228170   5.335   6.283   4.150
 9091SOL     OW28171   3.148   2.460   0.186
 9091SOL    HW128172   3.187   2.425   0.271
 9091SOL    HW228173   3.202   2.428   0.108
 9092SOL     OW28174   1.352   0.273   5.576
 9092SOL    HW128175   1.368   0.174   5.566
 9092SOL    HW228176   1.349   0.296   5.674
 9093SOL     OW28177   1.599   6.134   6.844
 9093SOL    HW128178   1.676   6.135   6.780
 9093SOL    HW228179   1.609   6.056   6.906
 9094SOL     OW28180   0.269   6.372   1.982
 9094SOL    HW128181   0.289   6.375   2.080
 9094SOL    HW228182   0.207   6.296   1.963
 9095SOL     OW28183   5.250   3.362   6.664
 9095SOL    HW128184   5.216   3.436   6.722
 9095SOL    HW228185   5.209   3.276   6.693
 9096SOL     OW28186   5.290   3.571   3.099
 9096SOL    HW128187   5.337   3.497   3.147
 9096SOL    HW228188   5.285   3.551   3.002
 9097SOL     OW28189   1.224   3.590   0.037
 9097SOL    HW128190   1.218   3.491   0.053
 9097SOL    HW228191   1.307   3.611   7.010
 9098SOL     OW28192   4.103   3.581   1.624
 9098SOL    HW128193   4.113   3.608   1.528
 9098SOL    HW228194   4.182   3.525   1.651
 9099SOL     OW28195   3.440   3.521   1.004
 9099SOL    HW128196   3.460   3.606   0.954
 9099SOL    HW228197   3.362   3.476   0.962
 9100SOL     OW28198   0.930   2.848   2.009
 9100SOL    HW128199   0.962   2.786   1.937
 9100SOL    HW228200   0.902   2.795   2.088
 9101SOL     OW28201   2.252   3.043   2.850
 9101SOL    HW128202   2.195   3.089   2.918
 9101SOL    HW228203   2.305   2.971   2.894
 9102SOL     OW28204   3.680   6.055   2.124
 9102SOL    HW128205   3.648   6.010   2.208
 9102SOL    HW228206   3.676   6.154   2.136
 9103SOL     OW28207   0.117   3.471   0.351
 9103SOL    HW128208   0.109   3.463   0.450
 9103SOL    HW228209   0.028   3.454   0.309
 9104SOL     OW28210   4.187   6.273   1.739
 9104SOL    HW128211   4.203   6.326   1.656
 9104SOL    HW228212   4.255   6.200   1.745
 9105SOL     OW28213   1.872   0.505   0.137
 9105SOL    HW128214   1.903   0.545   0.051
 9105SOL    HW228215   1.773   0.515   0.146
 9106SOL     OW28216   6.317   3.732   0.299
 9106SOL    HW128217   6.269   3.654   0.339
 9106SOL    HW228218   6.405   3.702   0.262
 9107SOL     OW28219   4.603   6.921   6.252
 9107SOL    HW128220   4.621   7.014   6.219
 9107SOL    HW228221   4.504   6.906   6.257
 9108SOL     OW28222   5.107   4.521   5.208
 9108SOL    HW128223   5.080   4.443   5.151
 9108SOL    HW228224   5.146   4.487   5.294
 9109SOL     OW28225   1.908   2.430   2.677
 9109SOL    HW128226   1.943   2.454   2.586
 9109SOL    HW228227   1.916   2.510   2.737
 9110SOL     OW28228   2.405   4.473   4.256
 9110SOL    HW128229   2.404   4.467   4.356
 9110SOL    HW228230   2.346   4.401   4.219
 9111SOL     OW28231   4.234   3.431   0.748
 9111SOL    HW128232   4.208   3.519   0.707
 9111SOL    HW228233   4.206   3.357   0.688
 9112SOL     OW28234   0.627   4.096   3.958
 9112SOL    HW128235   0.566   4.094   3.879
 9112SOL    HW228236   0.660   4.004   3.978
 9113SOL     OW28237   4.530   0.622   0.332
 9113SOL    HW128238   4.602   0.594   0.395
 9113SOL    HW228239   4.478   0.541   0.302
 9114SOL     OW28240   1.475   4.772   2.823
 9114SOL    HW128241   1.504   4.806   2.733
 9114SOL    HW228242   1.420   4.843   2.868
 9115SOL     OW28243   0.497   5.832   5.205
 9115SOL    HW128244   0.533   5.739   5.207
 9115SOL    HW228245   0.489   5.863   5.110
 9116SOL     OW28246   6.410   1.762   0.366
 9116SOL    HW128247   6.377   1.762   0.272
 9116SOL    HW228248   6.332   1.762   0.429
 9117SOL     OW28249   6.310   2.755   6.816
 9117SOL    HW128250   6.282   2.759   6.912
 9117SOL    HW228251   6.333   2.661   6.792
 9118SOL     OW28252   5.956   6.042   0.444
 9118SOL    HW128253   5.865   6.042   0.403
 9118SOL    HW228254   6.025   6.032   0.372
 9119SOL     OW28255   5.667   1.505   2.719
 9119SOL    HW128256   5.745   1.458   2.678
 9119SOL    HW228257   5.585   1.447   2.709
 9120SOL     OW28258   5.583   2.794   5.693
 9120SOL    HW128259   5.593   2.696   5.673
 9120SOL    HW228260   5.626   2.847   5.620
 9121SOL     OW28261   0.589   2.962   6.171
 9121SOL    HW128262   0.660   2.980   6.239
 9121SOL    HW228263   0.626   2.904   6.099
 9122SOL     OW28264   1.871   2.616   1.666
 9122SOL    HW128265   1.785   2.609   1.617
 9122SOL    HW228266   1.947   2.602   1.603
 9123SOL     OW28267   3.443   0.117   4.436
 9123SOL    HW128268   3.431   0.018   4.427
 9123SOL    HW228269   3.540   0.138   4.443
 9124SOL     OW28270   5.755   6.478   5.490
 9124SOL    HW128271   5.799   6.418   5.423
 9124SOL    HW228272   5.805   6.564   5.496
 9125SOL     OW28273   4.748   4.179   3.780
 9125SOL    HW128274   4.766   4.088   3.817
 9125SOL    HW228275   4.708   4.236   3.852
 9126SOL     OW28276   5.876   1.276   2.446
 9126SOL    HW128277   5.854   1.325   2.530
 9126SOL    HW228278   5.800   1.284   2.382
 9127SOL     OW28279   6.434   0.549   6.157
 9127SOL    HW128280   6.348   0.593   6.183
 9127SOL    HW228281   6.446   0.464   6.208
 9128SOL     OW28282   3.487   2.298   5.272
 9128SOL    HW128283   3.399   2.330   5.236
 9128SOL    HW228284   3.504   2.205   5.241
 9129SOL     OW28285   2.167   2.795   1.203
 9129SOL    HW128286   2.100   2.867   1.216
 9129SOL    HW228287   2.258   2.835   1.191
 9130SOL     OW28288   6.937   3.461   0.088
 9130SOL    HW128289   6.855   3.408   0.108
 9130SOL    HW228290   7.010   3.398   0.060
 9131SOL     OW28291   6.931   4.078   5.366
 9131SOL    HW128292   7.023   4.110   5.389
 9131SOL    HW228293   6.908   3.999   5.423
 9132SOL     OW28294   0.384   4.474   4.266
 9132SOL    HW128295   0.327   4.511   4.193
 9132SOL    HW228296   0.327   4.425   4.332
 9133SOL     OW28297   3.204   5.475   0.744
 9133SOL    HW128298   3.169   5.418   0.818
 9133SOL    HW228299   3.181   5.571   0.762
 9134SOL     OW28300   3.534   6.646   0.744
 9134SOL    HW128301   3.587   6.654   0.660
 9134SOL    HW228302   3.436   6.649   0.722
 9135SOL     OW28303   6.830   6.243   1.873
 9135SOL    HW128304   6.739   6.206   1.890
 9135SOL    HW228305   6.881   6.180   1.813
 9136SOL     OW28306   4.919   5.446   5.445
 9136SOL    HW128307   4.848   5.512   5.468
 9136SOL    HW228308   5.000   5.462   5.501
 9137SOL     OW28309   4.919   1.865   1.261
 9137SOL    HW128310   4.834   1.917   1.275
 9137SOL    HW228311   4.995   1.929   1.247
 9138SOL     OW28312   6.019   4.774   5.935
 9138SOL    HW128313   6.041   4.729   5.849
 9138SOL    HW228314   6.029   4.873   5.925
 9139SOL     OW28315   2.332   1.485   4.225
 9139SOL    HW128316   2.303   1.580   4.223
 9139SOL    HW228317   2.413   1.473   4.168
 9140SOL     OW28318   6.335   3.361   2.918
 9140SOL    HW128319   6.411   3.426   2.907
 9140SOL    HW228320   6.349   3.283   2.857
 9141SOL     OW28321   5.322   0.630   6.679
 9141SOL    HW128322   5.413   0.643   6.639
 9141SOL    HW228323   5.312   0.535   6.708
 9142SOL     OW28324   0.366   2.349   0.305
 9142SOL    HW128325   0.390   2.445   0.294
 9142SOL    HW228326   0.388   2.319   0.398
 9143SOL     OW28327   5.089   3.873   0.706
 9143SOL    HW128328   5.137   3.830   0.782
 9143SOL    HW228329   4.993   3.889   0.731
 9144SOL     OW28330   2.035   5.433   5.705
 9144SOL    HW128331   2.074   5.342   5.692
 9144SOL    HW228332   1.936   5.426   5.716
 9145SOL     OW28333   6.745   5.559   0.315
 9145SOL    HW128334   6.676   5.525   0.378
 9145SOL    HW228335   6.757   5.658   0.328
 9146SOL     OW28336   4.964   2.216   2.222
 9146SOL    HW128337   4.916   2.157   2.287
 9146SOL    HW228338   4.923   2.207   2.131
 9147SOL     OW28339   5.925   0.097   4.049
 9147SOL    HW128340   5.838   0.112   4.002
 9147SOL    HW228341   6.000   0.121   3.987
 9148SOL     OW28342   5.153   6.676   0.627
 9148SOL    HW128343   5.224   6.632   0.572
 9148SOL    HW228344   5.080   6.611   0.645
 9149SOL     OW28345   5.335   3.173   3.917
 9149SOL    HW128346   5.334   3.139   3.823
 9149SOL    HW228347   5.340   3.096   3.980
 9150SOL     OW28348   3.363   5.335   3.933
 9150SOL    HW128349   3.324   5.425   3.951
 9150SOL    HW228350   3.445   5.322   3.988
 9151SOL     OW28351   1.601   4.639   3.381
 9151SOL    HW128352   1.677   4.574   3.382
 9151SOL    HW228353   1.619   4.712   3.315
 9152SOL     OW28354   2.536   5.028   4.684
 9152SOL    HW128355   2.554   4.956   4.618
 9152SOL    HW228356   2.501   4.988   4.769
 9153SOL     OW28357   1.366   2.973   0.981
 9153SOL    HW128358   1.323   2.970   0.891
 9153SOL    HW228359   1.328   3.048   1.034
 9154SOL     OW28360   4.074   5.333   0.076
 9154SOL    HW128361   4.037   5.300   0.163
 9154SOL    HW228362   4.037   5.278   0.001
 9155SOL     OW28363   1.317   2.963   0.690
 9155SOL    HW128364   1.408   2.997   0.668
 9155SOL    HW228365   1.276   2.923   0.608
 9156SOL     OW28366   2.224   2.482   7.022
 9156SOL    HW128367   2.319   2.468   0.028
 9156SOL    HW228368   2.221   2.486   6.922
 9157SOL     OW28369   5.920   4.741   6.210
 9157SOL    HW128370   5.961   4.679   6.277
 9157SOL    HW228371   5.974   4.740   6.126
 9158SOL     OW28372   5.675   3.491   5.150
 9158SOL    HW128373   5.732   3.428   5.098
 9158SOL    HW228374   5.730   3.568   5.182
 9159SOL     OW28375   1.143   0.023   3.120
 9159SOL    HW128376   1.145   0.111   3.072
 9159SOL    HW228377   1.209   0.025   3.195
 9160SOL     OW28378   6.403   0.184   5.138
 9160SOL    HW128379   6.447   0.112   5.084
 9160SOL    HW228380   6.304   0.176   5.130
 9161SOL     OW28381   4.747   4.176   4.578
 9161SOL    HW128382   4.661   4.143   4.618
 9161SOL    HW228383   4.728   4.214   4.487
 9162SOL     OW28384   4.633   1.420   4.051
 9162SOL    HW128385   4.614   1.336   4.102
 9162SOL    HW228386   4.724   1.413   4.009
 9163SOL     OW28387   2.141   3.446   4.604
 9163SOL    HW128388   2.169   3.541   4.615
 9163SOL    HW228389   2.119   3.408   4.694
 9164SOL     OW28390   2.502   0.289   6.780
 9164SOL    HW128391   2.555   0.232   6.718
 9164SOL    HW228392   2.448   0.355   6.728
 9165SOL     OW28393   6.106   1.733   5.452
 9165SOL    HW128394   6.179   1.736   5.520
 9165SOL    HW228395   6.053   1.818   5.456
 9166SOL     OW28396   4.273   6.148   0.873
 9166SOL    HW128397   4.317   6.131   0.961
 9166SOL    HW228398   4.213   6.228   0.880
 9167SOL     OW28399   1.474   2.673   6.047
 9167SOL    HW128400   1.409   2.598   6.055
 9167SOL    HW228401   1.497   2.707   6.138
 9168SOL     OW28402   0.670   0.660   6.576
 9168SOL    HW128403   0.646   0.728   6.506
 9168SOL    HW228404   0.598   0.655   6.644
 9169SOL     OW28405   5.961   1.272   5.395
 9169SOL    HW128406   6.014   1.298   5.313
 9169SOL    HW228407   5.927   1.179   5.383
 9170SOL     OW28408   1.545   4.631   0.449
 9170SOL    HW128409   1.501   4.720   0.436
 9170SOL    HW228410   1.644   4.642   0.443
 9171SOL     OW28411   3.765   4.640   0.627
 9171SOL    HW128412   3.809   4.686   0.550
 9171SOL    HW228413   3.697   4.701   0.668
 9172SOL     OW28414   3.261   0.453   4.688
 9172SOL    HW128415   3.164   0.436   4.669
 9172SOL    HW228416   3.291   0.536   4.641
 9173SOL     OW28417   6.473   3.976   4.916
 9173SOL    HW128418   6.398   3.932   4.866
 9173SOL    HW228419   6.449   4.071   4.935
 9174SOL     OW28420   5.930   4.747   1.279
 9174SOL    HW128421   5.880   4.812   1.336
 9174SOL    HW228422   5.978   4.796   1.207
 9175SOL     OW28423   0.684   0.068   3.844
 9175SOL    HW128424   0.605   0.105   3.894
 9175SOL    HW228425   0.767   0.117   3.872
 9176SOL     OW28426   3.132   1.302   5.142
 9176SOL    HW128427   3.069   1.351   5.081
 9176SOL    HW228428   3.081   1.264   5.219
 9177SOL     OW28429   1.130   4.812   5.218
 9177SOL    HW128430   1.123   4.860   5.306
 9177SOL    HW228431   1.211   4.845   5.169
 9178SOL     OW28432   2.466   5.474   0.173
 9178SOL    HW128433   2.443   5.397   0.233
 9178SOL    HW228434   2.453   5.446   0.078
 9179SOL     OW28435   2.979   5.411   4.386
 9179SOL    HW128436   3.033   5.482   4.340
 9179SOL    HW228437   3.035   5.329   4.398
 9180SOL     OW28438   5.795   2.456   2.765
 9180SOL    HW128439   5.817   2.373   2.714
 9180SOL    HW228440   5.786   2.434   2.862
 9181SOL     OW28441   3.889   2.172   4.251
 9181SOL    HW128442   3.803   2.175   4.302
 9181SOL    HW228443   3.961   2.213   4.306
 9182SOL     OW28444   2.211   6.279   1.793
 9182SOL    HW128445   2.270   6.300   1.715
 9182SOL    HW228446   2.260   6.298   1.878
 9183SOL     OW28447   5.371   6.359   0.167
 9183SOL    HW128448   5.360   6.301   0.087
 9183SOL    HW228449   5.465   6.353   0.200
 9184SOL     OW28450   5.316   1.945   0.600
 9184SOL    HW128451   5.273   1.906   0.682
 9184SOL    HW228452   5.245   1.963   0.531
 9185SOL     OW28453   3.895   6.692   4.596
 9185SOL    HW128454   3.857   6.748   4.523
 9185SOL    HW228455   3.852   6.718   4.683
 9186SOL     OW28456   5.489   6.914   4.126
 9186SOL    HW128457   5.480   7.010   4.099
 9186SOL    HW228458   5.427   6.858   4.070
 9187SOL     OW28459   2.741   1.725   1.323
 9187SOL    HW128460   2.649   1.742   1.287
 9187SOL    HW228461   2.754   1.627   1.336
 9188SOL     OW28462   1.734   6.765   1.556
 9188SOL    HW128463   1.662   6.805   1.612
 9188SOL    HW228464   1.739   6.667   1.574
 9189SOL     OW28465   4.752   6.314   1.337
 9189SOL    HW128466   4.816   6.372   1.386
 9189SOL    HW228467   4.698   6.369   1.274
 9190SOL     OW28468   2.177   3.956   0.113
 9190SOL    HW128469   2.130   3.912   0.190
 9190SOL    HW228470   2.125   3.942   0.029
 9191SOL     OW28471   6.480   1.634   5.744
 9191SOL    HW128472   6.435   1.583   5.670
 9191SOL    HW228473   6.580   1.628   5.732
 9192SOL     OW28474   0.531   3.751   6.253
 9192SOL    HW128475   0.623   3.787   6.270
 9192SOL    HW228476   0.475   3.761   6.335
 9193SOL     OW28477   4.776   3.954   0.281
 9193SOL    HW128478   4.834   4.031   0.308
 9193SOL    HW228479   4.786   3.936   0.183
 9194SOL     OW28480   3.269   0.327   3.333
 9194SOL    HW128481   3.287   0.366   3.423
 9194SOL    HW228482   3.257   0.401   3.267
 9195SOL     OW28483   1.900   1.859   4.072
 9195SOL    HW128484   1.910   1.814   3.983
 9195SOL    HW228485   1.960   1.939   4.075
 9196SOL     OW28486   4.262   6.763   3.805
 9196SOL    HW128487   4.326   6.833   3.774
 9196SOL    HW228488   4.180   6.808   3.841
 9197SOL     OW28489   1.689   4.744   2.009
 9197SOL    HW128490   1.766   4.721   2.069
 9197SOL    HW228491   1.703   4.701   1.920
 9198SOL     OW28492   6.773   5.157   6.555
 9198SOL    HW128493   6.698   5.120   6.501
 9198SOL    HW228494   6.822   5.226   6.501
 9199SOL     OW28495   1.404   3.947   6.090
 9199SOL    HW128496   1.465   3.880   6.047
 9199SOL    HW228497   1.397   4.028   6.032
 9200SOL     OW28498   2.518   6.919   0.543
 9200SOL    HW128499   2.520   7.016   0.567
 9200SOL    HW228500   2.467   6.906   0.458
 9201SOL     OW28501   0.506   2.583   0.577
 9201SOL    HW128502   0.596   2.558   0.543
 9201SOL    HW228503   0.508   2.678   0.610
 9202SOL     OW28504   1.568   6.688   2.643
 9202SOL    HW128505   1.511   6.754   2.691
 9202SOL    HW228506   1.644   6.736   2.599
 9203SOL     OW28507   0.705   4.517   6.968
 9203SOL    HW128508   0.707   4.419   6.988
 9203SOL    HW228509   0.796   4.555   6.984
 9204SOL     OW28510   4.626   2.946   6.281
 9204SOL    HW128511   4.555   3.013   6.303
 9204SOL    HW228512   4.713   2.974   6.321
 9205SOL     OW28513   6.766   4.858   2.766
 9205SOL    HW128514   6.669   4.856   2.789
 9205SOL    HW228515   6.802   4.764   2.769
 9206SOL     OW28516   4.454   5.731   1.996
 9206SOL    HW128517   4.479   5.826   2.012
 9206SOL    HW228518   4.472   5.677   2.078
 9207SOL     OW28519   5.213   4.678   6.237
 9207SOL    HW128520   5.240   4.736   6.160
 9207SOL    HW228521   5.269   4.700   6.317
 9208SOL     OW28522   6.180   4.118   3.845
 9208SOL    HW128523   6.189   4.135   3.943
 9208SOL    HW228524   6.123   4.037   3.830
 9209SOL     OW28525   3.435   0.370   6.734
 9209SOL    HW128526   3.365   0.389   6.803
 9209SOL    HW228527   3.466   0.457   6.694
 9210SOL     OW28528   0.129   1.033   2.989
 9210SOL    HW128529   0.052   1.016   2.928
 9210SOL    HW228530   0.166   1.124   2.971
 9211SOL     OW28531   0.538   2.621   5.146
 9211SOL    HW128532   0.627   2.581   5.124
 9211SOL    HW228533   0.476   2.609   5.068
 9212SOL     OW28534   4.889   5.218   4.417
 9212SOL    HW128535   4.841   5.153   4.357
 9212SOL    HW228536   4.880   5.188   4.512
 9213SOL     OW28537   5.173   3.622   5.818
 9213SOL    HW128538   5.190   3.539   5.765
 9213SOL    HW228539   5.230   3.696   5.783
 9214SOL     OW28540   0.149   4.122   6.603
 9214SOL    HW128541   0.160   4.212   6.646
 9214SOL    HW228542   0.141   4.133   6.504
 9215SOL     OW28543   0.599   1.952   1.221
 9215SOL    HW128544   0.675   1.889   1.237
 9215SOL    HW228545   0.635   2.040   1.191
 9216SOL     OW28546   2.661   0.051   2.324
 9216SOL    HW128547   2.704   0.098   2.247
 9216SOL    HW228548   2.568   0.024   2.300
 9217SOL     OW28549   0.782   1.787   0.237
 9217SOL    HW128550   0.794   1.688   0.246
 9217SOL    HW228551   0.687   1.810   0.259
 9218SOL     OW28552   2.577   6.839   0.174
 9218SOL    HW128553   2.665   6.812   0.213
 9218SOL    HW228554   2.544   6.766   0.114
 9219SOL     OW28555   6.683   2.380   1.255
 9219SOL    HW128556   6.742   2.450   1.293
 9219SOL    HW228557   6.590   2.416   1.245
 9220SOL     OW28558   1.907   6.304   0.816
 9220SOL    HW128559   1.929   6.319   0.720
 9220SOL    HW228560   1.936   6.383   0.870
 9221SOL     OW28561   2.882   0.861   3.532
 9221SOL    HW128562   2.931   0.940   3.570
 9221SOL    HW228563   2.914   0.844   3.439
 9222SOL     OW28564   2.028   0.418   6.380
 9222SOL    HW128565   2.124   0.433   6.357
 9222SOL    HW228566   1.990   0.499   6.424
 9223SOL     OW28567   1.245   0.827   3.995
 9223SOL    HW128568   1.200   0.762   4.056
 9223SOL    HW228569   1.269   0.781   3.910
 9224SOL     OW28570   1.960   5.021   5.018
 9224SOL    HW128571   1.963   5.120   5.028
 9224SOL    HW228572   2.012   4.994   4.936
 9225SOL     OW28573   3.274   6.319   6.046
 9225SOL    HW128574   3.243   6.226   6.024
 9225SOL    HW228575   3.202   6.367   6.096
 9226SOL     OW28576   5.882   0.095   1.676
 9226SOL    HW128577   5.840   0.136   1.757
 9226SOL    HW228578   5.843   0.137   1.594
 9227SOL     OW28579   1.110   4.908   1.106
 9227SOL    HW128580   1.122   4.811   1.082
 9227SOL    HW228581   1.057   4.916   1.190
 9228SOL     OW28582   1.566   1.141   6.018
 9228SOL    HW128583   1.507   1.088   5.956
 9228SOL    HW228584   1.525   1.143   6.109
 9229SOL     OW28585   0.874   5.276   4.622
 9229SOL    HW128586   0.964   5.302   4.657
 9229SOL    HW228587   0.862   5.313   4.530
 9230SOL     OW28588   5.018   1.552   2.992
 9230SOL    HW128589   5.111   1.523   2.971
 9230SOL    HW228590   5.003   1.545   3.091
 9231SOL     OW28591   0.879   4.402   4.605
 9231SOL    HW128592   0.919   4.372   4.692
 9231SOL    HW228593   0.782   4.377   4.604
 9232SOL     OW28594   3.725   5.331   6.853
 9232SOL    HW128595   3.794   5.260   6.868
 9232SOL    HW228596   3.736   5.370   6.762
 9233SOL     OW28597   5.389   5.115   1.990
 9233SOL    HW128598   5.324   5.092   2.062
 9233SOL    HW228599   5.353   5.191   1.936
 9234SOL     OW28600   3.696   5.339   5.458
 9234SOL    HW128601   3.669   5.351   5.363
 9234SOL    HW228602   3.712   5.242   5.477
 9235SOL     OW28603   1.525   2.771   3.386
 9235SOL    HW128604   1.622   2.753   3.399
 9235SOL    HW228605   1.476   2.753   3.472
 9236SOL     OW28606   2.898   4.238   5.472
 9236SOL    HW128607   2.951   4.161   5.507
 9236SOL    HW228608   2.955   4.294   5.413
 9237SOL     OW28609   2.070   5.436   4.874
 9237SOL    HW128610   2.140   5.507   4.886
 9237SOL    HW228611   2.041   5.433   4.778
 9238SOL     OW28612   4.024   1.715   6.500
 9238SOL    HW128613   4.110   1.706   6.550
 9238SOL    HW228614   4.028   1.661   6.416
 9239SOL     OW28615   6.961   4.245   0.549
 9239SOL    HW128616   0.029   4.230   0.512
 9239SOL    HW228617   6.917   4.319   0.498
 9240SOL     OW28618   4.765   1.798   0.792
 9240SOL    HW128619   4.802   1.718   0.839
 9240SOL    HW228620   4.835   1.839   0.734
 9241SOL     OW28621   0.321   5.198   5.802
 9241SOL    HW128622   0.287   5.204   5.895
 9241SOL    HW228623   0.350   5.289   5.771
 9242SOL     OW28624   0.110   5.657   0.395
 9242SOL    HW128625   0.127   5.662   0.296
 9242SOL    HW228626   0.056   5.575   0.415
 9243SOL     OW28627   5.960   0.174   2.413
 9243SOL    HW128628   5.920   0.165   2.322
 9243SOL    HW228629   6.035   0.110   2.423
 9244SOL     OW28630   4.893   4.697   6.224
 9244SOL    HW128631   4.925   4.747   6.304
 9244SOL    HW228632   4.963   4.699   6.153
 9245SOL     OW28633   2.210   5.182   3.843
 9245SOL    HW128634   2.219   5.206   3.939
 9245SOL    HW228635   2.165   5.093   3.835
 9246SOL     OW28636   0.028   4.301   2.717
 9246SOL    HW128637   0.105   4.356   2.749
 9246SOL    HW228638   0.041   4.207   2.746
 9247SOL     OW28639   0.747   0.156   3.104
 9247SOL    HW128640   0.715   0.110   3.021
 9247SOL    HW228641   0.763   0.088   3.176
 9248SOL     OW28642   1.536   2.634   5.672
 9248SOL    HW128643   1.458   2.695   5.686
 9248SOL    HW228644   1.587   2.664   5.590
 9249SOL     OW28645   4.861   3.334   6.904
 9249SOL    HW128646   4.919   3.292   6.835
 9249SOL    HW228647   4.816   3.415   6.865
 9250SOL     OW28648   5.294   3.339   4.738
 9250SOL    HW128649   5.305   3.311   4.643
 9250SOL    HW228650   5.273   3.436   4.742
 9251SOL     OW28651   3.839   2.123   3.140
 9251SOL    HW128652   3.845   2.157   3.046
 9251SOL    HW228653   3.863   2.026   3.141
 9252SOL     OW28654   5.713   0.428   3.933
 9252SOL    HW128655   5.809   0.400   3.920
 9252SOL    HW228656   5.710   0.515   3.981
 9253SOL     OW28657   5.867   6.395   5.791
 9253SOL    HW128658   5.859   6.396   5.891
 9253SOL    HW228659   5.889   6.487   5.758
 9254SOL     OW28660   6.556   4.337   2.924
 9254SOL    HW128661   6.605   4.252   2.906
 9254SOL    HW228662   6.489   4.354   2.852
 9255SOL     OW28663   5.157   4.140   0.216
 9255SOL    HW128664   5.119   4.217   0.164
 9255SOL    HW228665   5.257   4.147   0.216
 9256SOL     OW28666   3.612   5.893   2.433
 9256SOL    HW128667   3.563   5.893   2.521
 9256SOL    HW228668   3.690   5.830   2.439
 9257SOL     OW28669   0.628   3.645   2.889
 9257SOL    HW128670   0.614   3.546   2.894
 9257SOL    HW228671   0.546   3.692   2.921
 9258SOL     OW28672   3.151   3.101   3.328
 9258SOL    HW128673   3.093   3.094   3.247
 9258SOL    HW228674   3.230   3.159   3.309
 9259SOL     OW28675   0.951   1.821   0.702
 9259SOL    HW128676   0.879   1.779   0.646
 9259SOL    HW228677   0.977   1.909   0.661
 9260SOL     OW28678   5.036   1.780   5.359
 9260SOL    HW128679   5.063   1.696   5.405
 9260SOL    HW228680   5.118   1.832   5.334
 9261SOL     OW28681   4.870   0.597   6.591
 9261SOL    HW128682   4.945   0.635   6.537
 9261SOL    HW228683   4.878   0.631   6.685
 9262SOL     OW28684   6.514   3.008   5.336
 9262SOL    HW128685   6.420   2.999   5.370
 9262SOL    HW228686   6.578   2.985   5.409
 9263SOL     OW28687   5.846   4.706   1.760
 9263SOL    HW128688   5.911   4.691   1.686
 9263SOL    HW228689   5.759   4.660   1.738
 9264SOL     OW28690   5.442   4.148   0.138
 9264SOL    HW128691   5.506   4.081   0.175
 9264SOL    HW228692   5.488   4.237   0.129
 9265SOL     OW28693   2.862   1.729   6.524
 9265SOL    HW128694   2.939   1.718   6.461
 9265SOL    HW228695   2.777   1.710   6.475
 9266SOL     OW28696   2.233   6.559   2.192
 9266SOL    HW128697   2.144   6.600   2.214
 9266SOL    HW228698   2.303   6.595   2.254
 9267SOL     OW28699   6.979   4.122   5.874
 9267SOL    HW128700   7.005   4.207   5.919
 9267SOL    HW228701   6.928   4.143   5.790
 9268SOL     OW28702   1.871   4.958   1.442
 9268SOL    HW128703   1.920   5.013   1.375
 9268SOL    HW228704   1.935   4.924   1.511
 9269SOL     OW28705   3.102   2.281   5.883
 9269SOL    HW128706   3.150   2.200   5.850
 9269SOL    HW228707   3.155   2.324   5.956
 9270SOL     OW28708   5.173   6.957   5.847
 9270SOL    HW128709   5.162   0.028   5.875
 9270SOL    HW228710   5.132   6.897   5.915
 9271SOL     OW28711   1.700   5.448   6.994
 9271SOL    HW128712   1.651   5.367   6.961
 9271SOL    HW228713   1.743   5.494   6.916
 9272SOL     OW28714   2.203   5.598   5.875
 9272SOL    HW128715   2.130   5.562   5.817
 9272SOL    HW228716   2.287   5.605   5.822
 9273SOL     OW28717   5.395   5.779   3.864
 9273SOL    HW128718   5.482   5.825   3.851
 9273SOL    HW228719   5.408   5.680   3.856
 9274SOL     OW28720   6.466   2.681   0.223
 9274SOL    HW128721   6.412   2.631   0.291
 9274SOL    HW228722   6.525   2.747   0.270
 9275SOL     OW28723   6.787   2.150   0.065
 9275SOL    HW128724   6.849   2.119   7.017
 9275SOL    HW228725   6.805   2.098   0.149
 9276SOL     OW28726   2.929   4.759   3.820
 9276SOL    HW128727   3.023   4.787   3.804
 9276SOL    HW228728   2.915   4.742   3.917
 9277SOL     OW28729   5.062   3.679   0.503
 9277SOL    HW128730   5.097   3.754   0.560
 9277SOL    HW228731   5.063   3.707   0.407
 9278SOL     OW28732   1.139   0.657   4.740
 9278SOL    HW128733   1.217   0.644   4.679
 9278SOL    HW228734   1.165   0.719   4.814
 9279SOL     OW28735   4.449   1.029   1.361
 9279SOL    HW128736   4.484   1.075   1.443
 9279SOL    HW228737   4.523   1.017   1.296
 9280SOL     OW28738   1.473   0.718   3.024
 9280SOL    HW128739   1.517   0.639   3.065
 9280SOL    HW228740   1.476   0.795   3.087
 9281SOL     OW28741   3.211   4.280   1.346
 9281SOL    HW128742   3.220   4.261   1.443
 9281SOL    HW228743   3.223   4.196   1.294
 9282SOL     OW28744   4.819   1.479   4.956
 9282SOL    HW128745   4.738   1.498   5.012
 9282SOL    HW228746   4.861   1.394   4.987
 9283SOL     OW28747   5.447   0.444   3.990
 9283SOL    HW128748   5.392   0.386   3.930
 9283SOL    HW228749   5.542   0.443   3.959
 9284SOL     OW28750   3.309   4.931   5.831
 9284SOL    HW128751   3.216   4.919   5.796
 9284SOL    HW228752   3.343   4.844   5.865
 9285SOL     OW28753   5.036   3.270   0.959
 9285SOL    HW128754   5.012   3.255   0.863
 9285SOL    HW228755   5.120   3.221   0.981
 9286SOL     OW28756   5.360   0.081   6.199
 9286SOL    HW128757   5.386   0.004   6.141
 9286SOL    HW228758   5.400   0.165   6.162
 9287SOL     OW28759   3.233   5.367   0.498
 9287SOL    HW128760   3.324   5.405   0.480
 9287SOL    HW228761   3.200   5.401   0.587
 9288SOL     OW28762   3.789   1.026   5.161
 9288SOL    HW128763   3.751   1.070   5.079
 9288SOL    HW228764   3.732   1.050   5.240
 9289SOL     OW28765   3.246   1.808   2.672
 9289SOL    HW128766   3.290   1.721   2.652
 9289SOL    HW228767   3.200   1.842   2.590
 9290SOL     OW28768   4.953   1.945   3.558
 9290SOL    HW128769   5.019   2.010   3.520
 9290SOL    HW228770   4.865   1.958   3.513
 9291SOL     OW28771   2.368   0.114   4.824
 9291SOL    HW128772   2.402   0.039   4.768
 9291SOL    HW228773   2.377   0.090   4.921
 9292SOL     OW28774   0.288   2.701   6.608
 9292SOL    HW128775   0.380   2.713   6.643
 9292SOL    HW228776   0.291   2.645   6.525
 9293SOL     OW28777   6.007   4.089   0.251
 9293SOL    HW128778   6.015   4.178   0.205
 9293SOL    HW228779   5.913   4.056   0.241
 9294SOL     OW28780   3.670   6.646   5.215
 9294SOL    HW128781   3.581   6.647   5.261
 9294SOL    HW228782   3.696   6.739   5.191
 9295SOL     OW28783   5.075   2.462   4.303
 9295SOL    HW128784   5.033   2.543   4.262
 9295SOL    HW228785   5.132   2.416   4.236
 9296SOL     OW28786   0.541   6.678   6.314
 9296SOL    HW128787   0.592   6.651   6.232
 9296SOL    HW228788   0.467   6.740   6.289
 9297SOL     OW28789   6.650   0.891   0.715
 9297SOL    HW128790   6.612   0.805   0.683
 9297SOL    HW228791   6.661   0.954   0.638
 9298SOL     OW28792   1.386   0.496   4.908
 9298SOL    HW128793   1.383   0.545   4.995
 9298SOL    HW228794   1.412   0.559   4.835
 9299SOL     OW28795   0.847   2.742   5.046
 9299SOL    HW128796   0.821   2.836   5.021
 9299SOL    HW228797   0.865   2.738   5.144
 9300SOL     OW28798   6.959   4.503   4.712
 9300SOL    HW128799   0.001   4.511   4.787
 9300SOL    HW228800   7.003   4.458   4.634
 9301SOL     OW28801   4.920   4.482   3.468
 9301SOL    HW128802   4.826   4.501   3.440
 9301SOL    HW228803   4.983   4.538   3.414
 9302SOL     OW28804   2.039   3.372   4.377
 9302SOL    HW128805   2.079   3.409   4.461
 9302SOL    HW228806   1.994   3.285   4.397
 9303SOL     OW28807   4.203   6.105   0.558
 9303SOL    HW128808   4.200   6.176   0.629
 9303SOL    HW228809   4.225   6.147   0.470
 9304SOL     OW28810   4.756   4.161   1.159
 9304SOL    HW128811   4.834   4.172   1.097
 9304SOL    HW228812   4.763   4.228   1.232
 9305SOL     OW28813   3.459   1.397   2.363
 9305SOL    HW128814   3.458   1.303   2.396
 9305SOL    HW228815   3.398   1.407   2.285
 9306SOL     OW28816   0.588   4.231   5.124
 9306SOL    HW128817   0.667   4.200   5.177
 9306SOL    HW228818   0.530   4.153   5.101
 9307SOL     OW28819   1.147   3.240   1.462
 9307SOL    HW128820   1.091   3.264   1.383
 9307SOL    HW228821   1.238   3.279   1.452
 9308SOL     OW28822   1.540   4.219   1.245
 9308SOL    HW128823   1.529   4.138   1.302
 9308SOL    HW228824   1.494   4.297   1.289
 9309SOL     OW28825   3.565   5.030   5.681
 9309SOL    HW128826   3.539   5.034   5.584
 9309SOL    HW228827   3.508   4.962   5.728
 9310SOL     OW28828   4.826   4.933   6.007
 9310SOL    HW128829   4.731   4.961   5.991
 9310SOL    HW228830   4.857   4.970   6.095
 9311SOL     OW28831   5.128   5.032   1.789
 9311SOL    HW128832   5.147   5.124   1.823
 9311SOL    HW228833   5.030   5.021   1.776
 9312SOL     OW28834   1.109   3.624   1.820
 9312SOL    HW128835   1.054   3.579   1.750
 9312SOL    HW228836   1.079   3.594   1.911
 9313SOL     OW28837   6.572   0.535   1.235
 9313SOL    HW128838   6.519   0.504   1.155
 9313SOL    HW228839   6.631   0.611   1.208
 9314SOL     OW28840   4.536   5.838   6.018
 9314SOL    HW128841   4.445   5.869   5.990
 9314SOL    HW228842   4.548   5.743   5.990
 9315SOL     OW28843   6.418   0.845   5.302
 9315SOL    HW128844   6.451   0.798   5.220
 9315SOL    HW228845   6.323   0.873   5.289
 9316SOL     OW28846   4.396   5.614   5.533
 9316SOL    HW128847   4.374   5.529   5.485
 9316SOL    HW228848   4.472   5.660   5.485
 9317SOL     OW28849   6.781   5.223   3.230
 9317SOL    HW128850   6.785   5.123   3.236
 9317SOL    HW228851   6.727   5.258   3.307
 9318SOL     OW28852   6.315   0.625   5.473
 9318SOL    HW128853   6.392   0.675   5.435
 9318SOL    HW228854   6.270   0.682   5.542
 9319SOL     OW28855   1.132   2.770   6.639
 9319SOL    HW128856   1.205   2.758   6.572
 9319SOL    HW228857   1.096   2.680   6.666
 9320SOL     OW28858   3.826   1.244   6.300
 9320SOL    HW128859   3.733   1.242   6.264
 9320SOL    HW228860   3.891   1.250   6.224
 9321SOL     OW28861   6.289   0.365   3.218
 9321SOL    HW128862   6.249   0.285   3.262
 9321SOL    HW228863   6.371   0.338   3.167
 9322SOL     OW28864   0.560   5.159   6.602
 9322SOL    HW128865   0.503   5.083   6.635
 9322SOL    HW228866   0.656   5.134   6.610
 9323SOL     OW28867   1.735   0.191   5.519
 9323SOL    HW128868   1.757   0.194   5.421
 9323SOL    HW228869   1.694   0.278   5.546
 9324SOL     OW28870   2.022   4.808   0.602
 9324SOL    HW128871   2.121   4.804   0.586
 9324SOL    HW228872   2.004   4.810   0.700
 9325SOL     OW28873   5.115   1.058   6.712
 9325SOL    HW128874   5.016   1.068   6.709
 9325SOL    HW228875   5.139   0.978   6.767
 9326SOL     OW28876   1.931   6.557   0.951
 9326SOL    HW128877   1.860   6.611   0.995
 9326SOL    HW228878   2.006   6.617   0.922
 9327SOL     OW28879   4.995   0.064   2.841
 9327SOL    HW128880   4.931   0.126   2.796
 9327SOL    HW228881   5.036   0.110   2.920
 9328SOL     OW28882   3.403   1.388   5.668
 9328SOL    HW128883   3.450   1.384   5.580
 9328SOL    HW228884   3.414   1.300   5.715
 9329SOL     OW28885   6.462   4.342   2.194
 9329SOL    HW128886   6.430   4.403   2.267
 9329SOL    HW228887   6.561   4.352   2.183
 9330SOL     OW28888   0.218   6.591   6.933
 9330SOL    HW128889   0.198   6.507   6.982
 9330SOL    HW228890   0.228   6.572   6.836
 9331SOL     OW28891   1.189   1.665   6.245
 9331SOL    HW128892   1.190   1.682   6.344
 9331SOL    HW228893   1.119   1.597   6.224
 9332SOL     OW28894   3.911   4.011   2.261
 9332SOL    HW128895   3.963   3.929   2.240
 9332SOL    HW228896   3.886   4.012   2.358
 9333SOL     OW28897   4.135   3.665   1.343
 9333SOL    HW128898   4.156   3.762   1.357
 9333SOL    HW228899   4.099   3.652   1.251
 9334SOL     OW28900   4.477   5.877   3.758
 9334SOL    HW128901   4.445   5.798   3.705
 9334SOL    HW228902   4.491   5.955   3.696
 9335SOL     OW28903   0.744   1.534   6.302
 9335SOL    HW128904   0.693   1.454   6.333
 9335SOL    HW228905   0.689   1.617   6.317
 9336SOL     OW28906   2.961   5.355   5.622
 9336SOL    HW128907   2.990   5.381   5.714
 9336SOL    HW228908   2.965   5.256   5.612
 9337SOL     OW28909   5.198   1.436   3.381
 9337SOL    HW128910   5.145   1.515   3.349
 9337SOL    HW228911   5.295   1.458   3.379
 9338SOL     OW28912   3.843   0.509   1.771
 9338SOL    HW128913   3.889   0.524   1.684
 9338SOL    HW228914   3.744   0.520   1.759
 9339SOL     OW28915   5.442   6.870   1.086
 9339SOL    HW128916   5.528   6.918   1.074
 9339SOL    HW228917   5.411   6.835   0.998
 9340SOL     OW28918   5.869   3.695   4.702
 9340SOL    HW128919   5.796   3.752   4.662
 9340SOL    HW228920   5.926   3.659   4.628
 9341SOL     OW28921   0.281   6.112   6.967
 9341SOL    HW128922   0.273   6.074   0.035
 9341SOL    HW228923   0.351   6.062   6.917
 9342SOL     OW28924   2.013   0.466   3.786
 9342SOL    HW128925   1.990   0.474   3.689
 9342SOL    HW228926   2.036   0.371   3.807
 9343SOL     OW28927   6.158   4.382   3.123
 9343SOL    HW128928   6.172   4.335   3.036
 9343SOL    HW228929   6.063   4.411   3.131
 9344SOL     OW28930   4.623   6.626   1.649
 9344SOL    HW128931   4.593   6.574   1.729
 9344SOL    HW228932   4.723   6.637   1.652
 9345SOL     OW28933   6.360   4.475   2.412
 9345SOL    HW128934   6.263   4.452   2.410
 9345SOL    HW228935   6.375   4.554   2.472
 9346SOL     OW28936   5.898   0.776   0.987
 9346SOL    HW128937   5.896   0.781   1.087
 9346SOL    HW228938   5.822   0.830   0.950
 9347SOL     OW28939   1.188   4.630   1.082
 9347SOL    HW128940   1.123   4.577   1.137
 9347SOL    HW228941   1.242   4.568   1.025
 9348SOL     OW28942   3.876   5.767   1.758
 9348SOL    HW128943   3.916   5.680   1.728
 9348SOL    HW228944   3.780   5.752   1.781
 9349SOL     OW28945   1.184   6.376   2.457
 9349SOL    HW128946   1.273   6.342   2.426
 9349SOL    HW228947   1.114   6.348   2.392
 9350SOL     OW28948   0.659   3.580   5.357
 9350SOL    HW128949   0.739   3.539   5.315
 9350SOL    HW228950   0.687   3.635   5.436
 9351SOL     OW28951   2.860   0.683   6.359
 9351SOL    HW128952   2.918   0.728   6.291
 9351SOL    HW228953   2.908   0.604   6.397
 9352SOL     OW28954   3.124   2.504   6.751
 9352SOL    HW128955   3.054   2.566   6.787
 9352SOL    HW228956   3.084   2.414   6.735
 9353SOL     OW28957   0.735   5.273   0.723
 9353SOL    HW128958   0.697   5.189   0.762
 9353SOL    HW228959   0.725   5.271   0.624
 9354SOL     OW28960   6.340   1.732   6.534
 9354SOL    HW128961   6.434   1.766   6.529
 9354SOL    HW228962   6.284   1.797   6.586
 9355SOL     OW28963   0.608   2.248   5.086
 9355SOL    HW128964   0.548   2.269   5.164
 9355SOL    HW228965   0.667   2.327   5.068
 9356SOL     OW28966   4.115   0.434   1.111
 9356SOL    HW128967   4.040   0.420   1.046
 9356SOL    HW228968   4.177   0.504   1.075
 9357SOL     OW28969   0.971   3.437   6.382
 9357SOL    HW128970   1.052   3.492   6.360
 9357SOL    HW228971   1.001   3.345   6.408
 9358SOL     OW28972   6.850   4.024   2.403
 9358SOL    HW128973   6.787   3.979   2.340
 9358SOL    HW228974   6.808   4.030   2.494
 9359SOL     OW28975   1.485   4.562   6.756
 9359SOL    HW128976   1.464   4.552   6.658
 9359SOL    HW228977   1.479   4.473   6.801
 9360SOL     OW28978   1.643   5.637   6.249
 9360SOL    HW128979   1.671   5.549   6.210
 9360SOL    HW228980   1.550   5.628   6.287
 9361SOL     OW28981   1.923   5.653   3.369
 9361SOL    HW128982   1.909   5.554   3.361
 9361SOL    HW228983   2.015   5.670   3.407
 9362SOL     OW28984   1.445   1.455   2.976
 9362SOL    HW128985   1.486   1.449   2.885
 9362SOL    HW228986   1.509   1.499   3.039
 9363SOL     OW28987   4.161   5.298   1.512
 9363SOL    HW128988   4.110   5.383   1.498
 9363SOL    HW228989   4.225   5.284   1.436
 9364SOL     OW28990   2.215   1.458   0.909
 9364SOL    HW128991   2.164   1.442   0.825
 9364SOL    HW228992   2.176   1.402   0.983
 9365SOL     OW28993   3.351   1.847   3.632
 9365SOL    HW128994   3.356   1.943   3.606
 9365SOL    HW228995   3.260   1.811   3.610
 9366SOL     OW28996   3.176   5.820   0.076
 9366SOL    HW128997   3.184   5.721   0.074
 9366SOL    HW228998   3.262   5.862   0.047
 9367SOL     OW28999   6.207   0.477   1.680
 9367SOL    HW129000   6.287   0.455   1.624
 9367SOL    HW229001   6.238   0.509   1.770
 9368SOL     OW29002   3.824   6.991   2.115
 9368SOL    HW129003   3.850   7.004   2.019
 9368SOL    HW229004   3.879   6.919   2.155
 9369SOL     OW29005   0.209   5.772   5.225
 9369SOL    HW129006   0.177   5.758   5.131
 9369SOL    HW229007   0.306   5.794   5.225
 9370SOL     OW29008   5.104   0.867   3.694
 9370SOL    HW129009   5.107   0.799   3.768
 9370SOL    HW229010   5.152   0.950   3.723
 9371SOL     OW29011   2.655   5.721   1.078
 9371SOL    HW129012   2.557   5.737   1.092
 9371SOL    HW229013   2.671   5.623   1.068
 9372SOL     OW29014   4.724   0.038   2.082
 9372SOL    HW129015   4.700   0.064   1.989
 9372SOL    HW229016   4.643   0.046   2.141
 9373SOL     OW29017   5.816   2.108   0.601
 9373SOL    HW129018   5.772   2.129   0.688
 9373SOL    HW229019   5.907   2.150   0.598
 9374SOL     OW29020   6.940   3.471   5.915
 9374SOL    HW129021   6.857   3.498   5.867
 9374SOL    HW229022   6.933   3.496   6.011
 9375SOL     OW29023   6.784   1.911   1.162
 9375SOL    HW129024   6.809   1.848   1.088
 9375SOL    HW229025   6.721   1.981   1.126
 9376SOL     OW29026   2.035   3.416   1.827
 9376SOL    HW129027   2.021   3.483   1.755
 9376SOL    HW229028   2.101   3.451   1.893
 9377SOL     OW29029   2.723   5.449   3.146
 9377SOL    HW129030   2.733   5.548   3.156
 9377SOL    HW229031   2.771   5.403   3.221
 9378SOL     OW29032   3.288   1.315   3.895
 9378SOL    HW129033   3.280   1.398   3.950
 9378SOL    HW229034   3.234   1.326   3.811
 9379SOL     OW29035   4.928   0.170   4.783
 9379SOL    HW129036   5.016   0.177   4.737
 9379SOL    HW229037   4.880   0.257   4.778
 9380SOL     OW29038   3.529   5.669   5.635
 9380SOL    HW129039   3.616   5.661   5.586
 9380SOL    HW229040   3.489   5.578   5.647
 9381SOL     OW29041   5.262   2.580   4.746
 9381SOL    HW129042   5.253   2.584   4.646
 9381SOL    HW229043   5.179   2.540   4.785
 9382SOL     OW29044   4.053   0.799   4.024
 9382SOL    HW129045   4.128   0.798   4.090
 9382SOL    HW229046   4.082   0.844   3.940
 9383SOL     OW29047   4.509   4.549   4.082
 9383SOL    HW129048   4.429   4.552   4.142
 9383SOL    HW229049   4.555   4.638   4.083
 9384SOL     OW29050   2.657   6.573   2.204
 9384SOL    HW129051   2.749   6.609   2.223
 9384SOL    HW229052   2.597   6.649   2.178
 9385SOL     OW29053   3.972   1.637   3.957
 9385SOL    HW129054   3.882   1.596   3.940
 9385SOL    HW229055   3.967   1.736   3.942
 9386SOL     OW29056   3.172   5.841   5.150
 9386SOL    HW129057   3.154   5.819   5.245
 9386SOL    HW229058   3.097   5.807   5.093
 9387SOL     OW29059   3.809   2.120   0.080
 9387SOL    HW129060   3.900   2.117   0.122
 9387SOL    HW229061   3.740   2.135   0.151
 9388SOL     OW29062   1.748   6.793   3.649
 9388SOL    HW129063   1.692   6.790   3.566
 9388SOL    HW229064   1.806   6.712   3.654
 9389SOL     OW29065   3.122   5.739   1.922
 9389SOL    HW129066   3.085   5.805   1.987
 9389SOL    HW229067   3.169   5.788   1.848
 9390SOL     OW29068   5.830   4.392   6.021
 9390SOL    HW129069   5.878   4.430   5.943
 9390SOL    HW229070   5.891   4.331   6.072
 9391SOL     OW29071   0.682   0.212   4.671
 9391SOL    HW129072   0.739   0.134   4.643
 9391SOL    HW229073   0.597   0.178   4.710
 9392SOL     OW29074   4.937   4.367   3.961
 9392SOL    HW129075   4.983   4.289   4.004
 9392SOL    HW229076   4.958   4.369   3.864
 9393SOL     OW29077   3.016   6.437   6.191
 9393SOL    HW129078   2.995   6.403   6.099
 9393SOL    HW229079   2.938   6.485   6.228
 9394SOL     OW29080   5.859   0.757   1.254
 9394SOL    HW129081   5.942   0.811   1.269
 9394SOL    HW229082   5.845   0.696   1.332
 9395SOL     OW29083   2.615   1.387   0.649
 9395SOL    HW129084   2.682   1.374   0.722
 9395SOL    HW229085   2.541   1.446   0.681
 9396SOL     OW29086   2.004   5.521   5.309
 9396SOL    HW129087   2.024   5.426   5.331
 9396SOL    HW229088   2.046   5.581   5.378
 9397SOL     OW29089   3.233   6.621   5.961
 9397SOL    HW129090   3.236   6.672   6.047
 9397SOL    HW229091   3.317   6.569   5.950
 9398SOL     OW29092   6.381   1.253   6.044
 9398SOL    HW129093   6.452   1.305   5.998
 9398SOL    HW229094   6.364   1.167   5.995
 9399SOL     OW29095   1.198   2.211   4.355
 9399SOL    HW129096   1.175   2.162   4.271
 9399SOL    HW229097   1.136   2.184   4.428
 9400SOL     OW29098   4.836   0.731   0.266
 9400SOL    HW129099   4.835   0.744   0.365
 9400SOL    HW229100   4.760   0.782   0.225
 9401SOL     OW29101   7.000   2.843   1.695
 9401SOL    HW129102   0.030   2.777   1.642
 9401SOL    HW229103   0.037   2.909   1.738
 9402SOL     OW29104   1.965   5.426   3.892
 9402SOL    HW129105   1.970   5.520   3.858
 9402SOL    HW229106   2.026   5.368   3.838
 9403SOL     OW29107   6.955   1.182   2.444
 9403SOL    HW129108   7.009   1.116   2.391
 9403SOL    HW229109   6.878   1.214   2.388
 9404SOL     OW29110   0.741   2.859   1.411
 9404SOL    HW129111   0.758   2.767   1.445
 9404SOL    HW229112   0.734   2.857   1.311
 9405SOL     OW29113   0.744   4.705   4.696
 9405SOL    HW129114   0.676   4.658   4.640
 9405SOL    HW229115   0.704   4.786   4.737
 9406SOL     OW29116   0.973   3.063   6.759
 9406SOL    HW129117   1.057   3.116   6.778
 9406SOL    HW229118   0.972   3.038   6.662
 9407SOL     OW29119   2.627   4.992   5.129
 9407SOL    HW129120   2.688   4.917   5.154
 9407SOL    HW229121   2.586   4.973   5.040
 9408SOL     OW29122   6.848   3.264   5.600
 9408SOL    HW129123   6.930   3.282   5.546
 9408SOL    HW229124   6.812   3.351   5.635
 9409SOL     OW29125   6.490   5.832   2.210
 9409SOL    HW129126   6.503   5.771   2.287
 9409SOL    HW229127   6.507   5.927   2.239
 9410SOL     OW29128   4.767   1.255   1.835
 9410SOL    HW129129   4.816   1.330   1.790
 9410SOL    HW229130   4.771   1.267   1.934
 9411SOL     OW29131   3.026   3.380   3.029
 9411SOL    HW129132   3.083   3.336   2.959
 9411SOL    HW229133   2.972   3.310   3.076
 9412SOL     OW29134   0.773   0.591   0.868
 9412SOL    HW129135   0.726   0.678   0.856
 9412SOL    HW229136   0.705   0.519   0.887
 9413SOL     OW29137   4.641   4.780   4.748
 9413SOL    HW129138   4.648   4.823   4.838
 9413SOL    HW229139   4.604   4.688   4.758
 9414SOL     OW29140   2.339   2.324   4.849
 9414SOL    HW129141   2.376   2.410   4.816
 9414SOL    HW229142   2.267   2.342   4.916
 9415SOL     OW29143   2.911   0.281   1.906
 9415SOL    HW129144   2.954   0.215   1.844
 9415SOL    HW229145   2.871   0.233   1.983
 9416SOL     OW29146   0.151   0.382   5.480
 9416SOL    HW129147   0.063   0.410   5.519
 9416SOL    HW229148   0.158   0.416   5.386
 9417SOL     OW29149   3.390   6.527   1.825
 9417SOL    HW129150   3.483   6.551   1.800
 9417SOL    HW229151   3.384   6.428   1.842
 9418SOL     OW29152   3.093   1.339   3.698
 9418SOL    HW129153   3.022   1.363   3.764
 9418SOL    HW229154   3.085   1.399   3.618
 9419SOL     OW29155   2.379   2.665   6.258
 9419SOL    HW129156   2.327   2.581   6.245
 9419SOL    HW229157   2.329   2.742   6.217
 9420SOL     OW29158   5.961   4.373   0.789
 9420SOL    HW129159   5.957   4.468   0.822
 9420SOL    HW229160   5.914   4.366   0.701
 9421SOL     OW29161   3.715   5.906   5.015
 9421SOL    HW129162   3.617   5.897   5.032
 9421SOL    HW229163   3.739   5.856   4.932
 9422SOL     OW29164   2.589   6.273   4.006
 9422SOL    HW129165   2.586   6.211   3.929
 9422SOL    HW229166   2.604   6.222   4.091
 9423SOL     OW29167   3.777   5.543   3.312
 9423SOL    HW129168   3.819   5.533   3.222
 9423SOL    HW229169   3.697   5.485   3.318
 9424SOL     OW29170   5.026   1.725   4.476
 9424SOL    HW129171   5.084   1.643   4.475
 9424SOL    HW229172   4.969   1.725   4.558
 9425SOL     OW29173   6.007   4.656   1.542
 9425SOL    HW129174   6.098   4.685   1.573
 9425SOL    HW229175   6.000   4.669   1.443
 9426SOL     OW29176   0.968   2.081   6.448
 9426SOL    HW129177   1.051   2.118   6.492
 9426SOL    HW229178   0.955   2.126   6.360
 9427SOL     OW29179   3.012   5.669   2.817
 9427SOL    HW129180   2.961   5.752   2.842
 9427SOL    HW229181   3.015   5.607   2.895
 9428SOL     OW29182   6.292   6.310   0.637
 9428SOL    HW129183   6.383   6.350   0.637
 9428SOL    HW229184   6.252   6.319   0.728
 9429SOL     OW29185   1.489   2.363   4.507
 9429SOL    HW129186   1.489   2.280   4.450
 9429SOL    HW229187   1.525   2.341   4.597
 9430SOL     OW29188   0.420   2.256   4.614
 9430SOL    HW129189   0.463   2.169   4.639
 9430SOL    HW229190   0.328   2.260   4.654
 9431SOL     OW29191   0.032   4.307   0.908
 9431SOL    HW129192   6.965   4.278   0.879
 9431SOL    HW229193   0.026   4.346   1.000
 9432SOL     OW29194   6.726   1.377   3.946
 9432SOL    HW129195   6.733   1.286   3.987
 9432SOL    HW229196   6.812   1.399   3.899
 9433SOL     OW29197   4.135   5.750   2.618
 9433SOL    HW129198   4.085   5.694   2.684
 9433SOL    HW229199   4.208   5.695   2.576
 9434SOL     OW29200   5.579   5.584   3.762
 9434SOL    HW129201   5.627   5.636   3.833
 9434SOL    HW229202   5.626   5.497   3.748
 9435SOL     OW29203   0.319   2.742   2.336
 9435SOL    HW129204   0.232   2.762   2.382
 9435SOL    HW229205   0.372   2.678   2.392
 9436SOL     OW29206   1.080   1.241   1.950
 9436SOL    HW129207   1.172   1.222   1.984
 9436SOL    HW229208   1.029   1.294   2.017
 9437SOL     OW29209   0.659   5.514   3.311
 9437SOL    HW129210   0.652   5.422   3.349
 9437SOL    HW229211   0.755   5.536   3.294
 9438SOL     OW29212   2.518   6.608   1.434
 9438SOL    HW129213   2.487   6.626   1.527
 9438SOL    HW229214   2.494   6.514   1.408
 9439SOL     OW29215   0.799   3.024   0.662
 9439SOL    HW129216   0.782   3.120   0.683
 9439SOL    HW229217   0.835   3.017   0.569
 9440SOL     OW29218   3.034   4.845   3.436
 9440SOL    HW129219   2.953   4.882   3.483
 9440SOL    HW229220   3.025   4.746   3.429
 9441SOL     OW29221   6.641   5.751   5.037
 9441SOL    HW129222   6.585   5.746   5.120
 9441SOL    HW229223   6.714   5.819   5.050
 9442SOL     OW29224   4.773   3.550   1.188
 9442SOL    HW129225   4.728   3.461   1.185
 9442SOL    HW229226   4.829   3.561   1.105
 9443SOL     OW29227   3.166   5.416   1.444
 9443SOL    HW129228   3.128   5.420   1.352
 9443SOL    HW229229   3.203   5.505   1.469
 9444SOL     OW29230   1.985   3.578   0.813
 9444SOL    HW129231   2.038   3.661   0.791
 9444SOL    HW229232   2.035   3.498   0.782
 9445SOL     OW29233   0.592   2.007   4.272
 9445SOL    HW129234   0.611   2.096   4.313
 9445SOL    HW229235   0.632   1.934   4.328
 9446SOL     OW29236   6.380   5.072   3.922
 9446SOL    HW129237   6.461   5.015   3.910
 9446SOL    HW229238   6.408   5.168   3.931
 9447SOL     OW29239   5.055   5.555   2.945
 9447SOL    HW129240   5.122   5.483   2.928
 9447SOL    HW229241   5.074   5.598   3.034
 9448SOL     OW29242   5.843   6.774   5.501
 9448SOL    HW129243   5.923   6.825   5.471
 9448SOL    HW229244   5.760   6.827   5.482
 9449SOL     OW29245   5.346   6.700   6.837
 9449SOL    HW129246   5.300   6.677   6.751
 9449SOL    HW229247   5.287   6.758   6.892
 9450SOL     OW29248   1.617   5.726   4.297
 9450SOL    HW129249   1.617   5.805   4.235
 9450SOL    HW229250   1.545   5.663   4.270
 9451SOL     OW29251   3.543   5.548   6.428
 9451SOL    HW129252   3.524   5.641   6.457
 9451SOL    HW229253   3.473   5.518   6.363
 9452SOL     OW29254   0.769   4.312   1.077
 9452SOL    HW129255   0.867   4.333   1.079
 9452SOL    HW229256   0.754   4.226   1.028
 9453SOL     OW29257   3.168   5.007   3.269
 9453SOL    HW129258   3.263   4.985   3.246
 9453SOL    HW229259   3.138   4.950   3.345
 9454SOL     OW29260   4.512   4.206   1.040
 9454SOL    HW129261   4.462   4.125   1.070
 9454SOL    HW229262   4.608   4.198   1.068
 9455SOL     OW29263   2.873   2.294   2.504
 9455SOL    HW129264   2.957   2.298   2.448
 9455SOL    HW229265   2.835   2.202   2.499
 9456SOL     OW29266   6.400   3.584   2.445
 9456SOL    HW129267   6.334   3.637   2.391
 9456SOL    HW229268   6.371   3.582   2.541
 9457SOL     OW29269   1.433   5.131   4.832
 9457SOL    HW129270   1.462   5.149   4.926
 9457SOL    HW229271   1.389   5.213   4.795
 9458SOL     OW29272   6.879   4.478   0.393
 9458SOL    HW129273   6.811   4.424   0.343
 9458SOL    HW229274   6.835   4.559   0.432
 9459SOL     OW29275   4.968   4.276   4.727
 9459SOL    HW129276   4.882   4.263   4.677
 9459SOL    HW229277   5.005   4.367   4.707
 9460SOL     OW29278   1.721   3.373   4.500
 9460SOL    HW129279   1.788   3.300   4.487
 9460SOL    HW229280   1.629   3.337   4.486
 9461SOL     OW29281   1.246   1.697   1.582
 9461SOL    HW129282   1.229   1.783   1.631
 9461SOL    HW229283   1.282   1.718   1.491
 9462SOL     OW29284   1.495   2.312   3.976
 9462SOL    HW129285   1.592   2.294   3.961
 9462SOL    HW229286   1.484   2.404   4.014
 9463SOL     OW29287   5.510   6.457   1.399
 9463SOL    HW129288   5.496   6.554   1.377
 9463SOL    HW229289   5.552   6.411   1.322
 9464SOL     OW29290   6.519   0.647   1.483
 9464SOL    HW129291   6.507   0.578   1.412
 9464SOL    HW229292   6.487   0.736   1.449
 9465SOL     OW29293   0.272   4.107   1.477
 9465SOL    HW129294   0.229   4.017   1.478
 9465SOL    HW229295   0.216   4.171   1.530
 9466SOL     OW29296   4.121   5.883   6.375
 9466SOL    HW129297   4.151   5.964   6.324
 9466SOL    HW229298   4.122   5.803   6.314
 9467SOL     OW29299   1.992   2.795   0.698
 9467SOL    HW129300   1.940   2.749   0.769
 9467SOL    HW229301   1.979   2.747   0.611
 9468SOL     OW29302   0.016   3.580   6.893
 9468SOL    HW129303   6.988   3.557   6.975
 9468SOL    HW229304   6.978   3.613   6.822
 9469SOL     OW29305   0.116   6.037   0.202
 9469SOL    HW129306   0.106   6.134   0.220
 9469SOL    HW229307   0.063   6.012   0.122
 9470SOL     OW29308   4.646   3.842   0.000
 9470SOL    HW129309   4.712   3.889   6.966
 9470SOL    HW229310   4.562   3.895   0.005
 9471SOL     OW29311   6.225   2.424   5.051
 9471SOL    HW129312   6.217   2.335   5.007
 9471SOL    HW229313   6.134   2.459   5.074
 9472SOL     OW29314   1.075   4.752   6.232
 9472SOL    HW129315   1.149   4.705   6.183
 9472SOL    HW229316   0.992   4.697   6.226
 9473SOL     OW29317   2.954   3.861   6.885
 9473SOL    HW129318   3.048   3.891   6.905
 9473SOL    HW229319   2.901   3.861   6.970
 9474SOL     OW29320   5.890   3.589   1.937
 9474SOL    HW129321   5.865   3.576   2.033
 9474SOL    HW229322   5.969   3.650   1.931
 9475SOL     OW29323   4.520   3.413   6.225
 9475SOL    HW129324   4.519   3.329   6.170
 9475SOL    HW229325   4.439   3.415   6.285
 9476SOL     OW29326   3.932   4.330   5.270
 9476SOL    HW129327   3.949   4.302   5.176
 9476SOL    HW229328   3.840   4.368   5.278
 9477SOL     OW29329   1.507   3.471   1.287
 9477SOL    HW129330   1.570   3.549   1.292
 9477SOL    HW229331   1.553   3.389   1.321
 9478SOL     OW29332   4.433   2.802   1.023
 9478SOL    HW129333   4.504   2.855   0.977
 9478SOL    HW229334   4.475   2.733   1.081
 9479SOL     OW29335   3.998   1.129   1.650
 9479SOL    HW129336   4.091   1.167   1.642
 9479SOL    HW229337   3.990   1.079   1.736
 9480SOL     OW29338   5.518   5.925   0.167
 9480SOL    HW129339   5.539   5.941   0.071
 9480SOL    HW229340   5.421   5.906   0.178
 9481SOL     OW29341   4.342   1.752   3.358
 9481SOL    HW129342   4.285   1.783   3.282
 9481SOL    HW229343   4.291   1.685   3.412
 9482SOL     OW29344   5.611   0.336   0.934
 9482SOL    HW129345   5.671   0.354   1.012
 9482SOL    HW229346   5.662   0.286   0.864
 9483SOL     OW29347   0.707   0.767   0.065
 9483SOL    HW129348   0.783   0.806   0.012
 9483SOL    HW229349   0.688   0.675   0.034
 9484SOL     OW29350   2.794   6.913   4.057
 9484SOL    HW129351   2.819   6.941   4.150
 9484SOL    HW229352   2.858   6.843   4.025
 9485SOL     OW29353   5.951   1.306   1.169
 9485SOL    HW129354   5.993   1.366   1.101
 9485SOL    HW229355   5.926   1.360   1.250
 9486SOL     OW29356   5.031   5.571   0.769
 9486SOL    HW129357   5.018   5.545   0.865
 9486SOL    HW229358   4.963   5.641   0.744
 9487SOL     OW29359   3.302   3.501   4.211
 9487SOL    HW129360   3.242   3.552   4.273
 9487SOL    HW229361   3.287   3.531   4.117
 9488SOL     OW29362   1.785   1.218   1.356
 9488SOL    HW129363   1.809   1.274   1.277
 9488SOL    HW229364   1.686   1.203   1.356
 9489SOL     OW29365   5.367   4.544   1.267
 9489SOL    HW129366   5.361   4.642   1.289
 9489SOL    HW229367   5.392   4.533   1.171
 9490SOL     OW29368   6.422   5.576   3.724
 9490SOL    HW129369   6.478   5.494   3.735
 9490SOL    HW229370   6.330   5.559   3.761
 9491SOL     OW29371   5.568   6.017   3.794
 9491SOL    HW129372   5.629   6.003   3.716
 9491SOL    HW229373   5.476   6.038   3.762
 9492SOL     OW29374   4.853   3.078   5.055
 9492SOL    HW129375   4.814   3.162   5.093
 9492SOL    HW229376   4.912   3.035   5.123
 9493SOL     OW29377   3.418   6.176   4.221
 9493SOL    HW129378   3.490   6.226   4.270
 9493SOL    HW229379   3.427   6.191   4.123
 9494SOL     OW29380   5.658   3.008   2.465
 9494SOL    HW129381   5.667   3.104   2.437
 9494SOL    HW229382   5.598   2.960   2.401
 9495SOL     OW29383   6.743   1.194   2.265
 9495SOL    HW129384   6.688   1.111   2.275
 9495SOL    HW229385   6.685   1.267   2.229
 9496SOL     OW29386   4.439   2.119   2.442
 9496SOL    HW129387   4.356   2.174   2.446
 9496SOL    HW229388   4.518   2.175   2.470
 9497SOL     OW29389   5.359   5.830   5.218
 9497SOL    HW129390   5.360   5.800   5.123
 9497SOL    HW229391   5.443   5.801   5.263
 9498SOL     OW29392   0.081   4.776   4.366
 9498SOL    HW129393   0.114   4.829   4.288
 9498SOL    HW229394   0.004   4.719   4.338
 9499SOL     OW29395   6.742   5.331   4.896
 9499SOL    HW129396   6.810   5.366   4.961
 9499SOL    HW229397   6.716   5.238   4.922
 9500SOL     OW29398   4.268   6.715   0.960
 9500SOL    HW129399   4.225   6.787   0.906
 9500SOL    HW229400   4.254   6.734   1.057
 9501SOL     OW29401   1.456   1.434   3.904
 9501SOL    HW129402   1.377   1.423   3.964
 9501SOL    HW229403   1.524   1.491   3.949
 9502SOL     OW29404   5.484   4.646   5.004
 9502SOL    HW129405   5.572   4.611   5.038
 9502SOL    HW229406   5.497   4.688   4.914
 9503SOL     OW29407   0.720   2.143   0.519
 9503SOL    HW129408   0.794   2.085   0.486
 9503SOL    HW229409   0.656   2.162   0.445
 9504SOL     OW29410   6.977   3.694   1.875
 9504SOL    HW129411   6.992   3.688   1.974
 9504SOL    HW229412   6.923   3.776   1.854
 9505SOL     OW29413   4.840   5.054   5.765
 9505SOL    HW129414   4.852   5.150   5.790
 9505SOL    HW229415   4.847   4.997   5.847
 9506SOL     OW29416   2.346   2.212   0.208
 9506SOL    HW129417   2.312   2.158   0.131
 9506SOL    HW229418   2.291   2.192   0.289
 9507SOL     OW29419   6.372   0.407   1.067
 9507SOL    HW129420   6.305   0.338   1.039
 9507SOL    HW229421   6.355   0.491   1.015
 9508SOL     OW29422   5.007   1.657   2.128
 9508SOL    HW129423   5.010   1.742   2.075
 9508SOL    HW229424   4.913   1.629   2.141
 9509SOL     OW29425   6.488   0.823   3.177
 9509SOL    HW129426   6.487   0.757   3.102
 9509SOL    HW229427   6.394   0.842   3.206
 9510SOL     OW29428   0.872   3.444   3.725
 9510SOL    HW129429   0.922   3.469   3.643
 9510SOL    HW229430   0.934   3.404   3.792
 9511SOL     OW29431   0.866   1.072   1.371
 9511SOL    HW129432   0.803   1.147   1.389
 9511SOL    HW229433   0.902   1.037   1.457
 9512SOL     OW29434   6.805   3.135   0.918
 9512SOL    HW129435   6.856   3.093   0.843
 9512SOL    HW229436   6.767   3.064   0.977
 9513SOL     OW29437   3.434   4.733   5.958
 9513SOL    HW129438   3.532   4.720   5.972
 9513SOL    HW229439   3.386   4.719   6.045
 9514SOL     OW29440   3.156   3.442   6.415
 9514SOL    HW129441   3.101   3.399   6.487
 9514SOL    HW229442   3.141   3.392   6.329
 9515SOL     OW29443   2.714   4.929   3.368
 9515SOL    HW129444   2.773   4.867   3.316
 9515SOL    HW229445   2.735   4.920   3.465
 9516SOL     OW29446   6.146   4.730   0.605
 9516SOL    HW129447   6.185   4.638   0.613
 9516SOL    HW229448   6.135   4.771   0.695
 9517SOL     OW29449   1.223   4.493   1.600
 9517SOL    HW129450   1.161   4.434   1.549
 9517SOL    HW229451   1.215   4.587   1.567
 9518SOL     OW29452   2.874   1.141   0.515
 9518SOL    HW129453   2.890   1.089   0.598
 9518SOL    HW229454   2.776   1.142   0.494
 9519SOL     OW29455   1.281   2.409   5.536
 9519SOL    HW129456   1.216   2.464   5.589
 9519SOL    HW229457   1.357   2.382   5.595
 9520SOL     OW29458   2.379   0.284   2.249
 9520SOL    HW129459   2.363   0.189   2.273
 9520SOL    HW229460   2.389   0.292   2.150
 9521SOL     OW29461   6.117   5.928   4.255
 9521SOL    HW129462   6.140   5.835   4.227
 9521SOL    HW229463   6.116   5.988   4.175
 9522SOL     OW29464   3.371   6.056   0.691
 9522SOL    HW129465   3.328   5.972   0.723
 9522SOL    HW229466   3.423   6.097   0.766
 9523SOL     OW29467   3.491   5.216   4.471
 9523SOL    HW129468   3.431   5.286   4.509
 9523SOL    HW229469   3.586   5.242   4.486
 9524SOL     OW29470   3.587   2.849   1.209
 9524SOL    HW129471   3.542   2.825   1.296
 9524SOL    HW229472   3.671   2.795   1.199
 9525SOL     OW29473   1.983   1.387   6.127
 9525SOL    HW129474   2.077   1.358   6.108
 9525SOL    HW229475   1.924   1.363   6.049
 9526SOL     OW29476   5.528   5.952   3.196
 9526SOL    HW129477   5.430   5.946   3.174
 9526SOL    HW229478   5.567   6.033   3.153
 9527SOL     OW29479   0.929   0.845   2.136
 9527SOL    HW129480   0.980   0.889   2.210
 9527SOL    HW229481   0.852   0.794   2.174
 9528SOL     OW29482   6.624   0.158   0.652
 9528SOL    HW129483   6.552   0.089   0.663
 9528SOL    HW229484   6.615   0.227   0.724
 9529SOL     OW29485   1.275   3.229   6.549
 9529SOL    HW129486   1.283   3.156   6.617
 9529SOL    HW229487   1.231   3.309   6.591
 9530SOL     OW29488   1.593   2.875   3.092
 9530SOL    HW129489   1.671   2.880   3.154
 9530SOL    HW229490   1.508   2.891   3.144
 9531SOL     OW29491   4.220   6.016   2.580
 9531SOL    HW129492   4.161   6.068   2.517
 9531SOL    HW229493   4.169   5.938   2.616
 9532SOL     OW29494   1.711   5.960   1.325
 9532SOL    HW129495   1.731   5.870   1.287
 9532SOL    HW229496   1.778   6.026   1.292
 9533SOL     OW29497   0.370   1.120   5.026
 9533SOL    HW129498   0.389   1.105   4.930
 9533SOL    HW229499   0.329   1.210   5.039
 9534SOL     OW29500   5.522   1.794   5.093
 9534SOL    HW129501   5.480   1.858   5.028
 9534SOL    HW229502   5.466   1.788   5.175
 9535SOL     OW29503   2.727   0.659   5.945
 9535SOL    HW129504   2.827   0.651   5.945
 9535SOL    HW229505   2.702   0.753   5.922
 9536SOL     OW29506   2.090   5.637   5.531
 9536SOL    HW129507   2.031   5.716   5.542
 9536SOL    HW229508   2.064   5.566   5.597
 9537SOL     OW29509   3.301   0.369   2.396
 9537SOL    HW129510   3.362   0.320   2.335
 9537SOL    HW229511   3.354   0.434   2.451
 9538SOL     OW29512   6.351   2.083   4.337
 9538SOL    HW129513   6.445   2.050   4.338
 9538SOL    HW229514   6.334   2.134   4.252
 9539SOL     OW29515   1.784   5.559   6.519
 9539SOL    HW129516   1.833   5.517   6.443
 9539SOL    HW229517   1.742   5.488   6.575
 9540SOL     OW29518   4.646   4.949   5.589
 9540SOL    HW129519   4.701   5.012   5.644
 9540SOL    HW229520   4.639   4.861   5.635
 9541SOL     OW29521   1.388   2.326   5.084
 9541SOL    HW129522   1.470   2.382   5.073
 9541SOL    HW229523   1.374   2.271   5.002
 9542SOL     OW29524   4.888   3.369   4.677
 9542SOL    HW129525   4.934   3.297   4.729
 9542SOL    HW229526   4.874   3.449   4.736
 9543SOL     OW29527   4.623   0.760   4.313
 9543SOL    HW129528   4.536   0.757   4.362
 9543SOL    HW229529   4.628   0.681   4.252
 9544SOL     OW29530   5.789   0.126   2.175
 9544SOL    HW129531   5.832   0.070   2.104
 9544SOL    HW229532   5.704   0.164   2.141
 9545SOL     OW29533   6.413   6.595   3.157
 9545SOL    HW129534   6.447   6.552   3.073
 9545SOL    HW229535   6.382   6.688   3.137
 9546SOL     OW29536   2.886   4.429   6.848
 9546SOL    HW129537   2.805   4.441   6.792
 9546SOL    HW229538   2.968   4.431   6.790
 9547SOL     OW29539   1.395   6.570   3.911
 9547SOL    HW129540   1.463   6.498   3.917
 9547SOL    HW229541   1.304   6.530   3.907
 9548SOL     OW29542   5.796   5.635   5.077
 9548SOL    HW129543   5.730   5.560   5.069
 9548SOL    HW229544   5.758   5.717   5.035
 9549SOL     OW29545   3.547   5.247   0.338
 9549SOL    HW129546   3.591   5.265   0.250
 9549SOL    HW229547   3.471   5.311   0.352
 9550SOL     OW29548   0.382   1.761   0.176
 9550SOL    HW129549   0.287   1.775   0.202
 9550SOL    HW229550   0.436   1.738   0.257
 9551SOL     OW29551   0.408   0.069   4.704
 9551SOL    HW129552   0.399   0.086   4.606
 9551SOL    HW229553   0.356   0.137   4.755
 9552SOL     OW29554   1.375   6.802   3.284
 9552SOL    HW129555   1.299   6.807   3.348
 9552SOL    HW229556   1.359   6.728   3.219
 9553SOL     OW29557   5.833   4.588   6.541
 9553SOL    HW129558   5.800   4.533   6.617
 9553SOL    HW229559   5.766   4.659   6.519
 9554SOL     OW29560   2.735   0.773   2.442
 9554SOL    HW129561   2.641   0.740   2.451
 9554SOL    HW229562   2.755   0.793   2.347
 9555SOL     OW29563   6.417   2.452   0.942
 9555SOL    HW129564   6.438   2.549   0.946
 9555SOL    HW229565   6.500   2.400   0.921
 9556SOL     OW29566   2.047   0.781   1.050
 9556SOL    HW129567   2.058   0.868   1.002
 9556SOL    HW229568   2.066   0.794   1.148
 9557SOL     OW29569   6.383   0.518   2.406
 9557SOL    HW129570   6.323   0.507   2.327
 9557SOL    HW229571   6.442   0.437   2.414
 9558SOL     OW29572   0.146   4.702   2.863
 9558SOL    HW129573   0.234   4.730   2.826
 9558SOL    HW229574   0.154   4.690   2.962
 9559SOL     OW29575   0.324   3.107   2.228
 9559SOL    HW129576   0.363   3.052   2.154
 9559SOL    HW229577   0.387   3.183   2.250
 9560SOL     OW29578   2.740   1.483   3.558
 9560SOL    HW129579   2.831   1.477   3.516
 9560SOL    HW229580   2.714   1.394   3.594
 9561SOL     OW29581   3.254   6.725   0.779
 9561SOL    HW129582   3.270   6.741   0.681
 9561SOL    HW229583   3.172   6.775   0.807
 9562SOL     OW29584   4.596   5.635   2.937
 9562SOL    HW129585   4.617   5.542   2.966
 9562SOL    HW229586   4.560   5.687   3.015
 9563SOL     OW29587   0.211   6.230   6.293
 9563SOL    HW129588   0.209   6.323   6.328
 9563SOL    HW229589   0.196   6.231   6.194
 9564SOL     OW29590   2.985   6.921   6.682
 9564SOL    HW129591   2.911   6.890   6.622
 9564SOL    HW229592   3.072   6.913   6.635
 9565SOL     OW29593   3.766   6.061   4.443
 9565SOL    HW129594   3.686   6.082   4.499
 9565SOL    HW229595   3.747   6.082   4.347
 9566SOL     OW29596   2.779   4.332   5.706
 9566SOL    HW129597   2.831   4.327   5.621
 9566SOL    HW229598   2.803   4.254   5.764
 9567SOL     OW29599   6.416   5.845   6.423
 9567SOL    HW129600   6.463   5.917   6.372
 9567SOL    HW229601   6.465   5.828   6.509
 9568SOL     OW29602   5.678   3.903   6.586
 9568SOL    HW129603   5.611   3.836   6.619
 9568SOL    HW229604   5.745   3.857   6.527
 9569SOL     OW29605   6.231   1.306   7.020
 9569SOL    HW129606   6.275   1.231   6.971
 9569SOL    HW229607   6.299   1.353   0.052
 9570SOL     OW29608   0.021   1.412   0.983
 9570SOL    HW129609   0.115   1.380   0.989
 9570SOL    HW229610   7.005   1.380   0.897
 9571SOL     OW29611   1.934   3.334   0.163
 9571SOL    HW129612   2.026   3.372   0.168
 9571SOL    HW229613   1.903   3.310   0.256
 9572SOL     OW29614   1.496   4.151   1.639
 9572SOL    HW129615   1.435   4.203   1.697
 9572SOL    HW229616   1.444   4.107   1.566
 9573SOL     OW29617   1.700   1.299   0.122
 9573SOL    HW129618   1.701   1.344   0.033
 9573SOL    HW229619   1.606   1.295   0.156
 9574SOL     OW29620   3.632   3.437   5.389
 9574SOL    HW129621   3.579   3.352   5.396
 9574SOL    HW229622   3.729   3.417   5.402
 9575SOL     OW29623   5.272   0.751   1.913
 9575SOL    HW129624   5.278   0.782   2.008
 9575SOL    HW229625   5.177   0.736   1.888
 9576SOL     OW29626   3.008   1.593   4.542
 9576SOL    HW129627   2.918   1.634   4.530
 9576SOL    HW229628   3.041   1.613   4.634
 9577SOL     OW29629   0.414   5.987   2.673
 9577SOL    HW129630   0.398   5.891   2.696
 9577SOL    HW229631   0.480   6.026   2.737
 9578SOL     OW29632   6.471   2.589   2.098
 9578SOL    HW129633   6.436   2.503   2.137
 9578SOL    HW229634   6.446   2.665   2.157
 9579SOL     OW29635   1.580   6.979   1.715
 9579SOL    HW129636   1.571   6.975   1.814
 9579SOL    HW229637   1.570   0.049   1.684
 9580SOL     OW29638   4.072   3.856   7.004
 9580SOL    HW129639   4.146   3.835   0.044
 9580SOL    HW229640   3.984   3.846   0.027
 9581SOL     OW29641   1.061   5.190   6.166
 9581SOL    HW129642   1.011   5.257   6.220
 9581SOL    HW229643   1.004   5.109   6.152
 9582SOL     OW29644   4.113   4.810   4.332
 9582SOL    HW129645   4.189   4.875   4.320
 9582SOL    HW229646   4.064   4.801   4.245
 9583SOL     OW29647   2.055   3.622   2.167
 9583SOL    HW129648   2.088   3.573   2.247
 9583SOL    HW229649   2.107   3.593   2.086
 9584SOL     OW29650   6.159   5.244   6.841
 9584SOL    HW129651   6.205   5.218   6.926
 9584SOL    HW229652   6.121   5.336   6.850
 9585SOL     OW29653   6.221   0.106   3.328
 9585SOL    HW129654   6.129   0.081   3.299
 9585SOL    HW229655   6.260   0.032   3.383
 9586SOL     OW29656   5.036   3.446   3.236
 9586SOL    HW129657   5.005   3.475   3.327
 9586SOL    HW229658   5.026   3.522   3.172
 9587SOL     OW29659   5.562   0.335   2.137
 9587SOL    HW129660   5.533   0.430   2.149
 9587SOL    HW229661   5.517   0.296   2.056
 9588SOL     OW29662   0.511   0.649   1.536
 9588SOL    HW129663   0.594   0.607   1.498
 9588SOL    HW229664   0.462   0.581   1.591
 9589SOL     OW29665   2.680   0.246   5.986
 9589SOL    HW129666   2.755   0.283   5.930
 9589SOL    HW229667   2.710   0.163   6.032
 9590SOL     OW29668   6.874   4.157   3.108
 9590SOL    HW129669   6.881   4.209   3.193
 9590SOL    HW229670   6.952   4.094   3.101
 9591SOL     OW29671   2.469   5.494   0.919
 9591SOL    HW129672   2.498   5.575   0.869
 9591SOL    HW229673   2.373   5.505   0.947
 9592SOL     OW29674   4.470   5.649   2.304
 9592SOL    HW129675   4.422   5.582   2.360
 9592SOL    HW229676   4.425   5.738   2.312
 9593SOL     OW29677   6.583   2.661   4.737
 9593SOL    HW129678   6.581   2.598   4.660
 9593SOL    HW229679   6.640   2.623   4.810
 9594SOL     OW29680   6.425   6.767   2.196
 9594SOL    HW129681   6.462   6.717   2.118
 9594SOL    HW229682   6.408   6.703   2.271
 9595SOL     OW29683   2.138   5.892   4.463
 9595SOL    HW129684   2.082   5.957   4.411
 9595SOL    HW229685   2.103   5.885   4.557
 9596SOL     OW29686   5.859   5.791   5.638
 9596SOL    HW129687   5.920   5.828   5.708
 9596SOL    HW229688   5.787   5.736   5.682
 9597SOL     OW29689   1.207   4.010   1.717
 9597SOL    HW129690   1.202   4.110   1.727
 9597SOL    HW229691   1.295   3.977   1.752
 9598SOL     OW29692   0.155   4.832   5.953
 9598SOL    HW129693   0.072   4.798   5.909
 9598SOL    HW229694   0.172   4.780   6.037
 9599SOL     OW29695   4.135   0.822   5.779
 9599SOL    HW129696   4.189   0.813   5.695
 9599SOL    HW229697   4.076   0.903   5.773
 9600SOL     OW29698   1.443   6.842   6.147
 9600SOL    HW129699   1.461   6.801   6.237
 9600SOL    HW229700   1.382   6.782   6.095
 9601SOL     OW29701   0.442   4.757   5.390
 9601SOL    HW129702   0.509   4.692   5.353
 9601SOL    HW229703   0.429   4.739   5.488
 9602SOL     OW29704   0.933   5.675   6.877
 9602SOL    HW129705   1.019   5.713   6.912
 9602SOL    HW229706   0.924   5.580   6.907
 9603SOL     OW29707   1.856   6.347   4.640
 9603SOL    HW129708   1.953   6.368   4.655
 9603SOL    HW229709   1.848   6.279   4.566
 9604SOL     OW29710   5.569   1.332   6.758
 9604SOL    HW129711   5.595   1.386   6.679
 9604SOL    HW229712   5.469   1.319   6.758
 9605SOL     OW29713   2.047   5.945   6.312
 9605SOL    HW129714   2.065   6.014   6.243
 9605SOL    HW229715   1.950   5.919   6.309
 9606SOL     OW29716   0.366   6.352   3.952
 9606SOL    HW129717   0.434   6.421   3.977
 9606SOL    HW229718   0.402   6.295   3.879
 9607SOL     OW29719   0.906   1.538   2.374
 9607SOL    HW129720   0.889   1.628   2.414
 9607SOL    HW229721   0.953   1.480   2.440
 9608SOL     OW29722   0.110   6.921   2.842
 9608SOL    HW129723   0.198   6.927   2.795
 9608SOL    HW229724   0.064   6.836   2.815
 9609SOL     OW29725   2.196   4.726   4.531
 9609SOL    HW129726   2.141   4.695   4.609
 9609SOL    HW229727   2.136   4.766   4.462
 9610SOL     OW29728   1.989   1.689   6.113
 9610SOL    HW129729   2.015   1.603   6.157
 9610SOL    HW229730   2.072   1.742   6.091
 9611SOL     OW29731   6.391   0.045   1.133
 9611SOL    HW129732   6.308   0.089   1.098
 9611SOL    HW229733   6.371   7.024   1.220
 9612SOL     OW29734   5.695   3.261   1.720
 9612SOL    HW129735   5.632   3.210   1.778
 9612SOL    HW229736   5.677   3.359   1.730
 9613SOL     OW29737   6.280   6.586   4.974
 9613SOL    HW129738   6.305   6.628   5.062
 9613SOL    HW229739   6.329   6.500   4.962
 9614SOL     OW29740   3.327   3.782   2.261
 9614SOL    HW129741   3.287   3.794   2.351
 9614SOL    HW229742   3.364   3.690   2.252
 9615SOL     OW29743   1.407   6.304   2.305
 9615SOL    HW129744   1.466   6.259   2.239
 9615SOL    HW229745   1.462   6.355   2.371
 9616SOL     OW29746   3.500   2.453   0.877
 9616SOL    HW129747   3.403   2.472   0.896
 9616SOL    HW229748   3.538   2.397   0.950
 9617SOL     OW29749   1.312   2.975   3.790
 9617SOL    HW129750   1.267   2.948   3.875
 9617SOL    HW229751   1.395   3.027   3.811
 9618SOL     OW29752   3.559   5.850   6.385
 9618SOL    HW129753   3.539   5.890   6.296
 9618SOL    HW229754   3.655   5.820   6.387
 9619SOL     OW29755   2.537   6.011   0.578
 9619SOL    HW129756   2.616   6.010   0.640
 9619SOL    HW229757   2.460   6.056   0.623
 9620SOL     OW29758   3.412   1.278   6.493
 9620SOL    HW129759   3.386   1.192   6.450
 9620SOL    HW229760   3.504   1.303   6.464
 9621SOL     OW29761   0.506   0.841   1.937
 9621SOL    HW129762   0.574   0.859   1.867
 9621SOL    HW229763   0.429   0.791   1.897
 9622SOL     OW29764   6.029   0.416   6.302
 9622SOL    HW129765   6.053   0.327   6.341
 9622SOL    HW229766   5.960   0.403   6.230
 9623SOL     OW29767   4.430   6.348   6.402
 9623SOL    HW129768   4.414   6.424   6.339
 9623SOL    HW229769   4.526   6.319   6.396
 9624SOL     OW29770   4.310   5.305   5.142
 9624SOL    HW129771   4.278   5.336   5.053
 9624SOL    HW229772   4.318   5.206   5.143
 9625SOL     OW29773   5.285   4.140   6.442
 9625SOL    HW129774   5.315   4.079   6.369
 9625SOL    HW229775   5.254   4.086   6.520
 9626SOL     OW29776   1.594   4.293   6.332
 9626SOL    HW129777   1.643   4.254   6.410
 9626SOL    HW229778   1.642   4.272   6.248
 9627SOL     OW29779   0.841   5.171   6.561
 9627SOL    HW129780   0.868   5.094   6.504
 9627SOL    HW229781   0.903   5.178   6.640
 9628SOL     OW29782   5.933   3.807   0.133
 9628SOL    HW129783   5.915   3.710   0.121
 9628SOL    HW229784   5.987   3.821   0.217
 9629SOL     OW29785   6.888   5.685   2.871
 9629SOL    HW129786   6.956   5.611   2.879
 9629SOL    HW229787   6.888   5.720   2.777
 9630SOL     OW29788   6.379   6.235   5.591
 9630SOL    HW129789   6.450   6.195   5.533
 9630SOL    HW229790   6.350   6.323   5.553
 9631SOL     OW29791   4.324   1.196   0.752
 9631SOL    HW129792   4.277   1.278   0.783
 9631SOL    HW229793   4.337   1.201   0.653
 9632SOL     OW29794   3.346   6.378   1.293
 9632SOL    HW129795   3.295   6.291   1.293
 9632SOL    HW229796   3.282   6.454   1.304
 9633SOL     OW29797   3.946   3.139   2.253
 9633SOL    HW129798   3.911   3.045   2.255
 9633SOL    HW229799   3.878   3.200   2.292
 9634SOL     OW29800   5.249   4.846   2.550
 9634SOL    HW129801   5.261   4.938   2.586
 9634SOL    HW229802   5.160   4.810   2.579
 9635SOL     OW29803   1.211   4.116   3.739
 9635SOL    HW129804   1.112   4.114   3.725
 9635SOL    HW229805   1.231   4.082   3.831
 9636SOL     OW29806   4.426   2.042   4.949
 9636SOL    HW129807   4.494   2.113   4.927
 9636SOL    HW229808   4.472   1.956   4.968
 9637SOL     OW29809   2.356   2.843   0.832
 9637SOL    HW129810   2.424   2.884   0.770
 9637SOL    HW229811   2.327   2.755   0.795
 9638SOL     OW29812   0.094   4.689   5.671
 9638SOL    HW129813   0.106   4.604   5.723
 9638SOL    HW229814   7.023   4.699   5.643
 9639SOL     OW29815   4.518   1.896   1.864
 9639SOL    HW129816   4.605   1.945   1.853
 9639SOL    HW229817   4.469   1.896   1.777
 9640SOL     OW29818   3.554   0.672   2.373
 9640SOL    HW129819   3.518   0.636   2.459
 9640SOL    HW229820   3.517   0.764   2.358
 9641SOL     OW29821   6.131   4.555   2.681
 9641SOL    HW129822   6.120   4.632   2.744
 9641SOL    HW229823   6.041   4.515   2.663
 9642SOL     OW29824   1.714   0.606   3.639
 9642SOL    HW129825   1.707   0.692   3.587
 9642SOL    HW229826   1.790   0.552   3.604
 9643SOL     OW29827   5.158   4.016   3.992
 9643SOL    HW129828   5.130   4.070   3.912
 9643SOL    HW229829   5.244   3.969   3.971
 9644SOL     OW29830   1.377   5.671   4.979
 9644SOL    HW129831   1.388   5.574   4.999
 9644SOL    HW229832   1.462   5.708   4.941
 9645SOL     OW29833   1.696   5.383   5.897
 9645SOL    HW129834   1.750   5.378   5.981
 9645SOL    HW229835   1.617   5.323   5.906
 9646SOL     OW29836   3.083   6.789   5.548
 9646SOL    HW129837   3.030   6.864   5.587
 9646SOL    HW229838   3.162   6.826   5.499
 9647SOL     OW29839   6.294   6.028   3.281
 9647SOL    HW129840   6.214   5.973   3.308
 9647SOL    HW229841   6.288   6.119   3.323
 9648SOL     OW29842   4.587   1.891   1.268
 9648SOL    HW129843   4.591   1.854   1.175
 9648SOL    HW229844   4.556   1.986   1.264
 9649SOL     OW29845   2.704   3.367   0.659
 9649SOL    HW129846   2.789   3.416   0.675
 9649SOL    HW229847   2.629   3.432   0.646
 9650SOL     OW29848   6.851   4.841   4.052
 9650SOL    HW129849   6.950   4.857   4.050
 9650SOL    HW229850   6.809   4.883   3.972
 9651SOL     OW29851   2.708   1.706   0.194
 9651SOL    HW129852   2.726   1.663   0.105
 9651SOL    HW229853   2.703   1.636   0.265
 9652SOL     OW29854   0.110   3.662   1.047
 9652SOL    HW129855   0.192   3.620   1.085
 9652SOL    HW229856   0.071   3.726   1.114
 9653SOL     OW29857   4.776   3.804   6.162
 9653SOL    HW129858   4.770   3.764   6.253
 9653SOL    HW229859   4.848   3.874   6.161
 9654SOL     OW29860   3.417   3.157   3.299
 9654SOL    HW129861   3.483   3.226   3.331
 9654SOL    HW229862   3.422   3.077   3.358
 9655SOL     OW29863   5.530   0.628   2.161
 9655SOL    HW129864   5.613   0.681   2.176
 9655SOL    HW229865   5.450   0.681   2.191
 9656SOL     OW29866   5.926   3.762   0.993
 9656SOL    HW129867   5.917   3.838   0.930
 9656SOL    HW229868   6.000   3.702   0.963
 9657SOL     OW29869   5.893   3.662   3.606
 9657SOL    HW129870   5.855   3.753   3.624
 9657SOL    HW229871   5.894   3.646   3.508
 9658SOL     OW29872   4.824   1.597   2.655
 9658SOL    HW129873   4.832   1.611   2.557
 9658SOL    HW229874   4.746   1.650   2.690
 9659SOL     OW29875   3.238   2.468   0.969
 9659SOL    HW129876   3.152   2.428   1.000
 9659SOL    HW229877   3.283   2.514   1.046
 9660SOL     OW29878   1.125   5.872   0.793
 9660SOL    HW129879   1.127   5.920   0.706
 9660SOL    HW229880   1.188   5.915   0.857
 9661SOL     OW29881   5.240   4.907   1.029
 9661SOL    HW129882   5.290   4.835   0.982
 9661SOL    HW229883   5.149   4.917   0.988
 9662SOL     OW29884   5.171   4.546   6.986
 9662SOL    HW129885   5.186   4.456   6.945
 9662SOL    HW229886   5.240   4.562   0.033
 9663SOL     OW29887   0.925   4.231   3.415
 9663SOL    HW129888   0.856   4.237   3.486
 9663SOL    HW229889   0.993   4.162   3.441
 9664SOL     OW29890   5.318   3.983   3.351
 9664SOL    HW129891   5.357   3.979   3.259
 9664SOL    HW229892   5.382   4.031   3.411
 9665SOL     OW29893   6.305   6.455   6.663
 9665SOL    HW129894   6.212   6.423   6.643
 9665SOL    HW229895   6.305   6.554   6.677
 9666SOL     OW29896   6.152   4.501   1.123
 9666SOL    HW129897   6.067   4.457   1.152
 9666SOL    HW229898   6.216   4.431   1.090
 9667SOL     OW29899   5.023   5.546   1.038
 9667SOL    HW129900   5.110   5.532   1.085
 9667SOL    HW229901   4.959   5.474   1.066
 9668SOL     OW29902   1.404   6.270   5.838
 9668SOL    HW129903   1.329   6.211   5.867
 9668SOL    HW229904   1.478   6.214   5.801
 9669SOL     OW29905   2.763   6.837   0.443
 9669SOL    HW129906   2.795   6.920   0.398
 9669SOL    HW229907   2.692   6.861   0.510
 9670SOL     OW29908   0.319   0.452   5.852
 9670SOL    HW129909   0.241   0.514   5.864
 9670SOL    HW229910   0.324   0.389   5.930
 9671SOL     OW29911   0.810   4.828   6.639
 9671SOL    HW129912   0.874   4.832   6.716
 9671SOL    HW229913   0.845   4.884   6.564
 9672SOL     OW29914   0.868   4.199   4.174
 9672SOL    HW129915   0.785   4.253   4.183
 9672SOL    HW229916   0.938   4.234   4.236
 9673SOL     OW29917   2.872   4.117   1.555
 9673SOL    HW129918   2.868   4.095   1.458
 9673SOL    HW229919   2.784   4.157   1.583
 9674SOL     OW29920   3.433   6.347   2.891
 9674SOL    HW129921   3.431   6.367   2.989
 9674SOL    HW229922   3.440   6.432   2.839
 9675SOL     OW29923   4.648   3.889   1.162
 9675SOL    HW129924   4.689   3.823   1.226
 9675SOL    HW229925   4.695   3.976   1.170
 9676SOL     OW29926   1.299   3.112   6.150
 9676SOL    HW129927   1.295   3.050   6.072
 9676SOL    HW229928   1.223   3.177   6.144
 9677SOL     OW29929   6.276   4.900   0.428
 9677SOL    HW129930   6.227   4.839   0.491
 9677SOL    HW229931   6.341   4.847   0.374
 9678SOL     OW29932   3.289   3.859   4.759
 9678SOL    HW129933   3.195   3.876   4.790
 9678SOL    HW229934   3.288   3.819   4.668
 9679SOL     OW29935   2.302   1.848   4.380
 9679SOL    HW129936   2.355   1.814   4.302
 9679SOL    HW229937   2.229   1.783   4.401
 9680SOL     OW29938   4.398   6.288   3.363
 9680SOL    HW129939   4.299   6.285   3.382
 9680SOL    HW229940   4.433   6.379   3.383
 9681SOL     OW29941   2.108   0.894   1.291
 9681SOL    HW129942   2.019   0.890   1.335
 9681SOL    HW229943   2.130   0.989   1.269
 9682SOL     OW29944   5.461   5.258   4.604
 9682SOL    HW129945   5.416   5.332   4.653
 9682SOL    HW229946   5.404   5.229   4.527
 9683SOL     OW29947   1.662   6.545   0.672
 9683SOL    HW129948   1.680   6.638   0.701
 9683SOL    HW229949   1.597   6.502   0.735
 9684SOL     OW29950   1.816   4.124   5.414
 9684SOL    HW129951   1.771   4.072   5.341
 9684SOL    HW229952   1.888   4.181   5.374
 9685SOL     OW29953   4.428   3.703   0.838
 9685SOL    HW129954   4.352   3.728   0.777
 9685SOL    HW229955   4.477   3.625   0.800
 9686SOL     OW29956   6.282   2.143   6.492
 9686SOL    HW129957   6.304   2.133   6.589
 9686SOL    HW229958   6.230   2.228   6.479
 9687SOL     OW29959   6.389   0.239   1.978
 9687SOL    HW129960   6.289   0.242   1.984
 9687SOL    HW229961   6.422   0.152   2.013
 9688SOL     OW29962   1.710   4.597   1.289
 9688SOL    HW129963   1.714   4.697   1.285
 9688SOL    HW229964   1.626   4.569   1.336
 9689SOL     OW29965   1.206   6.274   6.751
 9689SOL    HW129966   1.209   6.369   6.782
 9689SOL    HW229967   1.295   6.247   6.715
 9690SOL     OW29968   5.155   5.455   4.686
 9690SOL    HW129969   5.202   5.444   4.599
 9690SOL    HW229970   5.214   5.422   4.760
 9691SOL     OW29971   3.048   4.053   2.063
 9691SOL    HW129972   2.999   3.981   2.014
 9691SOL    HW229973   3.016   4.143   2.032
 9692SOL     OW29974   4.175   4.949   6.725
 9692SOL    HW129975   4.092   4.945   6.781
 9692SOL    HW229976   4.247   4.894   6.768
 9693SOL     OW29977   6.037   3.912   3.878
 9693SOL    HW129978   6.039   3.896   3.977
 9693SOL    HW229979   5.964   3.859   3.836
 9694SOL     OW29980   2.896   6.796   2.066
 9694SOL    HW129981   2.891   6.704   2.029
 9694SOL    HW229982   2.840   6.858   2.012
 9695SOL     OW29983   0.072   4.029   3.830
 9695SOL    HW129984   0.118   4.046   3.742
 9695SOL    HW229985   0.010   4.104   3.850
 9696SOL     OW29986   6.115   1.983   2.958
 9696SOL    HW129987   6.095   1.936   2.873
 9696SOL    HW229988   6.052   2.060   2.970
 9697SOL     OW29989   0.340   5.861   0.245
 9697SOL    HW129990   0.374   5.832   0.334
 9697SOL    HW229991   0.262   5.922   0.257
 9698SOL     OW29992   5.368   3.781   0.337
 9698SOL    HW129993   5.279   3.822   0.360
 9698SOL    HW229994   5.355   3.685   0.313
 9699SOL     OW29995   1.252   5.135   0.368
 9699SOL    HW129996   1.306   5.150   0.286
 9699SOL    HW229997   1.174   5.198   0.368
 9700SOL     OW29998   5.824   6.539   4.059
 9700SOL    HW129999   5.754   6.517   3.990
 9700SOL    HW230000   5.803   6.627   4.100
 9701SOL     OW30001   4.850   2.843   6.893
 9701SOL    HW130002   4.810   2.763   6.849
 9701SOL    HW230003   4.783   2.884   6.956
 9702SOL     OW30004   3.440   3.037   0.618
 9702SOL    HW130005   3.440   2.961   0.683
 9702SOL    HW230006   3.352   3.084   0.621
 9703SOL     OW30007   6.112   4.079   4.941
 9703SOL    HW130008   6.023   4.113   4.970
 9703SOL    HW230009   6.176   4.155   4.933
 9704SOL     OW30010   3.162   4.900   2.532
 9704SOL    HW130011   3.108   4.855   2.461
 9704SOL    HW230012   3.259   4.879   2.518
 9705SOL     OW30013   5.887   4.166   5.467
 9705SOL    HW130014   5.975   4.169   5.419
 9705SOL    HW230015   5.896   4.110   5.549
 9706SOL     OW30016   1.201   1.573   2.224
 9706SOL    HW130017   1.179   1.536   2.315
 9706SOL    HW230018   1.120   1.569   2.166
 9707SOL     OW30019   6.044   4.904   2.332
 9707SOL    HW130020   5.963   4.962   2.324
 9707SOL    HW230021   6.024   4.813   2.295
 9708SOL     OW30022   1.630   1.168   2.566
 9708SOL    HW130023   1.711   1.117   2.594
 9708SOL    HW230024   1.548   1.115   2.586
 9709SOL     OW30025   5.946   3.089   2.630
 9709SOL    HW130026   5.944   3.022   2.704
 9709SOL    HW230027   5.911   3.176   2.664
 9710SOL     OW30028   6.447   6.649   6.389
 9710SOL    HW130029   6.495   6.607   6.312
 9710SOL    HW230030   6.511   6.667   6.464
 9711SOL     OW30031   3.799   6.461   6.561
 9711SOL    HW130032   3.826   6.477   6.467
 9711SOL    HW230033   3.877   6.426   6.613
 9712SOL     OW30034   5.910   3.161   0.786
 9712SOL    HW130035   5.938   3.158   0.882
 9712SOL    HW230036   5.892   3.069   0.753
 9713SOL     OW30037   1.860   6.351   3.443
 9713SOL    HW130038   1.779   6.325   3.494
 9713SOL    HW230039   1.856   6.448   3.421
 9714SOL     OW30040   3.751   5.417   4.795
 9714SOL    HW130041   3.848   5.441   4.783
 9714SOL    HW230042   3.700   5.498   4.823
 9715SOL     OW30043   6.256   4.671   1.339
 9715SOL    HW130044   6.230   4.615   1.260
 9715SOL    HW230045   6.258   4.767   1.311
 9716SOL     OW30046   4.179   4.238   6.836
 9716SOL    HW130047   4.149   4.250   6.931
 9716SOL    HW230048   4.233   4.154   6.829
 9717SOL     OW30049   4.584   0.456   6.123
 9717SOL    HW130050   4.605   0.388   6.054
 9717SOL    HW230051   4.493   0.494   6.105
 9718SOL     OW30052   3.407   2.082   0.140
 9718SOL    HW130053   3.482   2.127   0.188
 9718SOL    HW230054   3.414   2.100   0.042
 9719SOL     OW30055   4.947   6.256   4.751
 9719SOL    HW130056   5.022   6.249   4.817
 9719SOL    HW230057   4.964   6.333   4.689
 9720SOL     OW30058   1.689   4.158   2.508
 9720SOL    HW130059   1.771   4.127   2.462
 9720SOL    HW230060   1.712   4.234   2.570
 9721SOL     OW30061   0.706   1.725   0.623
 9721SOL    HW130062   0.649   1.742   0.704
 9721SOL    HW230063   0.764   1.645   0.640
 9722SOL     OW30064   3.474   2.381   5.766
 9722SOL    HW130065   3.512   2.333   5.688
 9722SOL    HW230066   3.393   2.432   5.738
 9723SOL     OW30067   6.146   4.768   4.603
 9723SOL    HW130068   6.221   4.829   4.577
 9723SOL    HW230069   6.161   4.734   4.696
 9724SOL     OW30070   1.844   5.563   6.799
 9724SOL    HW130071   1.931   5.600   6.833
 9724SOL    HW230072   1.822   5.606   6.711
 9725SOL     OW30073   4.045   5.515   5.318
 9725SOL    HW130074   4.016   5.597   5.269
 9725SOL    HW230075   4.081   5.448   5.254
 9726SOL     OW30076   5.546   0.892   4.467
 9726SOL    HW130077   5.551   0.899   4.368
 9726SOL    HW230078   5.480   0.959   4.502
 9727SOL     OW30079   0.033   2.394   0.045
 9727SOL    HW130080   6.984   2.325   0.045
 9727SOL    HW230081   0.049   2.425   0.139
 9728SOL     OW30082   5.930   0.877   5.978
 9728SOL    HW130083   5.921   0.917   5.887
 9728SOL    HW230084   5.995   0.802   5.976
 9729SOL     OW30085   1.072   3.996   3.485
 9729SOL    HW130086   1.070   3.957   3.393
 9729SOL    HW230087   1.153   3.963   3.534
 9730SOL     OW30088   0.716   4.374   3.928
 9730SOL    HW130089   0.685   4.415   4.013
 9730SOL    HW230090   0.716   4.274   3.937
 9731SOL     OW30091   5.109   3.808   2.519
 9731SOL    HW130092   5.064   3.763   2.442
 9731SOL    HW230093   5.107   3.907   2.506
 9732SOL     OW30094   1.288   3.001   2.222
 9732SOL    HW130095   1.201   3.025   2.177
 9732SOL    HW230096   1.358   3.068   2.196
 9733SOL     OW30097   6.250   5.725   2.852
 9733SOL    HW130098   6.282   5.711   2.758
 9733SOL    HW230099   6.329   5.739   2.912
 9734SOL     OW30100   6.565   6.664   6.868
 9734SOL    HW130101   6.636   6.687   6.934
 9734SOL    HW230102   6.535   6.570   6.883
 9735SOL     OW30103   1.380   2.127   3.657
 9735SOL    HW130104   1.357   2.153   3.751
 9735SOL    HW230105   1.469   2.081   3.657
 9736SOL     OW30106   4.584   2.274   5.691
 9736SOL    HW130107   4.645   2.298   5.615
 9736SOL    HW230108   4.621   2.195   5.740
 9737SOL     OW30109   5.726   1.942   2.578
 9737SOL    HW130110   5.740   2.013   2.509
 9737SOL    HW230111   5.665   1.872   2.541
 9738SOL     OW30112   1.872   6.456   0.215
 9738SOL    HW130113   1.901   6.544   0.176
 9738SOL    HW230114   1.926   6.382   0.176
 9739SOL     OW30115   4.526   6.615   6.865
 9739SOL    HW130116   4.551   6.703   6.825
 9739SOL    HW230117   4.454   6.572   6.811
 9740SOL     OW30118   5.663   1.022   2.357
 9740SOL    HW130119   5.667   1.115   2.321
 9740SOL    HW230120   5.651   1.025   2.456
 9741SOL     OW30121   3.039   0.992   4.236
 9741SOL    HW130122   2.990   0.946   4.163
 9741SOL    HW230123   3.045   1.090   4.216
 9742SOL     OW30124   4.403   1.450   6.554
 9742SOL    HW130125   4.370   1.420   6.465
 9742SOL    HW230126   4.397   1.374   6.619
 9743SOL     OW30127   0.435   2.965   3.558
 9743SOL    HW130128   0.368   2.944   3.488
 9743SOL    HW230129   0.407   3.048   3.607
 9744SOL     OW30130   1.945   7.022   2.534
 9744SOL    HW130131   2.042   7.002   2.521
 9744SOL    HW230132   1.928   0.095   2.521
 9745SOL     OW30133   5.783   1.525   5.921
 9745SOL    HW130134   5.728   1.606   5.899
 9745SOL    HW230135   5.877   1.539   5.891
 9746SOL     OW30136   4.844   6.510   6.970
 9746SOL    HW130137   4.760   6.495   7.022
 9746SOL    HW230138   4.861   6.609   6.963
 9747SOL     OW30139   2.538   1.735   1.889
 9747SOL    HW130140   2.476   1.813   1.876
 9747SOL    HW230141   2.624   1.767   1.929
 9748SOL     OW30142   0.041   0.346   3.042
 9748SOL    HW130143   0.134   0.330   3.075
 9748SOL    HW230144   0.017   0.276   2.975
 9749SOL     OW30145   0.607   2.312   2.255
 9749SOL    HW130146   0.609   2.321   2.155
 9749SOL    HW230147   0.513   2.325   2.288
 9750SOL     OW30148   6.390   4.730   4.003
 9750SOL    HW130149   6.320   4.752   3.935
 9750SOL    HW230150   6.364   4.771   4.091
 9751SOL     OW30151   2.413   0.350   1.212
 9751SOL    HW130152   2.329   0.367   1.264
 9751SOL    HW230153   2.403   0.388   1.120
 9752SOL     OW30154   4.384   2.389   6.790
 9752SOL    HW130155   4.432   2.355   6.709
 9752SOL    HW230156   4.338   2.312   6.835
 9753SOL     OW30157   1.139   5.681   5.986
 9753SOL    HW130158   1.105   5.625   5.910
 9753SOL    HW230159   1.171   5.622   6.060
 9754SOL     OW30160   3.860   0.673   0.734
 9754SOL    HW130161   3.790   0.627   0.788
 9754SOL    HW230162   3.938   0.611   0.720
 9755SOL     OW30163   3.189   4.084   4.996
 9755SOL    HW130164   3.264   4.082   4.930
 9755SOL    HW230165   3.219   4.130   5.079
 9756SOL     OW30166   5.753   1.355   6.204
 9756SOL    HW130167   5.770   1.298   6.123
 9756SOL    HW230168   5.735   1.449   6.175
 9757SOL     OW30169   5.797   4.113   4.243
 9757SOL    HW130170   5.709   4.111   4.290
 9757SOL    HW230171   5.797   4.186   4.175
 9758SOL     OW30172   1.158   1.138   0.573
 9758SOL    HW130173   1.102   1.148   0.656
 9758SOL    HW230174   1.135   1.212   0.510
 9759SOL     OW30175   0.818   1.537   0.235
 9759SOL    HW130176   0.876   1.471   0.187
 9759SOL    HW230177   0.805   1.507   0.330
 9760SOL     OW30178   4.854   2.396   6.982
 9760SOL    HW130179   4.877   2.312   6.934
 9760SOL    HW230180   4.889   2.475   6.930
 9761SOL     OW30181   1.338   1.190   2.074
 9761SOL    HW130182   1.413   1.235   2.024
 9761SOL    HW230183   1.374   1.147   2.156
 9762SOL     OW30184   2.793   1.787   4.555
 9762SOL    HW130185   2.705   1.763   4.597
 9762SOL    HW230186   2.794   1.756   4.460
 9763SOL     OW30187   6.436   1.715   2.655
 9763SOL    HW130188   6.508   1.649   2.677
 9763SOL    HW230189   6.427   1.722   2.555
 9764SOL     OW30190   5.779   2.753   2.456
 9764SOL    HW130191   5.777   2.847   2.489
 9764SOL    HW230192   5.722   2.695   2.514
 9765SOL     OW30193   6.114   1.355   2.300
 9765SOL    HW130194   6.035   1.296   2.281
 9765SOL    HW230195   6.087   1.428   2.364
 9766SOL     OW30196   2.827   0.437   3.516
 9766SOL    HW130197   2.727   0.435   3.519
 9766SOL    HW230198   2.864   0.370   3.581
 9767SOL     OW30199   2.537   3.076   6.022
 9767SOL    HW130200   2.552   3.090   5.924
 9767SOL    HW230201   2.529   2.979   6.041
 9768SOL     OW30202   5.554   2.657   0.672
 9768SOL    HW130203   5.550   2.622   0.766
 9768SOL    HW230204   5.557   2.757   0.675
 9769SOL     OW30205   3.441   0.917   5.666
 9769SOL    HW130206   3.348   0.918   5.628
 9769SOL    HW230207   3.496   0.986   5.620
 9770SOL     OW30208   3.424   2.130   6.097
 9770SOL    HW130209   3.414   2.030   6.095
 9770SOL    HW230210   3.494   2.157   6.031
 9771SOL     OW30211   2.454   6.788   1.721
 9771SOL    HW130212   2.381   6.854   1.738
 9771SOL    HW230213   2.436   6.704   1.772
 9772SOL     OW30214   1.528   6.036   1.868
 9772SOL    HW130215   1.576   6.099   1.806
 9772SOL    HW230216   1.431   6.034   1.844
 9773SOL     OW30217   5.971   5.243   3.096
 9773SOL    HW130218   5.876   5.216   3.079
 9773SOL    HW230219   6.024   5.163   3.125
 9774SOL     OW30220   1.122   5.399   3.399
 9774SOL    HW130221   1.107   5.306   3.433
 9774SOL    HW230222   1.043   5.427   3.343
 9775SOL     OW30223   2.948   0.848   3.249
 9775SOL    HW130224   3.034   0.807   3.279
 9775SOL    HW230225   2.932   0.823   3.153
 9776SOL     OW30226   1.801   5.283   6.393
 9776SOL    HW130227   1.706   5.252   6.389
 9776SOL    HW230228   1.859   5.210   6.431
 9777SOL     OW30229   5.218   6.709   6.415
 9777SOL    HW130230   5.297   6.658   6.379
 9777SOL    HW230231   5.231   6.806   6.396
 9778SOL     OW30232   0.318   1.788   4.887
 9778SOL    HW130233   0.326   1.804   4.789
 9778SOL    HW230234   0.310   1.876   4.935
 9779SOL     OW30235   0.645   2.456   3.552
 9779SOL    HW130236   0.623   2.358   3.550
 9779SOL    HW230237   0.743   2.469   3.543
 9780SOL     OW30238   1.657   1.487   1.533
 9780SOL    HW130239   1.709   1.504   1.450
 9780SOL    HW230240   1.572   1.438   1.511
 9781SOL     OW30241   1.459   3.801   4.115
 9781SOL    HW130242   1.389   3.745   4.069
 9781SOL    HW230243   1.521   3.741   4.166
 9782SOL     OW30244   0.312   2.323   0.908
 9782SOL    HW130245   0.296   2.374   0.993
 9782SOL    HW230246   0.225   2.312   0.860
 9783SOL     OW30247   4.167   1.873   3.192
 9783SOL    HW130248   4.201   1.906   3.104
 9783SOL    HW230249   4.070   1.852   3.185
 9784SOL     OW30250   3.107   0.896   6.372
 9784SOL    HW130251   3.013   0.927   6.358
 9784SOL    HW230252   3.116   0.857   6.463
 9785SOL     OW30253   6.709   2.325   4.727
 9785SOL    HW130254   6.688   2.378   4.809
 9785SOL    HW230255   6.747   2.386   4.657
 9786SOL     OW30256   3.047   4.582   1.101
 9786SOL    HW130257   2.983   4.538   1.164
 9786SOL    HW230258   3.106   4.512   1.060
 9787SOL     OW30259   3.594   3.420   4.013
 9787SOL    HW130260   3.573   3.505   4.061
 9787SOL    HW230261   3.679   3.382   4.050
 9788SOL     OW30262   0.911   5.516   2.028
 9788SOL    HW130263   0.972   5.549   1.955
 9788SOL    HW230264   0.933   5.565   2.113
 9789SOL     OW30265   3.106   6.882   6.935
 9789SOL    HW130266   3.090   6.798   6.986
 9789SOL    HW230267   3.063   6.876   6.845
 9790SOL     OW30268   6.345   4.718   5.219
 9790SOL    HW130269   6.398   4.652   5.272
 9790SOL    HW230270   6.406   4.780   5.171
 9791SOL     OW30271   0.940   0.002   0.347
 9791SOL    HW130272   0.897   0.061   0.279
 9791SOL    HW230273   0.975   0.058   0.422
 9792SOL     OW30274   3.842   5.370   0.639
 9792SOL    HW130275   3.841   5.441   0.568
 9792SOL    HW230276   3.884   5.406   0.722
 9793SOL     OW30277   4.197   0.726   0.945
 9793SOL    HW130278   4.173   0.753   0.851
 9793SOL    HW230279   4.282   0.673   0.943
 9794SOL     OW30280   4.770   4.540   4.533
 9794SOL    HW130281   4.766   4.634   4.498
 9794SOL    HW230282   4.842   4.533   4.602
 9795SOL     OW30283   1.215   2.947   4.061
 9795SOL    HW130284   1.293   2.899   4.102
 9795SOL    HW230285   1.132   2.924   4.111
 9796SOL     OW30286   4.055   3.810   3.909
 9796SOL    HW130287   4.105   3.740   3.857
 9796SOL    HW230288   3.970   3.831   3.860
 9797SOL     OW30289   2.641   6.134   6.687
 9797SOL    HW130290   2.614   6.189   6.607
 9797SOL    HW230291   2.569   6.140   6.757
 9798SOL     OW30292   2.512   1.789   1.147
 9798SOL    HW130293   2.420   1.783   1.109
 9798SOL    HW230294   2.530   1.882   1.178
 9799SOL     OW30295   3.153   4.396   6.297
 9799SOL    HW130296   3.087   4.442   6.357
 9799SOL    HW230297   3.110   4.377   6.209
 9800SOL     OW30298   5.882   3.189   4.091
 9800SOL    HW130299   5.914   3.282   4.104
 9800SOL    HW230300   5.958   3.132   4.060
 9801SOL     OW30301   5.011   4.954   0.071
 9801SOL    HW130302   5.107   4.980   0.053
 9801SOL    HW230303   4.962   5.033   0.107
 9802SOL     OW30304   4.237   4.681   0.379
 9802SOL    HW130305   4.194   4.603   0.423
 9802SOL    HW230306   4.259   4.750   0.448
 9803SOL     OW30307   1.759   2.946   6.946
 9803SOL    HW130308   1.755   2.945   6.846
 9803SOL    HW230309   1.836   3.002   6.976
 9804SOL     OW30310   6.452   6.015   3.021
 9804SOL    HW130311   6.486   6.109   3.019
 9804SOL    HW230312   6.365   6.012   3.071
 9805SOL     OW30313   0.950   6.648   3.074
 9805SOL    HW130314   0.941   6.551   3.051
 9805SOL    HW230315   0.864   6.695   3.055
 9806SOL     OW30316   3.167   2.573   6.224
 9806SOL    HW130317   3.181   2.496   6.160
 9806SOL    HW230318   3.086   2.624   6.196
 9807SOL     OW30319   3.363   2.870   2.228
 9807SOL    HW130320   3.341   2.781   2.267
 9807SOL    HW230321   3.406   2.857   2.139
 9808SOL     OW30322   4.372   5.409   3.676
 9808SOL    HW130323   4.348   5.363   3.762
 9808SOL    HW230324   4.408   5.342   3.612
 9809SOL     OW30325   0.593   3.214   0.488
 9809SOL    HW130326   0.544   3.145   0.434
 9809SOL    HW230327   0.627   3.285   0.426
 9810SOL     OW30328   2.749   1.745   4.847
 9810SOL    HW130329   2.658   1.785   4.860
 9810SOL    HW230330   2.818   1.810   4.879
 9811SOL     OW30331   6.377   3.169   3.660
 9811SOL    HW130332   6.344   3.080   3.628
 9811SOL    HW230333   6.469   3.185   3.626
 9812SOL     OW30334   2.658   0.108   4.356
 9812SOL    HW130335   2.686   0.153   4.441
 9812SOL    HW230336   2.660   0.173   4.281
 9813SOL     OW30337   5.786   2.556   0.548
 9813SOL    HW130338   5.848   2.630   0.521
 9813SOL    HW230339   5.711   2.594   0.601
 9814SOL     OW30340   5.415   1.988   7.016
 9814SOL    HW130341   5.386   2.030   0.078
 9814SOL    HW230342   5.407   1.889   7.022
 9815SOL     OW30343   4.505   2.158   3.908
 9815SOL    HW130344   4.592   2.173   3.953
 9815SOL    HW230345   4.512   2.079   3.846
 9816SOL     OW30346   1.008   6.986   6.024
 9816SOL    HW130347   1.028   6.924   6.100
 9816SOL    HW230348   0.910   6.986   6.006
 9817SOL     OW30349   0.654   6.928   3.207
 9817SOL    HW130350   0.560   6.964   3.208
 9817SOL    HW230351   0.658   6.848   3.148
 9818SOL     OW30352   5.892   2.159   4.995
 9818SOL    HW130353   5.981   2.178   4.955
 9818SOL    HW230354   5.858   2.071   4.961
 9819SOL     OW30355   4.686   2.654   3.430
 9819SOL    HW130356   4.641   2.646   3.519
 9819SOL    HW230357   4.696   2.563   3.389
 9820SOL     OW30358   3.363   3.498   6.928
 9820SOL    HW130359   3.416   3.577   6.895
 9820SOL    HW230360   3.266   3.517   6.919
 9821SOL     OW30361   6.147   6.961   6.628
 9821SOL    HW130362   6.112   6.952   6.721
 9821SOL    HW230363   6.194   0.024   6.619
 9822SOL     OW30364   0.741   0.191   2.822
 9822SOL    HW130365   0.649   0.190   2.782
 9822SOL    HW230366   0.753   0.272   2.879
 9823SOL     OW30367   3.350   0.425   1.153
 9823SOL    HW130368   3.406   0.475   1.219
 9823SOL    HW230369   3.407   0.397   1.076
 9824SOL     OW30370   1.391   4.183   5.954
 9824SOL    HW130371   1.478   4.198   5.907
 9824SOL    HW230372   1.331   4.262   5.939
 9825SOL     OW30373   3.351   5.307   5.597
 9825SOL    HW130374   3.301   5.266   5.673
 9825SOL    HW230375   3.433   5.252   5.578
 9826SOL     OW30376   4.004   6.184   6.129
 9826SOL    HW130377   4.071   6.120   6.168
 9826SOL    HW230378   3.926   6.192   6.191
 9827SOL     OW30379   2.047   4.518   4.227
 9827SOL    HW130380   1.978   4.458   4.268
 9827SOL    HW230381   2.052   4.603   4.280
 9828SOL     OW30382   3.465   2.748   6.495
 9828SOL    HW130383   3.401   2.671   6.504
 9828SOL    HW230384   3.455   2.808   6.574
 9829SOL     OW30385   2.857   6.401   0.813
 9829SOL    HW130386   2.890   6.482   0.860
 9829SOL    HW230387   2.757   6.407   0.801
 9830SOL     OW30388   5.569   2.259   1.657
 9830SOL    HW130389   5.619   2.215   1.731
 9830SOL    HW230390   5.607   2.231   1.569
 9831SOL     OW30391   1.633   5.975   0.365
 9831SOL    HW130392   1.689   6.023   0.433
 9831SOL    HW230393   1.620   6.033   0.285
 9832SOL     OW30394   4.723   5.302   2.559
 9832SOL    HW130395   4.636   5.270   2.595
 9832SOL    HW230396   4.712   5.394   2.522
 9833SOL     OW30397   3.199   2.866   5.304
 9833SOL    HW130398   3.228   2.771   5.315
 9833SOL    HW230399   3.234   2.902   5.218
 9834SOL     OW30400   2.376   3.929   5.716
 9834SOL    HW130401   2.456   3.988   5.725
 9834SOL    HW230402   2.391   3.863   5.643
 9835SOL     OW30403   4.409   2.469   5.573
 9835SOL    HW130404   4.473   2.392   5.575
 9835SOL    HW230405   4.366   2.478   5.663
 9836SOL     OW30406   6.465   4.028   3.349
 9836SOL    HW130407   6.549   3.986   3.383
 9836SOL    HW230408   6.488   4.096   3.279
 9837SOL     OW30409   1.848   0.283   2.572
 9837SOL    HW130410   1.780   0.336   2.623
 9837SOL    HW230411   1.923   0.344   2.543
 9838SOL     OW30412   0.388   6.934   5.356
 9838SOL    HW130413   0.351   6.858   5.410
 9838SOL    HW230414   0.349   7.020   5.389
 9839SOL     OW30415   6.565   1.487   2.765
 9839SOL    HW130416   6.535   1.498   2.860
 9839SOL    HW230417   6.613   1.399   2.756
 9840SOL     OW30418   0.124   0.641   0.638
 9840SOL    HW130419   0.030   0.647   0.603
 9840SOL    HW230420   0.138   0.713   0.707
 9841SOL     OW30421   1.267   4.765   4.849
 9841SOL    HW130422   1.311   4.741   4.763
 9841SOL    HW230423   1.336   4.779   4.920
 9842SOL     OW30424   3.600   4.147   3.341
 9842SOL    HW130425   3.555   4.234   3.362
 9842SOL    HW230426   3.572   4.115   3.251
 9843SOL     OW30427   6.821   1.560   1.868
 9843SOL    HW130428   6.841   1.603   1.956
 9843SOL    HW230429   6.891   1.492   1.848
 9844SOL     OW30430   4.988   0.499   2.746
 9844SOL    HW130431   4.964   0.510   2.843
 9844SOL    HW230432   5.029   0.584   2.712
 9845SOL     OW30433   2.358   1.476   4.836
 9845SOL    HW130434   2.337   1.541   4.910
 9845SOL    HW230435   2.329   1.385   4.864
 9846SOL     OW30436   3.888   3.394   2.794
 9846SOL    HW130437   3.859   3.446   2.714
 9846SOL    HW230438   3.963   3.334   2.769
 9847SOL     OW30439   2.876   2.960   6.059
 9847SOL    HW130440   2.804   2.974   6.127
 9847SOL    HW230441   2.937   2.886   6.090
 9848SOL     OW30442   3.562   2.278   6.470
 9848SOL    HW130443   3.479   2.245   6.424
 9848SOL    HW230444   3.540   2.303   6.564
 9849SOL     OW30445   6.200   0.636   0.379
 9849SOL    HW130446   6.135   0.614   0.305
 9849SOL    HW230447   6.288   0.660   0.339
 9850SOL     OW30448   5.234   6.050   2.363
 9850SOL    HW130449   5.139   6.044   2.393
 9850SOL    HW230450   5.295   6.036   2.441
 9851SOL     OW30451   4.490   1.831   5.276
 9851SOL    HW130452   4.582   1.798   5.294
 9851SOL    HW230453   4.437   1.759   5.230
 9852SOL     OW30454   4.163   1.973   3.441
 9852SOL    HW130455   4.175   1.941   3.347
 9852SOL    HW230456   4.207   1.908   3.504
 9853SOL     OW30457   4.708   4.236   3.275
 9853SOL    HW130458   4.747   4.199   3.359
 9853SOL    HW230459   4.661   4.322   3.295
 9854SOL     OW30460   5.891   4.804   5.123
 9854SOL    HW130461   5.869   4.843   5.033
 9854SOL    HW230462   5.849   4.859   5.194
 9855SOL     OW30463   1.980   4.239   1.640
 9855SOL    HW130464   1.919   4.228   1.719
 9855SOL    HW230465   1.926   4.267   1.561
 9856SOL     OW30466   4.906   4.181   0.344
 9856SOL    HW130467   4.919   4.275   0.376
 9856SOL    HW230468   4.975   4.160   0.275
 9857SOL     OW30469   5.093   2.157   3.379
 9857SOL    HW130470   5.014   2.121   3.329
 9857SOL    HW230471   5.073   2.249   3.412
 9858SOL     OW30472   6.120   1.083   1.455
 9858SOL    HW130473   6.158   1.173   1.476
 9858SOL    HW230474   6.020   1.086   1.463
 9859SOL     OW30475   6.637   0.148   1.101
 9859SOL    HW130476   6.545   0.109   1.091
 9859SOL    HW230477   6.691   0.126   1.020
 9860SOL     OW30478   6.969   1.176   2.025
 9860SOL    HW130479   7.003   1.096   2.074
 9860SOL    HW230480   6.956   1.251   2.089
 9861SOL     OW30481   2.852   0.078   3.360
 9861SOL    HW130482   2.786   0.075   3.436
 9861SOL    HW230483   2.944   0.060   3.396
 9862SOL     OW30484   2.871   3.993   0.699
 9862SOL    HW130485   2.774   4.005   0.719
 9862SOL    HW230486   2.901   3.902   0.728
 9863SOL     OW30487   3.356   0.146   3.051
 9863SOL    HW130488   3.352   0.054   3.013
 9863SOL    HW230489   3.414   0.145   3.133
 9864SOL     OW30490   3.941   5.665   3.685
 9864SOL    HW130491   3.919   5.623   3.774
 9864SOL    HW230492   4.013   5.733   3.697
 9865SOL     OW30493   1.340   1.310   4.892
 9865SOL    HW130494   1.415   1.246   4.877
 9865SOL    HW230495   1.257   1.276   4.848
 9866SOL     OW30496   5.263   4.202   4.670
 9866SOL    HW130497   5.175   4.208   4.718
 9866SOL    HW230498   5.301   4.294   4.660
 9867SOL     OW30499   5.888   0.264   1.429
 9867SOL    HW130500   5.819   0.235   1.363
 9867SOL    HW230501   5.868   0.358   1.459
 9868SOL     OW30502   1.179   4.687   5.872
 9868SOL    HW130503   1.201   4.660   5.966
 9868SOL    HW230504   1.144   4.608   5.821
 9869SOL     OW30505   2.132   3.242   2.681
 9869SOL    HW130506   2.108   3.327   2.727
 9869SOL    HW230507   2.177   3.181   2.747
 9870SOL     OW30508   4.333   5.892   2.350
 9870SOL    HW130509   4.317   5.942   2.435
 9870SOL    HW230510   4.305   5.948   2.272
 9871SOL     OW30511   0.949   0.045   5.635
 9871SOL    HW130512   1.004   0.026   5.554
 9871SOL    HW230513   0.853   0.024   5.616
 9872SOL     OW30514   3.233   5.271   4.198
 9872SOL    HW130515   3.268   5.358   4.233
 9872SOL    HW230516   3.264   5.257   4.104
 9873SOL     OW30517   2.488   2.224   1.419
 9873SOL    HW130518   2.404   2.254   1.463
 9873SOL    HW230519   2.531   2.301   1.372
 9874SOL     OW30520   0.841   2.856   4.387
 9874SOL    HW130521   0.806   2.770   4.424
 9874SOL    HW230522   0.890   2.906   4.459
 9875SOL     OW30523   0.132   6.798   2.226
 9875SOL    HW130524   0.107   6.735   2.153
 9875SOL    HW230525   0.126   6.750   2.314
 9876SOL     OW30526   6.744   0.902   2.493
 9876SOL    HW130527   6.680   0.950   2.433
 9876SOL    HW230528   6.700   0.819   2.527
 9877SOL     OW30529   0.741   6.130   2.950
 9877SOL    HW130530   0.743   6.228   2.971
 9877SOL    HW230531   0.773   6.079   3.030
 9878SOL     OW30532   2.822   5.541   4.592
 9878SOL    HW130533   2.776   5.468   4.642
 9878SOL    HW230534   2.867   5.503   4.511
 9879SOL     OW30535   5.663   5.045   4.658
 9879SOL    HW130536   5.724   4.978   4.615
 9879SOL    HW230537   5.590   5.069   4.595
 9880SOL     OW30538   2.071   2.230   5.429
 9880SOL    HW130539   1.990   2.254   5.483
 9880SOL    HW230540   2.150   2.278   5.465
 9881SOL     OW30541   1.947   1.246   4.886
 9881SOL    HW130542   1.871   1.265   4.824
 9881SOL    HW230543   1.933   1.156   4.929
 9882SOL     OW30544   0.910   2.075   3.769
 9882SOL    HW130545   0.942   1.986   3.735
 9882SOL    HW230546   0.833   2.062   3.831
 9883SOL     OW30547   1.888   5.107   6.935
 9883SOL    HW130548   1.963   5.154   6.981
 9883SOL    HW230549   1.853   5.165   6.861
 9884SOL     OW30550   4.141   1.498   3.122
 9884SOL    HW130551   4.114   1.524   3.215
 9884SOL    HW230552   4.236   1.526   3.106
 9885SOL     OW30553   0.046   3.306   5.429
 9885SOL    HW130554   0.105   3.242   5.380
 9885SOL    HW230555   0.100   3.353   5.499
 9886SOL     OW30556   0.519   4.469   1.885
 9886SOL    HW130557   0.573   4.525   1.947
 9886SOL    HW230558   0.478   4.393   1.935
 9887SOL     OW30559   3.128   1.162   6.174
 9887SOL    HW130560   3.102   1.087   6.235
 9887SOL    HW230561   3.225   1.185   6.189
 9888SOL     OW30562   6.476   4.010   1.861
 9888SOL    HW130563   6.397   4.060   1.824
 9888SOL    HW230564   6.558   4.034   1.808
 9889SOL     OW30565   6.567   5.197   1.559
 9889SOL    HW130566   6.499   5.230   1.624
 9889SOL    HW230567   6.621   5.124   1.602
 9890SOL     OW30568   1.711   2.140   0.052
 9890SOL    HW130569   1.647   2.200   0.005
 9890SOL    HW230570   1.664   2.091   0.125
 9891SOL     OW30571   5.591   3.305   1.101
 9891SOL    HW130572   5.568   3.297   1.198
 9891SOL    HW230573   5.600   3.214   1.061
 9892SOL     OW30574   0.026   5.235   0.659
 9892SOL    HW130575   0.091   5.196   0.724
 9892SOL    HW230576   6.959   5.237   0.700
 9893SOL     OW30577   1.019   0.048   1.179
 9893SOL    HW130578   1.014   6.977   1.211
 9893SOL    HW230579   1.087   0.054   1.106
 9894SOL     OW30580   2.097   2.556   2.133
 9894SOL    HW130581   2.178   2.614   2.141
 9894SOL    HW230582   2.036   2.594   2.064
 9895SOL     OW30583   6.490   3.720   5.331
 9895SOL    HW130584   6.537   3.757   5.251
 9895SOL    HW230585   6.393   3.742   5.326
 9896SOL     OW30586   6.014   0.423   6.748
 9896SOL    HW130587   6.003   0.499   6.812
 9896SOL    HW230588   5.984   0.451   6.657
 9897SOL     OW30589   6.593   5.609   3.516
 9897SOL    HW130590   6.527   5.604   3.591
 9897SOL    HW230591   6.548   5.646   3.435
 9898SOL     OW30592   1.924   6.405   5.013
 9898SOL    HW130593   1.930   6.411   5.112
 9898SOL    HW230594   2.002   6.454   4.972
 9899SOL     OW30595   0.525   5.709   6.747
 9899SOL    HW130596   0.598   5.707   6.678
 9899SOL    HW230597   0.555   5.659   6.828
 9900SOL     OW30598   1.891   3.806   3.262
 9900SOL    HW130599   1.866   3.709   3.266
 9900SOL    HW230600   1.855   3.853   3.342
 9901SOL     OW30601   2.902   0.926   6.038
 9901SOL    HW130602   2.832   0.894   5.974
 9901SOL    HW230603   2.863   0.937   6.129
 9902SOL     OW30604   3.494   4.973   0.558
 9902SOL    HW130605   3.527   5.046   0.498
 9902SOL    HW230606   3.509   4.884   0.514
 9903SOL     OW30607   5.030   1.042   1.639
 9903SOL    HW130608   4.967   1.006   1.709
 9903SOL    HW230609   4.978   1.093   1.571
 9904SOL     OW30610   1.227   4.449   0.310
 9904SOL    HW130611   1.224   4.459   0.409
 9904SOL    HW230612   1.322   4.452   0.279
 9905SOL     OW30613   2.661   0.332   6.329
 9905SOL    HW130614   2.748   0.285   6.338
 9905SOL    HW230615   2.676   0.422   6.287
 9906SOL     OW30616   2.537   2.984   1.690
 9906SOL    HW130617   2.484   2.910   1.731
 9906SOL    HW230618   2.632   2.953   1.678
 9907SOL     OW30619   6.753   0.040   0.882
 9907SOL    HW130620   6.752   0.126   0.831
 9907SOL    HW230621   6.724   6.989   0.823
 9908SOL     OW30622   4.779   1.624   4.289
 9908SOL    HW130623   4.807   1.620   4.193
 9908SOL    HW230624   4.841   1.685   4.339
 9909SOL     OW30625   4.245   0.439   3.857
 9909SOL    HW130626   4.329   0.467   3.903
 9909SOL    HW230627   4.166   0.465   3.913
 9910SOL     OW30628   1.816   3.982   2.828
 9910SOL    HW130629   1.871   4.018   2.903
 9910SOL    HW230630   1.735   4.039   2.816
 9911SOL     OW30631   2.970   6.603   1.886
 9911SOL    HW130632   2.947   6.516   1.929
 9911SOL    HW230633   2.981   6.589   1.787
 9912SOL     OW30634   3.968   1.066   1.302
 9912SOL    HW130635   3.975   0.993   1.234
 9912SOL    HW230636   4.057   1.109   1.313
 9913SOL     OW30637   6.495   4.391   1.292
 9913SOL    HW130638   6.527   4.484   1.278
 9913SOL    HW230639   6.396   4.387   1.278
 9914SOL     OW30640   5.421   1.980   4.372
 9914SOL    HW130641   5.417   2.068   4.326
 9914SOL    HW230642   5.510   1.937   4.353
 9915SOL     OW30643   5.101   0.767   3.965
 9915SOL    HW130644   5.099   0.833   4.040
 9915SOL    HW230645   5.022   0.706   3.972
 9916SOL     OW30646   1.901   2.501   3.387
 9916SOL    HW130647   1.894   2.424   3.451
 9916SOL    HW230648   1.900   2.466   3.294
 9917SOL     OW30649   5.544   3.941   6.947
 9917SOL    HW130650   5.597   4.001   7.006
 9917SOL    HW230651   5.588   3.851   6.944
 9918SOL     OW30652   3.575   1.143   3.705
 9918SOL    HW130653   3.562   1.127   3.803
 9918SOL    HW230654   3.518   1.220   3.677
 9919SOL     OW30655   6.523   5.109   1.292
 9919SOL    HW130656   6.522   5.146   1.385
 9919SOL    HW230657   6.615   5.117   1.254
 9920SOL     OW30658   4.792   1.160   2.162
 9920SOL    HW130659   4.735   1.084   2.195
 9920SOL    HW230660   4.774   1.241   2.217
 9921SOL     OW30661   3.950   0.138   5.711
 9921SOL    HW130662   3.994   0.052   5.737
 9921SOL    HW230663   4.018   0.202   5.676
 9922SOL     OW30664   2.744   4.411   0.260
 9922SOL    HW130665   2.735   4.501   0.303
 9922SOL    HW230666   2.840   4.383   0.262
 9923SOL     OW30667   4.951   4.713   6.721
 9923SOL    HW130668   4.950   4.613   6.715
 9923SOL    HW230669   4.945   4.741   6.817
 9924SOL     OW30670   6.180   2.038   5.196
 9924SOL    HW130671   6.116   1.970   5.160
 9924SOL    HW230672   6.274   2.005   5.186
 9925SOL     OW30673   6.515   3.298   4.512
 9925SOL    HW130674   6.511   3.318   4.610
 9925SOL    HW230675   6.475   3.208   4.494
 9926SOL     OW30676   3.848   2.769   0.981
 9926SOL    HW130677   3.858   2.868   0.971
 9926SOL    HW230678   3.937   2.725   0.965
 9927SOL     OW30679   0.133   6.480   0.473
 9927SOL    HW130680   0.066   6.522   0.534
 9927SOL    HW230681   0.211   6.541   0.462
 9928SOL     OW30682   5.459   4.653   2.510
 9928SOL    HW130683   5.432   4.558   2.526
 9928SOL    HW230684   5.383   4.714   2.530
 9929SOL     OW30685   2.974   4.658   5.516
 9929SOL    HW130686   3.026   4.579   5.485
 9929SOL    HW230687   2.878   4.633   5.526
 9930SOL     OW30688   6.813   6.611   4.764
 9930SOL    HW130689   6.734   6.641   4.817
 9930SOL    HW230690   6.897   6.635   4.814
 9931SOL     OW30691   0.534   5.730   4.047
 9931SOL    HW130692   0.594   5.788   3.991
 9931SOL    HW230693   0.587   5.654   4.084
 9932SOL     OW30694   3.006   4.693   6.844
 9932SOL    HW130695   2.950   4.670   6.924
 9932SOL    HW230696   3.083   4.630   6.838
 9933SOL     OW30697   0.245   5.981   3.614
 9933SOL    HW130698   0.202   5.911   3.670
 9933SOL    HW230699   0.340   5.993   3.642
 9934SOL     OW30700   5.132   2.030   5.457
 9934SOL    HW130701   5.142   2.001   5.553
 9934SOL    HW230702   5.062   2.102   5.452
 9935SOL     OW30703   2.570   6.598   0.009
 9935SOL    HW130704   2.595   6.556   0.096
 9935SOL    HW230705   2.639   6.574   6.964
 9936SOL     OW30706   6.501   5.203   6.857
 9936SOL    HW130707   6.426   5.160   6.907
 9936SOL    HW230708   6.525   5.290   6.900
 9937SOL     OW30709   6.713   1.635   0.648
 9937SOL    HW130710   6.636   1.627   0.710
 9937SOL    HW230711   6.727   1.732   0.624
 9938SOL     OW30712   6.877   5.288   2.475
 9938SOL    HW130713   6.849   5.240   2.559
 9938SOL    HW230714   6.825   5.373   2.467
 9939SOL     OW30715   4.172   2.740   0.979
 9939SOL    HW130716   4.178   2.666   1.047
 9939SOL    HW230717   4.255   2.795   0.982
 9940SOL     OW30718   1.178   0.404   1.049
 9940SOL    HW130719   1.238   0.348   0.991
 9940SOL    HW230720   1.092   0.355   1.064
 9941SOL     OW30721   3.063   4.015   5.537
 9941SOL    HW130722   3.156   4.011   5.500
 9941SOL    HW230723   3.028   3.922   5.547
 9942SOL     OW30724   2.641   5.669   2.206
 9942SOL    HW130725   2.668   5.575   2.227
 9942SOL    HW230726   2.704   5.733   2.250
 9943SOL     OW30727   6.947   4.817   5.333
 9943SOL    HW130728   6.917   4.746   5.268
 9943SOL    HW230729   6.882   4.821   5.409
 9944SOL     OW30730   1.469   4.510   6.425
 9944SOL    HW130731   1.517   4.430   6.390
 9944SOL    HW230732   1.381   4.481   6.463
 9945SOL     OW30733   5.814   5.580   6.664
 9945SOL    HW130734   5.726   5.549   6.700
 9945SOL    HW230735   5.823   5.550   6.569
 9946SOL     OW30736   4.684   1.237   3.666
 9946SOL    HW130737   4.644   1.305   3.605
 9946SOL    HW230738   4.654   1.254   3.760
 9947SOL     OW30739   1.465   2.805   5.048
 9947SOL    HW130740   1.374   2.765   5.056
 9947SOL    HW230741   1.493   2.844   5.136
 9948SOL     OW30742   5.330   3.924   5.011
 9948SOL    HW130743   5.361   4.012   5.047
 9948SOL    HW230744   5.378   3.850   5.059
 9949SOL     OW30745   6.662   4.944   4.231
 9949SOL    HW130746   6.731   4.896   4.176
 9949SOL    HW230747   6.704   4.976   4.316
 9950SOL     OW30748   5.670   5.870   4.994
 9950SOL    HW130749   5.685   5.885   4.896
 9950SOL    HW230750   5.728   5.932   5.046
 9951SOL     OW30751   6.548   0.626   4.709
 9951SOL    HW130752   6.641   0.590   4.721
 9951SOL    HW230753   6.483   0.551   4.715
 9952SOL     OW30754   0.784   3.553   1.265
 9952SOL    HW130755   0.766   3.585   1.171
 9952SOL    HW230756   0.828   3.627   1.317
 9953SOL     OW30757   6.124   3.026   4.330
 9953SOL    HW130758   6.041   2.992   4.287
 9953SOL    HW230759   6.185   2.949   4.350
 9954SOL     OW30760   6.486   0.531   5.878
 9954SOL    HW130761   6.465   0.524   5.976
 9954SOL    HW230762   6.498   0.439   5.840
 9955SOL     OW30763   6.421   3.465   5.116
 9955SOL    HW130764   6.324   3.477   5.092
 9955SOL    HW230765   6.436   3.500   5.209
 9956SOL     OW30766   1.380   6.992   2.357
 9956SOL    HW130767   1.429   6.926   2.300
 9956SOL    HW230768   1.331   6.942   2.429
 9957SOL     OW30769   5.110   5.584   2.342
 9957SOL    HW130770   5.196   5.635   2.347
 9957SOL    HW230771   5.109   5.514   2.414
 9958SOL     OW30772   3.860   5.637   0.782
 9958SOL    HW130773   3.774   5.664   0.825
 9958SOL    HW230774   3.849   5.637   0.682
 9959SOL     OW30775   4.167   3.624   5.139
 9959SOL    HW130776   4.154   3.676   5.055
 9959SOL    HW230777   4.263   3.624   5.164
 9960SOL     OW30778   6.926   6.789   2.465
 9960SOL    HW130779   6.881   6.818   2.380
 9960SOL    HW230780   6.997   6.855   2.489
 9961SOL     OW30781   1.645   5.402   4.344
 9961SOL    HW130782   1.702   5.397   4.262
 9961SOL    HW230783   1.629   5.310   4.379
 9962SOL     OW30784   6.263   6.968   2.747
 9962SOL    HW130785   6.181   0.001   2.754
 9962SOL    HW230786   6.244   6.877   2.784
 9963SOL     OW30787   2.986   2.811   6.492
 9963SOL    HW130788   2.937   2.898   6.498
 9963SOL    HW230789   2.941   2.752   6.425
 9964SOL     OW30790   5.167   4.832   5.690
 9964SOL    HW130791   5.129   4.903   5.631
 9964SOL    HW230792   5.200   4.756   5.633
 9965SOL     OW30793   3.572   6.456   6.259
 9965SOL    HW130794   3.535   6.457   6.166
 9965SOL    HW230795   3.542   6.538   6.308
 9966SOL     OW30796   1.574   5.683   1.729
 9966SOL    HW130797   1.652   5.646   1.679
 9966SOL    HW230798   1.607   5.738   1.806
 9967SOL     OW30799   0.534   6.526   2.192
 9967SOL    HW130800   0.463   6.468   2.230
 9967SOL    HW230801   0.493   6.594   2.130
 9968SOL     OW30802   3.531   3.906   1.210
 9968SOL    HW130803   3.492   3.974   1.148
 9968SOL    HW230804   3.594   3.950   1.274
 9969SOL     OW30805   1.850   2.746   2.301
 9969SOL    HW130806   1.835   2.812   2.375
 9969SOL    HW230807   1.819   2.785   2.214
 9970SOL     OW30808   5.138   3.661   2.724
 9970SOL    HW130809   5.048   3.647   2.765
 9970SOL    HW230810   5.128   3.706   2.636
 9971SOL     OW30811   1.909   5.128   1.786
 9971SOL    HW130812   1.977   5.077   1.733
 9971SOL    HW230813   1.829   5.146   1.728
 9972SOL     OW30814   5.096   4.885   1.370
 9972SOL    HW130815   5.170   4.857   1.309
 9972SOL    HW230816   5.048   4.803   1.404
 9973SOL     OW30817   5.483   2.218   4.229
 9973SOL    HW130818   5.480   2.210   4.129
 9973SOL    HW230819   5.522   2.307   4.254
 9974SOL     OW30820   0.710   2.622   2.629
 9974SOL    HW130821   0.740   2.711   2.593
 9974SOL    HW230822   0.689   2.632   2.726
 9975SOL     OW30823   6.087   4.296   0.065
 9975SOL    HW130824   6.128   4.375   0.109
 9975SOL    HW230825   6.159   4.234   0.033
 9976SOL     OW30826   1.281   6.563   5.503
 9976SOL    HW130827   1.265   6.488   5.566
 9976SOL    HW230828   1.205   6.569   5.438
 9977SOL     OW30829   6.849   5.413   5.206
 9977SOL    HW130830   6.878   5.482   5.139
 9977SOL    HW230831   6.929   5.379   5.255
 9978SOL     OW30832   0.565   2.526   4.341
 9978SOL    HW130833   0.587   2.555   4.248
 9978SOL    HW230834   0.472   2.489   4.343
 9979SOL     OW30835   6.064   5.097   5.399
 9979SOL    HW130836   6.043   5.177   5.456
 9979SOL    HW230837   5.981   5.067   5.352
 9980SOL     OW30838   1.982   0.716   6.234
 9980SOL    HW130839   1.934   0.696   6.148
 9980SOL    HW230840   2.060   0.653   6.243
 9981SOL     OW30841   2.595   1.572   3.024
 9981SOL    HW130842   2.581   1.545   3.119
 9981SOL    HW230843   2.517   1.628   2.994
 9982SOL     OW30844   6.445   6.285   4.511
 9982SOL    HW130845   6.505   6.271   4.590
 9982SOL    HW230846   6.458   6.378   4.476
 9983SOL     OW30847   6.529   1.958   2.740
 9983SOL    HW130848   6.536   2.015   2.658
 9983SOL    HW230849   6.515   1.863   2.713
 9984SOL     OW30850   2.195   0.944   0.209
 9984SOL    HW130851   2.253   0.914   0.133
 9984SOL    HW230852   2.099   0.927   0.186
 9985SOL     OW30853   1.081   0.801   0.971
 9985SOL    HW130854   1.142   0.774   0.897
 9985SOL    HW230855   1.013   0.865   0.936
 9986SOL     OW30856   5.608   4.533   6.016
 9986SOL    HW130857   5.570   4.498   6.102
 9986SOL    HW230858   5.705   4.508   6.010
 9987SOL     OW30859   0.553   2.902   4.270
 9987SOL    HW130860   0.634   2.918   4.327
 9987SOL    HW230861   0.581   2.897   4.174
 9988SOL     OW30862   6.883   6.006   4.019
 9988SOL    HW130863   6.829   5.967   4.094
 9988SOL    HW230864   6.978   6.017   4.049
 9989SOL     OW30865   0.019   3.640   3.883
 9989SOL    HW130866   6.961   3.685   3.846
 9989SOL    HW230867   0.002   3.542   3.890
 9990SOL     OW30868   2.299   5.557   2.500
 9990SOL    HW130869   2.224   5.512   2.452
 9990SOL    HW230870   2.358   5.603   2.434
 9991SOL     OW30871   2.279   2.194   3.566
 9991SOL    HW130872   2.358   2.241   3.607
 9991SOL    HW230873   2.205   2.189   3.633
 9992SOL     OW30874   5.463   5.565   6.992
 9992SOL    HW130875   5.516   5.491   6.951
 9992SOL    HW230876   5.417   5.531   0.049
 9993SOL     OW30877   3.072   1.334   0.542
 9993SOL    HW130878   3.044   1.369   0.631
 9993SOL    HW230879   3.014   1.256   0.517
 9994SOL     OW30880   6.383   4.379   3.262
 9994SOL    HW130881   6.292   4.372   3.221
 9994SOL    HW230882   6.447   4.323   3.209
 9995SOL     OW30883   4.397   1.277   2.565
 9995SOL    HW130884   4.452   1.263   2.648
 9995SOL    HW230885   4.407   1.197   2.506
 9996SOL     OW30886   3.274   3.314   0.831
 9996SOL    HW130887   3.174   3.316   0.838
 9996SOL    HW230888   3.300   3.310   0.735
 9997SOL     OW30889   3.138   1.631   6.006
 9997SOL    HW130890   3.160   1.724   5.977
 9997SOL    HW230891   3.213   1.594   6.062
 9998SOL     OW30892   5.646   4.731   6.254
 9998SOL    HW130893   5.741   4.752   6.234
 9998SOL    HW230894   5.621   4.644   6.212
 9999SOL     OW30895   6.246   2.763   5.661
 9999SOL    HW130896   6.223   2.704   5.583
 9999SOL    HW230897   6.164   2.812   5.691
10000SOL     OW30898   0.283   4.741   7.000
10000SOL    HW130899   0.245   4.675   0.041
10000SOL    HW230900   0.383   4.735   7.001
10001SOL     OW30901   5.252   6.844   2.127
10001SOL    HW130902   5.152   6.844   2.129
10001SOL    HW230903   5.287   6.846   2.220
10002SOL     OW30904   1.016   6.739   2.759
10002SOL    HW130905   0.990   6.824   2.712
10002SOL    HW230906   1.076   6.761   2.836
10003SOL     OW30907   3.893   1.949   3.458
10003SOL    HW130908   3.895   1.878   3.528
10003SOL    HW230909   3.986   1.985   3.446
10004SOL     OW30910   0.270   2.519   3.981
10004SOL    HW130911   0.227   2.431   3.958
10004SOL    HW230912   0.348   2.504   4.041
10005SOL     OW30913   5.695   0.291   4.287
10005SOL    HW130914   5.791   0.268   4.308
10005SOL    HW230915   5.686   0.390   4.277
10006SOL     OW30916   5.156   5.711   4.576
10006SOL    HW130917   5.074   5.726   4.521
10006SOL    HW230918   5.155   5.618   4.613
10007SOL     OW30919   6.758   4.344   5.076
10007SOL    HW130920   6.681   4.291   5.110
10007SOL    HW230921   6.732   4.440   5.068
10008SOL     OW30922   3.887   1.450   4.858
10008SOL    HW130923   3.954   1.508   4.811
10008SOL    HW230924   3.809   1.434   4.799
10009SOL     OW30925   1.887   3.781   1.732
10009SOL    HW130926   1.970   3.757   1.783
10009SOL    HW230927   1.909   3.849   1.662
10010SOL     OW30928   2.350   0.960   5.952
10010SOL    HW130929   2.397   0.872   5.953
10010SOL    HW230930   2.276   0.959   6.020
10011SOL     OW30931   6.363   1.027   5.890
10011SOL    HW130932   6.313   0.977   5.960
10011SOL    HW230933   6.449   0.979   5.870
10012SOL     OW30934   5.442   1.361   2.930
10012SOL    HW130935   5.376   1.383   2.857
10012SOL    HW230936   5.495   1.281   2.902
10013SOL     OW30937   0.221   1.162   3.466
10013SOL    HW130938   0.318   1.143   3.451
10013SOL    HW230939   0.185   1.216   3.389
10014SOL     OW30940   0.094   4.150   0.134
10014SOL    HW130941   0.191   4.170   0.148
10014SOL    HW230942   0.063   4.086   0.205
10015SOL     OW30943   2.779   5.118   0.596
10015SOL    HW130944   2.693   5.081   0.560
10015SOL    HW230945   2.789   5.213   0.567
10016SOL     OW30946   0.863   1.562   6.750
10016SOL    HW130947   0.774   1.515   6.752
10016SOL    HW230948   0.855   1.651   6.795
10017SOL     OW30949   3.218   1.818   3.179
10017SOL    HW130950   3.134   1.766   3.168
10017SOL    HW230951   3.202   1.897   3.239
10018SOL     OW30952   4.893   0.731   6.885
10018SOL    HW130953   4.823   0.802   6.880
10018SOL    HW230954   4.984   0.774   6.886
10019SOL     OW30955   0.169   1.429   2.750
10019SOL    HW130956   0.245   1.475   2.796
10019SOL    HW230957   0.179   1.438   2.651
10020SOL     OW30958   2.082   2.063   1.331
10020SOL    HW130959   2.073   2.124   1.410
10020SOL    HW230960   2.131   2.110   1.258
10021SOL     OW30961   7.009   2.883   1.205
10021SOL    HW130962   6.964   2.848   1.286
10021SOL    HW230963   0.075   2.919   1.229
10022SOL     OW30964   2.248   1.353   6.044
10022SOL    HW130965   2.249   1.308   5.954
10022SOL    HW230966   2.341   1.352   6.083
10023SOL     OW30967   7.020   4.894   0.751
10023SOL    HW130968   0.060   4.902   0.675
10023SOL    HW230969   6.949   4.827   0.728
10024SOL     OW30970   2.048   6.235   2.704
10024SOL    HW130971   1.997   6.149   2.702
10024SOL    HW230972   2.135   6.221   2.751
10025SOL     OW30973   1.552   0.510   0.910
10025SOL    HW130974   1.504   0.568   0.976
10025SOL    HW230975   1.627   0.562   0.869
10026SOL     OW30976   5.205   6.927   3.605
10026SOL    HW130977   5.294   6.888   3.583
10026SOL    HW230978   5.151   6.860   3.656
10027SOL     OW30979   5.835   3.257   4.751
10027SOL    HW130980   5.793   3.166   4.743
10027SOL    HW230981   5.878   3.281   4.664
10028SOL     OW30982   0.811   0.113   1.556
10028SOL    HW130983   0.867   0.151   1.482
10028SOL    HW230984   0.755   0.186   1.596
10029SOL     OW30985   5.158   2.493   4.022
10029SOL    HW130986   5.092   2.418   4.014
10029SOL    HW230987   5.117   2.577   3.986
10030SOL     OW30988   2.100   0.778   2.977
10030SOL    HW130989   2.123   0.735   2.890
10030SOL    HW230990   2.145   0.867   2.983
10031SOL     OW30991   5.661   4.709   4.158
10031SOL    HW130992   5.599   4.722   4.081
10031SOL    HW230993   5.612   4.662   4.232
10032SOL     OW30994   2.928   1.182   5.275
10032SOL    HW130995   2.901   1.105   5.332
10032SOL    HW230996   2.854   1.250   5.275
10033SOL     OW30997   7.009   3.717   4.553
10033SOL    HW130998   6.927   3.730   4.609
10033SOL    HW230999   0.065   3.713   4.613
10034SOL     OW31000   3.683   0.452   4.403
10034SOL    HW131001   3.775   0.412   4.406
10034SOL    HW231002   3.624   0.395   4.344
10035SOL     OW31003   6.533   5.405   1.839
10035SOL    HW131004   6.528   5.309   1.865
10035SOL    HW231005   6.455   5.428   1.781
10036SOL     OW31006   6.476   1.926   1.079
10036SOL    HW131007   6.515   1.839   1.110
10036SOL    HW231008   6.395   1.908   1.023
10037SOL     OW31009   6.994   1.408   6.635
10037SOL    HW131010   6.920   1.375   6.576
10037SOL    HW231011   7.003   1.507   6.625
10038SOL     OW31012   6.164   0.235   0.053
10038SOL    HW131013   6.216   0.276   0.128
10038SOL    HW231014   6.202   0.146   0.031
10039SOL     OW31015   3.481   0.533   3.485
10039SOL    HW131016   3.572   0.523   3.523
10039SOL    HW231017   3.414   0.488   3.545
10040SOL     OW31018   5.854   4.595   6.972
10040SOL    HW131019   5.771   4.545   6.996
10040SOL    HW231020   5.906   4.543   6.904
10041SOL     OW31021   3.572   6.120   0.257
10041SOL    HW131022   3.529   6.154   0.173
10041SOL    HW231023   3.616   6.032   0.239
10042SOL     OW31024   6.973   2.146   3.453
10042SOL    HW131025   6.906   2.190   3.393
10042SOL    HW231026   6.994   2.055   3.419
10043SOL     OW31027   6.327   1.835   5.931
10043SOL    HW131028   6.384   1.774   5.877
10043SOL    HW231029   6.385   1.898   5.983
10044SOL     OW31030   2.740   3.382   5.690
10044SOL    HW131031   2.806   3.308   5.674
10044SOL    HW231032   2.747   3.412   5.785
10045SOL     OW31033   4.147   0.880   0.685
10045SOL    HW131034   4.236   0.912   0.653
10045SOL    HW231035   4.076   0.914   0.625
10046SOL     OW31036   1.623   3.691   1.319
10046SOL    HW131037   1.603   3.755   1.245
10046SOL    HW231038   1.677   3.737   1.389
10047SOL     OW31039   0.700   3.421   6.365
10047SOL    HW131040   0.799   3.427   6.364
10047SOL    HW231041   0.665   3.423   6.271
10048SOL     OW31042   6.775   6.527   2.991
10048SOL    HW131043   6.867   6.545   3.027
10048SOL    HW231044   6.775   6.441   2.940
10049SOL     OW31045   0.565   2.557   6.324
10049SOL    HW131046   0.622   2.609   6.261
10049SOL    HW231047   0.622   2.498   6.381
10050SOL     OW31048   5.118   3.457   5.102
10050SOL    HW131049   5.114   3.423   5.196
10050SOL    HW231050   5.191   3.410   5.052
10051SOL     OW31051   0.858   4.394   4.901
10051SOL    HW131052   0.931   4.454   4.933
10051SOL    HW231053   0.882   4.299   4.917
10052SOL     OW31054   1.112   0.767   3.403
10052SOL    HW131055   1.038   0.825   3.368
10052SOL    HW231056   1.102   0.674   3.368
10053SOL     OW31057   4.932   5.475   4.278
10053SOL    HW131058   4.903   5.385   4.314
10053SOL    HW231059   5.019   5.465   4.231
10054SOL     OW31060   5.651   3.817   4.586
10054SOL    HW131061   5.664   3.897   4.644
10054SOL    HW231062   5.602   3.843   4.502
10055SOL     OW31063   6.313   2.469   6.753
10055SOL    HW131064   6.247   2.468   6.678
10055SOL    HW231065   6.265   2.465   6.840
10056SOL     OW31066   5.196   3.735   3.304
10056SOL    HW131067   5.250   3.814   3.332
10056SOL    HW231068   5.256   3.670   3.257
10057SOL     OW31069   5.816   4.019   6.334
10057SOL    HW131070   5.749   4.017   6.409
10057SOL    HW231071   5.885   3.949   6.350
10058SOL     OW31072   6.522   3.435   4.774
10058SOL    HW131073   6.580   3.516   4.785
10058SOL    HW231074   6.443   3.442   4.836
10059SOL     OW31075   6.276   1.479   0.568
10059SOL    HW131076   6.184   1.449   0.542
10059SOL    HW231077   6.332   1.399   0.590
10060SOL     OW31078   2.843   1.859   2.631
10060SOL    HW131079   2.782   1.825   2.702
10060SOL    HW231080   2.793   1.922   2.571
10061SOL     OW31081   4.126   1.187   3.676
10061SOL    HW131082   4.059   1.260   3.689
10061SOL    HW231083   4.207   1.205   3.732
10062SOL     OW31084   0.718   6.743   3.958
10062SOL    HW131085   0.752   6.764   3.866
10062SOL    HW231086   0.779   6.783   4.026
10063SOL     OW31087   1.765   2.383   4.909
10063SOL    HW131088   1.808   2.362   4.998
10063SOL    HW231089   1.695   2.453   4.921
10064SOL     OW31090   3.403   6.230   0.014
10064SOL    HW131091   3.345   6.271   0.084
10064SOL    HW231092   3.401   6.287   6.956
10065SOL     OW31093   1.145   0.482   1.773
10065SOL    HW131094   1.239   0.465   1.803
10065SOL    HW231095   1.093   0.397   1.776
10066SOL     OW31096   0.049   3.457   5.025
10066SOL    HW131097   0.070   3.530   5.090
10066SOL    HW231098   0.128   3.396   5.015
10067SOL     OW31099   0.961   2.944   6.512
10067SOL    HW131100   0.970   2.866   6.574
10067SOL    HW231101   1.039   2.945   6.449
10068SOL     OW31102   2.289   2.818   2.632
10068SOL    HW131103   2.265   2.907   2.669
10068SOL    HW231104   2.327   2.760   2.705
10069SOL     OW31105   3.817   5.089   1.782
10069SOL    HW131106   3.773   5.148   1.849
10069SOL    HW231107   3.796   5.121   1.690
10070SOL     OW31108   2.844   5.914   4.939
10070SOL    HW131109   2.797   5.956   5.017
10070SOL    HW231110   2.780   5.902   4.863
10071SOL     OW31111   0.576   6.718   3.555
10071SOL    HW131112   0.655   6.774   3.579
10071SOL    HW231113   0.600   6.621   3.565
10072SOL     OW31114   6.726   1.081   2.706
10072SOL    HW131115   6.814   1.098   2.750
10072SOL    HW231116   6.741   1.032   2.620
10073SOL     OW31117   6.237   2.765   4.141
10073SOL    HW131118   6.139   2.745   4.136
10073SOL    HW231119   6.254   2.827   4.218
10074SOL     OW31120   2.623   4.920   0.455
10074SOL    HW131121   2.615   4.867   0.539
10074SOL    HW231122   2.566   4.879   0.384
10075SOL     OW31123   1.872   1.871   2.202
10075SOL    HW131124   1.832   1.919   2.124
10075SOL    HW231125   1.888   1.775   2.178
10076SOL     OW31126   4.986   5.146   3.640
10076SOL    HW131127   5.068   5.182   3.685
10076SOL    HW231128   4.955   5.212   3.572
10077SOL     OW31129   6.387   3.353   6.815
10077SOL    HW131130   6.471   3.362   6.762
10077SOL    HW231131   6.308   3.370   6.755
10078SOL     OW31132   0.088   6.445   5.041
10078SOL    HW131133   0.090   6.518   4.973
10078SOL    HW231134   0.160   6.461   5.109
10079SOL     OW31135   5.175   2.922   3.151
10079SOL    HW131136   5.131   3.009   3.170
10079SOL    HW231137   5.249   2.907   3.217
10080SOL     OW31138   5.604   0.817   5.809
10080SOL    HW131139   5.588   0.855   5.718
10080SOL    HW231140   5.551   0.733   5.820
10081SOL     OW31141   1.958   1.981   0.323
10081SOL    HW131142   2.036   1.919   0.326
10081SOL    HW231143   1.978   2.055   0.259
10082SOL     OW31144   1.345   4.563   2.687
10082SOL    HW131145   1.415   4.602   2.747
10082SOL    HW231146   1.256   4.602   2.710
10083SOL     OW31147   3.879   5.073   3.958
10083SOL    HW131148   3.850   5.145   4.021
10083SOL    HW231149   3.803   5.011   3.941
10084SOL     OW31150   1.169   0.203   5.257
10084SOL    HW131151   1.188   0.206   5.159
10084SOL    HW231152   1.207   0.285   5.300
10085SOL     OW31153   4.089   6.686   0.552
10085SOL    HW131154   4.034   6.670   0.635
10085SOL    HW231155   4.034   6.663   0.471
10086SOL     OW31156   6.168   6.527   1.976
10086SOL    HW131157   6.202   6.552   1.885
10086SOL    HW231158   6.124   6.437   1.971
10087SOL     OW31159   1.439   6.300   4.405
10087SOL    HW131160   1.500   6.368   4.364
10087SOL    HW231161   1.471   6.208   4.383
10088SOL     OW31162   6.786   2.808   6.870
10088SOL    HW131163   6.863   2.804   6.806
10088SOL    HW231164   6.766   2.717   6.905
10089SOL     OW31165   4.239   1.929   2.281
10089SOL    HW131166   4.300   1.909   2.205
10089SOL    HW231167   4.225   2.028   2.288
10090SOL     OW31168   1.500   5.221   1.205
10090SOL    HW131169   1.565   5.246   1.134
10090SOL    HW231170   1.426   5.166   1.165
10091SOL     OW31171   6.212   4.904   5.517
10091SOL    HW131172   6.262   4.953   5.588
10091SOL    HW231173   6.144   4.964   5.476
10092SOL     OW31174   0.287   2.743   5.500
10092SOL    HW131175   0.372   2.700   5.470
10092SOL    HW231176   0.304   2.839   5.521
10093SOL     OW31177   5.809   4.000   6.069
10093SOL    HW131178   5.820   4.007   6.168
10093SOL    HW231179   5.739   4.064   6.038
10094SOL     OW31180   3.042   0.694   0.960
10094SOL    HW131181   3.079   0.639   0.886
10094SOL    HW231182   3.110   0.702   1.033
10095SOL     OW31183   5.117   2.976   5.454
10095SOL    HW131184   5.133   2.878   5.456
10095SOL    HW231185   5.019   2.994   5.443
10096SOL     OW31186   4.661   1.024   2.586
10096SOL    HW131187   4.657   0.973   2.672
10096SOL    HW231188   4.756   1.030   2.555
10097SOL     OW31189   1.133   2.035   6.685
10097SOL    HW131190   1.147   1.970   6.610
10097SOL    HW231191   1.170   1.996   6.769
10098SOL     OW31192   3.553   5.621   4.822
10098SOL    HW131193   3.501   5.594   4.742
10098SOL    HW231194   3.490   5.642   4.897
10099SOL     OW31195   7.016   4.544   2.313
10099SOL    HW131196   0.037   4.625   2.276
10099SOL    HW231197   0.060   4.472   2.329
10100SOL     OW31198   5.158   5.238   4.477
10100SOL    HW131199   5.060   5.245   4.459
10100SOL    HW231200   5.176   5.155   4.531
10101SOL     OW31201   1.014   2.182   1.428
10101SOL    HW131202   0.991   2.143   1.338
10101SOL    HW231203   0.945   2.154   1.494
10102SOL     OW31204   6.414   6.585   1.513
10102SOL    HW131205   6.408   6.572   1.414
10102SOL    HW231206   6.466   6.669   1.532
10103SOL     OW31207   0.079   6.766   5.844
10103SOL    HW131208   0.164   6.737   5.888
10103SOL    HW231209   0.012   6.793   5.914
10104SOL     OW31210   1.783   0.614   5.822
10104SOL    HW131211   1.836   0.687   5.779
10104SOL    HW231212   1.751   0.550   5.752
10105SOL     OW31213   2.327   0.798   5.400
10105SOL    HW131214   2.370   0.889   5.403
10105SOL    HW231215   2.355   0.746   5.480
10106SOL     OW31216   5.138   6.198   1.165
10106SOL    HW131217   5.079   6.138   1.111
10106SOL    HW231218   5.170   6.148   1.246
10107SOL     OW31219   5.391   4.340   6.859
10107SOL    HW131220   5.432   4.252   6.837
10107SOL    HW231221   5.439   4.413   6.810
10108SOL     OW31222   1.382   2.274   0.332
10108SOL    HW131223   1.438   2.196   0.362
10108SOL    HW231224   1.338   2.316   0.411
10109SOL     OW31225   0.776   1.357   0.461
10109SOL    HW131226   0.830   1.273   0.453
10109SOL    HW231227   0.754   1.374   0.557
10110SOL     OW31228   4.791   6.149   2.899
10110SOL    HW131229   4.837   6.120   2.816
10110SOL    HW231230   4.712   6.206   2.875
10111SOL     OW31231   1.174   1.802   2.394
10111SOL    HW131232   1.184   1.727   2.328
10111SOL    HW231233   1.108   1.869   2.359
10112SOL     OW31234   6.138   2.416   3.550
10112SOL    HW131235   6.222   2.362   3.554
10112SOL    HW231236   6.129   2.470   3.635
10113SOL     OW31237   5.705   1.102   6.807
10113SOL    HW131238   5.784   1.114   6.868
10113SOL    HW231239   5.646   1.183   6.815
10114SOL     OW31240   4.034   1.489   2.533
10114SOL    HW131241   4.128   1.481   2.567
10114SOL    HW231242   3.989   1.567   2.577
10115SOL     OW31243   3.239   2.111   5.268
10115SOL    HW131244   3.229   2.032   5.207
10115SOL    HW231245   3.221   2.195   5.217
10116SOL     OW31246   6.200   0.626   4.608
10116SOL    HW131247   6.249   0.596   4.690
10116SOL    HW231248   6.255   0.607   4.527
10117SOL     OW31249   6.446   5.341   3.923
10117SOL    HW131250   6.440   5.438   3.947
10117SOL    HW231251   6.500   5.293   3.993
10118SOL     OW31252   3.578   4.952   4.974
10118SOL    HW131253   3.535   4.974   4.886
10118SOL    HW231254   3.677   4.970   4.968
10119SOL     OW31255   0.521   5.253   4.766
10119SOL    HW131256   0.452   5.301   4.712
10119SOL    HW231257   0.529   5.159   4.734
10120SOL     OW31258   2.324   2.732   2.096
10120SOL    HW131259   2.299   2.826   2.118
10120SOL    HW231260   2.397   2.702   2.158
10121SOL     OW31261   6.386   4.211   0.640
10121SOL    HW131262   6.304   4.201   0.584
10121SOL    HW231263   6.372   4.167   0.728
10122SOL     OW31264   0.955   1.336   4.202
10122SOL    HW131265   0.998   1.313   4.114
10122SOL    HW231266   1.010   1.407   4.248
10123SOL     OW31267   6.126   5.542   0.829
10123SOL    HW131268   6.161   5.588   0.747
10123SOL    HW231269   6.082   5.610   0.888
10124SOL     OW31270   1.209   3.834   2.582
10124SOL    HW131271   1.210   3.804   2.486
10124SOL    HW231272   1.278   3.905   2.595
10125SOL     OW31273   1.154   1.869   6.477
10125SOL    HW131274   1.078   1.924   6.442
10125SOL    HW231275   1.237   1.889   6.424
10126SOL     OW31276   6.874   6.893   6.685
10126SOL    HW131277   6.921   6.963   6.630
10126SOL    HW231278   6.818   6.836   6.625
10127SOL     OW31279   2.170   5.303   6.370
10127SOL    HW131280   2.255   5.267   6.408
10127SOL    HW231281   2.160   5.399   6.396
10128SOL     OW31282   3.308   0.484   6.957
10128SOL    HW131283   3.384   0.510   7.015
10128SOL    HW231284   3.235   0.444   7.013
10129SOL     OW31285   6.026   1.496   3.931
10129SOL    HW131286   6.028   1.513   4.029
10129SOL    HW231287   5.983   1.573   3.884
10130SOL     OW31288   1.611   2.352   2.835
10130SOL    HW131289   1.514   2.361   2.854
10130SOL    HW231290   1.658   2.437   2.860
10131SOL     OW31291   1.872   0.680   4.441
10131SOL    HW131292   1.957   0.676   4.494
10131SOL    HW231293   1.842   0.775   4.434
10132SOL     OW31294   0.076   0.584   2.751
10132SOL    HW131295   0.017   0.648   2.801
10132SOL    HW231296   0.019   0.527   2.691
10133SOL     OW31297   5.028   6.467   0.335
10133SOL    HW131298   4.991   6.444   0.425
10133SOL    HW231299   5.064   6.560   0.336
10134SOL     OW31300   5.988   1.097   2.229
10134SOL    HW131301   6.028   1.043   2.303
10134SOL    HW231302   5.890   1.110   2.247
10135SOL     OW31303   5.823   6.860   2.845
10135SOL    HW131304   5.899   6.925   2.839
10135SOL    HW231305   5.763   6.871   2.766
10136SOL     OW31306   4.931   1.334   2.716
10136SOL    HW131307   4.891   1.425   2.725
10136SOL    HW231308   4.914   1.299   2.624
10137SOL     OW31309   6.631   5.568   5.809
10137SOL    HW131310   6.702   5.571   5.880
10137SOL    HW231311   6.546   5.605   5.846
10138SOL     OW31312   6.083   1.319   0.769
10138SOL    HW131313   6.142   1.243   0.797
10138SOL    HW231314   6.033   1.294   0.686
10139SOL     OW31315   3.393   3.582   5.364
10139SOL    HW131316   3.393   3.646   5.288
10139SOL    HW231317   3.488   3.565   5.393
10140SOL     OW31318   0.094   5.729   6.131
10140SOL    HW131319   0.078   5.760   6.037
10140SOL    HW231320   0.142   5.801   6.181
10141SOL     OW31321   2.745   1.647   4.253
10141SOL    HW131322   2.801   1.705   4.194
10141SOL    HW231323   2.725   1.561   4.207
10142SOL     OW31324   6.035   6.413   4.170
10142SOL    HW131325   5.944   6.440   4.138
10142SOL    HW231326   6.104   6.471   4.127
10143SOL     OW31327   5.893   3.150   0.306
10143SOL    HW131328   5.917   3.058   0.338
10143SOL    HW231329   5.843   3.198   0.378
10144SOL     OW31330   3.958   6.403   5.716
10144SOL    HW131331   4.023   6.441   5.651
10144SOL    HW231332   3.984   6.309   5.738
10145SOL     OW31333   5.210   6.386   6.702
10145SOL    HW131334   5.309   6.373   6.710
10145SOL    HW231335   5.192   6.475   6.661
10146SOL     OW31336   0.114   2.323   4.676
10146SOL    HW131337   0.085   2.343   4.583
10146SOL    HW231338   0.123   2.408   4.727
10147SOL     OW31339   4.808   5.632   6.295
10147SOL    HW131340   4.866   5.662   6.371
10147SOL    HW231341   4.806   5.704   6.225
10148SOL     OW31342   0.790   4.516   6.458
10148SOL    HW131343   0.812   4.585   6.527
10148SOL    HW231344   0.817   4.549   6.368
10149SOL     OW31345   4.391   4.138   0.718
10149SOL    HW131346   4.328   4.150   0.795
10149SOL    HW231347   4.473   4.090   0.748
10150SOL     OW31348   4.071   4.141   0.105
10150SOL    HW131349   4.135   4.066   0.095
10150SOL    HW231350   3.989   4.109   0.152
10151SOL     OW31351   6.380   6.740   5.178
10151SOL    HW131352   6.293   6.775   5.213
10151SOL    HW231353   6.428   6.691   5.251
10152SOL     OW31354   5.428   6.625   2.763
10152SOL    HW131355   5.490   6.693   2.725
10152SOL    HW231356   5.340   6.669   2.785
10153SOL     OW31357   5.306   4.282   3.489
10153SOL    HW131358   5.300   4.373   3.530
10153SOL    HW231359   5.295   4.289   3.390
10154SOL     OW31360   5.335   5.342   4.870
10154SOL    HW131361   5.416   5.289   4.894
10154SOL    HW231362   5.322   5.415   4.938
10155SOL     OW31363   4.661   2.225   4.970
10155SOL    HW131364   4.726   2.174   5.026
10155SOL    HW231365   4.608   2.286   5.028
10156SOL     OW31366   5.447   1.576   0.245
10156SOL    HW131367   5.545   1.591   0.255
10156SOL    HW231368   5.399   1.663   0.254
10157SOL     OW31369   0.211   3.009   1.290
10157SOL    HW131370   0.286   2.944   1.279
10157SOL    HW231371   0.216   3.051   1.381
10158SOL     OW31372   5.803   5.772   1.309
10158SOL    HW131373   5.713   5.810   1.290
10158SOL    HW231374   5.863   5.786   1.230
10159SOL     OW31375   3.565   3.208   2.626
10159SOL    HW131376   3.620   3.205   2.543
10159SOL    HW231377   3.515   3.122   2.636
10160SOL     OW31378   2.073   4.928   3.793
10160SOL    HW131379   2.021   4.940   3.877
10160SOL    HW231380   2.071   4.832   3.765
10161SOL     OW31381   4.777   3.802   5.887
10161SOL    HW131382   4.778   3.720   5.831
10161SOL    HW231383   4.760   3.778   5.982
10162SOL     OW31384   1.369   3.400   2.787
10162SOL    HW131385   1.430   3.473   2.756
10162SOL    HW231386   1.412   3.351   2.863
10163SOL     OW31387   1.247   6.120   5.079
10163SOL    HW131388   1.282   6.069   5.157
10163SOL    HW231389   1.225   6.213   5.107
10164SOL     OW31390   0.310   3.389   2.823
10164SOL    HW131391   0.351   3.372   2.912
10164SOL    HW231392   0.276   3.302   2.785
10165SOL     OW31393   6.655   3.370   4.258
10165SOL    HW131394   6.647   3.386   4.357
10165SOL    HW231395   6.706   3.445   4.217
10166SOL     OW31396   0.990   1.359   1.263
10166SOL    HW131397   1.042   1.327   1.184
10166SOL    HW231398   1.053   1.383   1.337
10167SOL     OW31399   1.256   0.077   6.710
10167SOL    HW131400   1.298   0.061   6.799
10167SOL    HW231401   1.314   0.039   6.638
10168SOL     OW31402   6.198   1.050   0.705
10168SOL    HW131403   6.267   1.000   0.653
10168SOL    HW231404   6.148   0.986   0.764
10169SOL     OW31405   6.334   2.391   3.765
10169SOL    HW131406   6.269   2.463   3.789
10169SOL    HW231407   6.427   2.427   3.768
10170SOL     OW31408   6.090   5.734   6.243
10170SOL    HW131409   6.186   5.718   6.269
10170SOL    HW231410   6.066   5.829   6.261
10171SOL     OW31411   2.026   3.762   6.120
10171SOL    HW131412   2.122   3.734   6.113
10171SOL    HW231413   2.001   3.817   6.041
10172SOL     OW31414   6.421   0.609   3.015
10172SOL    HW131415   6.433   0.527   3.071
10172SOL    HW231416   6.476   0.601   2.932
10173SOL     OW31417   3.156   4.611   5.880
10173SOL    HW131418   3.065   4.571   5.889
10173SOL    HW231419   3.197   4.622   5.971
10174SOL     OW31420   5.129   6.070   2.119
10174SOL    HW131421   5.169   6.030   2.037
10174SOL    HW231422   5.178   6.037   2.200
10175SOL     OW31423   0.437   1.574   4.189
10175SOL    HW131424   0.535   1.577   4.210
10175SOL    HW231425   0.393   1.657   4.224
10176SOL     OW31426   6.155   2.577   5.865
10176SOL    HW131427   6.142   2.625   5.779
10176SOL    HW231428   6.242   2.528   5.863
10177SOL     OW31429   2.458   0.694   2.450
10177SOL    HW131430   2.422   0.601   2.461
10177SOL    HW231431   2.402   0.757   2.504
10178SOL     OW31432   1.750   1.075   6.993
10178SOL    HW131433   1.747   1.135   0.049
10178SOL    HW231434   1.794   1.124   6.917
10179SOL     OW31435   0.655   4.314   1.346
10179SOL    HW131436   0.626   4.219   1.363
10179SOL    HW231437   0.698   4.320   1.256
10180SOL     OW31438   3.965   6.698   5.809
10180SOL    HW131439   3.923   6.715   5.898
10180SOL    HW231440   3.953   6.602   5.784
10181SOL     OW31441   6.824   3.479   1.879
10181SOL    HW131442   6.880   3.398   1.862
10181SOL    HW231443   6.881   3.561   1.874
10182SOL     OW31444   5.533   2.025   6.780
10182SOL    HW131445   5.486   2.019   6.868
10182SOL    HW231446   5.472   1.993   6.708
10183SOL     OW31447   6.514   2.770   6.522
10183SOL    HW131448   6.422   2.774   6.561
10183SOL    HW231449   6.576   2.727   6.588
10184SOL     OW31450   5.505   3.379   5.839
10184SOL    HW131451   5.586   3.325   5.818
10184SOL    HW231452   5.533   3.469   5.874
10185SOL     OW31453   4.338   5.503   2.487
10185SOL    HW131454   4.389   5.433   2.537
10185SOL    HW231455   4.242   5.475   2.478
10186SOL     OW31456   4.183   3.358   5.879
10186SOL    HW131457   4.238   3.276   5.890
10186SOL    HW231458   4.150   3.364   5.785
10187SOL     OW31459   2.072   5.130   6.143
10187SOL    HW131460   2.052   5.052   6.201
10187SOL    HW231461   2.061   5.215   6.195
10188SOL     OW31462   3.198   0.100   0.000
10188SOL    HW131463   3.172   0.016   6.976
10188SOL    HW231464   3.282   0.084   0.051
10189SOL     OW31465   0.908   2.101   6.157
10189SOL    HW131466   0.964   2.019   6.164
10189SOL    HW231467   0.813   2.078   6.180
10190SOL     OW31468   3.473   5.104   1.889
10190SOL    HW131469   3.497   5.039   1.962
10190SOL    HW231470   3.374   5.103   1.875
10191SOL     OW31471   5.674   5.695   0.266
10191SOL    HW131472   5.633   5.606   0.246
10191SOL    HW231473   5.618   5.768   0.226
10192SOL     OW31474   2.079   1.903   4.697
10192SOL    HW131475   2.005   1.900   4.764
10192SOL    HW231476   2.125   1.814   4.694
10193SOL     OW31477   3.847   3.993   2.977
10193SOL    HW131478   3.808   4.058   3.043
10193SOL    HW231479   3.899   3.923   3.026
10194SOL     OW31480   3.346   0.130   3.965
10194SOL    HW131481   3.391   0.048   3.927
10194SOL    HW231482   3.304   0.107   4.052
10195SOL     OW31483   4.426   6.928   2.019
10195SOL    HW131484   4.361   7.002   2.036
10195SOL    HW231485   4.441   6.918   1.921
10196SOL     OW31486   5.771   1.655   2.937
10196SOL    HW131487   5.834   1.722   2.899
10196SOL    HW231488   5.748   1.586   2.868
10197SOL     OW31489   6.093   0.891   2.489
10197SOL    HW131490   6.186   0.861   2.467
10197SOL    HW231491   6.089   0.921   2.584
10198SOL     OW31492   2.866   0.127   1.559
10198SOL    HW131493   2.942   0.065   1.579
10198SOL    HW231494   2.781   0.075   1.556
10199SOL     OW31495   0.446   1.438   6.889
10199SOL    HW131496   0.389   1.518   6.874
10199SOL    HW231497   0.510   1.457   6.963
10200SOL     OW31498   5.222   4.352   5.441
10200SOL    HW131499   5.149   4.285   5.451
10200SOL    HW231500   5.299   4.310   5.393
10201SOL     OW31501   0.955   5.255   2.080
10201SOL    HW131502   0.938   5.352   2.097
10201SOL    HW231503   0.950   5.205   2.166
10202SOL     OW31504   0.866   3.257   1.911
10202SOL    HW131505   0.810   3.185   1.951
10202SOL    HW231506   0.943   3.216   1.863
10203SOL     OW31507   2.115   3.094   2.453
10203SOL    HW131508   2.137   3.156   2.529
10203SOL    HW231509   2.076   3.009   2.489
10204SOL     OW31510   3.132   4.738   5.231
10204SOL    HW131511   3.086   4.721   5.144
10204SOL    HW231512   3.067   4.729   5.306
10205SOL     OW31513   5.355   2.236   3.283
10205SOL    HW131514   5.335   2.274   3.192
10205SOL    HW231515   5.283   2.171   3.308
10206SOL     OW31516   5.547   6.631   5.919
10206SOL    HW131517   5.612   6.563   5.953
10206SOL    HW231518   5.544   6.626   5.819
10207SOL     OW31519   3.677   0.986   3.264
10207SOL    HW131520   3.639   1.078   3.273
10207SOL    HW231521   3.642   0.928   3.338
10208SOL     OW31522   6.153   4.223   5.930
10208SOL    HW131523   6.094   4.198   6.007
10208SOL    HW231524   6.245   4.187   5.945
10209SOL     OW31525   6.571   6.771   6.591
10209SOL    HW131526   6.564   6.870   6.582
10209SOL    HW231527   6.549   6.745   6.685
10210SOL     OW31528   5.860   6.109   2.361
10210SOL    HW131529   5.863   6.012   2.384
10210SOL    HW231530   5.900   6.124   2.271
10211SOL     OW31531   3.764   6.196   5.418
10211SOL    HW131532   3.734   6.260   5.489
10211SOL    HW231533   3.852   6.226   5.381
10212SOL     OW31534   0.360   0.825   4.030
10212SOL    HW131535   0.269   0.799   4.062
10212SOL    HW231536   0.371   0.796   3.935
10213SOL     OW31537   5.932   1.705   3.772
10213SOL    HW131538   5.928   1.646   3.692
10213SOL    HW231539   5.902   1.797   3.747
10214SOL     OW31540   6.375   1.268   2.291
10214SOL    HW131541   6.278   1.291   2.300
10214SOL    HW231542   6.396   1.187   2.346
10215SOL     OW31543   3.512   3.759   6.840
10215SOL    HW131544   3.578   3.745   6.914
10215SOL    HW231545   3.555   3.738   6.752
10216SOL     OW31546   5.665   0.310   1.272
10216SOL    HW131547   5.663   0.410   1.278
10216SOL    HW231548   5.575   0.276   1.249
10217SOL     OW31549   2.308   2.101   4.412
10217SOL    HW131550   2.313   2.001   4.400
10217SOL    HW231551   2.276   2.121   4.504
10218SOL     OW31552   1.699   0.778   0.833
10218SOL    HW131553   1.769   0.709   0.851
10218SOL    HW231554   1.733   0.868   0.861
10219SOL     OW31555   0.851   2.641   1.603
10219SOL    HW131556   0.848   2.544   1.578
10219SOL    HW231557   0.940   2.662   1.643
10220SOL     OW31558   4.335   1.625   1.202
10220SOL    HW131559   4.370   1.653   1.113
10220SOL    HW231560   4.389   1.548   1.237
10221SOL     OW31561   2.717   0.505   5.267
10221SOL    HW131562   2.784   0.432   5.253
10221SOL    HW231563   2.687   0.540   5.178
10222SOL     OW31564   1.270   4.325   5.118
10222SOL    HW131565   1.258   4.287   5.027
10222SOL    HW231566   1.187   4.311   5.172
10223SOL     OW31567   1.626   4.218   0.027
10223SOL    HW131568   1.706   4.273   0.052
10223SOL    HW231569   1.610   4.149   0.097
10224SOL     OW31570   1.054   0.145   4.284
10224SOL    HW131571   1.136   0.091   4.302
10224SOL    HW231572   0.981   0.116   4.346
10225SOL     OW31573   6.841   6.412   5.189
10225SOL    HW131574   6.846   6.333   5.250
10225SOL    HW231575   6.916   6.408   5.123
10226SOL     OW31576   2.062   0.916   6.835
10226SOL    HW131577   2.071   0.946   6.740
10226SOL    HW231578   2.002   0.837   6.839
10227SOL     OW31579   4.742   4.468   0.049
10227SOL    HW131580   4.646   4.480   0.078
10227SOL    HW231581   4.750   4.386   7.018
10228SOL     OW31582   1.465   5.438   3.780
10228SOL    HW131583   1.543   5.425   3.719
10228SOL    HW231584   1.380   5.437   3.727
10229SOL     OW31585   1.271   0.313   3.302
10229SOL    HW131586   1.369   0.321   3.318
10229SOL    HW231587   1.225   0.393   3.339
10230SOL     OW31588   5.988   0.298   3.554
10230SOL    HW131589   5.913   0.354   3.518
10230SOL    HW231590   5.967   0.201   3.540
10231SOL     OW31591   5.476   6.523   4.904
10231SOL    HW131592   5.474   6.458   4.980
10231SOL    HW231593   5.503   6.476   4.820
10232SOL     OW31594   3.609   1.923   4.680
10232SOL    HW131595   3.584   1.914   4.584
10232SOL    HW231596   3.550   1.864   4.735
10233SOL     OW31597   4.641   2.960   5.791
10233SOL    HW131598   4.670   3.001   5.877
10233SOL    HW231599   4.602   2.870   5.808
10234SOL     OW31600   5.711   6.967   0.995
10234SOL    HW131601   5.682   6.948   0.902
10234SOL    HW231602   5.778   0.018   0.994
10235SOL     OW31603   4.604   1.849   0.034
10235SOL    HW131604   4.621   1.921   6.992
10235SOL    HW231605   4.518   1.868   0.082
10236SOL     OW31606   2.077   6.064   1.919
10236SOL    HW131607   2.024   6.097   1.997
10236SOL    HW231608   2.126   6.141   1.877
10237SOL     OW31609   6.161   4.038   2.603
10237SOL    HW131610   6.255   4.003   2.594
10237SOL    HW231611   6.133   4.033   2.699
10238SOL     OW31612   4.326   4.641   5.480
10238SOL    HW131613   4.262   4.567   5.499
10238SOL    HW231614   4.417   4.617   5.516
10239SOL     OW31615   0.444   3.989   5.063
10239SOL    HW131616   0.463   3.896   5.097
10239SOL    HW231617   0.369   3.985   4.996
10240SOL     OW31618   1.058   4.172   3.175
10240SOL    HW131619   1.152   4.158   3.206
10240SOL    HW231620   1.007   4.223   3.245
10241SOL     OW31621   1.016   1.663   2.763
10241SOL    HW131622   1.035   1.717   2.681
10241SOL    HW231623   1.100   1.650   2.815
10242SOL     OW31624   0.062   1.255   6.066
10242SOL    HW131625   0.158   1.282   6.054
10242SOL    HW231626   0.055   1.155   6.063
10243SOL     OW31627   0.884   5.469   1.583
10243SOL    HW131628   0.858   5.399   1.516
10243SOL    HW231629   0.981   5.491   1.571
10244SOL     OW31630   2.432   5.184   0.258
10244SOL    HW131631   2.335   5.169   0.245
10244SOL    HW231632   2.481   5.166   0.173
10245SOL     OW31633   1.389   2.808   6.871
10245SOL    HW131634   1.444   2.751   6.933
10245SOL    HW231635   1.300   2.826   6.913
10246SOL     OW31636   2.953   3.817   4.547
10246SOL    HW131637   2.971   3.829   4.645
10246SOL    HW231638   2.960   3.905   4.501
10247SOL     OW31639   6.805   5.106   6.238
10247SOL    HW131640   6.803   5.203   6.264
10247SOL    HW231641   6.723   5.083   6.185
10248SOL     OW31642   2.395   0.300   1.971
10248SOL    HW131643   2.312   0.274   1.922
10248SOL    HW231644   2.468   0.319   1.906
10249SOL     OW31645   4.540   1.028   5.780
10249SOL    HW131646   4.491   0.987   5.857
10249SOL    HW231647   4.506   0.989   5.694
10250SOL     OW31648   5.850   1.117   1.500
10250SOL    HW131649   5.871   1.208   1.463
10250SOL    HW231650   5.786   1.070   1.439
10251SOL     OW31651   2.864   2.630   6.789
10251SOL    HW131652   2.857   2.575   6.872
10251SOL    HW231653   2.851   2.573   6.708
10252SOL     OW31654   6.394   6.679   0.905
10252SOL    HW131655   6.421   6.682   1.001
10252SOL    HW231656   6.476   6.689   0.848
10253SOL     OW31657   5.038   4.343   0.121
10253SOL    HW131658   5.020   4.399   0.202
10253SOL    HW231659   5.026   4.398   0.039
10254SOL     OW31660   2.737   1.366   5.290
10254SOL    HW131661   2.720   1.461   5.266
10254SOL    HW231662   2.691   1.345   5.377
10255SOL     OW31663   2.220   5.490   2.007
10255SOL    HW131664   2.288   5.450   2.068
10255SOL    HW231665   2.142   5.522   2.061
10256SOL     OW31666   4.523   0.381   0.030
10256SOL    HW131667   4.603   0.433   0.001
10256SOL    HW231668   4.551   0.307   0.090
10257SOL     OW31669   1.368   5.237   6.186
10257SOL    HW131670   1.444   5.229   6.122
10257SOL    HW231671   1.286   5.266   6.137
10258SOL     OW31672   4.348   6.630   3.424
10258SOL    HW131673   4.398   6.630   3.338
10258SOL    HW231674   4.253   6.657   3.408
10259SOL     OW31675   0.443   4.124   4.221
10259SOL    HW131676   0.520   4.178   4.254
10259SOL    HW231677   0.458   4.097   4.126
10260SOL     OW31678   0.706   6.506   2.403
10260SOL    HW131679   0.782   6.570   2.393
10260SOL    HW231680   0.652   6.503   2.319
10261SOL     OW31681   0.393   5.307   1.720
10261SOL    HW131682   0.345   5.299   1.633
10261SOL    HW231683   0.477   5.254   1.717
10262SOL     OW31684   3.031   4.953   4.111
10262SOL    HW131685   2.977   5.037   4.109
10262SOL    HW231686   2.970   4.875   4.127
10263SOL     OW31687   5.281   1.755   6.268
10263SOL    HW131688   5.304   1.659   6.251
10263SOL    HW231689   5.364   1.810   6.269
10264SOL     OW31690   6.069   0.990   6.233
10264SOL    HW131691   6.052   1.088   6.246
10264SOL    HW231692   5.992   0.950   6.183
10265SOL     OW31693   3.669   1.267   3.210
10265SOL    HW131694   3.718   1.336   3.157
10265SOL    HW231695   3.580   1.250   3.169
10266SOL     OW31696   3.244   3.689   6.282
10266SOL    HW131697   3.305   3.687   6.203
10266SOL    HW231698   3.238   3.598   6.322
10267SOL     OW31699   6.928   1.684   6.988
10267SOL    HW131700   6.955   1.589   6.972
10267SOL    HW231701   6.842   1.702   6.941
10268SOL     OW31702   5.481   5.236   1.507
10268SOL    HW131703   5.383   5.251   1.496
10268SOL    HW231704   5.496   5.164   1.575
10269SOL     OW31705   1.840   2.527   6.169
10269SOL    HW131706   1.792   2.614   6.177
10269SOL    HW231707   1.876   2.500   6.259
10270SOL     OW31708   1.944   5.959   0.533
10270SOL    HW131709   1.990   5.908   0.605
10270SOL    HW231710   2.012   5.989   0.466
10271SOL     OW31711   3.923   3.335   1.544
10271SOL    HW131712   3.868   3.346   1.461
10271SOL    HW231713   3.971   3.420   1.564
10272SOL     OW31714   0.488   0.675   4.558
10272SOL    HW131715   0.410   0.713   4.507
10272SOL    HW231716   0.569   0.675   4.499
10273SOL     OW31717   3.714   5.757   4.563
10273SOL    HW131718   3.771   5.772   4.643
10273SOL    HW231719   3.627   5.806   4.574
10274SOL     OW31720   1.115   5.238   5.907
10274SOL    HW131721   1.072   5.221   5.995
10274SOL    HW231722   1.090   5.330   5.876
10275SOL     OW31723   0.951   6.365   2.958
10275SOL    HW131724   1.003   6.281   2.972
10275SOL    HW231725   0.966   6.398   2.864
10276SOL     OW31726   0.063   5.642   5.429
10276SOL    HW131727   0.060   5.545   5.406
10276SOL    HW231728   0.110   5.692   5.357
10277SOL     OW31729   3.283   6.443   4.075
10277SOL    HW131730   3.276   6.504   4.154
10277SOL    HW231731   3.192   6.410   4.050
10278SOL     OW31732   6.268   0.380   6.853
10278SOL    HW131733   6.169   0.390   6.846
10278SOL    HW231734   6.293   0.358   6.947
10279SOL     OW31735   2.749   0.223   4.580
10279SOL    HW131736   2.833   0.275   4.596
10279SOL    HW231737   2.671   0.286   4.576
10280SOL     OW31738   1.709   4.314   0.956
10280SOL    HW131739   1.635   4.300   1.021
10280SOL    HW231740   1.702   4.248   0.882
10281SOL     OW31741   4.523   1.470   2.156
10281SOL    HW131742   4.439   1.522   2.173
10281SOL    HW231743   4.501   1.375   2.137
10282SOL     OW31744   0.794   2.070   4.069
10282SOL    HW131745   0.713   2.037   4.119
10282SOL    HW231746   0.810   2.166   4.091
10283SOL     OW31747   1.063   3.247   0.869
10283SOL    HW131748   1.036   3.159   0.830
10283SOL    HW231749   1.021   3.258   0.959
10284SOL     OW31750   5.378   3.630   4.939
10284SOL    HW131751   5.457   3.597   4.886
10284SOL    HW231752   5.301   3.645   4.877
10285SOL     OW31753   4.808   0.869   0.826
10285SOL    HW131754   4.813   0.776   0.865
10285SOL    HW231755   4.855   0.933   0.888
10286SOL     OW31756   4.140   0.641   2.959
10286SOL    HW131757   4.109   0.733   2.938
10286SOL    HW231758   4.218   0.646   3.023
10287SOL     OW31759   1.725   6.955   1.363
10287SOL    HW131760   1.629   6.972   1.344
10287SOL    HW231761   1.734   6.871   1.417
10288SOL     OW31762   5.522   5.693   3.010
10288SOL    HW131763   5.544   5.595   3.006
10288SOL    HW231764   5.608   5.745   3.009
10289SOL     OW31765   2.998   1.551   1.584
10289SOL    HW131766   2.951   1.637   1.600
10289SOL    HW231767   2.951   1.501   1.511
10290SOL     OW31768   4.133   3.687   2.526
10290SOL    HW131769   4.112   3.780   2.554
10290SOL    HW231770   4.158   3.632   2.605
10291SOL     OW31771   3.455   0.305   3.805
10291SOL    HW131772   3.457   0.405   3.816
10291SOL    HW231773   3.436   0.262   3.894
10292SOL     OW31774   0.190   2.310   5.007
10292SOL    HW131775   0.227   2.370   5.078
10292SOL    HW231776   0.257   2.238   4.987
10293SOL     OW31777   2.132   5.991   3.099
10293SOL    HW131778   2.183   5.943   3.171
10293SOL    HW231779   2.076   6.063   3.141
10294SOL     OW31780   4.550   1.839   2.354
10294SOL    HW131781   4.505   1.926   2.370
10294SOL    HW231782   4.580   1.800   2.441
10295SOL     OW31783   0.097   4.928   5.519
10295SOL    HW131784   0.015   4.913   5.464
10295SOL    HW231785   0.108   4.852   5.583
10296SOL     OW31786   6.378   4.010   6.309
10296SOL    HW131787   6.385   3.956   6.393
10296SOL    HW231788   6.340   3.952   6.236
10297SOL     OW31789   1.375   5.965   3.744
10297SOL    HW131790   1.464   5.929   3.771
10297SOL    HW231791   1.333   6.010   3.822
10298SOL     OW31792   4.844   3.750   3.753
10298SOL    HW131793   4.790   3.792   3.826
10298SOL    HW231794   4.911   3.687   3.793
10299SOL     OW31795   4.222   4.670   3.494
10299SOL    HW131796   4.287   4.727   3.544
10299SOL    HW231797   4.269   4.589   3.458
10300SOL     OW31798   0.945   3.510   1.651
10300SOL    HW131799   0.974   3.417   1.628
10300SOL    HW231800   0.871   3.505   1.719
10301SOL     OW31801   5.756   1.553   3.289
10301SOL    HW131802   5.720   1.462   3.271
10301SOL    HW231803   5.854   1.556   3.269
10302SOL     OW31804   1.506   6.090   2.671
10302SOL    HW131805   1.434   6.157   2.688
10302SOL    HW231806   1.466   6.008   2.630
10303SOL     OW31807   3.740   3.370   1.301
10303SOL    HW131808   3.723   3.467   1.283
10303SOL    HW231809   3.659   3.330   1.345
10304SOL     OW31810   6.979   6.706   3.587
10304SOL    HW131811   0.013   6.644   3.535
10304SOL    HW231812   0.001   6.794   3.599
10305SOL     OW31813   2.086   5.997   0.002
10305SOL    HW131814   2.023   5.937   0.050
10305SOL    HW231815   2.180   5.969   0.020
10306SOL     OW31816   4.501   5.798   0.723
10306SOL    HW131817   4.507   5.708   0.766
10306SOL    HW231818   4.513   5.788   0.624
10307SOL     OW31819   1.163   1.293   6.520
10307SOL    HW131820   1.088   1.351   6.487
10307SOL    HW231821   1.225   1.272   6.444
10308SOL     OW31822   3.383   5.598   4.162
10308SOL    HW131823   3.479   5.618   4.141
10308SOL    HW231824   3.324   5.647   4.099
10309SOL     OW31825   6.025   6.252   3.230
10309SOL    HW131826   6.102   6.223   3.172
10309SOL    HW231827   6.053   6.332   3.283
10310SOL     OW31828   2.878   3.676   2.678
10310SOL    HW131829   2.869   3.607   2.607
10310SOL    HW231830   2.881   3.767   2.637
10311SOL     OW31831   0.514   5.582   0.529
10311SOL    HW131832   0.568   5.570   0.612
10311SOL    HW231833   0.519   5.678   0.499
10312SOL     OW31834   3.300   4.788   0.901
10312SOL    HW131835   3.269   4.837   0.819
10312SOL    HW231836   3.352   4.850   0.959
10313SOL     OW31837   4.731   0.449   2.652
10313SOL    HW131838   4.730   0.460   2.553
10313SOL    HW231839   4.805   0.502   2.692
10314SOL     OW31840   6.412   6.948   0.622
10314SOL    HW131841   6.352   7.005   0.567
10314SOL    HW231842   6.380   6.949   0.717
10315SOL     OW31843   6.434   5.686   5.208
10315SOL    HW131844   6.433   5.609   5.144
10315SOL    HW231845   6.341   5.708   5.236
10316SOL     OW31846   0.785   3.626   4.879
10316SOL    HW131847   0.833   3.539   4.891
10316SOL    HW231848   0.738   3.650   4.964
10317SOL     OW31849   4.486   4.848   6.259
10317SOL    HW131850   4.521   4.769   6.209
10317SOL    HW231851   4.554   4.878   6.326
10318SOL     OW31852   6.290   5.442   1.356
10318SOL    HW131853   6.264   5.434   1.260
10318SOL    HW231854   6.374   5.495   1.364
10319SOL     OW31855   0.009   5.172   3.284
10319SOL    HW131856   0.009   5.184   3.384
10319SOL    HW231857   6.947   5.206   3.247
10320SOL     OW31858   0.359   6.171   0.815
10320SOL    HW131859   0.334   6.074   0.817
10320SOL    HW231860   0.289   6.223   0.767
10321SOL     OW31861   4.496   5.328   4.638
10321SOL    HW131862   4.517   5.382   4.557
10321SOL    HW231863   4.416   5.270   4.621
10322SOL     OW31864   6.803   4.637   0.724
10322SOL    HW131865   6.890   4.609   0.681
10322SOL    HW231866   6.779   4.571   0.795
10323SOL     OW31867   5.512   3.075   6.286
10323SOL    HW131868   5.486   3.086   6.190
10323SOL    HW231869   5.432   3.047   6.339
10324SOL     OW31870   3.195   4.023   3.667
10324SOL    HW131871   3.152   3.981   3.587
10324SOL    HW231872   3.256   4.096   3.636
10325SOL     OW31873   0.362   3.294   3.086
10325SOL    HW131874   0.308   3.325   3.165
10325SOL    HW231875   0.342   3.198   3.067
10326SOL     OW31876   5.036   2.509   0.308
10326SOL    HW131877   4.960   2.445   0.303
10326SOL    HW231878   5.005   2.595   0.350
10327SOL     OW31879   0.487   0.598   2.935
10327SOL    HW131880   0.412   0.546   2.894
10327SOL    HW231881   0.451   0.672   2.990
10328SOL     OW31882   6.355   3.656   2.692
10328SOL    HW131883   6.384   3.703   2.775
10328SOL    HW231884   6.271   3.605   2.710
10329SOL     OW31885   2.884   0.206   2.651
10329SOL    HW131886   2.866   0.248   2.562
10329SOL    HW231887   2.818   0.133   2.668
10330SOL     OW31888   4.005   5.177   2.395
10330SOL    HW131889   3.957   5.097   2.430
10330SOL    HW231890   4.006   5.174   2.295
10331SOL     OW31891   5.343   1.055   3.767
10331SOL    HW131892   5.289   1.132   3.801
10331SOL    HW231893   5.406   1.087   3.696
10332SOL     OW31894   0.032   1.883   0.065
10332SOL    HW131895   7.008   1.811   0.016
10332SOL    HW231896   7.017   1.893   0.156
10333SOL     OW31897   5.999   5.367   4.507
10333SOL    HW131898   5.957   5.315   4.433
10333SOL    HW231899   6.055   5.440   4.469
10334SOL     OW31900   2.035   4.789   4.316
10334SOL    HW131901   1.972   4.766   4.242
10334SOL    HW231902   2.046   4.888   4.321
10335SOL     OW31903   2.391   5.289   1.110
10335SOL    HW131904   2.430   5.209   1.064
10335SOL    HW231905   2.413   5.371   1.058
10336SOL     OW31906   4.233   0.084   2.088
10336SOL    HW131907   4.257   0.166   2.037
10336SOL    HW231908   4.221   0.107   2.185
10337SOL     OW31909   0.389   5.386   5.028
10337SOL    HW131910   0.345   5.308   5.072
10337SOL    HW231911   0.458   5.354   4.963
10338SOL     OW31912   2.600   6.687   2.550
10338SOL    HW131913   2.670   6.662   2.483
10338SOL    HW231914   2.642   6.694   2.641
10339SOL     OW31915   2.762   6.404   1.554
10339SOL    HW131916   2.756   6.306   1.538
10339SOL    HW231917   2.683   6.449   1.512
10340SOL     OW31918   2.325   6.027   0.142
10340SOL    HW131919   2.410   6.027   0.194
10340SOL    HW231920   2.321   6.110   0.085
10341SOL     OW31921   2.442   1.412   2.405
10341SOL    HW131922   2.348   1.446   2.410
10341SOL    HW231923   2.505   1.481   2.441
10342SOL     OW31924   2.136   0.641   5.708
10342SOL    HW131925   2.228   0.651   5.669
10342SOL    HW231926   2.091   0.730   5.710
10343SOL     OW31927   2.787   3.807   5.723
10343SOL    HW131928   2.738   3.752   5.792
10343SOL    HW231929   2.876   3.833   5.760
10344SOL     OW31930   4.104   3.641   4.875
10344SOL    HW131931   4.127   3.551   4.910
10344SOL    HW231932   4.100   3.638   4.775
10345SOL     OW31933   1.915   1.505   6.687
10345SOL    HW131934   1.937   1.601   6.704
10345SOL    HW231935   1.910   1.489   6.588
10346SOL     OW31936   5.037   0.371   6.878
10346SOL    HW131937   5.030   0.280   6.919
10346SOL    HW231938   5.025   0.441   6.948
10347SOL     OW31939   5.137   1.806   1.587
10347SOL    HW131940   5.143   1.724   1.531
10347SOL    HW231941   5.041   1.830   1.601
10348SOL     OW31942   6.310   0.904   6.149
10348SOL    HW131943   6.390   0.905   6.209
10348SOL    HW231944   6.232   0.946   6.196
10349SOL     OW31945   6.403   1.441   1.314
10349SOL    HW131946   6.460   1.391   1.248
10349SOL    HW231947   6.462   1.492   1.376
10350SOL     OW31948   2.793   5.849   4.034
10350SOL    HW131949   2.754   5.931   4.075
10350SOL    HW231950   2.878   5.872   3.987
10351SOL     OW31951   5.657   5.200   5.347
10351SOL    HW131952   5.641   5.299   5.344
10351SOL    HW231953   5.654   5.168   5.441
10352SOL     OW31954   5.829   1.964   0.176
10352SOL    HW131955   5.910   1.993   0.125
10352SOL    HW231956   5.780   1.895   0.123
10353SOL     OW31957   0.237   2.773   3.077
10353SOL    HW131958   0.309   2.747   3.013
10353SOL    HW231959   0.210   2.694   3.131
10354SOL     OW31960   0.489   3.815   0.259
10354SOL    HW131961   0.399   3.782   0.231
10354SOL    HW231962   0.554   3.739   0.256
10355SOL     OW31963   1.352   0.131   0.685
10355SOL    HW131964   1.393   0.045   0.654
10355SOL    HW231965   1.290   0.166   0.615
10356SOL     OW31966   0.020   3.984   6.790
10356SOL    HW131967   0.074   4.029   6.719
10356SOL    HW231968   6.997   4.052   6.846
10357SOL     OW31969   1.036   3.242   6.165
10357SOL    HW131970   0.992   3.188   6.237
10357SOL    HW231971   0.993   3.332   6.160
10358SOL     OW31972   0.671   2.313   2.895
10358SOL    HW131973   0.642   2.274   2.983
10358SOL    HW231974   0.657   2.246   2.822
10359SOL     OW31975   5.164   2.241   2.387
10359SOL    HW131976   5.089   2.245   2.322
10359SOL    HW231977   5.248   2.216   2.340
10360SOL     OW31978   5.773   4.873   2.621
10360SOL    HW131979   5.749   4.912   2.710
10360SOL    HW231980   5.871   4.886   2.604
10361SOL     OW31981   0.487   1.533   1.389
10361SOL    HW131982   0.584   1.559   1.390
10361SOL    HW231983   0.457   1.511   1.481
10362SOL     OW31984   1.700   4.634   2.841
10362SOL    HW131985   1.756   4.649   2.923
10362SOL    HW231986   1.612   4.680   2.851
10363SOL     OW31987   5.238   4.150   0.724
10363SOL    HW131988   5.321   4.200   0.701
10363SOL    HW231989   5.258   4.053   0.730
10364SOL     OW31990   5.298   4.506   2.180
10364SOL    HW131991   5.364   4.577   2.205
10364SOL    HW231992   5.257   4.527   2.091
10365SOL     OW31993   6.219   5.610   0.393
10365SOL    HW131994   6.260   5.571   0.311
10365SOL    HW231995   6.122   5.586   0.398
10366SOL     OW31996   3.549   6.130   2.779
10366SOL    HW131997   3.506   6.202   2.832
10366SOL    HW231998   3.633   6.100   2.825
10367SOL     OW31999   6.103   2.103   0.827
10367SOL    HW132000   6.110   2.141   0.735
10367SOL    HW232001   6.182   2.133   0.881
10368SOL     OW32002   2.079   0.310   2.211
10368SOL    HW132003   2.009   0.346   2.273
10368SOL    HW232004   2.170   0.333   2.246
10369SOL     OW32005   3.059   6.425   5.470
10369SOL    HW132006   3.028   6.447   5.377
10369SOL    HW232007   3.065   6.509   5.524
10370SOL     OW32008   0.266   1.869   4.593
10370SOL    HW132009   0.273   1.774   4.563
10370SOL    HW232010   0.272   1.930   4.514
10371SOL     OW32011   3.350   5.977   3.302
10371SOL    HW132012   3.286   5.933   3.239
10371SOL    HW232013   3.405   5.908   3.348
10372SOL     OW32014   2.594   7.001   1.562
10372SOL    HW132015   2.554   0.035   1.491
10372SOL    HW232016   2.523   6.945   1.605
10373SOL     OW32017   0.071   1.782   5.684
10373SOL    HW132018   0.106   1.876   5.685
10373SOL    HW232019   0.000   1.772   5.754
10374SOL     OW32020   3.315   6.916   4.551
10374SOL    HW132021   3.242   6.848   4.547
10374SOL    HW232022   3.380   6.891   4.622
10375SOL     OW32023   4.107   2.680   0.044
10375SOL    HW132024   4.206   2.668   0.038
10375SOL    HW232025   4.079   2.758   7.013
10376SOL     OW32026   1.878   5.690   2.658
10376SOL    HW132027   1.869   5.591   2.652
10376SOL    HW232028   1.932   5.714   2.739
10377SOL     OW32029   0.284   1.594   2.051
10377SOL    HW132030   0.259   1.508   2.006
10377SOL    HW232031   0.225   1.607   2.131
10378SOL     OW32032   6.975   4.490   5.239
10378SOL    HW132033   0.040   4.466   5.277
10378SOL    HW232034   6.929   4.408   5.204
10379SOL     OW32035   2.361   0.027   4.063
10379SOL    HW132036   2.441   0.013   4.120
10379SOL    HW232037   2.311   0.108   4.095
10380SOL     OW32038   1.544   2.962   4.853
10380SOL    HW132039   1.525   2.895   4.925
10380SOL    HW232040   1.468   2.962   4.787
10381SOL     OW32041   4.421   4.351   1.473
10381SOL    HW132042   4.371   4.357   1.559
10381SOL    HW232043   4.369   4.295   1.408
10382SOL     OW32044   3.323   4.756   1.808
10382SOL    HW132045   3.421   4.743   1.817
10382SOL    HW232046   3.281   4.765   1.899
10383SOL     OW32047   2.385   4.361   0.184
10383SOL    HW132048   2.440   4.303   0.244
10383SOL    HW232049   2.428   4.366   0.093
10384SOL     OW32050   5.972   6.102   0.850
10384SOL    HW132051   6.063   6.071   0.876
10384SOL    HW232052   5.975   6.141   0.758
10385SOL     OW32053   3.691   4.713   6.169
10385SOL    HW132054   3.665   4.617   6.159
10385SOL    HW232055   3.619   4.762   6.217
10386SOL     OW32056   6.717   0.978   6.184
10386SOL    HW132057   6.666   1.060   6.209
10386SOL    HW232058   6.656   0.898   6.189
10387SOL     OW32059   4.869   3.120   2.906
10387SOL    HW132060   4.958   3.099   2.865
10387SOL    HW232061   4.839   3.211   2.877
10388SOL     OW32062   2.919   0.284   5.587
10388SOL    HW132063   2.958   0.290   5.679
10388SOL    HW232064   2.962   0.209   5.537
10389SOL     OW32065   6.785   3.716   0.117
10389SOL    HW132066   6.847   3.774   0.169
10389SOL    HW232067   6.825   3.625   0.107
10390SOL     OW32068   2.294   2.049   0.902
10390SOL    HW132069   2.381   2.026   0.857
10390SOL    HW232070   2.234   1.970   0.899
10391SOL     OW32071   0.482   6.463   3.216
10391SOL    HW132072   0.472   6.552   3.262
10391SOL    HW232073   0.535   6.475   3.132
10392SOL     OW32074   0.114   5.489   4.765
10392SOL    HW132075   0.199   5.436   4.772
10392SOL    HW232076   0.135   5.586   4.757
10393SOL     OW32077   2.186   3.956   4.046
10393SOL    HW132078   2.256   4.020   4.013
10393SOL    HW232079   2.099   4.005   4.058
10394SOL     OW32080   3.045   6.090   4.434
10394SOL    HW132081   3.069   6.103   4.338
10394SOL    HW232082   2.992   6.005   4.443
10395SOL     OW32083   0.080   6.196   1.156
10395SOL    HW132084   0.079   6.135   1.076
10395SOL    HW232085   0.174   6.222   1.177
10396SOL     OW32086   3.285   2.170   3.765
10396SOL    HW132087   3.193   2.204   3.780
10396SOL    HW232088   3.306   2.171   3.667
10397SOL     OW32089   3.240   2.133   2.466
10397SOL    HW132090   3.329   2.099   2.436
10397SOL    HW232091   3.186   2.162   2.386
10398SOL     OW32092   0.288   3.487   1.446
10398SOL    HW132093   0.387   3.495   1.458
10398SOL    HW232094   0.241   3.547   1.511
10399SOL     OW32095   5.838   2.742   2.917
10399SOL    HW132096   5.800   2.680   2.848
10399SOL    HW232097   5.763   2.782   2.970
10400SOL     OW32098   4.004   6.992   0.122
10400SOL    HW132099   3.934   6.950   0.063
10400SOL    HW232100   4.072   6.923   0.147
10401SOL     OW32101   6.122   0.666   3.496
10401SOL    HW132102   6.211   0.686   3.456
10401SOL    HW232103   6.132   0.596   3.567
10402SOL     OW32104   6.464   3.122   4.796
10402SOL    HW132105   6.501   3.215   4.806
10402SOL    HW232106   6.536   3.061   4.762
10403SOL     OW32107   3.680   0.682   4.065
10403SOL    HW132108   3.754   0.616   4.077
10403SOL    HW232109   3.592   0.634   4.063
10404SOL     OW32110   5.549   0.245   4.773
10404SOL    HW132111   5.529   0.155   4.810
10404SOL    HW232112   5.513   0.252   4.680
10405SOL     OW32113   0.383   1.674   6.220
10405SOL    HW132114   0.388   1.762   6.173
10405SOL    HW232115   0.430   1.679   6.308
10406SOL     OW32116   3.429   4.886   2.513
10406SOL    HW132117   3.472   4.976   2.508
10406SOL    HW232118   3.467   4.827   2.442
10407SOL     OW32119   3.307   6.040   5.985
10407SOL    HW132120   3.247   6.021   5.907
10407SOL    HW232121   3.274   5.989   6.065
10408SOL     OW32122   4.661   1.032   0.595
10408SOL    HW132123   4.582   0.972   0.604
10408SOL    HW232124   4.690   1.035   0.499
10409SOL     OW32125   0.338   4.358   1.120
10409SOL    HW132126   0.358   4.262   1.140
10409SOL    HW232127   0.243   4.377   1.144
10410SOL     OW32128   5.684   0.614   6.994
10410SOL    HW132129   5.666   0.710   7.015
10410SOL    HW232130   5.710   0.605   6.898
10411SOL     OW32131   3.551   6.666   3.103
10411SOL    HW132132   3.497   6.734   3.053
10411SOL    HW232133   3.632   6.642   3.050
10412SOL     OW32134   6.404   0.390   0.634
10412SOL    HW132135   6.460   0.392   0.551
10412SOL    HW232136   6.461   0.367   0.712
10413SOL     OW32137   6.015   2.316   1.113
10413SOL    HW132138   5.977   2.325   1.206
10413SOL    HW232139   6.114   2.312   1.118
10414SOL     OW32140   4.189   4.201   5.309
10414SOL    HW132141   4.207   4.267   5.236
10414SOL    HW232142   4.092   4.203   5.332
10415SOL     OW32143   0.501   4.506   5.222
10415SOL    HW132144   0.551   4.588   5.194
10415SOL    HW232145   0.548   4.425   5.188
10416SOL     OW32146   6.298   1.136   3.374
10416SOL    HW132147   6.284   1.180   3.285
10416SOL    HW232148   6.364   1.189   3.427
10417SOL     OW32149   3.744   5.487   4.526
10417SOL    HW132150   3.714   5.435   4.606
10417SOL    HW232151   3.731   5.584   4.543
10418SOL     OW32152   0.054   4.684   6.388
10418SOL    HW132153   0.076   4.757   6.453
10418SOL    HW232154   0.108   4.697   6.305
10419SOL     OW32155   1.171   0.328   6.639
10419SOL    HW132156   1.194   0.248   6.583
10419SOL    HW232157   1.083   0.365   6.610
10420SOL     OW32158   6.740   3.262   2.614
10420SOL    HW132159   6.700   3.179   2.575
10420SOL    HW232160   6.731   3.337   2.548
10421SOL     OW32161   0.346   1.624   3.665
10421SOL    HW132162   0.373   1.529   3.682
10421SOL    HW232163   0.404   1.662   3.592
10422SOL     OW32164   5.941   2.579   5.598
10422SOL    HW132165   5.989   2.497   5.568
10422SOL    HW232166   5.844   2.573   5.574
10423SOL     OW32167   5.235   4.996   4.619
10423SOL    HW132168   5.310   4.951   4.572
10423SOL    HW232169   5.155   4.936   4.620
10424SOL     OW32170   5.506   3.305   0.175
10424SOL    HW132171   5.579   3.291   0.108
10424SOL    HW232172   5.424   3.339   0.129
10425SOL     OW32173   2.059   6.794   1.914
10425SOL    HW132174   2.005   6.730   1.860
10425SOL    HW232175   2.154   6.761   1.919
10426SOL     OW32176   6.638   4.328   0.650
10426SOL    HW132177   6.625   4.427   0.653
10426SOL    HW232178   6.549   4.283   0.656
10427SOL     OW32179   3.855   1.501   0.279
10427SOL    HW132180   3.760   1.521   0.254
10427SOL    HW232181   3.906   1.586   0.287
10428SOL     OW32182   3.048   1.442   4.331
10428SOL    HW132183   3.038   1.488   4.419
10428SOL    HW232184   3.024   1.506   4.257
10429SOL     OW32185   0.461   5.355   1.016
10429SOL    HW132186   0.555   5.336   0.988
10429SOL    HW232187   0.449   5.453   1.030
10430SOL     OW32188   4.606   6.507   3.765
10430SOL    HW132189   4.516   6.492   3.723
10430SOL    HW232190   4.594   6.532   3.861
10431SOL     OW32191   3.291   6.517   4.826
10431SOL    HW132192   3.334   6.499   4.737
10431SOL    HW232193   3.289   6.432   4.879
10432SOL     OW32194   6.148   0.377   4.383
10432SOL    HW132195   6.223   0.443   4.390
10432SOL    HW232196   6.107   0.363   4.474
10433SOL     OW32197   1.988   6.878   1.602
10433SOL    HW132198   1.904   6.852   1.556
10433SOL    HW232199   1.966   6.924   1.689
10434SOL     OW32200   4.070   6.700   3.146
10434SOL    HW132201   4.122   6.617   3.128
10434SOL    HW232202   4.088   6.767   3.075
10435SOL     OW32203   6.697   0.385   4.748
10435SOL    HW132204   6.699   0.346   4.840
10435SOL    HW232205   6.790   0.393   4.713
10436SOL     OW32206   0.449   5.408   5.661
10436SOL    HW132207   0.511   5.442   5.591
10436SOL    HW232208   0.479   5.440   5.751
10437SOL     OW32209   5.871   4.645   5.386
10437SOL    HW132210   5.841   4.624   5.479
10437SOL    HW232211   5.924   4.730   5.385
10438SOL     OW32212   5.290   6.990   6.698
10438SOL    HW132213   5.240   0.052   6.683
10438SOL    HW232214   5.296   6.972   6.796
10439SOL     OW32215   3.796   1.671   5.892
10439SOL    HW132216   3.715   1.637   5.845
10439SOL    HW232217   3.864   1.700   5.825
10440SOL     OW32218   1.698   6.153   0.174
10440SOL    HW132219   1.643   6.236   0.185
10440SOL    HW232220   1.795   6.176   0.181
10441SOL     OW32221   4.767   1.433   0.257
10441SOL    HW132222   4.756   1.445   0.158
10441SOL    HW232223   4.728   1.512   0.305
10442SOL     OW32224   3.127   5.813   5.459
10442SOL    HW132225   3.106   5.718   5.436
10442SOL    HW232226   3.194   5.816   5.533
10443SOL     OW32227   5.226   3.602   4.720
10443SOL    HW132228   5.269   3.687   4.688
10443SOL    HW232229   5.129   3.618   4.737
10444SOL     OW32230   4.048   6.111   4.766
10444SOL    HW132231   3.949   6.114   4.751
10444SOL    HW232232   4.084   6.204   4.769
10445SOL     OW32233   0.468   5.360   3.943
10445SOL    HW132234   0.397   5.366   3.873
10445SOL    HW232235   0.529   5.439   3.935
10446SOL     OW32236   0.938   3.471   6.037
10446SOL    HW132237   0.976   3.559   6.067
10446SOL    HW232238   0.840   3.469   6.055
10447SOL     OW32239   6.613   1.383   1.873
10447SOL    HW132240   6.691   1.444   1.857
10447SOL    HW232241   6.586   1.388   1.969
10448SOL     OW32242   4.140   2.645   1.325
10448SOL    HW132243   4.044   2.656   1.349
10448SOL    HW232244   4.187   2.733   1.334
10449SOL     OW32245   2.560   5.667   4.650
10449SOL    HW132246   2.495   5.591   4.658
10449SOL    HW232247   2.653   5.631   4.644
10450SOL     OW32248   0.363   2.308   0.587
10450SOL    HW132249   0.403   2.232   0.639
10450SOL    HW232250   0.417   2.390   0.602
10451SOL     OW32251   2.745   5.279   2.549
10451SOL    HW132252   2.671   5.319   2.602
10451SOL    HW232253   2.767   5.189   2.585
10452SOL     OW32254   6.595   3.504   3.805
10452SOL    HW132255   6.508   3.461   3.827
10452SOL    HW232256   6.598   3.527   3.708
10453SOL     OW32257   5.336   6.232   1.498
10453SOL    HW132258   5.425   6.188   1.508
10453SOL    HW232259   5.343   6.307   1.432
10454SOL     OW32260   5.340   2.900   1.651
10454SOL    HW132261   5.277   2.977   1.656
10454SOL    HW232262   5.428   2.930   1.615
10455SOL     OW32263   0.761   4.617   3.438
10455SOL    HW132264   0.759   4.695   3.502
10455SOL    HW232265   0.686   4.555   3.458
10456SOL     OW32266   3.140   6.499   1.654
10456SOL    HW132267   3.118   6.409   1.691
10456SOL    HW232268   3.216   6.538   1.706
10457SOL     OW32269   3.365   3.547   2.963
10457SOL    HW132270   3.312   3.579   2.885
10457SOL    HW232271   3.325   3.583   3.047
10458SOL     OW32272   0.347   0.467   0.152
10458SOL    HW132273   0.397   0.419   0.224
10458SOL    HW232274   0.261   0.503   0.190
10459SOL     OW32275   5.367   5.533   3.235
10459SOL    HW132276   5.457   5.572   3.218
10459SOL    HW232277   5.345   5.466   3.164
10460SOL     OW32278   1.750   5.620   1.524
10460SOL    HW132279   1.758   5.524   1.497
10460SOL    HW232280   1.807   5.676   1.463
10461SOL     OW32281   1.166   6.385   5.676
10461SOL    HW132282   1.067   6.382   5.687
10461SOL    HW232283   1.210   6.397   5.765
10462SOL     OW32284   5.410   1.545   2.549
10462SOL    HW132285   5.425   1.450   2.522
10462SOL    HW232286   5.312   1.562   2.559
10463SOL     OW32287   3.660   4.078   5.701
10463SOL    HW132288   3.759   4.086   5.693
10463SOL    HW232289   3.623   4.030   5.621
10464SOL     OW32290   4.729   0.505   0.497
10464SOL    HW132291   4.804   0.568   0.518
10464SOL    HW232292   4.765   0.414   0.481
10465SOL     OW32293   6.489   0.273   0.012
10465SOL    HW132294   6.519   0.187   0.053
10465SOL    HW232295   6.475   0.260   6.938
10466SOL     OW32296   4.792   5.396   4.962
10466SOL    HW132297   4.811   5.438   4.873
10466SOL    HW232298   4.868   5.414   5.025
10467SOL     OW32299   1.577   1.588   5.473
10467SOL    HW132300   1.563   1.677   5.516
10467SOL    HW232301   1.619   1.526   5.539
10468SOL     OW32302   3.768   6.110   3.498
10468SOL    HW132303   3.794   6.013   3.499
10468SOL    HW232304   3.792   6.150   3.409
10469SOL     OW32305   3.452   3.772   0.894
10469SOL    HW132306   3.395   3.844   0.854
10469SOL    HW232307   3.547   3.786   0.866
10470SOL     OW32308   1.894   1.936   3.057
10470SOL    HW132309   1.936   1.999   2.991
10470SOL    HW232310   1.827   1.879   3.010
10471SOL     OW32311   1.915   3.562   1.227
10471SOL    HW132312   1.824   3.551   1.186
10471SOL    HW232313   1.978   3.495   1.188
10472SOL     OW32314   4.076   6.550   1.785
10472SOL    HW132315   4.163   6.596   1.805
10472SOL    HW232316   4.094   6.465   1.734
10473SOL     OW32317   5.687   6.970   0.527
10473SOL    HW132318   5.785   6.957   0.542
10473SOL    HW232319   5.635   6.917   0.594
10474SOL     OW32320   4.332   0.398   4.483
10474SOL    HW132321   4.338   0.322   4.547
10474SOL    HW232322   4.295   0.366   4.396
10475SOL     OW32323   4.979   6.067   0.982
10475SOL    HW132324   4.888   6.098   0.954
10475SOL    HW232325   4.972   5.977   1.025
10476SOL     OW32326   6.791   5.710   6.755
10476SOL    HW132327   6.813   5.797   6.710
10476SOL    HW232328   6.847   5.638   6.716
10477SOL     OW32329   6.110   3.492   5.002
10477SOL    HW132330   6.156   3.547   4.931
10477SOL    HW232331   6.012   3.506   4.996
10478SOL     OW32332   0.629   6.935   6.608
10478SOL    HW132333   0.575   6.860   6.645
10478SOL    HW232334   0.569   7.014   6.593
10479SOL     OW32335   1.218   1.915   1.746
10479SOL    HW132336   1.232   1.998   1.692
10479SOL    HW232337   1.170   1.939   1.831
10480SOL     OW32338   5.291   6.984   1.276
10480SOL    HW132339   5.332   0.050   1.290
10480SOL    HW232340   5.341   6.936   1.204
10481SOL     OW32341   2.400   1.277   4.650
10481SOL    HW132342   2.435   1.360   4.692
10481SOL    HW232343   2.431   1.198   4.703
10482SOL     OW32344   0.780   6.328   4.259
10482SOL    HW132345   0.745   6.397   4.196
10482SOL    HW232346   0.761   6.356   4.353
10483SOL     OW32347   6.499   5.225   0.471
10483SOL    HW132348   6.540   5.316   0.474
10483SOL    HW232349   6.436   5.219   0.394
10484SOL     OW32350   0.027   0.652   1.246
10484SOL    HW132351   7.011   0.665   1.336
10484SOL    HW232352   0.126   0.647   1.254
10485SOL     OW32353   3.965   3.861   2.723
10485SOL    HW132354   3.955   3.925   2.800
10485SOL    HW232355   3.981   3.769   2.757
10486SOL     OW32356   6.488   0.273   5.744
10486SOL    HW132357   6.472   0.176   5.731
10486SOL    HW232358   6.477   0.321   5.657
10487SOL     OW32359   4.802   1.812   1.860
10487SOL    HW132360   4.874   1.872   1.897
10487SOL    HW232361   4.829   1.717   1.870
10488SOL     OW32362   0.622   2.241   5.591
10488SOL    HW132363   0.683   2.315   5.619
10488SOL    HW232364   0.553   2.277   5.528
10489SOL     OW32365   5.998   5.685   3.826
10489SOL    HW132366   5.926   5.664   3.891
10489SOL    HW232367   5.960   5.738   3.750
10490SOL     OW32368   5.663   0.502   0.530
10490SOL    HW132369   5.615   0.466   0.450
10490SOL    HW232370   5.597   0.541   0.594
10491SOL     OW32371   1.899   2.831   6.037
10491SOL    HW132372   1.850   2.917   6.022
10491SOL    HW232373   1.835   2.754   6.029
10492SOL     OW32374   4.512   6.655   0.622
10492SOL    HW132375   4.553   6.707   0.547
10492SOL    HW232376   4.508   6.712   0.704
10493SOL     OW32377   4.001   5.456   1.056
10493SOL    HW132378   4.002   5.382   1.123
10493SOL    HW232379   4.041   5.538   1.097
10494SOL     OW32380   0.822   4.684   5.957
10494SOL    HW132381   0.787   4.598   5.920
10494SOL    HW232382   0.847   4.745   5.882
10495SOL     OW32383   0.003   6.238   6.696
10495SOL    HW132384   6.985   6.316   6.744
10495SOL    HW232385   0.102   6.251   6.692
10496SOL     OW32386   6.860   3.874   5.519
10496SOL    HW132387   6.822   3.878   5.612
10496SOL    HW232388   6.844   3.783   5.481
10497SOL     OW32389   1.962   6.591   1.751
10497SOL    HW132390   2.035   6.610   1.685
10497SOL    HW232391   1.951   6.492   1.761
10498SOL     OW32392   5.366   5.633   0.756
10498SOL    HW132393   5.421   5.658   0.676
10498SOL    HW232394   5.270   5.658   0.740
10499SOL     OW32395   5.854   5.509   1.403
10499SOL    HW132396   5.912   5.517   1.484
10499SOL    HW232397   5.822   5.599   1.375
10500SOL     OW32398   5.285   3.884   4.712
10500SOL    HW132399   5.206   3.946   4.709
10500SOL    HW232400   5.340   3.906   4.793
10501SOL     OW32401   2.830   5.598   2.625
10501SOL    HW132402   2.872   5.542   2.554
10501SOL    HW232403   2.892   5.603   2.704
10502SOL     OW32404   2.944   3.187   2.340
10502SOL    HW132405   2.907   3.233   2.259
10502SOL    HW232406   2.899   3.099   2.352
10503SOL     OW32407   0.067   4.078   6.306
10503SOL    HW132408   0.090   4.003   6.243
10503SOL    HW232409   6.993   4.097   6.300
10504SOL     OW32410   1.915   3.322   6.394
10504SOL    HW132411   1.824   3.316   6.352
10504SOL    HW232412   1.930   3.416   6.427
10505SOL     OW32413   5.686   5.792   2.266
10505SOL    HW132414   5.685   5.693   2.248
10505SOL    HW232415   5.646   5.840   2.188
10506SOL     OW32416   0.578   3.055   0.009
10506SOL    HW132417   0.520   3.042   6.953
10506SOL    HW232418   0.655   2.990   0.006
10507SOL     OW32419   2.689   4.373   0.012
10507SOL    HW132420   2.702   4.392   0.110
10507SOL    HW232421   2.769   4.404   6.985
10508SOL     OW32422   0.775   5.959   4.869
10508SOL    HW132423   0.861   5.964   4.919
10508SOL    HW232424   0.751   5.863   4.853
10509SOL     OW32425   5.003   3.091   4.176
10509SOL    HW132426   5.102   3.098   4.181
10509SOL    HW232427   4.961   3.164   4.230
10510SOL     OW32428   5.055   6.550   5.457
10510SOL    HW132429   5.092   6.465   5.418
10510SOL    HW232430   5.128   6.600   5.503
10511SOL     OW32431   2.657   0.957   2.095
10511SOL    HW132432   2.724   0.884   2.085
10511SOL    HW232433   2.699   1.045   2.070
10512SOL     OW32434   4.216   0.332   5.943
10512SOL    HW132435   4.133   0.325   6.000
10512SOL    HW232436   4.271   0.409   5.976
10513SOL     OW32437   5.914   3.164   2.340
10513SOL    HW132438   5.975   3.112   2.281
10513SOL    HW232439   5.929   3.137   2.435
10514SOL     OW32440   1.793   2.394   1.804
10514SOL    HW132441   1.807   2.483   1.761
10514SOL    HW232442   1.712   2.350   1.765
10515SOL     OW32443   1.991   2.298   4.459
10515SOL    HW132444   1.926   2.361   4.501
10515SOL    HW232445   2.076   2.346   4.439
10516SOL     OW32446   3.278   1.826   0.198
10516SOL    HW132447   3.207   1.806   0.131
10516SOL    HW232448   3.319   1.916   0.177
10517SOL     OW32449   1.695   3.381   3.313
10517SOL    HW132450   1.666   3.472   3.285
10517SOL    HW232451   1.614   3.321   3.320
10518SOL     OW32452   0.477   5.354   2.115
10518SOL    HW132453   0.517   5.349   2.207
10518SOL    HW232454   0.379   5.371   2.122
10519SOL     OW32455   2.872   5.543   1.968
10519SOL    HW132456   2.969   5.567   1.956
10519SOL    HW232457   2.816   5.622   1.945
10520SOL     OW32458   6.625   1.837   6.493
10520SOL    HW132459   6.670   1.758   6.534
10520SOL    HW232460   6.676   1.866   6.412
10521SOL     OW32461   5.976   3.692   1.611
10521SOL    HW132462   6.065   3.726   1.582
10521SOL    HW232463   5.983   3.656   1.704
10522SOL     OW32464   6.531   2.675   2.936
10522SOL    HW132465   6.449   2.727   2.960
10522SOL    HW232466   6.550   2.686   2.839
10523SOL     OW32467   0.649   4.395   4.231
10523SOL    HW132468   0.563   4.418   4.276
10523SOL    HW232469   0.724   4.439   4.280
10524SOL     OW32470   0.329   5.533   3.405
10524SOL    HW132471   0.312   5.482   3.320
10524SOL    HW232472   0.385   5.614   3.385
10525SOL     OW32473   4.544   1.086   4.984
10525SOL    HW132474   4.620   1.151   4.991
10525SOL    HW232475   4.580   0.995   4.964
10526SOL     OW32476   0.489   5.746   0.777
10526SOL    HW132477   0.476   5.769   0.681
10526SOL    HW232478   0.579   5.706   0.790
10527SOL     OW32479   0.386   1.397   5.516
10527SOL    HW132480   0.358   1.468   5.580
10527SOL    HW232481   0.333   1.405   5.432
10528SOL     OW32482   0.559   4.759   6.983
10528SOL    HW132483   0.608   4.672   6.979
10528SOL    HW232484   0.545   4.794   6.890
10529SOL     OW32485   1.821   6.017   6.054
10529SOL    HW132486   1.897   5.953   6.043
10529SOL    HW232487   1.737   5.976   6.019
10530SOL     OW32488   1.402   0.001   5.735
10530SOL    HW132489   1.321   6.984   5.777
10530SOL    HW232490   1.404   7.002   5.638
10531SOL     OW32491   3.201   2.465   5.639
10531SOL    HW132492   3.161   2.389   5.588
10531SOL    HW232493   3.130   2.512   5.691
10532SOL     OW32494   6.162   6.764   6.138
10532SOL    HW132495   6.171   6.705   6.218
10532SOL    HW232496   6.073   6.750   6.096
10533SOL     OW32497   3.441   5.888   4.258
10533SOL    HW132498   3.484   5.812   4.210
10533SOL    HW232499   3.456   5.973   4.208
10534SOL     OW32500   0.640   5.475   2.676
10534SOL    HW132501   0.689   5.469   2.589
10534SOL    HW232502   0.642   5.387   2.722
10535SOL     OW32503   2.822   1.539   2.303
10535SOL    HW132504   2.915   1.574   2.310
10535SOL    HW232505   2.802   1.481   2.382
10536SOL     OW32506   4.564   0.504   3.678
10536SOL    HW132507   4.594   0.437   3.610
10536SOL    HW232508   4.527   0.584   3.631
10537SOL     OW32509   4.677   6.709   3.374
10537SOL    HW132510   4.731   6.729   3.292
10537SOL    HW232511   4.649   6.795   3.417
10538SOL     OW32512   5.975   3.677   2.726
10538SOL    HW132513   6.037   3.755   2.731
10538SOL    HW232514   5.998   3.611   2.798
10539SOL     OW32515   5.892   5.845   2.462
10539SOL    HW132516   5.981   5.828   2.418
10539SOL    HW232517   5.820   5.800   2.409
10540SOL     OW32518   2.030   4.117   6.290
10540SOL    HW132519   2.096   4.129   6.364
10540SOL    HW232520   2.075   4.076   6.211
10541SOL     OW32521   2.984   3.178   4.724
10541SOL    HW132522   2.897   3.145   4.761
10541SOL    HW232523   2.967   3.259   4.668
10542SOL     OW32524   5.812   0.159   4.613
10542SOL    HW132525   5.870   0.141   4.534
10542SOL    HW232526   5.717   0.168   4.583
10543SOL     OW32527   6.802   2.314   5.796
10543SOL    HW132528   6.802   2.215   5.783
10543SOL    HW232529   6.713   2.343   5.832
10544SOL     OW32530   1.100   0.941   4.454
10544SOL    HW132531   1.130   0.985   4.539
10544SOL    HW232532   1.157   0.971   4.378
10545SOL     OW32533   1.659   2.620   2.961
10545SOL    HW132534   1.650   2.703   3.016
10545SOL    HW232535   1.577   2.608   2.905
10546SOL     OW32536   2.911   6.608   0.971
10546SOL    HW132537   2.950   6.595   1.062
10546SOL    HW232538   2.904   6.706   0.951
10547SOL     OW32539   4.812   6.907   4.739
10547SOL    HW132540   4.830   7.005   4.737
10547SOL    HW232541   4.876   6.862   4.801
10548SOL     OW32542   1.029   4.708   4.665
10548SOL    HW132543   1.053   4.746   4.754
10548SOL    HW232544   0.929   4.707   4.655
10549SOL     OW32545   0.329   1.697   0.618
10549SOL    HW132546   0.338   1.713   0.717
10549SOL    HW232547   0.285   1.609   0.602
10550SOL     OW32548   4.015   6.120   2.857
10550SOL    HW132549   4.067   6.098   2.939
10550SOL    HW232550   4.034   6.213   2.828
10551SOL     OW32551   2.821   2.199   5.915
10551SOL    HW132552   2.743   2.199   5.853
10551SOL    HW232553   2.905   2.195   5.862
10552SOL     OW32554   3.431   0.906   4.125
10552SOL    HW132555   3.507   0.888   4.189
10552SOL    HW232556   3.446   0.994   4.081
10553SOL     OW32557   0.193   5.229   0.403
10553SOL    HW132558   0.114   5.222   0.464
10553SOL    HW232559   0.197   5.148   0.345
10554SOL     OW32560   6.520   4.786   2.864
10554SOL    HW132561   6.534   4.847   2.942
10554SOL    HW232562   6.431   4.741   2.873
10555SOL     OW32563   2.959   1.790   0.606
10555SOL    HW132564   2.924   1.705   0.566
10555SOL    HW232565   3.006   1.843   0.536
10556SOL     OW32566   2.335   1.616   2.929
10556SOL    HW132567   2.351   1.519   2.915
10556SOL    HW232568   2.300   1.657   2.844
10557SOL     OW32569   1.829   3.902   4.491
10557SOL    HW132570   1.810   3.803   4.492
10557SOL    HW232571   1.814   3.939   4.582
10558SOL     OW32572   3.305   4.923   5.047
10558SOL    HW132573   3.401   4.906   5.022
10558SOL    HW232574   3.265   4.840   5.085
10559SOL     OW32575   3.560   0.177   0.598
10559SOL    HW132576   3.512   0.091   0.580
10559SOL    HW232577   3.611   0.168   0.684
10560SOL     OW32578   4.441   6.152   1.667
10560SOL    HW132579   4.531   6.174   1.705
10560SOL    HW232580   4.446   6.152   1.567
10561SOL     OW32581   4.965   4.332   1.903
10561SOL    HW132582   5.028   4.410   1.906
10561SOL    HW232583   4.881   4.359   1.858
10562SOL     OW32584   3.266   6.704   1.307
10562SOL    HW132585   3.274   6.736   1.401
10562SOL    HW232586   3.330   6.754   1.249
10563SOL     OW32587   0.400   0.070   1.043
10563SOL    HW132588   0.380   0.146   1.105
10563SOL    HW232589   0.496   0.043   1.053
10564SOL     OW32590   6.781   5.582   4.214
10564SOL    HW132591   6.684   5.562   4.229
10564SOL    HW232592   6.832   5.497   4.200
10565SOL     OW32593   6.528   0.024   5.625
10565SOL    HW132594   6.533   0.082   5.543
10565SOL    HW232595   6.560   6.956   5.603
10566SOL     OW32596   2.764   2.468   6.603
10566SOL    HW132597   2.687   2.517   6.560
10566SOL    HW232598   2.821   2.427   6.532
10567SOL     OW32599   1.802   2.067   6.149
10567SOL    HW132600   1.871   2.099   6.213
10567SOL    HW232601   1.735   2.140   6.133
10568SOL     OW32602   5.345   2.975   6.653
10568SOL    HW132603   5.369   3.021   6.738
10568SOL    HW232604   5.312   3.042   6.587
10569SOL     OW32605   5.546   0.075   2.023
10569SOL    HW132606   5.470   0.084   1.958
10569SOL    HW232607   5.512   0.036   2.108
10570SOL     OW32608   0.828   5.306   3.584
10570SOL    HW132609   0.900   5.237   3.587
10570SOL    HW232610   0.769   5.290   3.505
10571SOL     OW32611   6.793   4.840   6.278
10571SOL    HW132612   6.793   4.937   6.302
10571SOL    HW232613   6.885   4.813   6.250
10572SOL     OW32614   6.387   4.227   1.557
10572SOL    HW132615   6.486   4.243   1.556
10572SOL    HW232616   6.345   4.276   1.481
10573SOL     OW32617   5.678   0.558   4.292
10573SOL    HW132618   5.644   0.632   4.234
10573SOL    HW232619   5.778   0.560   4.294
10574SOL     OW32620   6.271   0.633   3.853
10574SOL    HW132621   6.269   0.568   3.777
10574SOL    HW232622   6.365   0.665   3.867
10575SOL     OW32623   5.351   1.021   3.046
10575SOL    HW132624   5.281   1.086   3.016
10575SOL    HW232625   5.406   1.062   3.118
10576SOL     OW32626   1.954   4.962   3.057
10576SOL    HW132627   1.932   4.930   2.964
10576SOL    HW232628   2.003   4.890   3.106
10577SOL     OW32629   3.188   6.368   0.464
10577SOL    HW132630   3.109   6.339   0.518
10577SOL    HW232631   3.263   6.304   0.478
10578SOL     OW32632   6.117   2.532   3.806
10578SOL    HW132633   6.083   2.626   3.800
10578SOL    HW232634   6.043   2.473   3.839
10579SOL     OW32635   3.010   3.671   1.046
10579SOL    HW132636   3.086   3.710   1.097
10579SOL    HW232637   2.966   3.599   1.100
10580SOL     OW32638   6.572   6.953   6.869
10580SOL    HW132639   6.512   6.963   6.948
10580SOL    HW232640   6.581   6.855   6.847
10581SOL     OW32641   5.286   6.555   3.013
10581SOL    HW132642   5.271   6.459   3.038
10581SOL    HW232643   5.354   6.560   2.940
10582SOL     OW32644   5.539   4.503   6.719
10582SOL    HW132645   5.551   4.582   6.780
10582SOL    HW232646   5.626   4.455   6.708
10583SOL     OW32647   2.888   6.761   3.625
10583SOL    HW132648   2.876   6.789   3.530
10583SOL    HW232649   2.912   6.664   3.629
10584SOL     OW32650   6.467   0.404   5.503
10584SOL    HW132651   6.412   0.485   5.482
10584SOL    HW232652   6.545   0.399   5.441
10585SOL     OW32653   0.275   1.972   6.545
10585SOL    HW132654   0.300   1.928   6.631
10585SOL    HW232655   0.277   2.071   6.556
10586SOL     OW32656   4.743   4.640   5.688
10586SOL    HW132657   4.740   4.553   5.640
10586SOL    HW232658   4.836   4.659   5.719
10587SOL     OW32659   0.575   5.969   5.439
10587SOL    HW132660   0.640   6.040   5.411
10587SOL    HW232661   0.540   5.922   5.358
10588SOL     OW32662   1.522   3.156   3.861
10588SOL    HW132663   1.587   3.081   3.875
10588SOL    HW232664   1.560   3.221   3.794
10589SOL     OW32665   5.523   6.144   4.992
10589SOL    HW132666   5.591   6.128   4.921
10589SOL    HW232667   5.444   6.085   4.976
10590SOL     OW32668   0.625   6.002   1.459
10590SOL    HW132669   0.576   5.931   1.511
10590SOL    HW232670   0.622   5.981   1.362
10591SOL     OW32671   1.016   1.282   1.652
10591SOL    HW132672   1.061   1.288   1.742
10591SOL    HW232673   1.014   1.187   1.622
10592SOL     OW32674   5.883   2.397   4.762
10592SOL    HW132675   5.964   2.356   4.721
10592SOL    HW232676   5.809   2.330   4.764
10593SOL     OW32677   2.702   6.077   0.806
10593SOL    HW132678   2.799   6.055   0.805
10593SOL    HW232679   2.665   6.062   0.898
10594SOL     OW32680   4.121   0.826   3.537
10594SOL    HW132681   4.123   0.745   3.479
10594SOL    HW232682   4.059   0.810   3.614
10595SOL     OW32683   5.880   0.430   0.956
10595SOL    HW132684   5.920   0.428   1.047
10595SOL    HW232685   5.906   0.515   0.910
10596SOL     OW32686   4.977   1.842   0.261
10596SOL    HW132687   4.909   1.902   0.218
10596SOL    HW232688   4.935   1.754   0.281
10597SOL     OW32689   2.426   0.711   5.919
10597SOL    HW132690   2.442   0.643   5.847
10597SOL    HW232691   2.477   0.684   6.002
10598SOL     OW32692   2.292   1.721   5.842
10598SOL    HW132693   2.378   1.723   5.791
10598SOL    HW232694   2.279   1.630   5.881
10599SOL     OW32695   6.446   4.503   5.799
10599SOL    HW132696   6.502   4.458   5.868
10599SOL    HW232697   6.364   4.540   5.841
10600SOL     OW32698   2.974   1.138   1.641
10600SOL    HW132699   3.047   1.086   1.686
10600SOL    HW232700   2.924   1.191   1.709
10601SOL     OW32701   0.319   6.702   5.977
10601SOL    HW132702   0.360   6.753   6.053
10601SOL    HW232703   0.379   6.627   5.951
10602SOL     OW32704   0.456   0.326   6.957
10602SOL    HW132705   0.424   0.383   0.008
10602SOL    HW232706   0.377   0.289   6.907
10603SOL     OW32707   4.309   6.989   1.520
10603SOL    HW132708   4.379   7.024   1.457
10603SOL    HW232709   4.241   6.938   1.468
10604SOL     OW32710   0.129   6.656   4.870
10604SOL    HW132711   0.163   6.579   4.816
10604SOL    HW232712   0.066   6.710   4.815
10605SOL     OW32713   2.242   0.067   0.497
10605SOL    HW132714   2.297   0.138   0.453
10605SOL    HW232715   2.245   7.007   0.442
10606SOL     OW32716   5.980   0.717   1.709
10606SOL    HW132717   5.973   0.618   1.722
10606SOL    HW232718   6.075   0.743   1.695
10607SOL     OW32719   4.292   4.003   6.767
10607SOL    HW132720   4.300   4.024   6.670
10607SOL    HW232721   4.234   3.923   6.779
10608SOL     OW32722   6.581   3.058   2.907
10608SOL    HW132723   6.500   3.095   2.952
10608SOL    HW232724   6.657   3.054   2.973
10609SOL     OW32725   4.152   6.969   0.488
10609SOL    HW132726   4.237   7.002   0.529
10609SOL    HW232727   4.151   6.869   0.488
10610SOL     OW32728   6.757   1.847   4.537
10610SOL    HW132729   6.822   1.841   4.613
10610SOL    HW232730   6.792   1.795   4.459
10611SOL     OW32731   2.661   5.387   4.767
10611SOL    HW132732   2.628   5.297   4.795
10611SOL    HW232733   2.619   5.457   4.824
10612SOL     OW32734   5.425   1.447   3.699
10612SOL    HW132735   5.339   1.398   3.688
10612SOL    HW232736   5.408   1.546   3.693
10613SOL     OW32737   6.071   6.201   4.337
10613SOL    HW132738   6.080   6.112   4.293
10613SOL    HW232739   6.085   6.273   4.269
10614SOL     OW32740   5.157   0.736   5.712
10614SOL    HW132741   5.237   0.757   5.656
10614SOL    HW232742   5.073   0.754   5.660
10615SOL     OW32743   2.692   1.530   5.965
10615SOL    HW132744   2.610   1.582   5.940
10615SOL    HW232745   2.711   1.462   5.894
10616SOL     OW32746   2.958   6.200   6.360
10616SOL    HW132747   2.958   6.293   6.325
10616SOL    HW232748   2.873   6.154   6.335
10617SOL     OW32749   2.488   3.649   1.643
10617SOL    HW132750   2.516   3.741   1.670
10617SOL    HW232751   2.473   3.593   1.725
10618SOL     OW32752   0.304   5.681   5.610
10618SOL    HW132753   0.320   5.630   5.694
10618SOL    HW232754   0.211   5.663   5.577
10619SOL     OW32755   0.302   2.169   2.967
10619SOL    HW132756   0.391   2.159   3.011
10619SOL    HW232757   0.250   2.084   2.979
10620SOL     OW32758   2.033   0.011   5.155
10620SOL    HW132759   1.973   0.009   5.075
10620SOL    HW232760   1.988   6.990   5.232
10621SOL     OW32761   1.043   4.019   2.800
10621SOL    HW132762   1.006   3.950   2.738
10621SOL    HW232763   1.138   4.039   2.774
10622SOL     OW32764   4.175   3.082   0.911
10622SOL    HW132765   4.084   3.091   0.871
10622SOL    HW232766   4.237   3.041   0.844
10623SOL     OW32767   5.783   6.184   5.625
10623SOL    HW132768   5.810   6.217   5.534
10623SOL    HW232769   5.797   6.257   5.692
10624SOL     OW32770   0.792   3.007   4.982
10624SOL    HW132771   0.792   3.104   4.959
10624SOL    HW232772   0.786   2.953   4.898
10625SOL     OW32773   0.233   3.233   6.768
10625SOL    HW132774   0.155   3.172   6.753
10625SOL    HW232775   0.246   3.290   6.687
10626SOL     OW32776   4.051   2.912   1.584
10626SOL    HW132777   4.071   2.987   1.646
10626SOL    HW232778   3.978   2.855   1.623
10627SOL     OW32779   6.200   0.628   6.260
10627SOL    HW132780   6.149   0.679   6.190
10627SOL    HW232781   6.148   0.547   6.287
10628SOL     OW32782   4.147   0.574   0.302
10628SOL    HW132783   4.078   0.513   0.342
10628SOL    HW232784   4.208   0.521   0.243
10629SOL     OW32785   3.341   5.211   5.135
10629SOL    HW132786   3.311   5.119   5.107
10629SOL    HW232787   3.406   5.246   5.068
10630SOL     OW32788   4.723   0.555   2.364
10630SOL    HW132789   4.625   0.576   2.366
10630SOL    HW232790   4.753   0.547   2.269
10631SOL     OW32791   4.581   5.049   6.563
10631SOL    HW132792   4.604   4.984   6.636
10631SOL    HW232793   4.485   5.039   6.540
10632SOL     OW32794   5.051   5.695   3.640
10632SOL    HW132795   5.031   5.774   3.699
10632SOL    HW232796   5.007   5.709   3.551
10633SOL     OW32797   2.185   2.699   1.551
10633SOL    HW132798   2.221   2.692   1.644
10633SOL    HW232799   2.178   2.796   1.525
10634SOL     OW32800   1.396   5.205   0.050
10634SOL    HW132801   1.433   5.239   6.987
10634SOL    HW232802   1.469   5.201   0.118
10635SOL     OW32803   2.056   3.549   0.366
10635SOL    HW132804   2.087   3.522   0.275
10635SOL    HW232805   1.963   3.586   0.359
10636SOL     OW32806   6.484   1.984   0.758
10636SOL    HW132807   6.395   1.939   0.767
10636SOL    HW232808   6.555   1.915   0.747
10637SOL     OW32809   2.533   5.792   6.619
10637SOL    HW132810   2.442   5.780   6.658
10637SOL    HW232811   2.540   5.883   6.578
10638SOL     OW32812   6.727   6.199   2.400
10638SOL    HW132813   6.680   6.287   2.407
10638SOL    HW232814   6.749   6.181   2.304
10639SOL     OW32815   2.151   3.715   1.832
10639SOL    HW132816   2.216   3.774   1.879
10639SOL    HW232817   2.159   3.621   1.867
10640SOL     OW32818   4.395   0.879   3.252
10640SOL    HW132819   4.349   0.945   3.311
10640SOL    HW232820   4.470   0.924   3.203
10641SOL     OW32821   1.220   1.505   3.525
10641SOL    HW132822   1.266   1.435   3.580
10641SOL    HW232823   1.280   1.532   3.450
10642SOL     OW32824   6.137   2.238   0.571
10642SOL    HW132825   6.231   2.272   0.578
10642SOL    HW232826   6.073   2.312   0.590
10643SOL     OW32827   2.175   5.941   4.983
10643SOL    HW132828   2.235   5.916   5.058
10643SOL    HW232829   2.176   6.040   4.970
10644SOL     OW32830   5.958   3.162   1.778
10644SOL    HW132831   5.895   3.220   1.727
10644SOL    HW232832   5.908   3.114   1.851
10645SOL     OW32833   2.261   2.957   3.524
10645SOL    HW132834   2.329   2.884   3.529
10645SOL    HW232835   2.251   2.999   3.614
10646SOL     OW32836   5.553   1.367   5.161
10646SOL    HW132837   5.512   1.277   5.143
10646SOL    HW232838   5.540   1.425   5.081
10647SOL     OW32839   4.308   5.363   5.409
10647SOL    HW132840   4.298   5.340   5.313
10647SOL    HW232841   4.219   5.357   5.455
10648SOL     OW32842   6.055   5.633   5.990
10648SOL    HW132843   6.011   5.543   5.980
10648SOL    HW232844   6.061   5.656   6.086
10649SOL     OW32845   0.927   3.055   3.864
10649SOL    HW132846   0.951   2.960   3.884
10649SOL    HW232847   0.939   3.073   3.766
10650SOL     OW32848   6.758   0.479   4.176
10650SOL    HW132849   6.740   0.413   4.103
10650SOL    HW232850   6.808   0.557   4.139
10651SOL     OW32851   5.361   6.404   6.099
10651SOL    HW132852   5.458   6.409   6.076
10651SOL    HW232853   5.338   6.312   6.130
10652SOL     OW32854   1.964   6.917   6.050
10652SOL    HW132855   2.017   6.909   6.135
10652SOL    HW232856   1.870   6.888   6.066
10653SOL     OW32857   3.763   6.218   4.793
10653SOL    HW132858   3.712   6.267   4.863
10653SOL    HW232859   3.699   6.183   4.724
10654SOL     OW32860   4.633   1.854   4.141
10654SOL    HW132861   4.576   1.906   4.204
10654SOL    HW232862   4.575   1.799   4.081
10655SOL     OW32863   2.085   4.753   1.450
10655SOL    HW132864   2.180   4.761   1.481
10655SOL    HW232865   2.049   4.664   1.475
10656SOL     OW32866   6.168   1.583   2.518
10656SOL    HW132867   6.098   1.640   2.561
10656SOL    HW232868   6.202   1.517   2.585
10657SOL     OW32869   5.954   1.408   4.472
10657SOL    HW132870   5.989   1.364   4.554
10657SOL    HW232871   6.007   1.491   4.454
10658SOL     OW32872   5.735   3.755   5.239
10658SOL    HW132873   5.711   3.846   5.272
10658SOL    HW232874   5.761   3.761   5.142
10659SOL     OW32875   1.383   4.417   1.047
10659SOL    HW132876   1.398   4.385   0.953
10659SOL    HW232877   1.457   4.479   1.073
10660SOL     OW32878   6.234   3.797   5.298
10660SOL    HW132879   6.148   3.788   5.347
10660SOL    HW232880   6.217   3.789   5.199
10661SOL     OW32881   1.431   4.851   0.880
10661SOL    HW132882   1.364   4.833   0.809
10661SOL    HW232883   1.473   4.765   0.908
10662SOL     OW32884   3.732   1.108   2.380
10662SOL    HW132885   3.645   1.142   2.416
10662SOL    HW232886   3.716   1.063   2.292
10663SOL     OW32887   0.543   1.757   3.509
10663SOL    HW132888   0.586   1.836   3.466
10663SOL    HW232889   0.608   1.711   3.569
10664SOL     OW32890   0.602   5.538   4.656
10664SOL    HW132891   0.649   5.452   4.678
10664SOL    HW232892   0.512   5.518   4.618
10665SOL     OW32893   2.201   2.546   6.739
10665SOL    HW132894   2.169   2.616   6.675
10665SOL    HW232895   2.301   2.540   6.733
10666SOL     OW32896   3.463   3.614   1.932
10666SOL    HW132897   3.553   3.657   1.935
10666SOL    HW232898   3.472   3.516   1.951
10667SOL     OW32899   4.697   1.628   3.391
10667SOL    HW132900   4.738   1.602   3.479
10667SOL    HW232901   4.603   1.593   3.386
10668SOL     OW32902   3.331   1.944   5.581
10668SOL    HW132903   3.295   1.973   5.492
10668SOL    HW232904   3.341   1.844   5.582
10669SOL     OW32905   5.818   0.189   0.740
10669SOL    HW132906   5.759   0.123   0.694
10669SOL    HW232907   5.839   0.264   0.677
10670SOL     OW32908   5.497   4.400   4.587
10670SOL    HW132909   5.501   4.312   4.539
10670SOL    HW232910   5.538   4.390   4.678
10671SOL     OW32911   1.040   1.512   4.613
10671SOL    HW132912   1.123   1.466   4.643
10671SOL    HW232913   1.023   1.591   4.672
10672SOL     OW32914   6.258   4.023   1.678
10672SOL    HW132915   6.298   4.099   1.627
10672SOL    HW232916   6.191   4.058   1.743
10673SOL     OW32917   1.606   6.773   0.400
10673SOL    HW132918   1.531   6.722   0.358
10673SOL    HW232919   1.693   6.730   0.377
10674SOL     OW32920   4.124   3.703   4.386
10674SOL    HW132921   4.169   3.614   4.375
10674SOL    HW232922   4.138   3.757   4.303
10675SOL     OW32923   3.201   0.748   6.120
10675SOL    HW132924   3.164   0.801   6.197
10675SOL    HW232925   3.300   0.760   6.116
10676SOL     OW32926   6.620   5.946   4.718
10676SOL    HW132927   6.532   5.906   4.692
10676SOL    HW232928   6.689   5.874   4.724
10677SOL     OW32929   1.273   1.023   1.307
10677SOL    HW132930   1.209   1.057   1.239
10677SOL    HW232931   1.245   0.932   1.337
10678SOL     OW32932   4.116   4.768   3.828
10678SOL    HW132933   4.199   4.818   3.803
10678SOL    HW232934   4.046   4.782   3.758
10679SOL     OW32935   3.929   5.443   6.642
10679SOL    HW132936   3.942   5.419   6.546
10679SOL    HW232937   4.003   5.404   6.697
10680SOL     OW32938   3.573   1.822   3.866
10680SOL    HW132939   3.510   1.761   3.818
10680SOL    HW232940   3.622   1.879   3.799
10681SOL     OW32941   0.110   3.286   0.009
10681SOL    HW132942   0.151   3.300   6.943
10681SOL    HW232943   0.178   3.246   0.071
10682SOL     OW32944   0.205   3.113   5.344
10682SOL    HW132945   0.253   3.073   5.266
10682SOL    HW232946   0.241   3.073   5.429
10683SOL     OW32947   4.404   0.804   3.625
10683SOL    HW132948   4.325   0.819   3.565
10683SOL    HW232949   4.478   0.866   3.599
10684SOL     OW32950   4.390   5.644   1.713
10684SOL    HW132951   4.432   5.694   1.788
10684SOL    HW232952   4.344   5.562   1.749
10685SOL     OW32953   0.165   5.836   0.575
10685SOL    HW132954   0.102   5.914   0.567
10685SOL    HW232955   0.149   5.772   0.500
10686SOL     OW32956   2.007   4.448   6.423
10686SOL    HW132957   1.995   4.547   6.416
10686SOL    HW232958   2.019   4.410   6.331
10687SOL     OW32959   6.607   4.314   4.003
10687SOL    HW132960   6.604   4.235   4.065
10687SOL    HW232961   6.545   4.298   3.926
10688SOL     OW32962   5.307   2.357   2.964
10688SOL    HW132963   5.263   2.406   2.889
10688SOL    HW232964   5.392   2.403   2.989
10689SOL     OW32965   0.006   6.848   1.906
10689SOL    HW132966   0.050   6.767   1.868
10689SOL    HW232967   6.948   6.821   1.956
10690SOL     OW32968   0.404   5.017   3.075
10690SOL    HW132969   0.417   5.052   3.168
10690SOL    HW232970   0.374   5.091   3.015
10691SOL     OW32971   2.015   1.426   1.670
10691SOL    HW132972   1.991   1.479   1.752
10691SOL    HW232973   2.076   1.480   1.613
10692SOL     OW32974   2.556   0.643   4.102
10692SOL    HW132975   2.579   0.558   4.053
10692SOL    HW232976   2.463   0.636   4.137
10693SOL     OW32977   0.903   5.859   1.207
10693SOL    HW132978   0.957   5.777   1.226
10693SOL    HW232979   0.855   5.848   1.120
10694SOL     OW32980   5.440   6.550   6.341
10694SOL    HW132981   5.527   6.516   6.378
10694SOL    HW232982   5.410   6.489   6.268
10695SOL     OW32983   1.249   2.148   1.601
10695SOL    HW132984   1.173   2.131   1.538
10695SOL    HW232985   1.328   2.182   1.550
10696SOL     OW32986   6.666   3.658   4.789
10696SOL    HW132987   6.760   3.632   4.808
10696SOL    HW232988   6.665   3.749   4.748
10697SOL     OW32989   6.842   0.093   5.698
10697SOL    HW132990   6.781   0.128   5.768
10697SOL    HW232991   6.815   0.130   5.609
10698SOL     OW32992   4.869   3.963   6.904
10698SOL    HW132993   4.908   3.979   6.814
10698SOL    HW232994   4.941   3.931   6.966
10699SOL     OW32995   3.944   5.032   1.151
10699SOL    HW132996   4.024   5.070   1.105
10699SOL    HW232997   3.931   4.937   1.122
10700SOL     OW32998   5.493   6.490   0.745
10700SOL    HW132999   5.518   6.533   0.658
10700SOL    HW233000   5.575   6.473   0.799
10701SOL     OW33001   3.005   6.880   6.022
10701SOL    HW133002   3.081   6.934   5.986
10701SOL    HW233003   2.984   6.806   5.959
10702SOL     OW33004   5.218   3.249   2.499
10702SOL    HW133005   5.267   3.313   2.440
10702SOL    HW233006   5.254   3.254   2.592
10703SOL     OW33007   2.497   2.661   5.517
10703SOL    HW133008   2.469   2.707   5.432
10703SOL    HW233009   2.474   2.718   5.595
10704SOL     OW33010   6.911   4.937   2.256
10704SOL    HW133011   6.960   4.894   2.179
10704SOL    HW233012   6.978   4.969   2.323
10705SOL     OW33013   5.993   5.081   1.909
10705SOL    HW133014   6.018   5.136   1.989
10705SOL    HW233015   6.065   5.015   1.890
10706SOL     OW33016   3.502   0.248   2.244
10706SOL    HW133017   3.497   0.148   2.252
10706SOL    HW233018   3.468   0.276   2.154
10707SOL     OW33019   0.795   6.867   3.713
10707SOL    HW133020   0.827   6.890   3.621
10707SOL    HW233021   0.773   6.952   3.762
10708SOL     OW33022   3.746   1.603   1.321
10708SOL    HW133023   3.765   1.558   1.234
10708SOL    HW233024   3.690   1.543   1.378
10709SOL     OW33025   5.210   5.086   4.913
10709SOL    HW133026   5.240   5.182   4.918
10709SOL    HW233027   5.240   5.046   4.827
10710SOL     OW33028   6.048   1.038   3.610
10710SOL    HW133029   5.969   1.028   3.670
10710SOL    HW233030   6.073   1.134   3.602
10711SOL     OW33031   1.955   6.609   3.611
10711SOL    HW133032   2.035   6.667   3.627
10711SOL    HW233033   1.926   6.619   3.516
10712SOL     OW33034   2.963   0.538   2.569
10712SOL    HW133035   3.058   0.560   2.591
10712SOL    HW233036   2.905   0.616   2.592
10713SOL     OW33037   0.826   3.331   0.987
10713SOL    HW133038   0.803   3.427   1.003
10713SOL    HW233039   0.808   3.308   0.891
10714SOL     OW33040   4.579   3.250   5.879
10714SOL    HW133041   4.612   3.213   5.966
10714SOL    HW233042   4.650   3.245   5.810
10715SOL     OW33043   4.491   0.669   2.473
10715SOL    HW133044   4.466   0.586   2.523
10715SOL    HW233045   4.408   0.713   2.438
10716SOL     OW33046   5.903   2.737   3.565
10716SOL    HW133047   5.807   2.710   3.572
10716SOL    HW233048   5.944   2.697   3.483
10717SOL     OW33049   1.786   2.542   1.421
10717SOL    HW133050   1.724   2.467   1.398
10717SOL    HW233051   1.867   2.539   1.362
10718SOL     OW33052   1.053   3.725   0.250
10718SOL    HW133053   0.987   3.795   0.222
10718SOL    HW233054   1.103   3.692   0.170
10719SOL     OW33055   0.037   5.621   2.484
10719SOL    HW133056   0.059   5.526   2.461
10719SOL    HW233057   0.122   5.675   2.484
10720SOL     OW33058   6.733   4.633   5.258
10720SOL    HW133059   6.654   4.581   5.291
10720SOL    HW233060   6.815   4.576   5.261
10721SOL     OW33061   5.066   3.303   5.354
10721SOL    HW133062   5.106   3.213   5.371
10721SOL    HW233063   4.994   3.321   5.421
10722SOL     OW33064   1.393   4.918   0.445
10722SOL    HW133065   1.386   4.872   0.356
10722SOL    HW233066   1.358   5.011   0.437
10723SOL     OW33067   7.016   2.624   6.650
10723SOL    HW133068   0.014   2.629   6.748
10723SOL    HW233069   0.032   2.702   6.603
10724SOL     OW33070   6.302   0.186   6.623
10724SOL    HW133071   6.328   0.261   6.684
10724SOL    HW233072   6.261   0.224   6.540
10725SOL     OW33073   1.684   5.858   5.153
10725SOL    HW133074   1.637   5.832   5.068
10725SOL    HW233075   1.783   5.863   5.136
10726SOL     OW33076   5.623   0.776   4.163
10726SOL    HW133077   5.534   0.772   4.119
10726SOL    HW233078   5.687   0.828   4.107
10727SOL     OW33079   0.266   5.925   5.745
10727SOL    HW133080   0.277   5.847   5.683
10727SOL    HW233081   0.342   5.927   5.810
10728SOL     OW33082   1.472   5.029   6.742
10728SOL    HW133083   1.527   5.001   6.664
10728SOL    HW233084   1.462   4.952   6.805
10729SOL     OW33085   4.661   1.279   2.422
10729SOL    HW133086   4.662   1.199   2.482
10729SOL    HW233087   4.574   1.328   2.434
10730SOL     OW33088   1.193   0.767   1.368
10730SOL    HW133089   1.123   0.705   1.332
10730SOL    HW233090   1.260   0.714   1.420
10731SOL     OW33091   3.379   0.917   0.881
10731SOL    HW133092   3.324   0.833   0.888
10731SOL    HW233093   3.408   0.930   0.786
10732SOL     OW33094   6.311   4.787   4.823
10732SOL    HW133095   6.393   4.779   4.766
10732SOL    HW233096   6.335   4.830   4.910
10733SOL     OW33097   6.941   1.419   6.917
10733SOL    HW133098   6.943   1.413   6.817
10733SOL    HW233099   6.846   1.416   6.948
10734SOL     OW33100   1.020   1.091   0.134
10734SOL    HW133101   0.965   1.096   0.218
10734SOL    HW233102   1.014   0.999   0.096
10735SOL     OW33103   0.093   2.849   2.445
10735SOL    HW133104   0.163   2.914   2.475
10735SOL    HW233105   0.012   2.857   2.504
10736SOL     OW33106   1.183   0.479   3.490
10736SOL    HW133107   1.256   0.499   3.555
10736SOL    HW233108   1.095   0.506   3.530
10737SOL     OW33109   1.372   1.973   0.281
10737SOL    HW133110   1.337   1.907   0.347
10737SOL    HW233111   1.309   1.980   0.204
10738SOL     OW33112   2.311   0.532   2.743
10738SOL    HW133113   2.300   0.629   2.723
10738SOL    HW233114   2.335   0.483   2.659
10739SOL     OW33115   1.581   1.230   1.023
10739SOL    HW133116   1.563   1.310   1.080
10739SOL    HW233117   1.535   1.241   0.935
10740SOL     OW33118   6.963   4.888   4.881
10740SOL    HW133119   6.973   4.803   4.934
10740SOL    HW233120   6.975   4.867   4.784
10741SOL     OW33121   4.501   0.906   1.059
10741SOL    HW133122   4.547   0.819   1.077
10741SOL    HW233123   4.500   0.923   0.960
10742SOL     OW33124   5.506   6.727   1.326
10742SOL    HW133125   5.547   6.813   1.355
10742SOL    HW233126   5.485   6.732   1.228
10743SOL     OW33127   1.187   1.721   5.632
10743SOL    HW133128   1.122   1.735   5.707
10743SOL    HW233129   1.204   1.623   5.620
10744SOL     OW33130   3.239   1.372   0.958
10744SOL    HW133131   3.201   1.282   0.981
10744SOL    HW233132   3.297   1.364   0.877
10745SOL     OW33133   0.427   5.783   6.448
10745SOL    HW133134   0.492   5.831   6.390
10745SOL    HW233135   0.474   5.743   6.527
10746SOL     OW33136   2.758   4.988   1.412
10746SOL    HW133137   2.734   4.932   1.491
10746SOL    HW233138   2.684   4.984   1.345
10747SOL     OW33139   4.374   1.336   4.669
10747SOL    HW133140   4.276   1.347   4.655
10747SOL    HW233141   4.394   1.338   4.767
10748SOL     OW33142   5.564   1.262   0.979
10748SOL    HW133143   5.493   1.214   1.032
10748SOL    HW233144   5.520   1.324   0.914
10749SOL     OW33145   0.129   5.788   3.753
10749SOL    HW133146   0.152   5.696   3.720
10749SOL    HW233147   0.040   5.786   3.797
10750SOL     OW33148   4.520   6.118   4.219
10750SOL    HW133149   4.609   6.091   4.182
10750SOL    HW233150   4.481   6.190   4.163
10751SOL     OW33151   1.829   4.742   4.757
10751SOL    HW133152   1.777   4.670   4.711
10751SOL    HW233153   1.816   4.829   4.708
10752SOL     OW33154   6.195   4.118   5.616
10752SOL    HW133155   6.218   4.214   5.629
10752SOL    HW233156   6.166   4.103   5.521
10753SOL     OW33157   4.998   4.555   4.724
10753SOL    HW133158   4.983   4.612   4.805
10753SOL    HW233159   5.064   4.600   4.663
10754SOL     OW33160   0.656   0.476   3.151
10754SOL    HW133161   0.750   0.461   3.123
10754SOL    HW233162   0.602   0.508   3.073
10755SOL     OW33163   0.126   0.846   0.276
10755SOL    HW133164   0.187   0.838   0.197
10755SOL    HW233165   0.166   0.911   0.341
10756SOL     OW33166   6.563   4.925   6.750
10756SOL    HW133167   6.545   4.917   6.848
10756SOL    HW233168   6.539   4.840   6.703
10757SOL     OW33169   1.585   2.835   0.432
10757SOL    HW133170   1.598   2.868   0.525
10757SOL    HW233171   1.517   2.762   0.432
10758SOL     OW33172   1.071   6.318   4.237
10758SOL    HW133173   1.103   6.231   4.275
10758SOL    HW233174   0.975   6.332   4.262
10759SOL     OW33175   2.151   2.996   1.518
10759SOL    HW133176   2.116   3.071   1.463
10759SOL    HW233177   2.183   3.031   1.607
10760SOL     OW33178   5.560   6.854   2.721
10760SOL    HW133179   5.582   6.887   2.629
10760SOL    HW233180   5.500   6.919   2.766
10761SOL     OW33181   1.046   6.273   6.142
10761SOL    HW133182   1.073   6.347   6.081
10761SOL    HW233183   1.091   6.188   6.115
10762SOL     OW33184   3.220   2.233   4.265
10762SOL    HW133185   3.193   2.241   4.170
10762SOL    HW233186   3.314   2.199   4.270
10763SOL     OW33187   4.898   7.004   3.259
10763SOL    HW133188   4.854   6.919   3.230
10763SOL    HW233189   4.838   0.057   3.237
10764SOL     OW33190   5.066   2.517   6.145
10764SOL    HW133191   5.038   2.606   6.181
10764SOL    HW233192   5.000   2.447   6.174
10765SOL     OW33193   4.997   2.796   1.047
10765SOL    HW133194   4.939   2.861   1.097
10765SOL    HW233195   5.081   2.782   1.099
10766SOL     OW33196   4.588   4.844   0.542
10766SOL    HW133197   4.502   4.892   0.524
10766SOL    HW233198   4.655   4.867   0.472
10767SOL     OW33199   1.815   0.162   0.774
10767SOL    HW133200   1.741   0.201   0.720
10767SOL    HW233201   1.889   0.132   0.714
10768SOL     OW33202   4.890   5.225   1.663
10768SOL    HW133203   4.853   5.174   1.741
10768SOL    HW233204   4.912   5.161   1.589
10769SOL     OW33205   2.329   4.163   5.318
10769SOL    HW133206   2.362   4.089   5.258
10769SOL    HW233207   2.231   4.152   5.335
10770SOL     OW33208   5.545   6.363   4.663
10770SOL    HW133209   5.555   6.264   4.663
10770SOL    HW233210   5.489   6.392   4.586
10771SOL     OW33211   5.333   0.241   3.234
10771SOL    HW133212   5.384   0.161   3.267
10771SOL    HW233213   5.335   0.313   3.304
10772SOL     OW33214   5.974   0.452   3.806
10772SOL    HW133215   6.005   0.383   3.741
10772SOL    HW233216   5.933   0.529   3.757
10773SOL     OW33217   6.037   5.050   5.997
10773SOL    HW133218   5.946   5.052   6.039
10773SOL    HW233219   6.086   5.135   6.018
10774SOL     OW33220   2.533   1.743   5.693
10774SOL    HW133221   2.533   1.843   5.702
10774SOL    HW233222   2.569   1.718   5.603
10775SOL     OW33223   0.451   4.515   2.335
10775SOL    HW133224   0.460   4.418   2.312
10775SOL    HW233225   0.436   4.525   2.434
10776SOL     OW33226   0.567   0.867   6.391
10776SOL    HW133227   0.623   0.949   6.389
10776SOL    HW233228   0.479   0.885   6.346
10777SOL     OW33229   4.179   5.740   1.966
10777SOL    HW133230   4.277   5.725   1.973
10777SOL    HW233231   4.132   5.651   1.959
10778SOL     OW33232   4.952   6.679   4.006
10778SOL    HW133233   4.863   6.724   3.995
10778SOL    HW233234   4.981   6.685   4.102
10779SOL     OW33235   6.656   2.769   3.435
10779SOL    HW133236   6.609   2.744   3.350
10779SOL    HW233237   6.594   2.757   3.512
10780SOL     OW33238   1.665   0.875   4.041
10780SOL    HW133239   1.654   0.928   3.957
10780SOL    HW233240   1.761   0.878   4.070
10781SOL     OW33241   4.343   1.055   4.129
10781SOL    HW133242   4.437   1.082   4.106
10781SOL    HW233243   4.291   1.136   4.155
10782SOL     OW33244   7.014   1.079   2.734
10782SOL    HW133245   0.012   1.131   2.652
10782SOL    HW233246   7.021   0.981   2.716
10783SOL     OW33247   0.603   2.126   2.688
10783SOL    HW133248   0.645   2.100   2.601
10783SOL    HW233249   0.528   2.190   2.671
10784SOL     OW33250   4.029   6.823   3.923
10784SOL    HW133251   3.999   6.733   3.955
10784SOL    HW233252   4.026   6.887   4.000
10785SOL     OW33253   0.501   4.385   0.491
10785SOL    HW133254   0.469   4.479   0.507
10785SOL    HW233255   0.426   4.330   0.457
10786SOL     OW33256   6.416   4.599   3.661
10786SOL    HW133257   6.452   4.540   3.588
10786SOL    HW233258   6.470   4.584   3.744
10787SOL     OW33259   1.489   1.443   5.957
10787SOL    HW133260   1.455   1.524   6.004
10787SOL    HW233261   1.532   1.381   6.023
10788SOL     OW33262   1.852   4.359   0.051
10788SOL    HW133263   1.928   4.355   0.116
10788SOL    HW233264   1.887   4.382   6.985
10789SOL     OW33265   6.384   3.265   6.386
10789SOL    HW133266   6.365   3.185   6.443
10789SOL    HW233267   6.304   3.284   6.328
10790SOL     OW33268   0.490   0.373   1.868
10790SOL    HW133269   0.448   0.286   1.894
10790SOL    HW233270   0.419   0.444   1.864
10791SOL     OW33271   0.106   6.592   1.831
10791SOL    HW133272   0.016   6.566   1.795
10791SOL    HW233273   0.128   6.535   1.910
10792SOL     OW33274   3.319   2.878   5.035
10792SOL    HW133275   3.346   2.785   5.060
10792SOL    HW233276   3.242   2.874   4.972
10793SOL     OW33277   5.978   3.058   5.631
10793SOL    HW133278   6.062   3.099   5.666
10793SOL    HW233279   5.967   2.966   5.668
10794SOL     OW33280   4.134   3.437   4.386
10794SOL    HW133281   4.090   3.381   4.457
10794SOL    HW233282   4.202   3.382   4.337
10795SOL     OW33283   0.167   5.358   2.580
10795SOL    HW133284   0.262   5.329   2.582
10795SOL    HW233285   0.107   5.278   2.586
10796SOL     OW33286   6.732   6.478   5.785
10796SOL    HW133287   6.746   6.493   5.687
10796SOL    HW233288   6.648   6.426   5.800
10797SOL     OW33289   2.879   2.404   1.191
10797SOL    HW133290   2.884   2.371   1.285
10797SOL    HW233291   2.919   2.495   1.185
10798SOL     OW33292   2.986   1.016   0.231
10798SOL    HW133293   3.048   1.033   0.308
10798SOL    HW233294   2.943   0.926   0.241
10799SOL     OW33295   4.054   1.554   2.113
10799SOL    HW133296   4.057   1.475   2.051
10799SOL    HW233297   3.976   1.546   2.175
10800SOL     OW33298   0.618   6.274   5.218
10800SOL    HW133299   0.523   6.253   5.195
10800SOL    HW233300   0.657   6.334   5.148
10801SOL     OW33301   1.147   0.566   0.091
10801SOL    HW133302   1.189   0.563   0.182
10801SOL    HW233303   1.053   0.533   0.097
10802SOL     OW33304   0.283   0.173   2.224
10802SOL    HW133305   0.196   0.133   2.251
10802SOL    HW233306   0.303   0.252   2.281
10803SOL     OW33307   1.759   5.426   5.643
10803SOL    HW133308   1.737   5.406   5.738
10803SOL    HW233309   1.798   5.344   5.600
10804SOL     OW33310   5.990   3.426   2.835
10804SOL    HW133311   5.907   3.386   2.798
10804SOL    HW233312   6.064   3.359   2.831
10805SOL     OW33313   4.643   7.009   5.373
10805SOL    HW133314   4.612   6.915   5.354
10805SOL    HW233315   4.686   0.023   5.290
10806SOL     OW33316   3.899   4.028   6.248
10806SOL    HW133317   3.967   3.987   6.186
10806SOL    HW233318   3.814   3.977   6.242
10807SOL     OW33319   1.858   6.868   3.309
10807SOL    HW133320   1.833   6.775   3.283
10807SOL    HW233321   1.778   6.913   3.349
10808SOL     OW33322   0.386   3.058   6.382
10808SOL    HW133323   0.395   3.036   6.479
10808SOL    HW233324   0.457   3.011   6.330
10809SOL     OW33325   2.224   4.177   3.895
10809SOL    HW133326   2.130   4.194   3.864
10809SOL    HW233327   2.283   4.252   3.865
10810SOL     OW33328   0.124   7.000   4.289
10810SOL    HW133329   0.078   7.024   4.203
10810SOL    HW233330   0.143   6.902   4.290
10811SOL     OW33331   4.546   4.566   5.942
10811SOL    HW133332   4.606   4.636   5.904
10811SOL    HW233333   4.493   4.523   5.869
10812SOL     OW33334   6.876   3.857   0.690
10812SOL    HW133335   6.871   3.824   0.596
10812SOL    HW233336   6.824   3.797   0.750
10813SOL     OW33337   0.790   3.792   5.941
10813SOL    HW133338   0.876   3.742   5.938
10813SOL    HW233339   0.729   3.757   5.870
10814SOL     OW33340   1.794   0.196   6.643
10814SOL    HW133341   1.741   0.116   6.672
10814SOL    HW233342   1.859   0.221   6.714
10815SOL     OW33343   4.826   3.100   3.203
10815SOL    HW133344   4.813   3.101   3.104
10815SOL    HW233345   4.917   3.134   3.225
10816SOL     OW33346   3.059   3.329   2.580
10816SOL    HW133347   3.061   3.426   2.554
10816SOL    HW233348   3.014   3.276   2.508
10817SOL     OW33349   3.748   0.347   3.376
10817SOL    HW133350   3.777   0.429   3.326
10817SOL    HW233351   3.818   0.322   3.442
10818SOL     OW33352   4.600   3.868   5.336
10818SOL    HW133353   4.630   3.831   5.424
10818SOL    HW233354   4.517   3.923   5.348
10819SOL     OW33355   5.934   4.925   6.648
10819SOL    HW133356   5.848   4.876   6.634
10819SOL    HW233357   6.009   4.874   6.606
10820SOL     OW33358   0.228   5.354   4.176
10820SOL    HW133359   0.236   5.402   4.088
10820SOL    HW233360   0.251   5.417   4.250
10821SOL     OW33361   4.434   6.921   3.242
10821SOL    HW133362   4.339   6.922   3.275
10821SOL    HW233363   4.457   6.829   3.212
10822SOL     OW33364   5.992   1.845   2.404
10822SOL    HW133365   5.981   1.936   2.365
10822SOL    HW233366   5.903   1.800   2.410
10823SOL     OW33367   0.899   0.400   2.201
10823SOL    HW133368   0.819   0.419   2.145
10823SOL    HW233369   0.970   0.358   2.145
10824SOL     OW33370   0.272   0.471   2.409
10824SOL    HW133371   0.360   0.463   2.455
10824SOL    HW233372   0.283   0.525   2.325
10825SOL     OW33373   2.224   1.839   0.364
10825SOL    HW133374   2.260   1.821   0.455
10825SOL    HW233375   2.298   1.838   0.297
10826SOL     OW33376   0.980   1.247   2.784
10826SOL    HW133377   0.935   1.217   2.700
10826SOL    HW233378   1.054   1.184   2.806
10827SOL     OW33379   0.475   3.695   4.966
10827SOL    HW133380   0.424   3.632   5.025
10827SOL    HW233381   0.480   3.657   4.874
10828SOL     OW33382   2.097   4.573   1.043
10828SOL    HW133383   2.111   4.554   0.946
10828SOL    HW233384   2.026   4.513   1.079
10829SOL     OW33385   5.314   2.853   0.263
10829SOL    HW133386   5.372   2.776   0.235
10829SOL    HW233387   5.234   2.858   0.203
10830SOL     OW33388   4.376   1.633   2.990
10830SOL    HW133389   4.466   1.592   2.974
10830SOL    HW233390   4.387   1.728   3.018
10831SOL     OW33391   2.945   6.202   1.933
10831SOL    HW133392   2.987   6.121   1.974
10831SOL    HW233393   2.847   6.186   1.922
10832SOL     OW33394   0.082   3.864   6.155
10832SOL    HW133395   0.131   3.780   6.175
10832SOL    HW233396   0.080   3.879   6.056
10833SOL     OW33397   0.424   1.632   1.145
10833SOL    HW133398   0.448   1.727   1.166
10833SOL    HW233399   0.420   1.580   1.230
10834SOL     OW33400   5.991   1.354   0.488
10834SOL    HW133401   5.998   1.309   0.399
10834SOL    HW233402   5.896   1.381   0.503
10835SOL     OW33403   5.979   3.518   0.083
10835SOL    HW133404   6.054   3.461   0.049
10835SOL    HW233405   5.937   3.474   0.162
10836SOL     OW33406   0.560   1.515   3.311
10836SOL    HW133407   0.652   1.514   3.273
10836SOL    HW233408   0.541   1.605   3.351
10837SOL     OW33409   6.871   4.842   1.791
10837SOL    HW133410   6.797   4.907   1.806
10837SOL    HW233411   6.947   4.887   1.745
10838SOL     OW33412   6.385   6.644   3.904
10838SOL    HW133413   6.309   6.705   3.880
10838SOL    HW233414   6.451   6.693   3.960
10839SOL     OW33415   4.139   3.876   1.091
10839SOL    HW133416   4.176   3.791   1.052
10839SOL    HW233417   4.043   3.886   1.065
10840SOL     OW33418   3.303   6.274   2.174
10840SOL    HW133419   3.235   6.347   2.182
10840SOL    HW233420   3.289   6.207   2.248
10841SOL     OW33421   6.020   4.511   4.848
10841SOL    HW133422   6.039   4.563   4.931
10841SOL    HW233423   5.940   4.550   4.801
10842SOL     OW33424   5.001   2.557   1.411
10842SOL    HW133425   4.918   2.543   1.357
10842SOL    HW233426   4.989   2.637   1.470
10843SOL     OW33427   1.514   1.159   1.317
10843SOL    HW133428   1.483   1.240   1.367
10843SOL    HW233429   1.434   1.104   1.291
10844SOL     OW33430   0.291   5.212   2.879
10844SOL    HW133431   0.381   5.243   2.849
10844SOL    HW233432   0.223   5.236   2.810
10845SOL     OW33433   4.024   6.274   5.360
10845SOL    HW133434   4.044   6.234   5.270
10845SOL    HW233435   3.991   6.367   5.348
10846SOL     OW33436   5.411   0.227   6.440
10846SOL    HW133437   5.323   0.273   6.455
10846SOL    HW233438   5.397   0.150   6.378
10847SOL     OW33439   3.338   2.358   7.005
10847SOL    HW133440   3.408   2.287   6.997
10847SOL    HW233441   3.329   2.406   6.918
10848SOL     OW33442   1.123   4.443   0.847
10848SOL    HW133443   1.166   4.356   0.823
10848SOL    HW233444   1.106   4.445   0.945
10849SOL     OW33445   2.607   4.604   4.133
10849SOL    HW133446   2.537   4.545   4.173
10849SOL    HW233447   2.597   4.605   4.034
10850SOL     OW33448   3.486   6.485   6.014
10850SOL    HW133449   3.413   6.417   6.007
10850SOL    HW233450   3.569   6.448   5.973
10851SOL     OW33451   3.248   3.655   0.616
10851SOL    HW133452   3.279   3.562   0.637
10851SOL    HW233453   3.307   3.694   0.544
10852SOL     OW33454   1.233   0.780   6.826
10852SOL    HW133455   1.151   0.749   6.778
10852SOL    HW233456   1.271   0.859   6.779
10853SOL     OW33457   2.444   2.908   5.683
10853SOL    HW133458   2.379   2.880   5.753
10853SOL    HW233459   2.471   3.004   5.699
10854SOL     OW33460   4.581   5.211   5.399
10854SOL    HW133461   4.545   5.118   5.403
10854SOL    HW233462   4.506   5.277   5.412
10855SOL     OW33463   3.984   0.954   6.888
10855SOL    HW133464   4.027   0.884   6.944
10855SOL    HW233465   4.042   0.974   6.809
10856SOL     OW33466   5.631   1.311   0.348
10856SOL    HW133467   5.651   1.287   0.443
10856SOL    HW233468   5.661   1.405   0.330
10857SOL     OW33469   0.976   2.540   2.482
10857SOL    HW133470   0.932   2.457   2.449
10857SOL    HW233471   0.957   2.551   2.579
10858SOL     OW33472   0.713   0.866   0.391
10858SOL    HW133473   0.694   0.822   0.303
10858SOL    HW233474   0.726   0.796   0.461
10859SOL     OW33475   0.806   4.549   4.409
10859SOL    HW133476   0.844   4.500   4.487
10859SOL    HW233477   0.830   4.646   4.415
10860SOL     OW33478   0.506   3.217   4.772
10860SOL    HW133479   0.478   3.271   4.692
10860SOL    HW233480   0.490   3.120   4.753
10861SOL     OW33481   3.576   3.817   3.239
10861SOL    HW133482   3.549   3.823   3.143
10861SOL    HW233483   3.502   3.851   3.297
10862SOL     OW33484   0.990   0.957   5.983
10862SOL    HW133485   1.017   1.046   6.017
10862SOL    HW233486   1.043   0.886   6.028
10863SOL     OW33487   1.734   0.588   4.684
10863SOL    HW133488   1.637   0.613   4.696
10863SOL    HW233489   1.770   0.633   4.603
10864SOL     OW33490   3.091   6.112   6.999
10864SOL    HW133491   3.101   6.148   0.067
10864SOL    HW233492   3.143   6.027   6.990
10865SOL     OW33493   6.524   1.299   0.914
10865SOL    HW133494   6.589   1.344   0.852
10865SOL    HW233495   6.436   1.288   0.867
10866SOL     OW33496   5.267   4.661   0.848
10866SOL    HW133497   5.188   4.601   0.838
10866SOL    HW233498   5.317   4.637   0.930
10867SOL     OW33499   3.332   4.026   0.725
10867SOL    HW133500   3.412   4.041   0.668
10867SOL    HW233501   3.321   4.102   0.789
10868SOL     OW33502   4.841   1.560   3.612
10868SOL    HW133503   4.926   1.609   3.593
10868SOL    HW233504   4.855   1.497   3.689
10869NA      NA33505   6.515   3.025   5.098
10870NA      NA33506   4.468   4.526   5.227
10871NA      NA33507   1.520   2.798   1.670
10872NA      NA33508   5.007   3.660   5.160
10873NA      NA33509   4.080   2.290   5.247
10874NA      NA33510   3.758   4.867   1.804
10875NA      NA33511   6.702   5.109   6.766
10876NA      NA33512   3.355   3.098   4.600
10877NA      NA33513   4.482   5.901   0.027
10878NA      NA33514   4.294   6.498   4.946
10879NA      NA33515   6.372   5.205   2.474
10880NA      NA33516   2.176   0.002   3.665
10881NA      NA33517   4.091   5.966   1.914
10882NA      NA33518   3.377   3.936   2.088
   7.02414   7.02414   7.02414
